Generated by trjconv : CNT in water t= 360.00000
33518
    1C        C    1   2.847   2.774   4.746
    1C        C    2   2.903   2.719   4.864
    1C        C    3   2.843   2.769   4.980
    1C        C    4   2.850   2.776   4.258
    1C        C    5   2.902   2.731   4.382
    1C        C    6   2.846   2.774   4.504
    1C        C    7   3.015   2.643   4.625
    1C        C    8   2.900   2.724   4.625
    1C        C    9   3.080   2.606   4.744
    1C        C   10   3.013   2.631   4.866
    1C        C   11   3.182   2.492   4.977
    1C        C   12   3.063   2.565   4.979
    1C        C   13   2.853   2.777   3.773
    1C        C   14   2.907   2.726   3.894
    1C        C   15   2.852   2.773   4.015
    1C        C   16   3.018   2.642   4.140
    1C        C   17   2.903   2.725   4.138
    1C        C   18   3.079   2.612   4.263
    1C        C   19   3.016   2.648   4.385
    1C        C   20   3.208   2.549   4.504
    1C        C   21   3.079   2.606   4.504
    1C        C   22   3.279   2.530   4.624
    1C        C   23   3.212   2.552   4.746
    1C        C   24   3.414   2.485   4.867
    1C        C   25   3.272   2.506   4.867
    1C        C   26   3.493   2.467   4.981
    1C        C   27   2.856   2.775   3.283
    1C        C   28   2.909   2.728   3.405
    1C        C   29   2.858   2.778   3.527
    1C        C   30   3.022   2.648   3.649
    1C        C   31   2.909   2.732   3.651
    1C        C   32   3.076   2.602   3.772
    1C        C   33   3.017   2.637   3.895
    1C        C   34   3.206   2.544   4.016
    1C        C   35   3.076   2.600   4.018
    1C        C   36   3.275   2.529   4.139
    1C        C   37   3.212   2.565   4.260
    1C        C   38   3.416   2.504   4.381
    1C        C   39   3.278   2.534   4.381
    1C        C   40   3.487   2.494   4.502
    1C        C   41   3.417   2.496   4.625
    1C        C   42   3.630   2.484   4.744
    1C        C   43   3.488   2.484   4.746
    1C        C   44   3.707   2.486   4.863
    1C        C   45   3.632   2.478   4.981
    1C        C   46   2.841   2.753   2.794
    1C        C   47   2.898   2.714   2.918
    1C        C   48   2.846   2.764   3.039
    1C        C   49   3.023   2.644   3.164
    1C        C   50   2.908   2.727   3.161
    1C        C   51   3.079   2.600   3.286
    1C        C   52   3.020   2.639   3.408
    1C        C   53   3.209   2.541   3.529
    1C        C   54   3.083   2.605   3.529
    1C        C   55   3.275   2.522   3.653
    1C        C   56   3.206   2.547   3.774
    1C        C   57   3.415   2.503   3.894
    1C        C   58   3.276   2.528   3.895
    1C        C   59   3.484   2.496   4.017
    1C        C   60   3.413   2.500   4.139
    1C        C   61   3.628   2.490   4.259
    1C        C   62   3.487   2.489   4.259
    1C        C   63   3.700   2.502   4.380
    1C        C   64   3.628   2.498   4.501
    1C        C   65   3.835   2.543   4.622
    1C        C   66   3.700   2.501   4.623
    1C        C   67   3.903   2.565   4.744
    1C        C   68   3.843   2.524   4.865
    1C        C   69   4.052   2.592   4.979
    1C        C   70   3.927   2.529   4.976
    1C        C   71   2.825   2.733   2.307
    1C        C   72   2.883   2.690   2.428
    1C        C   73   2.833   2.745   2.548
    1C        C   74   3.008   2.626   2.676
    1C        C   75   2.893   2.707   2.671
    1C        C   76   3.074   2.596   2.797
    1C        C   77   3.014   2.634   2.919
    1C        C   78   3.205   2.540   3.039
    1C        C   79   3.077   2.599   3.041
    1C        C   80   3.274   2.522   3.161
    1C        C   81   3.208   2.543   3.284
    1C        C   82   3.413   2.490   3.405
    1C        C   83   3.275   2.519   3.406
    1C        C   84   3.484   2.483   3.527
    1C        C   85   3.414   2.497   3.649
    1C        C   86   3.626   2.497   3.768
    1C        C   87   3.485   2.494   3.771
    1C        C   88   3.693   2.508   3.893
    1C        C   89   3.625   2.501   4.016
    1C        C   90   3.832   2.549   4.135
    1C        C   91   3.698   2.505   4.137
    1C        C   92   3.903   2.567   4.256
    1C        C   93   3.837   2.536   4.378
    1C        C   94   4.027   2.631   4.499
    1C        C   95   3.904   2.562   4.500
    1C        C   96   4.090   2.667   4.620
    1C        C   97   4.028   2.632   4.742
    1C        C   98   4.186   2.773   4.862
    1C        C   99   4.101   2.657   4.861
    1C        C  100   4.216   2.844   4.979
    1C        C  101   2.820   2.728   2.070
    1C        C  102   2.990   2.588   2.192
    1C        C  103   2.878   2.677   2.187
    1C        C  104   3.061   2.569   2.314
    1C        C  105   3.001   2.612   2.434
    1C        C  106   3.200   2.534   2.553
    1C        C  107   3.068   2.583   2.555
    1C        C  108   3.272   2.518   2.673
    1C        C  109   3.203   2.539   2.795
    1C        C  110   3.411   2.492   2.915
    1C        C  111   3.272   2.517   2.916
    1C        C  112   3.482   2.483   3.037
    1C        C  113   3.412   2.492   3.159
    1C        C  114   3.623   2.495   3.279
    1C        C  115   3.482   2.487   3.281
    1C        C  116   3.693   2.501   3.402
    1C        C  117   3.625   2.485   3.524
    1C        C  118   3.833   2.535   3.645
    1C        C  119   3.697   2.497   3.645
    1C        C  120   3.895   2.572   3.767
    1C        C  121   3.829   2.545   3.889
    1C        C  122   4.021   2.634   4.008
    1C        C  123   3.896   2.569   4.011
    1C        C  124   4.079   2.676   4.130
    1C        C  125   4.027   2.634   4.255
    1C        C  126   4.188   2.771   4.373
    1C        C  127   4.085   2.674   4.377
    1C        C  128   4.234   2.825   4.495
    1C        C  129   4.188   2.769   4.617
    1C        C  130   4.321   2.936   4.739
    1C        C  131   4.234   2.824   4.739
    1C        C  132   4.355   3.003   4.859
    1C        C  133   4.287   2.963   4.974
    1C        C  134   3.172   2.457   2.086
    1C        C  135   3.044   2.515   2.081
    1C        C  136   3.259   2.471   2.195
    1C        C  137   3.192   2.514   2.311
    1C        C  138   3.403   2.472   2.429
    1C        C  139   3.265   2.500   2.432
    1C        C  140   3.479   2.470   2.548
    1C        C  141   3.409   2.484   2.670
    1C        C  142   3.621   2.492   2.791
    1C        C  143   3.480   2.484   2.792
    1C        C  144   3.691   2.505   2.913
    1C        C  145   3.624   2.483   3.035
    1C        C  146   3.829   2.537   3.156
    1C        C  147   3.695   2.493   3.157
    1C        C  148   3.896   2.563   3.278
    1C        C  149   3.830   2.538   3.400
    1C        C  150   4.020   2.632   3.522
    1C        C  151   3.894   2.569   3.523
    1C        C  152   4.081   2.672   3.644
    1C        C  153   4.021   2.637   3.767
    1C        C  154   4.192   2.766   3.886
    1C        C  155   4.082   2.678   3.888
    1C        C  156   4.242   2.814   4.009
    1C        C  157   4.187   2.767   4.130
    1C        C  158   4.332   2.925   4.250
    1C        C  159   4.243   2.816   4.251
    1C        C  160   4.370   2.987   4.371
    1C        C  161   4.322   2.935   4.494
    1C        C  162   4.428   3.117   4.614
    1C        C  163   4.363   2.992   4.616
    1C        C  164   4.462   3.185   4.733
    1C        C  165   4.432   3.122   4.855
    1C        C  166   4.511   3.322   4.968
    1C        C  167   4.476   3.187   4.971
    1C        C  168   3.476   2.439   2.073
    1C        C  169   3.399   2.455   2.189
    1C        C  170   3.617   2.460   2.306
    1C        C  171   3.475   2.458   2.308
    1C        C  172   3.691   2.482   2.424
    1C        C  173   3.621   2.477   2.546
    1C        C  174   3.825   2.537   2.666
    1C        C  175   3.690   2.495   2.668
    1C        C  176   3.895   2.561   2.787
    1C        C  177   3.828   2.537   2.909
    1C        C  178   4.019   2.625   3.032
    1C        C  179   3.893   2.561   3.032
    1C        C  180   4.081   2.662   3.153
    1C        C  181   4.021   2.628   3.276
    1C        C  182   4.191   2.754   3.397
    1C        C  183   4.080   2.667   3.399
    1C        C  184   4.247   2.801   3.518
    1C        C  185   4.194   2.756   3.641
    1C        C  186   4.333   2.919   3.763
    1C        C  187   4.245   2.809   3.762
    1C        C  188   4.373   2.979   3.885
    1C        C  189   4.331   2.923   4.008
    1C        C  190   4.440   3.109   4.126
    1C        C  191   4.373   2.984   4.128
    1C        C  192   4.466   3.171   4.250
    1C        C  193   4.435   3.112   4.375
    1C        C  194   4.516   3.313   4.491
    1C        C  195   4.469   3.180   4.494
    1C        C  196   4.526   3.389   4.610
    1C        C  197   4.509   3.320   4.731
    1C        C  198   4.554   3.536   4.849
    1C        C  199   4.533   3.394   4.850
    1C        C  200   4.587   3.621   4.960
    1C        C  201   3.614   2.417   2.075
    1C        C  202   3.825   2.519   2.181
    1C        C  203   3.693   2.463   2.185
    1C        C  204   3.895   2.546   2.302
    1C        C  205   3.826   2.523   2.423
    1C        C  206   4.017   2.623   2.541
    1C        C  207   3.892   2.557   2.543
    1C        C  208   4.077   2.660   2.663
    1C        C  209   4.021   2.625   2.788
    1C        C  210   4.194   2.748   2.910
    1C        C  211   4.080   2.664   2.911
    1C        C  212   4.245   2.798   3.031
    1C        C  213   4.193   2.748   3.153
    1C        C  214   4.333   2.910   3.272
    1C        C  215   4.243   2.801   3.274
    1C        C  216   4.366   2.974   3.394
    1C        C  217   4.327   2.918   3.517
    1C        C  218   4.437   3.100   3.638
    1C        C  219   4.371   2.975   3.639
    1C        C  220   4.469   3.166   3.759
    1C        C  221   4.445   3.100   3.882
    1C        C  222   4.505   3.307   4.003
    1C        C  223   4.469   3.170   4.003
    1C        C  224   4.515   3.377   4.125
    1C        C  225   4.505   3.307   4.247
    1C        C  226   4.527   3.520   4.365
    1C        C  227   4.525   3.379   4.367
    1C        C  228   4.510   3.597   4.483
    1C        C  229   4.526   3.530   4.606
    1C        C  230   4.507   3.743   4.727
    1C        C  231   4.536   3.604   4.726
    1C        C  232   4.499   3.821   4.844
    1C        C  233   4.555   3.757   4.955
    1C        C  234   4.013   2.613   2.061
    1C        C  235   3.894   2.542   2.062
    1C        C  236   4.084   2.648   2.177
    1C        C  237   4.023   2.610   2.298
    1C        C  238   4.194   2.739   2.418
    1C        C  239   4.080   2.654   2.419
    1C        C  240   4.243   2.790   2.541
    1C        C  241   4.191   2.744   2.664
    1C        C  242   4.331   2.904   2.783
    1C        C  243   4.242   2.794   2.785
    1C        C  244   4.371   2.963   2.905
    1C        C  245   4.331   2.911   3.030
    1C        C  246   4.443   3.093   3.146
    1C        C  247   4.375   2.969   3.151
    1C        C  248   4.457   3.161   3.269
    1C        C  249   4.430   3.100   3.393
    1C        C  250   4.502   3.300   3.512
    1C        C  251   4.460   3.165   3.515
    1C        C  252   4.508   3.370   3.635
    1C        C  253   4.497   3.304   3.759
    1C        C  254   4.524   3.516   3.877
    1C        C  255   4.516   3.375   3.880
    1C        C  256   4.518   3.588   3.998
    1C        C  257   4.520   3.518   4.121
    1C        C  258   4.487   3.728   4.238
    1C        C  259   4.517   3.590   4.243
    1C        C  260   4.471   3.799   4.359
    1C        C  261   4.484   3.736   4.485
    1C        C  262   4.431   3.942   4.604
    1C        C  263   4.482   3.811   4.605
    1C        C  264   4.398   4.010   4.723
    1C        C  265   4.437   3.948   4.844
    1C        C  266   4.320   4.131   4.959
    1C        C  267   4.394   4.013   4.961
    1C        C  268   4.259   2.782   2.059
    1C        C  269   4.198   2.733   2.174
    1C        C  270   4.341   2.892   2.296
    1C        C  271   4.250   2.782   2.296
    1C        C  272   4.376   2.955   2.418
    1C        C  273   4.335   2.897   2.539
    1C        C  274   4.442   3.083   2.659
    1C        C  275   4.374   2.959   2.660
    1C        C  276   4.475   3.148   2.780
    1C        C  277   4.442   3.086   2.902
    1C        C  278   4.511   3.290   3.023
    1C        C  279   4.472   3.154   3.022
    1C        C  280   4.517   3.363   3.144
    1C        C  281   4.498   3.296   3.267
    1C        C  282   4.515   3.507   3.387
    1C        C  283   4.516   3.366   3.388
    1C        C  284   4.505   3.580   3.508
    1C        C  285   4.511   3.512   3.632
    1C        C  286   4.481   3.722   3.750
    1C        C  287   4.511   3.584   3.753
    1C        C  288   4.467   3.790   3.873
    1C        C  289   4.493   3.727   3.997
    1C        C  290   4.434   3.935   4.117
    1C        C  291   4.475   3.799   4.117
    1C        C  292   4.405   4.000   4.238
    1C        C  293   4.428   3.933   4.361
    1C        C  294   4.334   4.128   4.474
    1C        C  295   4.401   4.004   4.480
    1C        C  296   4.291   4.188   4.594
    1C        C  297   4.329   4.134   4.719
    1C        C  298   4.201   4.311   4.835
    1C        C  299   4.284   4.195   4.839
    1C        C  300   4.170   4.396   4.946
    1C        C  301   4.356   2.882   2.060
    1C        C  302   4.476   3.065   2.179
    1C        C  303   4.397   2.945   2.177
    1C        C  304   4.481   3.144   2.297
    1C        C  305   4.445   3.079   2.417
    1C        C  306   4.509   3.285   2.535
    1C        C  307   4.472   3.148   2.537
    1C        C  308   4.518   3.356   2.657
    1C        C  309   4.511   3.285   2.779
    1C        C  310   4.524   3.499   2.897
    1C        C  311   4.522   3.358   2.900
    1C        C  312   4.518   3.572   3.018
    1C        C  313   4.521   3.504   3.142
    1C        C  314   4.490   3.715   3.263
    1C        C  315   4.512   3.576   3.264
    1C        C  316   4.477   3.788   3.384
    1C        C  317   4.494   3.721   3.506
    1C        C  318   4.423   3.924   3.627
    1C        C  319   4.472   3.791   3.627
    1C        C  320   4.394   3.987   3.750
    1C        C  321   4.427   3.925   3.872
    1C        C  322   4.321   4.110   3.991
    1C        C  323   4.402   3.995   3.993
    1C        C  324   4.280   4.170   4.112
    1C        C  325   4.328   4.119   4.234
    1C        C  326   4.184   4.281   4.352
    1C        C  327   4.285   4.182   4.353
    1C        C  328   4.136   4.335   4.473
    1C        C  329   4.189   4.287   4.594
    1C        C  330   4.024   4.429   4.710
    1C        C  331   4.136   4.342   4.713
    1C        C  332   3.972   4.490   4.827
    1C        C  333   4.054   4.474   4.940
    1C        C  334   4.549   3.265   2.058
    1C        C  335   4.530   3.126   2.061
    1C        C  336   4.541   3.346   2.172
    1C        C  337   4.524   3.279   2.296
    1C        C  338   4.522   3.497   2.413
    1C        C  339   4.525   3.356   2.414
    1C        C  340   4.527   3.570   2.534
    1C        C  341   4.525   3.497   2.654
    1C        C  342   4.499   3.710   2.774
    1C        C  343   4.520   3.570   2.775
    1C        C  344   4.478   3.778   2.895
    1C        C  345   4.490   3.710   3.018
    1C        C  346   4.418   3.912   3.136
    1C        C  347   4.470   3.781   3.139
    1C        C  348   4.388   3.978   3.257
    1C        C  349   4.426   3.920   3.381
    1C        C  350   4.324   4.106   3.503
    1C        C  351   4.399   3.987   3.503
    1C        C  352   4.280   4.165   3.624
    1C        C  353   4.318   4.106   3.746
    1C        C  354   4.178   4.266   3.868
    1C        C  355   4.274   4.163   3.868
    1C        C  356   4.124   4.316   3.988
    1C        C  357   4.180   4.271   4.110
    1C        C  358   4.007   4.397   4.231
    1C        C  359   4.127   4.321   4.230
    1C        C  360   3.951   4.446   4.351
    1C        C  361   4.020   4.416   4.471
    1C        C  362   3.828   4.517   4.591
    1C        C  363   3.954   4.455   4.590
    1C        C  364   3.765   4.551   4.713
    1C        C  365   3.843   4.545   4.831
    1C        C  366   3.631   4.591   4.950
    1C        C  367   3.768   4.569   4.947
    1C        C  368   4.521   3.563   2.052
    1C        C  369   4.525   3.486   2.170
    1C        C  370   4.500   3.703   2.287
    1C        C  371   4.514   3.562   2.288
    1C        C  372   4.484   3.777   2.406
    1C        C  373   4.501   3.709   2.529
    1C        C  374   4.425   3.907   2.646
    1C        C  375   4.478   3.776   2.651
    1C        C  376   4.389   3.970   2.768
    1C        C  377   4.424   3.909   2.891
    1C        C  378   4.313   4.091   3.013
    1C        C  379   4.394   3.975   3.012
    1C        C  380   4.271   4.152   3.133
    1C        C  381   4.314   4.098   3.256
    1C        C  382   4.173   4.252   3.377
    1C        C  383   4.275   4.154   3.380
    1C        C  384   4.120   4.301   3.498
    1C        C  385   4.176   4.260   3.622
    1C        C  386   4.011   4.393   3.742
    1C        C  387   4.127   4.311   3.744
    1C        C  388   3.947   4.431   3.862
    1C        C  389   4.004   4.392   3.985
    1C        C  390   3.818   4.489   4.105
    1C        C  391   3.947   4.432   4.108
    1C        C  392   3.753   4.519   4.227
    1C        C  393   3.822   4.501   4.348
    1C        C  394   3.617   4.554   4.474
    1C        C  395   3.757   4.531   4.470
    1C        C  396   3.547   4.560   4.596
    1C        C  397   3.624   4.564   4.714
    1C        C  398   3.414   4.542   4.841
    1C        C  399   3.552   4.570   4.836
    1C        C  400   3.343   4.510   4.958
    1C        C  401   4.505   3.701   2.050
    1C        C  402   4.445   3.910   2.164
    1C        C  403   4.493   3.777   2.167
    1C        C  404   4.407   3.977   2.282
    1C        C  405   4.434   3.909   2.403
    1C        C  406   4.326   4.094   2.525
    1C        C  407   4.400   3.974   2.524
    1C        C  408   4.278   4.150   2.646
    1C        C  409   4.312   4.088   2.768
    1C        C  410   4.171   4.247   2.889
    1C        C  411   4.272   4.148   2.890
    1C        C  412   4.122   4.299   3.010
    1C        C  413   4.171   4.252   3.134
    1C        C  414   4.000   4.377   3.254
    1C        C  415   4.118   4.300   3.256
    1C        C  416   3.942   4.417   3.377
    1C        C  417   4.003   4.381   3.499
    1C        C  418   3.814   4.476   3.619
    1C        C  419   3.945   4.422   3.621
    1C        C  420   3.745   4.498   3.741
    1C        C  421   3.816   4.482   3.862
    1C        C  422   3.611   4.539   3.986
    1C        C  423   3.750   4.512   3.984
    1C        C  424   3.543   4.545   4.109
    1C        C  425   3.614   4.548   4.231
    1C        C  426   3.403   4.548   4.356
    1C        C  427   3.544   4.557   4.353
    1C        C  428   3.334   4.544   4.480
    1C        C  429   3.406   4.554   4.601
    1C        C  430   3.196   4.519   4.720
    1C        C  431   3.336   4.545   4.723
    1C        C  432   3.130   4.481   4.840
    1C        C  433   3.206   4.488   4.958
    1C        C  434   4.384   4.120   2.051
    1C        C  435   4.452   3.997   2.055
    1C        C  436   4.303   4.163   2.160
    1C        C  437   4.338   4.101   2.283
    1C        C  438   4.184   4.251   2.402
    1C        C  439   4.285   4.153   2.403
    1C        C  440   4.121   4.294   2.522
    1C        C  441   4.174   4.246   2.644
    1C        C  442   4.004   4.374   2.765
    1C        C  443   4.118   4.290   2.766
    1C        C  444   3.941   4.410   2.886
    1C        C  445   4.004   4.376   3.009
    1C        C  446   3.812   4.469   3.130
    1C        C  447   3.942   4.413   3.130
    1C        C  448   3.745   4.494   3.252
    1C        C  449   3.811   4.469   3.374
    1C        C  450   3.608   4.523   3.496
    1C        C  451   3.747   4.497   3.497
    1C        C  452   3.540   4.539   3.619
    1C        C  453   3.609   4.536   3.742
    1C        C  454   3.398   4.543   3.863
    1C        C  455   3.539   4.545   3.864
    1C        C  456   3.329   4.539   3.987
    1C        C  457   3.401   4.542   4.108
    1C        C  458   3.197   4.505   4.236
    1C        C  459   3.335   4.536   4.233
    1C        C  460   3.131   4.477   4.358
    1C        C  461   3.198   4.508   4.478
    1C        C  462   3.000   4.429   4.604
    1C        C  463   3.128   4.489   4.600
    1C        C  464   2.928   4.406   4.723
    1C        C  465   2.993   4.441   4.844
    1C        C  466   2.801   4.333   4.959
    1C        C  467   2.907   4.426   4.957
    1C        C  468   4.125   4.286   2.041
    1C        C  469   4.185   4.244   2.160
    1C        C  470   4.010   4.374   2.279
    1C        C  471   4.129   4.297   2.280
    1C        C  472   3.941   4.403   2.399
    1C        C  473   4.003   4.372   2.522
    1C        C  474   3.813   4.467   2.643
    1C        C  475   3.940   4.407   2.643
    1C        C  476   3.747   4.496   2.765
    1C        C  477   3.816   4.475   2.886
    1C        C  478   3.608   4.524   3.008
    1C        C  479   3.747   4.497   3.008
    1C        C  480   3.535   4.529   3.129
    1C        C  481   3.607   4.522   3.250
    1C        C  482   3.397   4.536   3.377
    1C        C  483   3.538   4.533   3.373
    1C        C  484   3.325   4.530   3.498
    1C        C  485   3.399   4.542   3.618
    1C        C  486   3.192   4.499   3.746
    1C        C  487   3.329   4.534   3.741
    1C        C  488   3.128   4.476   3.869
    1C        C  489   3.194   4.499   3.992
    1C        C  490   3.005   4.409   4.116
    1C        C  491   3.128   4.478   4.116
    1C        C  492   2.943   4.377   4.238
    1C        C  493   3.006   4.411   4.360
    1C        C  494   2.832   4.296   4.483
    1C        C  495   2.943   4.383   4.483
    1C        C  496   2.775   4.251   4.604
    1C        C  497   2.817   4.317   4.722
    1C        C  498   2.663   4.166   4.842
    1C        C  499   2.754   4.274   4.841
    1C        C  500   2.595   4.119   4.955
    1C        C  501   4.002   4.353   2.042
    1C        C  502   3.816   4.465   2.156
    1C        C  503   3.944   4.405   2.158
    1C        C  504   3.743   4.482   2.276
    1C        C  505   3.810   4.455   2.398
    1C        C  506   3.608   4.518   2.521
    1C        C  507   3.745   4.485   2.520
    1C        C  508   3.534   4.526   2.641
    1C        C  509   3.608   4.518   2.762
    1C        C  510   3.397   4.520   2.885
    1C        C  511   3.539   4.523   2.885
    1C        C  512   3.326   4.515   3.007
    1C        C  513   3.394   4.533   3.130
    1C        C  514   3.190   4.496   3.255
    1C        C  515   3.327   4.531   3.254
    1C        C  516   3.124   4.469   3.377
    1C        C  517   3.188   4.495   3.500
    1C        C  518   3.000   4.408   3.623
    1C        C  519   3.124   4.474   3.624
    1C        C  520   2.944   4.370   3.748
    1C        C  521   3.003   4.410   3.870
    1C        C  522   2.838   4.280   3.995
    1C        C  523   2.950   4.366   3.993
    1C        C  524   2.787   4.236   4.119
    1C        C  525   2.832   4.289   4.242
    1C        C  526   2.687   4.134   4.361
    1C        C  527   2.778   4.243   4.364
    1C        C  528   2.649   4.076   4.484
    1C        C  529   2.687   4.141   4.604
    1C        C  530   2.581   3.959   4.730
    1C        C  531   2.639   4.090   4.726
    1C        C  532   2.538   3.900   4.852
    1C        C  533   2.530   3.995   4.959
    1C        C  534   3.617   4.558   2.039
    1C        C  535   3.747   4.506   2.041
    1C        C  536   3.536   4.537   2.155
    1C        C  537   3.605   4.516   2.277
    1C        C  538   3.395   4.519   2.400
    1C        C  539   3.536   4.523   2.400
    1C        C  540   3.321   4.511   2.521
    1C        C  541   3.393   4.519   2.642
    1C        C  542   3.184   4.489   2.765
    1C        C  543   3.323   4.513   2.765
    1C        C  544   3.116   4.471   2.888
    1C        C  545   3.189   4.483   3.009
    1C        C  546   2.998   4.403   3.131
    1C        C  547   3.124   4.468   3.133
    1C        C  548   2.943   4.364   3.255
    1C        C  549   3.000   4.401   3.379
    1C        C  550   2.832   4.276   3.503
    1C        C  551   2.939   4.368   3.502
    1C        C  552   2.783   4.227   3.627
    1C        C  553   2.840   4.275   3.747
    1C        C  554   2.704   4.118   3.876
    1C        C  555   2.792   4.227   3.872
    1C        C  556   2.658   4.063   3.998
    1C        C  557   2.703   4.123   4.117
    1C        C  558   2.600   3.940   4.247
    1C        C  559   2.656   4.069   4.240
    1C        C  560   2.570   3.876   4.369
    1C        C  561   2.588   3.949   4.489
    1C        C  562   2.526   3.748   4.612
    1C        C  563   2.557   3.886   4.612
    1C        C  564   2.518   3.679   4.735
    1C        C  565   2.521   3.758   4.852
    1C        C  566   2.523   3.549   4.974
    1C        C  567   2.511   3.688   4.973
    1C        C  568   3.330   4.466   2.042
    1C        C  569   3.397   4.505   2.159
    1C        C  570   3.184   4.474   2.281
    1C        C  571   3.322   4.507   2.280
    1C        C  572   3.112   4.459   2.402
    1C        C  573   3.183   4.484   2.522
    1C        C  574   2.991   4.399   2.646
    1C        C  575   3.115   4.467   2.644
    1C        C  576   2.936   4.354   2.768
    1C        C  577   3.000   4.391   2.889
    1C        C  578   2.830   4.267   3.014
    1C        C  579   2.938   4.357   3.011
    1C        C  580   2.786   4.218   3.139
    1C        C  581   2.838   4.270   3.260
    1C        C  582   2.700   4.109   3.384
    1C        C  583   2.784   4.222   3.382
    1C        C  584   2.658   4.056   3.509
    1C        C  585   2.695   4.116   3.631
    1C        C  586   2.598   3.932   3.757
    1C        C  587   2.661   4.059   3.755
    1C        C  588   2.569   3.869   3.880
    1C        C  589   2.600   3.934   4.002
    1C        C  590   2.534   3.736   4.126
    1C        C  591   2.575   3.871   4.126
    1C        C  592   2.521   3.670   4.250
    1C        C  593   2.528   3.741   4.372
    1C        C  594   2.504   3.531   4.496
    1C        C  595   2.513   3.672   4.494
    1C        C  596   2.513   3.461   4.619
    1C        C  597   2.508   3.537   4.737
    1C        C  598   2.530   3.327   4.864
    1C        C  599   2.518   3.468   4.860
    1C        C  600   2.530   3.250   4.981
    1C        C  601   3.196   4.434   2.045
    1C        C  602   2.981   4.395   2.158
    1C        C  603   3.118   4.436   2.161
    1C        C  604   2.924   4.358   2.283
    1C        C  605   2.986   4.395   2.405
    1C        C  606   2.819   4.266   2.528
    1C        C  607   2.927   4.357   2.527
    1C        C  608   2.771   4.214   2.650
    1C        C  609   2.826   4.266   2.769
    1C        C  610   2.686   4.109   2.894
    1C        C  611   2.778   4.217   2.893
    1C        C  612   2.655   4.052   3.020
    1C        C  613   2.697   4.108   3.142
    1C        C  614   2.587   3.926   3.264
    1C        C  615   2.656   4.049   3.264
    1C        C  616   2.560   3.866   3.389
    1C        C  617   2.593   3.931   3.511
    1C        C  618   2.535   3.729   3.638
    1C        C  619   2.572   3.866   3.634
    1C        C  620   2.513   3.665   3.762
    1C        C  621   2.529   3.734   3.884
    1C        C  622   2.501   3.523   4.010
    1C        C  623   2.513   3.664   4.006
    1C        C  624   2.508   3.452   4.132
    1C        C  625   2.506   3.529   4.250
    1C        C  626   2.532   3.321   4.376
    1C        C  627   2.507   3.460   4.374
    1C        C  628   2.552   3.252   4.498
    1C        C  629   2.535   3.321   4.620
    1C        C  630   2.594   3.120   4.743
    1C        C  631   2.549   3.255   4.744
    1C        C  632   2.612   3.048   4.864
    1C        C  633   2.561   3.113   4.981
    1C        C  634   2.776   4.303   2.054
    1C        C  635   2.890   4.384   2.048
    1C        C  636   2.748   4.226   2.168
    1C        C  637   2.813   4.271   2.285
    1C        C  638   2.679   4.106   2.409
    1C        C  639   2.762   4.220   2.407
    1C        C  640   2.639   4.045   2.529
    1C        C  641   2.686   4.101   2.650
    1C        C  642   2.586   3.919   2.776
    1C        C  643   2.647   4.047   2.774
    1C        C  644   2.562   3.857   2.901
    1C        C  645   2.590   3.926   3.021
    1C        C  646   2.517   3.726   3.148
    1C        C  647   2.561   3.860   3.142
    1C        C  648   2.511   3.660   3.273
    1C        C  649   2.523   3.730   3.395
    1C        C  650   2.506   3.519   3.521
    1C        C  651   2.515   3.660   3.517
    1C        C  652   2.509   3.451   3.646
    1C        C  653   2.504   3.524   3.767
    1C        C  654   2.523   3.312   3.891
    1C        C  655   2.503   3.451   3.888
    1C        C  656   2.536   3.239   4.012
    1C        C  657   2.528   3.312   4.133
    1C        C  658   2.581   3.110   4.259
    1C        C  659   2.546   3.247   4.257
    1C        C  660   2.629   3.052   4.380
    1C        C  661   2.607   3.122   4.500
    1C        C  662   2.719   2.945   4.622
    1C        C  663   2.630   3.055   4.623
    1C        C  664   2.760   2.887   4.744
    1C        C  665   2.701   2.935   4.863
    1C        C  666   2.744   2.867   4.978
    1C        C  667   2.683   4.019   2.053
    1C        C  668   2.685   4.100   2.167
    1C        C  669   2.592   3.908   2.291
    1C        C  670   2.646   4.039   2.289
    1C        C  671   2.559   3.846   2.414
    1C        C  672   2.579   3.917   2.535
    1C        C  673   2.519   3.715   2.660
    1C        C  674   2.551   3.853   2.657
    1C        C  675   2.513   3.647   2.784
    1C        C  676   2.527   3.720   2.904
    1C        C  677   2.504   3.512   3.032
    1C        C  678   2.508   3.653   3.027
    1C        C  679   2.505   3.446   3.156
    1C        C  680   2.500   3.519   3.277
    1C        C  681   2.533   3.310   3.402
    1C        C  682   2.505   3.448   3.399
    1C        C  683   2.548   3.241   3.525
    1C        C  684   2.530   3.312   3.647
    1C        C  685   2.596   3.111   3.771
    1C        C  686   2.544   3.243   3.769
    1C        C  687   2.634   3.051   3.894
    1C        C  688   2.592   3.110   4.015
    1C        C  689   2.706   2.934   4.137
    1C        C  690   2.619   3.046   4.139
    1C        C  691   2.753   2.878   4.258
    1C        C  692   2.707   2.935   4.379
    1C        C  693   2.752   2.880   4.501
    1C        C  694   2.629   3.890   2.057
    1C        C  695   2.528   3.699   2.179
    1C        C  696   2.584   3.828   2.174
    1C        C  697   2.499   3.636   2.302
    1C        C  698   2.518   3.712   2.419
    1C        C  699   2.485   3.502   2.542
    1C        C  700   2.501   3.642   2.541
    1C        C  701   2.495   3.435   2.666
    1C        C  702   2.502   3.506   2.787
    1C        C  703   2.532   3.300   2.909
    1C        C  704   2.504   3.438   2.911
    1C        C  705   2.550   3.237   3.034
    1C        C  706   2.529   3.306   3.156
    1C        C  707   2.597   3.109   3.282
    1C        C  708   2.550   3.242   3.280
    1C        C  709   2.631   3.046   3.404
    1C        C  710   2.601   3.110   3.526
    1C        C  711   2.710   2.931   3.649
    1C        C  712   2.631   3.048   3.650
    1C        C  713   2.758   2.881   3.773
    1C        C  714   2.718   2.938   3.896
    1C        C  715   2.761   2.881   4.018
    1C        C  716   2.447   3.501   2.062
    1C        C  717   2.489   3.635   2.060
    1C        C  718   2.459   3.422   2.181
    1C        C  719   2.476   3.495   2.302
    1C        C  720   2.509   3.286   2.421
    1C        C  721   2.482   3.424   2.423
    1C        C  722   2.537   3.224   2.545
    1C        C  723   2.521   3.296   2.666
    1C        C  724   2.601   3.099   2.794
    1C        C  725   2.546   3.229   2.788
    1C        C  726   2.629   3.037   2.918
    1C        C  727   2.598   3.104   3.038
    1C        C  728   2.710   2.926   3.159
    1C        C  729   2.633   3.044   3.162
    1C        C  730   2.762   2.880   3.282
    1C        C  731   2.717   2.934   3.405
    1C        C  732   2.758   2.877   3.528
    1C        C  733   2.495   3.201   2.069
    1C        C  734   2.487   3.282   2.183
    1C        C  735   2.586   3.084   2.306
    1C        C  736   2.526   3.213   2.301
    1C        C  737   2.619   3.024   2.430
    1C        C  738   2.592   3.094   2.550
    1C        C  739   2.697   2.910   2.670
    1C        C  740   2.631   3.034   2.672
    1C        C  741   2.747   2.859   2.791
    1C        C  742   2.707   2.920   2.912
    1C        C  743   2.750   2.868   3.037
    1C        C  744   2.554   3.075   2.070
    1C        C  745   2.687   2.898   2.185
    1C        C  746   2.607   3.014   2.185
    1C        C  747   2.736   2.844   2.306
    1C        C  748   2.696   2.906   2.426
    1C        C  749   2.740   2.851   2.549
    1C        C  750   2.729   2.833   2.068
    1C        C  751   3.653   2.309   1.981
    1C        O  752   3.746   2.235   2.023
    1C        O  753   3.645   2.324   1.842
    1C        C  754   4.607   3.050   1.961
    1C        O  755   4.625   3.086   1.841
    1C        O  756   4.725   2.988   2.005
    1C        C  757   4.427   4.211   1.942
    1C        O  758   4.521   4.293   1.961
    1C        O  759   4.417   4.161   1.812
    1C        C  760   3.606   4.678   1.953
    1C        O  761   3.649   4.789   1.994
    1C        O  762   3.588   4.652   1.817
    1C        C  763   2.900   4.465   1.925
    1C        O  764   2.958   4.416   1.824
    1C        O  765   2.878   4.604   1.923
    1C        C  766   2.334   3.472   1.971
    1C        O  767   2.353   3.473   1.846
    1C        O  768   2.201   3.486   2.013
    1C        C  769   4.704   3.588   5.044
    1C        O  770   4.680   3.544   5.160
    1C        O  771   4.834   3.640   5.033
    1C        C  772   4.276   4.439   5.040
    1C        O  773   4.265   4.428   5.165
    1C        O  774   4.389   4.510   4.997
    1C        C  775   4.146   2.518   5.065
    1C        O  776   4.261   2.480   5.028
    1C        O  777   4.139   2.537   5.204
    1C        C  778   2.876   4.534   5.054
    1C        O  779   2.792   4.617   5.010
    1C        O  780   2.950   4.571   5.167
    1C        C  781   2.502   3.049   5.100
    1C        O  782   2.381   3.013   5.100
    1C        O  783   2.547   3.087   5.226
    1C        C  784   2.418   3.985   5.056
    1C        O  785   2.297   3.993   5.023
    1C        O  786   2.441   3.951   5.190
    1C        C  787   2.955   2.434   1.995
    1C        O  788   2.956   2.465   1.873
    1C        O  789   2.910   2.306   2.024
    1C        C  790   3.167   2.361   5.044
    1C        O  791   3.132   2.258   4.981
    1C        O  792   3.189   2.345   5.181
    1C        H  793   4.263   3.033   5.051
    1C        H  794   4.217   2.788   5.070
    1C        H  795   4.540   3.131   5.037
    1C        H  796   4.499   3.373   5.061
    1C        H  797   4.623   3.820   5.008
    1C        H  798   4.466   4.001   5.040
    1C        H  799   4.276   4.168   5.049
    1C        H  800   4.028   4.527   5.029
    1C        H  801   3.822   4.595   5.036
    1C        H  802   3.586   4.623   5.041
    1C        H  803   3.393   4.478   5.047
    1C        H  804   3.151   4.536   5.037
    1C        H  805   3.892   2.496   5.072
    1C        H  806   3.671   2.527   5.068
    1C        H  807   3.018   2.574   5.076
    1C        H  808   3.457   2.434   5.076
    1C        H  809   2.896   2.763   5.073
    1C        H  810   2.673   2.861   5.057
    1C        H  811   2.488   3.287   5.073
    1C        H  812   2.578   3.506   5.055
    1C        H  813   2.467   3.727   5.062
    1C        H  814   2.572   4.180   5.039
    1C        H  815   2.786   4.286   5.054
    1C        H  816   2.678   2.845   1.975
    1C        H  817   2.813   2.665   1.984
    1C        H  818   3.205   2.412   1.994
    1C        H  819   3.433   2.473   1.982
    1C        H  820   3.877   2.465   1.989
    1C        H  821   4.064   2.612   1.967
    1C        H  822   4.258   2.715   1.975
    1C        H  823   4.368   2.938   1.969
    1C        H  824   4.584   3.306   1.966
    1C        H  825   4.484   3.517   1.963
    1C        H  826   4.487   3.744   1.954
    1C        H  827   3.807   4.539   1.959
    1C        H  828   3.975   4.394   1.947
    1C        H  829   4.163   4.258   1.945
    1C        H  830   4.528   3.982   1.981
    1C        H  831   2.661   3.828   1.976
    1C        H  832   2.727   4.056   1.962
    1C        H  833   2.692   4.337   1.996
    1C        H  834   3.372   4.490   1.947
    1C        H  835   3.145   4.453   1.953
    1C        H  836   2.594   3.043   1.976
    1C        H  837   2.443   3.220   1.978
    1C        H  838   2.542   3.664   1.972
    2V3OU   H29  839   2.801   3.544   3.716
    2V3OU   C27  840   2.792   3.503   3.820
    2V3OU   H27  841   2.735   3.568   3.892
    2V3OU   H28  842   2.738   3.407   3.802
    2V3OU   O11  843   2.917   3.471   3.881
    2V3OU   C15  844   2.924   3.399   3.999
    2V3OU   C13  845   3.052   3.378   4.054
    2V3OU   C14  846   3.078   3.272   4.142
    2V3OU   C16  847   2.979   3.191   4.196
    2V3OU    H6  848   2.996   3.101   4.256
    2V3OU   C12  849   3.216   3.231   4.177
    2V3OU    O2  850   3.241   3.128   4.244
    2V3OU   C10  851   3.328   3.306   4.118
    2V3OU    C8  852   3.459   3.267   4.143
    2V3OU   O10  853   3.492   3.153   4.209
    2V3OU   H26  854   3.407   3.108   4.219
    2V3OU    C6  855   3.568   3.350   4.102
    2V3OU    C5  856   3.540   3.467   4.033
    2V3OU    C4  857   3.707   3.298   4.120
    2V3OU    H4  858   3.731   3.233   4.209
    2V3OU    H5  859   3.714   3.223   4.035
    2V3OU    C2  860   3.818   3.403   4.109
    2V3OU    O6  861   3.808   3.481   4.228
    2V3OU   H21  862   3.766   3.559   4.187
    2V3OU    C3  863   3.785   3.495   3.991
    2V3OU    H2  864   3.869   3.568   3.983
    2V3OU    H3  865   3.784   3.429   3.901
    2V3OU   C25  866   3.952   3.331   4.098
    2V3OU    O7  867   4.001   3.301   3.989
    2V3OU   C26  868   4.031   3.291   4.222
    2V3OU   H22  869   4.066   3.378   4.283
    2V3OU   H23  870   4.115   3.223   4.193
    2V3OU    O8  871   3.969   3.212   4.320
    2V3OU   H24  872   3.923   3.261   4.390
    2V3OU    C1  873   3.650   3.565   4.007
    2V3OU    H1  874   3.631   3.626   3.914
    2V3OU    O3  875   3.664   3.650   4.121
    2V3OU   C19  876   3.624   3.788   4.116
    2V3OU    H9  877   3.526   3.797   4.061
    2V3OU    O4  878   3.711   3.853   4.027
    2V3OU   C20  879   3.842   3.870   4.082
    2V3OU   H10  880   3.883   3.766   4.101
    2V3OU   C24  881   3.612   3.849   4.256
    2V3OU   H16  882   3.540   3.793   4.321
    2V3OU   H17  883   3.564   3.950   4.243
    2V3OU   C23  884   3.751   3.877   4.314
    2V3OU   H15  885   3.796   3.777   4.346
    2V3OU    N1  886   3.731   3.958   4.432
    2V3OU   H19  887   3.803   3.929   4.496
    2V3OU   H20  888   3.643   3.940   4.476
    2V3OU   C21  889   3.848   3.947   4.214
    2V3OU   H11  890   3.952   3.925   4.252
    2V3OU    O5  891   3.825   4.087   4.222
    2V3OU   H18  892   3.777   4.087   4.307
    2V3OU   C22  893   3.912   3.951   3.974
    2V3OU   H12  894   3.863   4.050   3.962
    2V3OU   H13  895   3.904   3.892   3.879
    2V3OU   H14  896   4.021   3.960   4.001
    2V3OU   C11  897   3.160   3.469   4.014
    2V3OU    O1  898   3.139   3.588   3.983
    2V3OU    C9  899   3.298   3.423   4.045
    2V3OU    C7  900   3.404   3.506   4.009
    2V3OU    O9  901   3.385   3.618   3.931
    2V3OU   H25  902   3.289   3.631   3.940
    2V3OU   C17  903   2.825   3.317   4.057
    2V3OU    H7  904   2.729   3.350   4.017
    2V3OU   C18  905   2.849   3.221   4.154
    2V3OU    H8  906   2.787   3.173   4.231
    3SOL     OW  907   2.887   4.549   5.436
    3SOL    HW1  908   2.946   4.544   5.356
    3SOL    HW2  909   2.801   4.595   5.411
    4SOL     OW  910   6.842   6.869   0.056
    4SOL    HW1  911   6.758   6.907   0.093
    4SOL    HW2  912   6.825   6.775   0.025
    5SOL     OW  913   4.991   1.641   2.387
    5SOL    HW1  914   5.043   1.683   2.461
    5SOL    HW2  915   4.925   1.577   2.425
    6SOL     OW  916   5.496   1.952   2.742
    6SOL    HW1  917   5.479   2.050   2.736
    6SOL    HW2  918   5.586   1.935   2.780
    7SOL     OW  919   1.001   4.261   5.006
    7SOL    HW1  920   0.968   4.173   5.042
    7SOL    HW2  921   1.094   4.250   4.972
    8SOL     OW  922   2.624   2.438   5.067
    8SOL    HW1  923   2.544   2.498   5.071
    8SOL    HW2  924   2.664   2.442   4.976
    9SOL     OW  925   6.629   1.711   6.063
    9SOL    HW1  926   6.610   1.657   5.981
    9SOL    HW2  927   6.713   1.764   6.050
   10SOL     OW  928   3.761   4.976   4.191
   10SOL    HW1  929   3.716   4.984   4.102
   10SOL    HW2  930   3.779   5.067   4.227
   11SOL     OW  931   1.798   0.716   0.222
   11SOL    HW1  932   1.794   0.781   0.298
   11SOL    HW2  933   1.789   0.623   0.258
   12SOL     OW  934   2.687   4.651   3.943
   12SOL    HW1  935   2.735   4.714   3.883
   12SOL    HW2  936   2.751   4.582   3.978
   13SOL     OW  937   3.207   6.420   2.895
   13SOL    HW1  938   3.217   6.505   2.947
   13SOL    HW2  939   3.110   6.403   2.876
   14SOL     OW  940   4.438   5.043   5.877
   14SOL    HW1  941   4.350   5.036   5.924
   14SOL    HW2  942   4.510   5.064   5.943
   15SOL     OW  943   0.505   6.428   6.475
   15SOL    HW1  944   0.480   6.443   6.570
   15SOL    HW2  945   0.485   6.333   6.449
   16SOL     OW  946   5.004   2.630   6.170
   16SOL    HW1  947   4.911   2.595   6.180
   16SOL    HW2  948   5.069   2.555   6.184
   17SOL     OW  949   5.963   0.638   6.187
   17SOL    HW1  950   6.051   0.679   6.162
   17SOL    HW2  951   5.949   0.554   6.134
   18SOL     OW  952   3.593   1.367   5.336
   18SOL    HW1  953   3.589   1.426   5.255
   18SOL    HW2  954   3.684   1.327   5.343
   19SOL     OW  955   0.483   1.898   2.526
   19SOL    HW1  956   0.427   1.904   2.608
   19SOL    HW2  957   0.509   1.991   2.497
   20SOL     OW  958   5.828   1.613   5.525
   20SOL    HW1  959   5.867   1.689   5.577
   20SOL    HW2  960   5.728   1.621   5.523
   21SOL     OW  961   3.041   0.105   2.803
   21SOL    HW1  962   3.022   0.054   2.887
   21SOL    HW2  963   3.112   0.058   2.751
   22SOL     OW  964   1.044   5.993   5.852
   22SOL    HW1  965   1.050   5.902   5.811
   22SOL    HW2  966   1.043   5.984   5.952
   23SOL     OW  967   4.514   5.255   2.086
   23SOL    HW1  968   4.459   5.336   2.066
   23SOL    HW2  969   4.456   5.183   2.124
   24SOL     OW  970   3.988   0.425   2.265
   24SOL    HW1  971   3.903   0.456   2.308
   24SOL    HW2  972   4.049   0.502   2.253
   25SOL     OW  973   3.085   0.345   3.992
   25SOL    HW1  974   3.020   0.324   3.918
   25SOL    HW2  975   3.166   0.389   3.955
   26SOL     OW  976   1.293   2.178   0.323
   26SOL    HW1  977   1.237   2.099   0.349
   26SOL    HW2  978   1.238   2.242   0.269
   27SOL     OW  979   1.051   1.404   2.228
   27SOL    HW1  980   1.088   1.352   2.152
   27SOL    HW2  981   1.016   1.341   2.297
   28SOL     OW  982   1.285   0.870   4.317
   28SOL    HW1  983   1.218   0.942   4.334
   28SOL    HW2  984   1.373   0.911   4.295
   29SOL     OW  985   5.960   1.083   1.103
   29SOL    HW1  986   6.054   1.072   1.071
   29SOL    HW2  987   5.920   1.166   1.062
   30SOL     OW  988   3.655   0.648   4.693
   30SOL    HW1  989   3.635   0.679   4.600
   30SOL    HW2  990   3.754   0.644   4.707
   31SOL     OW  991   0.064   2.174   5.196
   31SOL    HW1  992   0.149   2.225   5.210
   31SOL    HW2  993   0.071   2.121   5.112
   32SOL     OW  994   1.465   1.720   2.360
   32SOL    HW1  995   1.495   1.780   2.435
   32SOL    HW2  996   1.374   1.749   2.329
   33SOL     OW  997   0.150   3.791   5.306
   33SOL    HW1  998   0.190   3.810   5.216
   33SOL    HW2  999   0.215   3.817   5.377
   34SOL     OW 1000   2.606   5.070   5.210
   34SOL    HW1 1001   2.567   5.110   5.127
   34SOL    HW2 1002   2.655   4.986   5.187
   35SOL     OW 1003   4.197   1.750   5.652
   35SOL    HW1 1004   4.128   1.690   5.690
   35SOL    HW2 1005   4.286   1.704   5.652
   36SOL     OW 1006   5.106   1.119   3.966
   36SOL    HW1 1007   5.081   1.086   3.874
   36SOL    HW2 1008   5.195   1.165   3.962
   37SOL     OW 1009   2.011   1.520   3.731
   37SOL    HW1 1010   1.967   1.492   3.816
   37SOL    HW2 1011   2.041   1.439   3.681
   38SOL     OW 1012   2.351   4.446   1.258
   38SOL    HW1 1013   2.336   4.486   1.167
   38SOL    HW2 1014   2.305   4.358   1.263
   39SOL     OW 1015   6.525   4.281   6.383
   39SOL    HW1 1016   6.439   4.306   6.428
   39SOL    HW2 1017   6.573   4.212   6.438
   40SOL     OW 1018   3.403   0.391   6.135
   40SOL    HW1 1019   3.369   0.303   6.168
   40SOL    HW2 1020   3.439   0.444   6.212
   41SOL     OW 1021   6.465   4.257   3.044
   41SOL    HW1 1022   6.375   4.295   3.063
   41SOL    HW2 1023   6.462   4.158   3.053
   42SOL     OW 1024   2.791   6.835   4.397
   42SOL    HW1 1025   2.884   6.847   4.361
   42SOL    HW2 1026   2.769   6.737   4.400
   43SOL     OW 1027   3.515   6.757   4.896
   43SOL    HW1 1028   3.561   6.754   4.807
   43SOL    HW2 1029   3.550   6.835   4.948
   44SOL     OW 1030   5.816   3.001   4.950
   44SOL    HW1 1031   5.831   2.935   4.876
   44SOL    HW2 1032   5.846   2.962   5.036
   45SOL     OW 1033   4.549   5.902   2.243
   45SOL    HW1 1034   4.489   5.968   2.199
   45SOL    HW2 1035   4.618   5.870   2.178
   46SOL     OW 1036   0.398   2.869   4.159
   46SOL    HW1 1037   0.451   2.954   4.148
   46SOL    HW2 1038   0.435   2.817   4.235
   47SOL     OW 1039   5.199   4.373   1.497
   47SOL    HW1 1040   5.284   4.363   1.445
   47SOL    HW2 1041   5.124   4.331   1.446
   48SOL     OW 1042   0.621   2.513   6.714
   48SOL    HW1 1043   0.684   2.470   6.649
   48SOL    HW2 1044   0.527   2.501   6.683
   49SOL     OW 1045   5.136   2.632   0.973
   49SOL    HW1 1046   5.202   2.674   1.034
   49SOL    HW2 1047   5.047   2.626   1.018
   50SOL     OW 1048   6.084   1.879   6.102
   50SOL    HW1 1049   6.035   1.830   6.029
   50SOL    HW2 1050   6.111   1.814   6.173
   51SOL     OW 1051   1.961   5.399   2.685
   51SOL    HW1 1052   1.878   5.375   2.633
   51SOL    HW2 1053   1.975   5.333   2.758
   52SOL     OW 1054   5.775   2.344   1.289
   52SOL    HW1 1055   5.781   2.245   1.276
   52SOL    HW2 1056   5.714   2.384   1.220
   53SOL     OW 1057   5.124   0.250   3.001
   53SOL    HW1 1058   5.195   0.320   3.001
   53SOL    HW2 1059   5.068   0.259   3.083
   54SOL     OW 1060   5.845   6.542   0.239
   54SOL    HW1 1061   5.944   6.541   0.249
   54SOL    HW2 1062   5.806   6.462   0.286
   55SOL     OW 1063   1.648   2.426   6.065
   55SOL    HW1 1064   1.672   2.401   5.971
   55SOL    HW2 1065   1.731   2.434   6.120
   56SOL     OW 1066   1.648   1.520   0.941
   56SOL    HW1 1067   1.550   1.505   0.926
   56SOL    HW2 1068   1.697   1.507   0.855
   57SOL     OW 1069   3.706   0.955   6.715
   57SOL    HW1 1070   3.702   1.053   6.734
   57SOL    HW2 1071   3.801   0.925   6.716
   58SOL     OW 1072   1.016   1.033   6.548
   58SOL    HW1 1073   1.006   1.130   6.526
   58SOL    HW2 1074   1.102   0.999   6.510
   59SOL     OW 1075   6.316   3.646   6.032
   59SOL    HW1 1076   6.380   3.723   6.028
   59SOL    HW2 1077   6.255   3.650   5.953
   60SOL     OW 1078   5.540   1.494   3.756
   60SOL    HW1 1079   5.528   1.590   3.782
   60SOL    HW2 1080   5.601   1.449   3.822
   61SOL     OW 1081   0.237   1.109   4.469
   61SOL    HW1 1082   0.304   1.065   4.410
   61SOL    HW2 1083   0.275   1.120   4.561
   62SOL     OW 1084   0.975   1.282   1.521
   62SOL    HW1 1085   0.930   1.329   1.597
   62SOL    HW2 1086   1.073   1.300   1.524
   63SOL     OW 1087   4.042   0.096   4.496
   63SOL    HW1 1088   4.042   0.105   4.596
   63SOL    HW2 1089   4.132   0.068   4.465
   64SOL     OW 1090   1.413   3.531   6.228
   64SOL    HW1 1091   1.491   3.581   6.191
   64SOL    HW2 1092   1.346   3.596   6.264
   65SOL     OW 1093   0.185   6.992   5.784
   65SOL    HW1 1094   0.120   7.002   5.708
   65SOL    HW2 1095   0.154   0.024   5.862
   66SOL     OW 1096   3.258   0.514   2.882
   66SOL    HW1 1097   3.336   0.512   2.820
   66SOL    HW2 1098   3.234   0.421   2.910
   67SOL     OW 1099   0.356   2.221   6.623
   67SOL    HW1 1100   0.361   2.319   6.643
   67SOL    HW2 1101   0.448   2.183   6.615
   68SOL     OW 1102   6.819   1.539   5.892
   68SOL    HW1 1103   6.834   1.637   5.900
   68SOL    HW2 1104   6.857   1.506   5.805
   69SOL     OW 1105   1.512   4.366   6.118
   69SOL    HW1 1106   1.530   4.357   6.020
   69SOL    HW2 1107   1.561   4.295   6.168
   70SOL     OW 1108   5.175   4.327   4.751
   70SOL    HW1 1109   5.264   4.372   4.756
   70SOL    HW2 1110   5.146   4.320   4.655
   71SOL     OW 1111   4.883   2.122   4.068
   71SOL    HW1 1112   4.847   2.213   4.045
   71SOL    HW2 1113   4.818   2.052   4.038
   72SOL     OW 1114   0.402   0.978   3.200
   72SOL    HW1 1115   0.352   0.980   3.114
   72SOL    HW2 1116   0.448   1.066   3.214
   73SOL     OW 1117   3.707   0.313   0.221
   73SOL    HW1 1118   3.624   0.369   0.221
   73SOL    HW2 1119   3.778   0.360   0.274
   74SOL     OW 1120   2.373   1.946   6.276
   74SOL    HW1 1121   2.377   1.951   6.376
   74SOL    HW2 1122   2.278   1.961   6.246
   75SOL     OW 1123   4.367   1.807   1.512
   75SOL    HW1 1124   4.454   1.768   1.546
   75SOL    HW2 1125   4.313   1.735   1.469
   76SOL     OW 1126   2.583   4.568   5.932
   76SOL    HW1 1127   2.506   4.527   5.882
   76SOL    HW2 1128   2.652   4.599   5.867
   77SOL     OW 1129   1.926   5.281   4.056
   77SOL    HW1 1130   1.854   5.281   4.125
   77SOL    HW2 1131   1.975   5.194   4.059
   78SOL     OW 1132   4.210   1.291   1.435
   78SOL    HW1 1133   4.298   1.251   1.410
   78SOL    HW2 1134   4.197   1.284   1.534
   79SOL     OW 1135   2.683   5.770   1.967
   79SOL    HW1 1136   2.691   5.792   2.064
   79SOL    HW2 1137   2.588   5.781   1.937
   80SOL     OW 1138   4.923   2.230   5.068
   80SOL    HW1 1139   4.880   2.294   5.003
   80SOL    HW2 1140   4.856   2.161   5.096
   81SOL     OW 1141   1.920   0.170   0.237
   81SOL    HW1 1142   1.960   0.216   0.317
   81SOL    HW2 1143   1.873   0.086   0.267
   82SOL     OW 1144   0.629   6.195   2.070
   82SOL    HW1 1145   0.579   6.273   2.032
   82SOL    HW2 1146   0.568   6.144   2.131
   83SOL     OW 1147   6.902   1.875   5.591
   83SOL    HW1 1148   6.870   1.970   5.589
   83SOL    HW2 1149   6.896   1.836   5.499
   84SOL     OW 1150   6.269   3.616   3.335
   84SOL    HW1 1151   6.217   3.688   3.381
   84SOL    HW2 1152   6.325   3.567   3.402
   85SOL     OW 1153   1.916   0.015   3.831
   85SOL    HW1 1154   1.871   0.074   3.763
   85SOL    HW2 1155   2.012   0.005   3.807
   86SOL     OW 1156   6.491   1.110   6.784
   86SOL    HW1 1157   6.576   1.134   6.831
   86SOL    HW2 1158   6.466   1.185   6.721
   87SOL     OW 1159   4.146   4.582   0.193
   87SOL    HW1 1160   4.173   4.504   0.249
   87SOL    HW2 1161   4.226   4.619   0.146
   88SOL     OW 1162   2.918   2.133   5.803
   88SOL    HW1 1163   2.856   2.194   5.852
   88SOL    HW2 1164   2.911   2.041   5.841
   89SOL     OW 1165   3.070   3.832   1.907
   89SOL    HW1 1166   3.165   3.804   1.897
   89SOL    HW2 1167   3.041   3.881   1.825
   90SOL     OW 1168   4.602   4.350   2.548
   90SOL    HW1 1169   4.525   4.398   2.589
   90SOL    HW2 1170   4.622   4.390   2.459
   91SOL     OW 1171   5.933   6.160   5.928
   91SOL    HW1 1172   5.840   6.171   5.963
   91SOL    HW2 1173   5.997   6.210   5.986
   92SOL     OW 1174   5.294   3.824   0.303
   92SOL    HW1 1175   5.247   3.802   0.389
   92SOL    HW2 1176   5.391   3.803   0.311
   93SOL     OW 1177   3.014   3.571   0.537
   93SOL    HW1 1178   2.964   3.658   0.536
   93SOL    HW2 1179   3.098   3.581   0.589
   94SOL     OW 1180   2.394   6.808   0.248
   94SOL    HW1 1181   2.467   6.769   0.192
   94SOL    HW2 1182   2.324   6.738   0.266
   95SOL     OW 1183   0.841   0.589   4.334
   95SOL    HW1 1184   0.752   0.600   4.378
   95SOL    HW2 1185   0.914   0.602   4.401
   96SOL     OW 1186   5.164   4.877   0.034
   96SOL    HW1 1187   5.211   4.933   0.101
   96SOL    HW2 1188   5.200   4.895   6.965
   97SOL     OW 1189   1.937   4.900   5.459
   97SOL    HW1 1190   1.994   4.969   5.503
   97SOL    HW2 1191   1.877   4.944   5.392
   98SOL     OW 1192   0.645   2.536   1.272
   98SOL    HW1 1193   0.636   2.477   1.192
   98SOL    HW2 1194   0.741   2.545   1.296
   99SOL     OW 1195   3.426   4.121   3.216
   99SOL    HW1 1196   3.384   4.032   3.233
   99SOL    HW2 1197   3.357   4.185   3.184
  100SOL     OW 1198   6.752   0.484   4.149
  100SOL    HW1 1199   6.802   0.519   4.071
  100SOL    HW2 1200   6.714   0.394   4.127
  101SOL     OW 1201   0.906   4.778   2.701
  101SOL    HW1 1202   0.913   4.717   2.781
  101SOL    HW2 1203   0.902   4.873   2.731
  102SOL     OW 1204   2.704   6.175   2.194
  102SOL    HW1 1205   2.788   6.209   2.151
  102SOL    HW2 1206   2.678   6.237   2.269
  103SOL     OW 1207   1.603   1.221   2.003
  103SOL    HW1 1208   1.612   1.126   1.973
  103SOL    HW2 1209   1.676   1.276   1.962
  104SOL     OW 1210   1.511   4.854   2.194
  104SOL    HW1 1211   1.489   4.845   2.291
  104SOL    HW2 1212   1.531   4.764   2.155
  105SOL     OW 1213   4.904   1.153   6.376
  105SOL    HW1 1214   4.904   1.118   6.469
  105SOL    HW2 1215   4.813   1.146   6.336
  106SOL     OW 1216   5.232   5.442   1.538
  106SOL    HW1 1217   5.196   5.462   1.447
  106SOL    HW2 1218   5.191   5.356   1.571
  107SOL     OW 1219   6.498   0.818   0.241
  107SOL    HW1 1220   6.561   0.893   0.261
  107SOL    HW2 1221   6.485   0.812   0.142
  108SOL     OW 1222   2.776   6.863   4.781
  108SOL    HW1 1223   2.831   6.915   4.716
  108SOL    HW2 1224   2.686   6.844   4.742
  109SOL     OW 1225   3.770   1.142   2.968
  109SOL    HW1 1226   3.718   1.065   3.005
  109SOL    HW2 1227   3.729   1.172   2.882
  110SOL     OW 1228   2.154   4.750   5.298
  110SOL    HW1 1229   2.101   4.813   5.354
  110SOL    HW2 1230   2.118   4.657   5.309
  111SOL     OW 1231   6.839   1.273   2.560
  111SOL    HW1 1232   6.910   1.234   2.501
  111SOL    HW2 1233   6.837   1.222   2.647
  112SOL     OW 1234   4.392   6.412   6.442
  112SOL    HW1 1235   4.471   6.367   6.484
  112SOL    HW2 1236   4.318   6.345   6.430
  113SOL     OW 1237   6.467   5.184   3.064
  113SOL    HW1 1238   6.519   5.232   2.993
  113SOL    HW2 1239   6.423   5.251   3.124
  114SOL     OW 1240   1.146   4.830   3.108
  114SOL    HW1 1241   1.238   4.792   3.094
  114SOL    HW2 1242   1.154   4.927   3.131
  115SOL     OW 1243   6.046   1.533   3.457
  115SOL    HW1 1244   6.027   1.631   3.454
  115SOL    HW2 1245   5.960   1.483   3.464
  116SOL     OW 1246   0.083   6.141   1.262
  116SOL    HW1 1247   0.157   6.158   1.198
  116SOL    HW2 1248   0.119   6.140   1.356
  117SOL     OW 1249   2.709   1.302   6.955
  117SOL    HW1 1250   2.655   1.380   6.921
  117SOL    HW2 1251   2.708   1.302   0.032
  118SOL     OW 1252   1.707   1.482   3.551
  118SOL    HW1 1253   1.775   1.475   3.478
  118SOL    HW2 1254   1.716   1.571   3.596
  119SOL     OW 1255   0.547   6.621   6.791
  119SOL    HW1 1256   0.525   6.667   6.877
  119SOL    HW2 1257   0.524   6.523   6.799
  120SOL     OW 1258   4.770   0.078   5.153
  120SOL    HW1 1259   4.803   0.170   5.175
  120SOL    HW2 1260   4.833   0.010   5.190
  121SOL     OW 1261   1.294   4.171   0.040
  121SOL    HW1 1262   1.358   4.128   6.999
  121SOL    HW2 1263   1.329   4.164   0.133
  122SOL     OW 1264   1.205   4.231   0.467
  122SOL    HW1 1265   1.203   4.153   0.530
  122SOL    HW2 1266   1.276   4.295   0.495
  123SOL     OW 1267   1.286   0.671   1.296
  123SOL    HW1 1268   1.351   0.654   1.370
  123SOL    HW2 1269   1.264   0.769   1.292
  124SOL     OW 1270   3.143   2.330   0.520
  124SOL    HW1 1271   3.175   2.424   0.531
  124SOL    HW2 1272   3.214   2.275   0.476
  125SOL     OW 1273   3.337   2.858   0.084
  125SOL    HW1 1274   3.262   2.917   0.052
  125SOL    HW2 1275   3.424   2.894   0.051
  126SOL     OW 1276   2.962   3.193   3.529
  126SOL    HW1 1277   3.022   3.162   3.456
  126SOL    HW2 1278   2.880   3.234   3.490
  127SOL     OW 1279   6.901   6.106   5.476
  127SOL    HW1 1280   6.858   6.119   5.566
  127SOL    HW2 1281   6.993   6.145   5.478
  128SOL     OW 1282   4.878   3.889   2.137
  128SOL    HW1 1283   4.937   3.956   2.182
  128SOL    HW2 1284   4.834   3.831   2.206
  129SOL     OW 1285   2.282   5.294   0.957
  129SOL    HW1 1286   2.319   5.372   1.007
  129SOL    HW2 1287   2.184   5.287   0.973
  130SOL     OW 1288   5.978   1.520   3.947
  130SOL    HW1 1289   6.002   1.593   4.011
  130SOL    HW2 1290   6.060   1.489   3.900
  131SOL     OW 1291   6.265   0.905   4.145
  131SOL    HW1 1292   6.330   0.855   4.202
  131SOL    HW2 1293   6.263   0.864   4.054
  132SOL     OW 1294   3.349   3.447   1.565
  132SOL    HW1 1295   3.324   3.376   1.500
  132SOL    HW2 1296   3.419   3.507   1.524
  133SOL     OW 1297   4.968   1.495   3.600
  133SOL    HW1 1298   5.008   1.570   3.653
  133SOL    HW2 1299   5.023   1.479   3.518
  134SOL     OW 1300   0.034   0.733   2.673
  134SOL    HW1 1301   0.120   0.690   2.643
  134SOL    HW2 1302   6.983   0.704   2.611
  135SOL     OW 1303   4.962   3.574   4.559
  135SOL    HW1 1304   4.981   3.526   4.644
  135SOL    HW2 1305   4.951   3.508   4.485
  136SOL     OW 1306   2.344   5.637   4.645
  136SOL    HW1 1307   2.428   5.595   4.610
  136SOL    HW2 1308   2.364   5.683   4.732
  137SOL     OW 1309   4.345   1.185   4.288
  137SOL    HW1 1310   4.369   1.091   4.264
  137SOL    HW2 1311   4.245   1.192   4.299
  138SOL     OW 1312   0.563   5.499   3.540
  138SOL    HW1 1313   0.540   5.457   3.452
  138SOL    HW2 1314   0.607   5.587   3.524
  139SOL     OW 1315   2.064   5.668   6.935
  139SOL    HW1 1316   2.051   5.601   6.863
  139SOL    HW2 1317   1.994   5.657   7.005
  140SOL     OW 1318   1.559   0.226   3.010
  140SOL    HW1 1319   1.475   0.195   2.967
  140SOL    HW2 1320   1.635   0.217   2.945
  141SOL     OW 1321   6.736   3.541   0.058
  141SOL    HW1 1322   6.738   3.583   6.989
  141SOL    HW2 1323   6.697   3.606   0.123
  142SOL     OW 1324   2.330   4.160   1.318
  142SOL    HW1 1325   2.351   4.066   1.341
  142SOL    HW2 1326   2.338   4.217   1.400
  143SOL     OW 1327   6.105   6.372   1.075
  143SOL    HW1 1328   6.095   6.459   1.026
  143SOL    HW2 1329   6.103   6.390   1.173
  144SOL     OW 1330   3.240   4.942   3.981
  144SOL    HW1 1331   3.262   4.914   3.888
  144SOL    HW2 1332   3.146   4.977   3.984
  145SOL     OW 1333   0.900   4.399   2.779
  145SOL    HW1 1334   0.905   4.431   2.685
  145SOL    HW2 1335   0.805   4.403   2.810
  146SOL     OW 1336   5.751   1.302   5.933
  146SOL    HW1 1337   5.659   1.304   5.896
  146SOL    HW2 1338   5.765   1.382   5.992
  147SOL     OW 1339   4.837   1.498   4.567
  147SOL    HW1 1340   4.860   1.577   4.624
  147SOL    HW2 1341   4.804   1.423   4.626
  148SOL     OW 1342   1.268   4.971   1.531
  148SOL    HW1 1343   1.340   5.017   1.582
  148SOL    HW2 1344   1.242   4.887   1.578
  149SOL     OW 1345   2.807   2.241   5.180
  149SOL    HW1 1346   2.814   2.230   5.081
  149SOL    HW2 1347   2.718   2.280   5.203
  150SOL     OW 1348   4.083   1.163   5.657
  150SOL    HW1 1349   4.000   1.157   5.602
  150SOL    HW2 1350   4.059   1.159   5.754
  151SOL     OW 1351   4.394   1.436   1.644
  151SOL    HW1 1352   4.437   1.445   1.555
  151SOL    HW2 1353   4.464   1.442   1.716
  152SOL     OW 1354   0.088   1.315   6.618
  152SOL    HW1 1355   0.046   1.330   6.528
  152SOL    HW2 1356   0.068   1.393   6.678
  153SOL     OW 1357   3.239   1.176   3.026
  153SOL    HW1 1358   3.260   1.264   3.067
  153SOL    HW2 1359   3.287   1.103   3.075
  154SOL     OW 1360   6.920   2.363   0.722
  154SOL    HW1 1361   6.913   2.446   0.666
  154SOL    HW2 1362   6.924   2.388   0.819
  155SOL     OW 1363   0.324   0.317   1.399
  155SOL    HW1 1364   0.264   0.390   1.432
  155SOL    HW2 1365   0.347   0.255   1.473
  156SOL     OW 1366   6.272   1.227   0.397
  156SOL    HW1 1367   6.337   1.228   0.321
  156SOL    HW2 1368   6.179   1.241   0.362
  157SOL     OW 1369   5.762   2.756   7.005
  157SOL    HW1 1370   5.738   2.740   6.909
  157SOL    HW2 1371   5.858   2.734   7.020
  158SOL     OW 1372   1.393   2.476   1.982
  158SOL    HW1 1373   1.354   2.531   2.056
  158SOL    HW2 1374   1.460   2.532   1.932
  159SOL     OW 1375   4.813   4.852   0.803
  159SOL    HW1 1376   4.841   4.892   0.890
  159SOL    HW2 1377   4.826   4.753   0.805
  160SOL     OW 1378   6.565   0.284   0.687
  160SOL    HW1 1379   6.535   0.379   0.678
  160SOL    HW2 1380   6.485   0.224   0.693
  161SOL     OW 1381   1.268   6.443   1.084
  161SOL    HW1 1382   1.250   6.481   0.993
  161SOL    HW2 1383   1.283   6.345   1.076
  162SOL     OW 1384   2.318   6.127   0.343
  162SOL    HW1 1385   2.328   6.218   0.384
  162SOL    HW2 1386   2.358   6.058   0.404
  163SOL     OW 1387   6.801   5.218   3.169
  163SOL    HW1 1388   6.819   5.190   3.263
  163SOL    HW2 1389   6.741   5.298   3.169
  164SOL     OW 1390   1.777   1.834   3.105
  164SOL    HW1 1391   1.700   1.896   3.094
  164SOL    HW2 1392   1.784   1.806   3.201
  165SOL     OW 1393   6.465   5.288   2.420
  165SOL    HW1 1394   6.411   5.349   2.362
  165SOL    HW2 1395   6.534   5.241   2.365
  166SOL     OW 1396   6.351   3.862   1.127
  166SOL    HW1 1397   6.316   3.823   1.212
  166SOL    HW2 1398   6.337   3.961   1.129
  167SOL     OW 1399   5.160   2.065   6.599
  167SOL    HW1 1400   5.191   2.137   6.662
  167SOL    HW2 1401   5.167   2.099   6.505
  168SOL     OW 1402   4.053   2.897   1.745
  168SOL    HW1 1403   4.042   2.996   1.739
  168SOL    HW2 1404   3.972   2.857   1.787
  169SOL     OW 1405   6.349   2.812   0.444
  169SOL    HW1 1406   6.403   2.788   0.363
  169SOL    HW2 1407   6.273   2.748   0.454
  170SOL     OW 1408   0.738   5.858   3.650
  170SOL    HW1 1409   0.717   5.956   3.649
  170SOL    HW2 1410   0.657   5.807   3.621
  171SOL     OW 1411   1.730   3.158   0.145
  171SOL    HW1 1412   1.788   3.155   0.063
  171SOL    HW2 1413   1.690   3.067   0.160
  172SOL     OW 1414   5.578   2.578   2.144
  172SOL    HW1 1415   5.576   2.672   2.178
  172SOL    HW2 1416   5.673   2.544   2.145
  173SOL     OW 1417   5.741   1.042   5.139
  173SOL    HW1 1418   5.649   1.019   5.108
  173SOL    HW2 1419   5.802   0.965   5.122
  174SOL     OW 1420   5.067   5.257   5.094
  174SOL    HW1 1421   5.157   5.300   5.101
  174SOL    HW2 1422   5.075   5.160   5.114
  175SOL     OW 1423   2.866   0.869   0.919
  175SOL    HW1 1424   2.767   0.878   0.908
  175SOL    HW2 1425   2.900   0.794   0.862
  176SOL     OW 1426   4.931   5.284   2.788
  176SOL    HW1 1427   4.918   5.280   2.887
  176SOL    HW2 1428   4.962   5.194   2.755
  177SOL     OW 1429   5.448   2.066   5.655
  177SOL    HW1 1430   5.406   2.039   5.569
  177SOL    HW2 1431   5.495   2.154   5.644
  178SOL     OW 1432   2.386   5.224   4.632
  178SOL    HW1 1433   2.311   5.232   4.698
  178SOL    HW2 1434   2.418   5.130   4.629
  179SOL     OW 1435   4.070   6.260   0.468
  179SOL    HW1 1436   4.026   6.181   0.423
  179SOL    HW2 1437   4.090   6.237   0.563
  180SOL     OW 1438   2.819   6.697   0.511
  180SOL    HW1 1439   2.807   6.723   0.607
  180SOL    HW2 1440   2.777   6.608   0.495
  181SOL     OW 1441   3.023   2.268   5.343
  181SOL    HW1 1442   2.934   2.262   5.299
  181SOL    HW2 1443   3.092   2.297   5.277
  182SOL     OW 1444   5.026   3.359   0.247
  182SOL    HW1 1445   4.967   3.428   0.287
  182SOL    HW2 1446   5.010   3.353   0.148
  183SOL     OW 1447   4.135   2.247   4.347
  183SOL    HW1 1448   4.043   2.210   4.349
  183SOL    HW2 1449   4.190   2.195   4.281
  184SOL     OW 1450   1.101   6.603   3.206
  184SOL    HW1 1451   1.008   6.633   3.187
  184SOL    HW2 1452   1.166   6.660   3.155
  185SOL     OW 1453   1.128   1.875   4.235
  185SOL    HW1 1454   1.221   1.902   4.259
  185SOL    HW2 1455   1.130   1.816   4.154
  186SOL     OW 1456   5.879   5.929   4.281
  186SOL    HW1 1457   5.853   5.896   4.190
  186SOL    HW2 1458   5.860   5.858   4.349
  187SOL     OW 1459   4.668   5.414   2.826
  187SOL    HW1 1460   4.681   5.500   2.776
  187SOL    HW2 1461   4.726   5.343   2.788
  188SOL     OW 1462   1.497   2.226   3.315
  188SOL    HW1 1463   1.451   2.170   3.383
  188SOL    HW2 1464   1.439   2.303   3.289
  189SOL     OW 1465   6.632   4.943   6.469
  189SOL    HW1 1466   6.654   5.037   6.493
  189SOL    HW2 1467   6.588   4.940   6.379
  190SOL     OW 1468   6.423   4.874   6.648
  190SOL    HW1 1469   6.456   4.826   6.729
  190SOL    HW2 1470   6.500   4.918   6.602
  191SOL     OW 1471   6.611   1.614   5.569
  191SOL    HW1 1472   6.581   1.520   5.584
  191SOL    HW2 1473   6.649   1.623   5.477
  192SOL     OW 1474   0.080   3.988   1.287
  192SOL    HW1 1475   0.143   4.052   1.331
  192SOL    HW2 1476   0.073   4.010   1.190
  193SOL     OW 1477   3.527   4.614   6.066
  193SOL    HW1 1478   3.495   4.619   5.972
  193SOL    HW2 1479   3.527   4.519   6.097
  194SOL     OW 1480   4.108   0.142   1.839
  194SOL    HW1 1481   4.195   0.148   1.790
  194SOL    HW2 1482   4.081   0.233   1.871
  195SOL     OW 1483   2.928   0.942   2.895
  195SOL    HW1 1484   2.908   0.856   2.849
  195SOL    HW2 1485   2.849   0.971   2.949
  196SOL     OW 1486   2.803   0.963   6.631
  196SOL    HW1 1487   2.837   0.871   6.654
  196SOL    HW2 1488   2.714   0.955   6.585
  197SOL     OW 1489   2.454   5.844   6.625
  197SOL    HW1 1490   2.524   5.793   6.574
  197SOL    HW2 1491   2.444   5.935   6.585
  198SOL     OW 1492   4.533   5.944   1.012
  198SOL    HW1 1493   4.499   5.860   0.969
  198SOL    HW2 1494   4.484   5.959   1.098
  199SOL     OW 1495   6.616   1.114   1.898
  199SOL    HW1 1496   6.653   1.021   1.889
  199SOL    HW2 1497   6.612   1.139   1.994
  200SOL     OW 1498   1.027   3.332   2.328
  200SOL    HW1 1499   0.955   3.311   2.262
  200SOL    HW2 1500   1.113   3.350   2.279
  201SOL     OW 1501   2.483   7.011   6.560
  201SOL    HW1 1502   2.460   0.047   6.482
  201SOL    HW2 1503   2.404   7.006   6.622
  202SOL     OW 1504   5.259   0.199   5.233
  202SOL    HW1 1505   5.315   0.282   5.237
  202SOL    HW2 1506   5.178   0.211   5.289
  203SOL     OW 1507   4.948   2.577   5.772
  203SOL    HW1 1508   4.874   2.610   5.714
  203SOL    HW2 1509   5.032   2.626   5.750
  204SOL     OW 1510   1.440   6.974   0.110
  204SOL    HW1 1511   1.509   6.927   0.165
  204SOL    HW2 1512   1.368   6.909   0.085
  205SOL     OW 1513   0.558   1.649   1.338
  205SOL    HW1 1514   0.527   1.613   1.250
  205SOL    HW2 1515   0.618   1.727   1.323
  206SOL     OW 1516   0.620   4.636   1.562
  206SOL    HW1 1517   0.557   4.626   1.485
  206SOL    HW2 1518   0.636   4.733   1.579
  207SOL     OW 1519   4.305   0.400   5.088
  207SOL    HW1 1520   4.265   0.487   5.118
  207SOL    HW2 1521   4.255   0.366   5.008
  208SOL     OW 1522   5.106   4.578   5.730
  208SOL    HW1 1523   5.135   4.550   5.821
  208SOL    HW2 1524   5.010   4.556   5.717
  209SOL     OW 1525   0.608   6.055   5.520
  209SOL    HW1 1526   0.679   6.087   5.584
  209SOL    HW2 1527   0.519   6.088   5.550
  210SOL     OW 1528   4.458   2.173   1.974
  210SOL    HW1 1529   4.495   2.265   1.985
  210SOL    HW2 1530   4.358   2.177   1.981
  211SOL     OW 1531   0.897   0.537   3.234
  211SOL    HW1 1532   0.890   0.565   3.138
  211SOL    HW2 1533   0.972   0.588   3.278
  212SOL     OW 1534   1.716   4.861   2.449
  212SOL    HW1 1535   1.755   4.922   2.518
  212SOL    HW2 1536   1.733   4.898   2.358
  213SOL     OW 1537   4.635   1.078   6.366
  213SOL    HW1 1538   4.653   1.082   6.267
  213SOL    HW2 1539   4.578   0.999   6.386
  214SOL     OW 1540   1.816   6.164   3.038
  214SOL    HW1 1541   1.905   6.197   3.007
  214SOL    HW2 1542   1.805   6.069   3.011
  215SOL     OW 1543   3.636   3.726   1.830
  215SOL    HW1 1544   3.604   3.751   1.921
  215SOL    HW2 1545   3.606   3.633   1.809
  216SOL     OW 1546   1.531   0.043   5.303
  216SOL    HW1 1547   1.509   0.108   5.230
  216SOL    HW2 1548   1.473   6.984   5.293
  217SOL     OW 1549   1.589   2.781   4.139
  217SOL    HW1 1550   1.547   2.857   4.187
  217SOL    HW2 1551   1.594   2.801   4.041
  218SOL     OW 1552   1.455   2.772   4.774
  218SOL    HW1 1553   1.478   2.868   4.759
  218SOL    HW2 1554   1.362   2.765   4.811
  219SOL     OW 1555   3.471   4.064   6.429
  219SOL    HW1 1556   3.495   4.161   6.423
  219SOL    HW2 1557   3.406   4.042   6.356
  220SOL     OW 1558   2.939   5.757   0.122
  220SOL    HW1 1559   2.914   5.848   0.090
  220SOL    HW2 1560   2.893   5.688   0.065
  221SOL     OW 1561   5.520   4.021   3.240
  221SOL    HW1 1562   5.568   4.013   3.153
  221SOL    HW2 1563   5.446   4.088   3.231
  222SOL     OW 1564   1.539   5.313   5.487
  222SOL    HW1 1565   1.593   5.273   5.561
  222SOL    HW2 1566   1.599   5.365   5.426
  223SOL     OW 1567   0.760   3.038   1.253
  223SOL    HW1 1568   0.734   3.116   1.310
  223SOL    HW2 1569   0.742   3.060   1.157
  224SOL     OW 1570   2.850   2.259   3.280
  224SOL    HW1 1571   2.812   2.316   3.352
  224SOL    HW2 1572   2.944   2.233   3.304
  225SOL     OW 1573   5.480   0.921   6.588
  225SOL    HW1 1574   5.427   0.887   6.510
  225SOL    HW2 1575   5.538   0.996   6.559
  226SOL     OW 1576   0.800   6.841   0.192
  226SOL    HW1 1577   0.734   6.818   0.121
  226SOL    HW2 1578   0.812   6.940   0.197
  227SOL     OW 1579   1.106   4.157   3.676
  227SOL    HW1 1580   1.080   4.125   3.584
  227SOL    HW2 1581   1.036   4.128   3.741
  228SOL     OW 1582   3.711   0.273   4.694
  228SOL    HW1 1583   3.612   0.282   4.683
  228SOL    HW2 1584   3.731   0.189   4.746
  229SOL     OW 1585   6.315   5.989   1.269
  229SOL    HW1 1586   6.256   5.981   1.189
  229SOL    HW2 1587   6.337   6.086   1.285
  230SOL     OW 1588   2.114   4.624   3.472
  230SOL    HW1 1589   2.104   4.648   3.569
  230SOL    HW2 1590   2.205   4.653   3.441
  231SOL     OW 1591   6.097   2.849   5.847
  231SOL    HW1 1592   6.194   2.863   5.830
  231SOL    HW2 1593   6.044   2.888   5.772
  232SOL     OW 1594   0.768   4.007   5.817
  232SOL    HW1 1595   0.839   4.051   5.873
  232SOL    HW2 1596   0.801   3.918   5.785
  233SOL     OW 1597   1.899   0.342   4.778
  233SOL    HW1 1598   1.826   0.275   4.787
  233SOL    HW2 1599   1.878   0.423   4.832
  234SOL     OW 1600   2.593   5.466   6.003
  234SOL    HW1 1601   2.556   5.382   6.044
  234SOL    HW2 1602   2.654   5.441   5.928
  235SOL     OW 1603   3.730   3.288   2.873
  235SOL    HW1 1604   3.767   3.199   2.846
  235SOL    HW2 1605   3.762   3.311   2.965
  236SOL     OW 1606   6.787   3.255   7.005
  236SOL    HW1 1607   6.783   3.351   0.009
  236SOL    HW2 1608   6.836   3.203   0.052
  237SOL     OW 1609   0.632   6.670   0.644
  237SOL    HW1 1610   0.612   6.690   0.739
  237SOL    HW2 1611   0.656   6.573   0.635
  238SOL     OW 1612   6.119   3.011   1.200
  238SOL    HW1 1613   6.121   3.025   1.101
  238SOL    HW2 1614   6.200   2.959   1.228
  239SOL     OW 1615   6.361   5.144   6.901
  239SOL    HW1 1616   6.289   5.074   6.900
  239SOL    HW2 1617   6.401   5.148   6.993
  240SOL     OW 1618   0.817   3.463   5.887
  240SOL    HW1 1619   0.911   3.484   5.859
  240SOL    HW2 1620   0.817   3.433   5.983
  241SOL     OW 1621   0.858   0.767   3.676
  241SOL    HW1 1622   0.941   0.820   3.664
  241SOL    HW2 1623   0.791   0.793   3.606
  242SOL     OW 1624   1.341   2.666   5.423
  242SOL    HW1 1625   1.280   2.745   5.420
  242SOL    HW2 1626   1.316   2.608   5.500
  243SOL     OW 1627   4.438   0.156   6.108
  243SOL    HW1 1628   4.359   0.213   6.089
  243SOL    HW2 1629   4.415   0.060   6.091
  244SOL     OW 1630   4.633   2.731   4.560
  244SOL    HW1 1631   4.610   2.648   4.509
  244SOL    HW2 1632   4.722   2.766   4.529
  245SOL     OW 1633   6.549   2.465   4.454
  245SOL    HW1 1634   6.549   2.494   4.550
  245SOL    HW2 1635   6.632   2.500   4.410
  246SOL     OW 1636   5.119   3.999   3.512
  246SOL    HW1 1637   5.183   4.075   3.527
  246SOL    HW2 1638   5.143   3.923   3.572
  247SOL     OW 1639   2.803   1.790   3.139
  247SOL    HW1 1640   2.871   1.845   3.188
  247SOL    HW2 1641   2.776   1.839   3.055
  248SOL     OW 1642   4.570   2.085   4.559
  248SOL    HW1 1643   4.494   2.145   4.582
  248SOL    HW2 1644   4.625   2.126   4.486
  249SOL     OW 1645   2.990   6.646   4.734
  249SOL    HW1 1646   2.941   6.559   4.738
  249SOL    HW2 1647   2.924   6.721   4.733
  250SOL     OW 1648   5.516   1.798   5.745
  250SOL    HW1 1649   5.511   1.880   5.689
  250SOL    HW2 1650   5.427   1.782   5.789
  251SOL     OW 1651   4.190   3.498   6.287
  251SOL    HW1 1652   4.100   3.513   6.246
  251SOL    HW2 1653   4.230   3.414   6.249
  252SOL     OW 1654   0.413   1.226   5.528
  252SOL    HW1 1655   0.408   1.322   5.501
  252SOL    HW2 1656   0.418   1.169   5.446
  253SOL     OW 1657   1.729   3.801   0.839
  253SOL    HW1 1658   1.744   3.899   0.829
  253SOL    HW2 1659   1.737   3.757   0.750
  254SOL     OW 1660   6.332   2.543   4.330
  254SOL    HW1 1661   6.245   2.510   4.368
  254SOL    HW2 1662   6.407   2.488   4.367
  255SOL     OW 1663   3.326   1.584   4.105
  255SOL    HW1 1664   3.419   1.622   4.102
  255SOL    HW2 1665   3.274   1.631   4.176
  256SOL     OW 1666   6.836   5.249   0.085
  256SOL    HW1 1667   6.812   5.328   0.028
  256SOL    HW2 1668   6.879   5.179   0.028
  257SOL     OW 1669   3.166   5.573   5.521
  257SOL    HW1 1670   3.181   5.636   5.444
  257SOL    HW2 1671   3.191   5.617   5.606
  258SOL     OW 1672   5.057   4.392   4.988
  258SOL    HW1 1673   5.107   4.355   4.909
  258SOL    HW2 1674   4.976   4.336   5.004
  259SOL     OW 1675   1.477   2.764   2.378
  259SOL    HW1 1676   1.567   2.801   2.399
  259SOL    HW2 1677   1.409   2.807   2.437
  260SOL     OW 1678   4.861   0.230   0.221
  260SOL    HW1 1679   4.812   0.317   0.216
  260SOL    HW2 1680   4.856   0.194   0.314
  261SOL     OW 1681   0.804   3.287   1.433
  261SOL    HW1 1682   0.808   3.258   1.529
  261SOL    HW2 1683   0.836   3.382   1.425
  262SOL     OW 1684   0.872   3.532   2.464
  262SOL    HW1 1685   0.890   3.530   2.562
  262SOL    HW2 1686   0.934   3.468   2.418
  263SOL     OW 1687   0.029   2.076   4.621
  263SOL    HW1 1688   0.056   2.169   4.644
  263SOL    HW2 1689   7.001   2.036   4.698
  264SOL     OW 1690   0.460   3.374   5.526
  264SOL    HW1 1691   0.376   3.323   5.505
  264SOL    HW2 1692   0.539   3.318   5.505
  265SOL     OW 1693   4.642   4.299   4.026
  265SOL    HW1 1694   4.697   4.380   4.046
  265SOL    HW2 1695   4.642   4.281   3.928
  266SOL     OW 1696   3.582   2.030   0.015
  266SOL    HW1 1697   3.615   2.077   0.097
  266SOL    HW2 1698   3.551   1.938   0.040
  267SOL     OW 1699   1.620   2.390   0.455
  267SOL    HW1 1700   1.671   2.393   0.540
  267SOL    HW2 1701   1.682   2.369   0.379
  268SOL     OW 1702   4.461   4.748   4.631
  268SOL    HW1 1703   4.380   4.792   4.669
  268SOL    HW2 1704   4.440   4.652   4.611
  269SOL     OW 1705   1.729   1.725   6.588
  269SOL    HW1 1706   1.805   1.675   6.628
  269SOL    HW2 1707   1.697   1.795   6.652
  270SOL     OW 1708   5.227   1.165   2.168
  270SOL    HW1 1709   5.138   1.209   2.176
  270SOL    HW2 1710   5.224   1.074   2.210
  271SOL     OW 1711   2.194   1.061   1.052
  271SOL    HW1 1712   2.201   0.966   1.023
  271SOL    HW2 1713   2.223   1.121   0.978
  272SOL     OW 1714   3.912   5.406   4.481
  272SOL    HW1 1715   4.004   5.411   4.521
  272SOL    HW2 1716   3.844   5.409   4.554
  273SOL     OW 1717   1.171   5.290   5.481
  273SOL    HW1 1718   1.114   5.219   5.440
  273SOL    HW2 1719   1.239   5.320   5.414
  274SOL     OW 1720   4.991   2.959   3.242
  274SOL    HW1 1721   4.953   2.933   3.154
  274SOL    HW2 1722   5.061   2.893   3.268
  275SOL     OW 1723   0.364   5.626   6.321
  275SOL    HW1 1724   0.302   5.556   6.287
  275SOL    HW2 1725   0.363   5.704   6.259
  276SOL     OW 1726   6.996   5.425   4.065
  276SOL    HW1 1727   6.977   5.332   4.032
  276SOL    HW2 1728   7.005   5.424   4.164
  277SOL     OW 1729   2.803   0.637   6.053
  277SOL    HW1 1730   2.704   0.630   6.064
  277SOL    HW2 1731   2.849   0.592   6.130
  278SOL     OW 1732   5.156   4.510   2.991
  278SOL    HW1 1733   5.145   4.413   2.971
  278SOL    HW2 1734   5.071   4.547   3.030
  279SOL     OW 1735   6.561   3.241   4.028
  279SOL    HW1 1736   6.640   3.194   3.990
  279SOL    HW2 1737   6.481   3.223   3.971
  280SOL     OW 1738   4.535   6.286   3.668
  280SOL    HW1 1739   4.602   6.214   3.684
  280SOL    HW2 1740   4.479   6.263   3.589
  281SOL     OW 1741   3.839   5.367   4.042
  281SOL    HW1 1742   3.868   5.278   4.006
  281SOL    HW2 1743   3.800   5.422   3.968
  282SOL     OW 1744   4.046   1.380   6.185
  282SOL    HW1 1745   3.967   1.428   6.147
  282SOL    HW2 1746   4.102   1.444   6.237
  283SOL     OW 1747   5.925   0.160   5.200
  283SOL    HW1 1748   5.850   0.219   5.169
  283SOL    HW2 1749   6.013   0.203   5.179
  284SOL     OW 1750   0.671   4.734   4.146
  284SOL    HW1 1751   0.716   4.823   4.136
  284SOL    HW2 1752   0.582   4.747   4.190
  285SOL     OW 1753   5.817   7.008   0.179
  285SOL    HW1 1754   5.767   0.070   0.159
  285SOL    HW2 1755   5.764   6.929   0.150
  286SOL     OW 1756   3.302   5.169   5.007
  286SOL    HW1 1757   3.283   5.134   5.099
  286SOL    HW2 1758   3.325   5.092   4.946
  287SOL     OW 1759   1.587   5.857   6.211
  287SOL    HW1 1760   1.564   5.950   6.239
  287SOL    HW2 1761   1.596   5.798   6.291
  288SOL     OW 1762   4.112   0.655   1.331
  288SOL    HW1 1763   4.032   0.603   1.302
  288SOL    HW2 1764   4.149   0.616   1.415
  289SOL     OW 1765   1.291   5.149   5.798
  289SOL    HW1 1766   1.192   5.141   5.786
  289SOL    HW2 1767   1.323   5.235   5.758
  290SOL     OW 1768   4.207   0.343   3.118
  290SOL    HW1 1769   4.115   0.308   3.138
  290SOL    HW2 1770   4.275   0.285   3.164
  291SOL     OW 1771   3.798   0.727   4.204
  291SOL    HW1 1772   3.875   0.748   4.143
  291SOL    HW2 1773   3.721   0.787   4.182
  292SOL     OW 1774   3.904   0.501   3.795
  292SOL    HW1 1775   3.910   0.484   3.894
  292SOL    HW2 1776   3.993   0.481   3.753
  293SOL     OW 1777   4.454   6.375   2.862
  293SOL    HW1 1778   4.459   6.285   2.906
  293SOL    HW2 1779   4.376   6.426   2.900
  294SOL     OW 1780   5.783   6.446   5.787
  294SOL    HW1 1781   5.868   6.475   5.831
  294SOL    HW2 1782   5.758   6.512   5.716
  295SOL     OW 1783   1.000   2.668   5.250
  295SOL    HW1 1784   1.086   2.711   5.223
  295SOL    HW2 1785   0.964   2.713   5.331
  296SOL     OW 1786   6.076   1.518   1.093
  296SOL    HW1 1787   6.144   1.455   1.056
  296SOL    HW2 1788   6.114   1.563   1.174
  297SOL     OW 1789   5.124   5.239   3.558
  297SOL    HW1 1790   5.126   5.218   3.656
  297SOL    HW2 1791   5.035   5.277   3.534
  298SOL     OW 1792   4.334   0.568   1.129
  298SOL    HW1 1793   4.314   0.544   1.034
  298SOL    HW2 1794   4.249   0.594   1.175
  299SOL     OW 1795   3.397   1.915   0.534
  299SOL    HW1 1796   3.382   1.918   0.435
  299SOL    HW2 1797   3.316   1.950   0.581
  300SOL     OW 1798   3.015   1.077   2.307
  300SOL    HW1 1799   3.036   1.109   2.399
  300SOL    HW2 1800   2.939   1.129   2.270
  301SOL     OW 1801   4.910   6.601   1.434
  301SOL    HW1 1802   4.940   6.520   1.384
  301SOL    HW2 1803   4.815   6.621   1.412
  302SOL     OW 1804   0.118   6.757   1.653
  302SOL    HW1 1805   0.055   6.682   1.636
  302SOL    HW2 1806   0.191   6.756   1.584
  303SOL     OW 1807   5.712   5.831   2.007
  303SOL    HW1 1808   5.689   5.765   2.078
  303SOL    HW2 1809   5.656   5.914   2.019
  304SOL     OW 1810   1.388   6.978   5.562
  304SOL    HW1 1811   1.368   6.881   5.554
  304SOL    HW2 1812   1.485   6.995   5.543
  305SOL     OW 1813   1.513   3.060   1.364
  305SOL    HW1 1814   1.463   3.003   1.299
  305SOL    HW2 1815   1.586   3.109   1.317
  306SOL     OW 1816   0.417   0.970   2.213
  306SOL    HW1 1817   0.335   1.016   2.247
  306SOL    HW2 1818   0.493   0.987   2.275
  307SOL     OW 1819   3.386   3.919   0.842
  307SOL    HW1 1820   3.365   3.853   0.770
  307SOL    HW2 1821   3.450   3.878   0.908
  308SOL     OW 1822   5.599   2.646   4.836
  308SOL    HW1 1823   5.544   2.639   4.919
  308SOL    HW2 1824   5.552   2.704   4.770
  309SOL     OW 1825   0.887   6.445   6.645
  309SOL    HW1 1826   0.850   6.523   6.594
  309SOL    HW2 1827   0.866   6.456   6.742
  310SOL     OW 1828   5.986   6.479   4.193
  310SOL    HW1 1829   6.050   6.457   4.119
  310SOL    HW2 1830   6.034   6.474   4.280
  311SOL     OW 1831   2.257   4.797   2.289
  311SOL    HW1 1832   2.344   4.830   2.326
  311SOL    HW2 1833   2.184   4.812   2.355
  312SOL     OW 1834   4.560   2.534   3.770
  312SOL    HW1 1835   4.563   2.447   3.819
  312SOL    HW2 1836   4.581   2.609   3.832
  313SOL     OW 1837   3.405   3.758   2.367
  313SOL    HW1 1838   3.309   3.771   2.392
  313SOL    HW2 1839   3.414   3.676   2.310
  314SOL     OW 1840   1.764   5.603   5.705
  314SOL    HW1 1841   1.824   5.584   5.627
  314SOL    HW2 1842   1.765   5.702   5.723
  315SOL     OW 1843   0.327   1.370   3.056
  315SOL    HW1 1844   0.289   1.436   3.121
  315SOL    HW2 1845   0.260   1.351   2.985
  316SOL     OW 1846   4.585   1.669   4.728
  316SOL    HW1 1847   4.530   1.752   4.717
  316SOL    HW2 1848   4.676   1.684   4.690
  317SOL     OW 1849   1.490   1.672   2.075
  317SOL    HW1 1850   1.413   1.613   2.051
  317SOL    HW2 1851   1.485   1.697   2.171
  318SOL     OW 1852   6.590   0.089   6.178
  318SOL    HW1 1853   6.573   0.000   6.136
  318SOL    HW2 1854   6.590   0.079   6.278
  319SOL     OW 1855   7.006   2.224   3.246
  319SOL    HW1 1856   0.032   2.139   3.265
  319SOL    HW2 1857   0.037   2.280   3.182
  320SOL     OW 1858   6.066   2.413   0.008
  320SOL    HW1 1859   5.972   2.401   0.039
  320SOL    HW2 1860   6.093   2.335   6.974
  321SOL     OW 1861   3.556   2.945   0.453
  321SOL    HW1 1862   3.593   3.006   0.384
  321SOL    HW2 1863   3.621   2.872   0.473
  322SOL     OW 1864   3.851   2.968   4.945
  322SOL    HW1 1865   3.772   2.915   4.915
  322SOL    HW2 1866   3.891   3.016   4.867
  323SOL     OW 1867   1.247   2.486   4.028
  323SOL    HW1 1868   1.186   2.446   3.960
  323SOL    HW2 1869   1.207   2.473   4.119
  324SOL     OW 1870   2.229   6.691   3.554
  324SOL    HW1 1871   2.156   6.647   3.606
  324SOL    HW2 1872   2.215   6.790   3.554
  325SOL     OW 1873   1.484   3.598   2.611
  325SOL    HW1 1874   1.428   3.681   2.611
  325SOL    HW2 1875   1.570   3.616   2.658
  326SOL     OW 1876   1.613   4.062   5.893
  326SOL    HW1 1877   1.707   4.094   5.890
  326SOL    HW2 1878   1.577   4.073   5.986
  327SOL     OW 1879   2.678   4.646   2.304
  327SOL    HW1 1880   2.621   4.679   2.228
  327SOL    HW2 1881   2.632   4.569   2.349
  328SOL     OW 1882   2.329   4.608   1.479
  328SOL    HW1 1883   2.340   4.541   1.406
  328SOL    HW2 1884   2.401   4.677   1.473
  329SOL     OW 1885   3.019   3.700   6.405
  329SOL    HW1 1886   3.089   3.733   6.468
  329SOL    HW2 1887   2.944   3.766   6.400
  330SOL     OW 1888   3.918   6.127   0.228
  330SOL    HW1 1889   3.821   6.139   0.253
  330SOL    HW2 1890   3.939   6.182   0.148
  331SOL     OW 1891   5.350   4.730   0.916
  331SOL    HW1 1892   5.419   4.689   0.856
  331SOL    HW2 1893   5.392   4.801   0.972
  332SOL     OW 1894   5.609   2.354   3.530
  332SOL    HW1 1895   5.641   2.267   3.568
  332SOL    HW2 1896   5.527   2.383   3.580
  333SOL     OW 1897   4.346   0.729   5.053
  333SOL    HW1 1898   4.325   0.802   4.987
  333SOL    HW2 1899   4.299   0.747   5.139
  334SOL     OW 1900   3.754   2.917   1.490
  334SOL    HW1 1901   3.706   2.830   1.500
  334SOL    HW2 1902   3.773   2.933   1.393
  335SOL     OW 1903   4.704   0.426   6.728
  335SOL    HW1 1904   4.613   0.446   6.766
  335SOL    HW2 1905   4.695   0.354   6.659
  336SOL     OW 1906   2.949   1.911   2.737
  336SOL    HW1 1907   2.922   1.956   2.652
  336SOL    HW2 1908   2.873   1.916   2.802
  337SOL     OW 1909   1.337   2.568   5.976
  337SOL    HW1 1910   1.238   2.575   5.985
  337SOL    HW2 1911   1.376   2.540   6.064
  338SOL     OW 1912   3.748   3.613   0.662
  338SOL    HW1 1913   3.794   3.533   0.625
  338SOL    HW2 1914   3.804   3.653   0.735
  339SOL     OW 1915   4.176   4.768   4.448
  339SOL    HW1 1916   4.089   4.793   4.405
  339SOL    HW2 1917   4.164   4.763   4.547
  340SOL     OW 1918   4.967   3.423   5.193
  340SOL    HW1 1919   4.932   3.335   5.160
  340SOL    HW2 1920   4.898   3.494   5.177
  341SOL     OW 1921   6.020   5.757   4.570
  341SOL    HW1 1922   6.008   5.855   4.585
  341SOL    HW2 1923   5.938   5.719   4.527
  342SOL     OW 1924   4.764   3.266   1.071
  342SOL    HW1 1925   4.813   3.193   1.024
  342SOL    HW2 1926   4.667   3.261   1.047
  343SOL     OW 1927   0.036   6.620   2.117
  343SOL    HW1 1928   7.007   6.678   2.054
  343SOL    HW2 1929   7.002   6.598   2.196
  344SOL     OW 1930   1.276   2.292   1.814
  344SOL    HW1 1931   1.300   2.362   1.882
  344SOL    HW2 1932   1.187   2.252   1.838
  345SOL     OW 1933   6.337   2.008   4.070
  345SOL    HW1 1934   6.241   2.030   4.087
  345SOL    HW2 1935   6.363   2.041   3.979
  346SOL     OW 1936   1.666   0.297   2.549
  346SOL    HW1 1937   1.656   0.201   2.579
  346SOL    HW2 1938   1.583   0.326   2.503
  347SOL     OW 1939   3.066   6.085   6.902
  347SOL    HW1 1940   3.101   6.148   6.833
  347SOL    HW2 1941   3.139   6.062   6.967
  348SOL     OW 1942   4.880   5.284   3.074
  348SOL    HW1 1943   4.806   5.238   3.124
  348SOL    HW2 1944   4.953   5.308   3.137
  349SOL     OW 1945   6.900   4.185   2.320
  349SOL    HW1 1946   6.894   4.190   2.220
  349SOL    HW2 1947   6.959   4.258   2.354
  350SOL     OW 1948   2.778   2.841   0.205
  350SOL    HW1 1949   2.842   2.913   0.179
  350SOL    HW2 1950   2.689   2.882   0.228
  351SOL     OW 1951   2.944   3.284   0.529
  351SOL    HW1 1952   2.935   3.384   0.529
  351SOL    HW2 1953   2.902   3.247   0.612
  352SOL     OW 1954   3.472   6.412   3.854
  352SOL    HW1 1955   3.434   6.346   3.789
  352SOL    HW2 1956   3.572   6.413   3.846
  353SOL     OW 1957   3.141   0.344   6.513
  353SOL    HW1 1958   3.203   0.266   6.514
  353SOL    HW2 1959   3.193   0.428   6.530
  354SOL     OW 1960   4.725   2.822   0.667
  354SOL    HW1 1961   4.635   2.819   0.623
  354SOL    HW2 1962   4.785   2.755   0.624
  355SOL     OW 1963   1.815   3.602   2.228
  355SOL    HW1 1964   1.836   3.569   2.321
  355SOL    HW2 1965   1.717   3.592   2.211
  356SOL     OW 1966   1.987   0.730   4.330
  356SOL    HW1 1967   2.070   0.675   4.341
  356SOL    HW2 1968   1.918   0.699   4.396
  357SOL     OW 1969   0.498   6.086   4.446
  357SOL    HW1 1970   0.532   6.175   4.474
  357SOL    HW2 1971   0.482   6.029   4.527
  358SOL     OW 1972   4.866   6.412   0.628
  358SOL    HW1 1973   4.911   6.433   0.715
  358SOL    HW2 1974   4.784   6.468   0.618
  359SOL     OW 1975   3.046   0.977   1.942
  359SOL    HW1 1976   3.032   1.051   1.876
  359SOL    HW2 1977   3.025   0.890   1.899
  360SOL     OW 1978   1.390   4.131   4.169
  360SOL    HW1 1979   1.374   4.041   4.209
  360SOL    HW2 1980   1.427   4.121   4.076
  361SOL     OW 1981   0.021   6.052   2.851
  361SOL    HW1 1982   6.957   6.100   2.865
  361SOL    HW2 1983   0.004   5.963   2.809
  362SOL     OW 1984   3.484   3.587   0.779
  362SOL    HW1 1985   3.520   3.521   0.845
  362SOL    HW2 1986   3.557   3.615   0.717
  363SOL     OW 1987   6.054   4.974   2.849
  363SOL    HW1 1988   6.075   5.071   2.837
  363SOL    HW2 1989   5.962   4.964   2.888
  364SOL     OW 1990   0.017   5.134   6.617
  364SOL    HW1 1991   0.020   5.071   6.540
  364SOL    HW2 1992   0.054   5.089   6.699
  365SOL     OW 1993   4.434   1.052   1.584
  365SOL    HW1 1994   4.455   0.960   1.618
  365SOL    HW2 1995   4.518   1.097   1.555
  366SOL     OW 1996   5.316   2.518   0.270
  366SOL    HW1 1997   5.310   2.520   0.370
  366SOL    HW2 1998   5.304   2.610   0.234
  367SOL     OW 1999   6.186   2.456   6.650
  367SOL    HW1 2000   6.123   2.389   6.690
  367SOL    HW2 2001   6.264   2.469   6.711
  368SOL     OW 2002   6.825   2.526   5.557
  368SOL    HW1 2003   6.764   2.468   5.611
  368SOL    HW2 2004   6.919   2.517   5.591
  369SOL     OW 2005   5.815   4.678   2.932
  369SOL    HW1 2006   5.789   4.662   2.837
  369SOL    HW2 2007   5.910   4.652   2.946
  370SOL     OW 2008   0.753   2.113   3.936
  370SOL    HW1 2009   0.734   2.122   4.034
  370SOL    HW2 2010   0.775   2.018   3.915
  371SOL     OW 2011   2.225   4.235   6.835
  371SOL    HW1 2012   2.325   4.230   6.844
  371SOL    HW2 2013   2.192   4.323   6.867
  372SOL     OW 2014   1.892   6.738   5.256
  372SOL    HW1 2015   1.815   6.684   5.287
  372SOL    HW2 2016   1.881   6.833   5.286
  373SOL     OW 2017   5.364   5.966   5.317
  373SOL    HW1 2018   5.366   6.047   5.375
  373SOL    HW2 2019   5.294   5.903   5.349
  374SOL     OW 2020   2.578   2.327   3.146
  374SOL    HW1 2021   2.626   2.240   3.140
  374SOL    HW2 2022   2.524   2.341   3.064
  375SOL     OW 2023   1.094   4.452   4.299
  375SOL    HW1 2024   1.094   4.495   4.389
  375SOL    HW2 2025   1.008   4.473   4.252
  376SOL     OW 2026   1.403   1.922   5.246
  376SOL    HW1 2027   1.498   1.944   5.226
  376SOL    HW2 2028   1.347   2.005   5.241
  377SOL     OW 2029   1.901   2.433   0.017
  377SOL    HW1 2030   1.822   2.484   7.007
  377SOL    HW2 2031   1.885   2.335   0.006
  378SOL     OW 2032   3.966   1.717   0.188
  378SOL    HW1 2033   4.055   1.751   0.157
  378SOL    HW2 2034   3.935   1.771   0.266
  379SOL     OW 2035   5.189   2.672   6.818
  379SOL    HW1 2036   5.143   2.761   6.815
  379SOL    HW2 2037   5.127   2.605   6.859
  380SOL     OW 2038   3.492   1.189   1.320
  380SOL    HW1 2039   3.585   1.209   1.290
  380SOL    HW2 2040   3.483   1.091   1.338
  381SOL     OW 2041   1.556   3.847   3.896
  381SOL    HW1 2042   1.635   3.852   3.835
  381SOL    HW2 2043   1.500   3.769   3.871
  382SOL     OW 2044   5.585   0.500   0.079
  382SOL    HW1 2045   5.644   0.427   0.045
  382SOL    HW2 2046   5.579   0.572   0.010
  383SOL     OW 2047   4.131   3.624   0.569
  383SOL    HW1 2048   4.121   3.702   0.631
  383SOL    HW2 2049   4.130   3.539   0.622
  384SOL     OW 2050   0.081   5.193   4.482
  384SOL    HW1 2051   0.148   5.263   4.460
  384SOL    HW2 2052   7.012   5.232   4.478
  385SOL     OW 2053   3.232   5.908   6.016
  385SOL    HW1 2054   3.153   5.893   6.076
  385SOL    HW2 2055   3.226   5.846   5.937
  386SOL     OW 2056   3.518   0.457   4.218
  386SOL    HW1 2057   3.592   0.450   4.285
  386SOL    HW2 2058   3.534   0.393   4.143
  387SOL     OW 2059   0.853   5.867   2.234
  387SOL    HW1 2060   0.892   5.939   2.292
  387SOL    HW2 2061   0.908   5.857   2.151
  388SOL     OW 2062   1.990   2.192   6.541
  388SOL    HW1 2063   1.935   2.275   6.536
  388SOL    HW2 2064   2.064   2.197   6.474
  389SOL     OW 2065   3.245   3.451   2.072
  389SOL    HW1 2066   3.284   3.486   1.987
  389SOL    HW2 2067   3.232   3.352   2.064
  390SOL     OW 2068   3.136   0.851   3.496
  390SOL    HW1 2069   3.087   0.830   3.581
  390SOL    HW2 2070   3.104   0.939   3.460
  391SOL     OW 2071   2.139   2.463   6.339
  391SOL    HW1 2072   2.152   2.380   6.392
  391SOL    HW2 2073   2.196   2.460   6.257
  392SOL     OW 2074   1.449   4.291   0.267
  392SOL    HW1 2075   1.472   4.383   0.298
  392SOL    HW2 2076   1.517   4.261   0.199
  393SOL     OW 2077   0.535   4.741   6.104
  393SOL    HW1 2078   0.596   4.685   6.048
  393SOL    HW2 2079   0.528   4.702   6.196
  394SOL     OW 2080   0.471   0.706   6.725
  394SOL    HW1 2081   0.381   0.749   6.733
  394SOL    HW2 2082   0.533   0.748   6.791
  395SOL     OW 2083   4.839   3.880   3.039
  395SOL    HW1 2084   4.916   3.899   3.101
  395SOL    HW2 2085   4.862   3.912   2.947
  396SOL     OW 2086   4.112   3.843   1.862
  396SOL    HW1 2087   4.042   3.792   1.913
  396SOL    HW2 2088   4.078   3.935   1.843
  397SOL     OW 2089   4.146   2.469   5.671
  397SOL    HW1 2090   4.215   2.416   5.622
  397SOL    HW2 2091   4.056   2.448   5.634
  398SOL     OW 2092   0.736   6.267   2.499
  398SOL    HW1 2093   0.760   6.257   2.402
  398SOL    HW2 2094   0.792   6.204   2.553
  399SOL     OW 2095   5.081   6.662   3.077
  399SOL    HW1 2096   5.100   6.637   2.982
  399SOL    HW2 2097   5.163   6.703   3.117
  400SOL     OW 2098   5.958   6.595   5.327
  400SOL    HW1 2099   5.879   6.543   5.362
  400SOL    HW2 2100   5.979   6.670   5.389
  401SOL     OW 2101   4.999   0.919   5.104
  401SOL    HW1 2102   5.026   0.958   5.192
  401SOL    HW2 2103   4.998   0.819   5.110
  402SOL     OW 2104   6.279   0.244   3.301
  402SOL    HW1 2105   6.225   0.164   3.326
  402SOL    HW2 2106   6.291   0.246   3.202
  403SOL     OW 2107   4.420   2.207   4.975
  403SOL    HW1 2108   4.393   2.303   4.962
  403SOL    HW2 2109   4.477   2.199   5.057
  404SOL     OW 2110   1.789   5.865   4.324
  404SOL    HW1 2111   1.723   5.841   4.253
  404SOL    HW2 2112   1.832   5.953   4.301
  405SOL     OW 2113   1.637   3.884   1.880
  405SOL    HW1 2114   1.711   3.882   1.947
  405SOL    HW2 2115   1.669   3.930   1.797
  406SOL     OW 2116   0.753   3.941   4.088
  406SOL    HW1 2117   0.844   3.962   4.123
  406SOL    HW2 2118   0.685   3.964   4.158
  407SOL     OW 2119   1.818   0.227   3.644
  407SOL    HW1 2120   1.788   0.171   3.567
  407SOL    HW2 2121   1.893   0.287   3.615
  408SOL     OW 2122   0.801   1.772   3.198
  408SOL    HW1 2123   0.805   1.833   3.119
  408SOL    HW2 2124   0.784   1.825   3.281
  409SOL     OW 2125   6.098   2.465   1.114
  409SOL    HW1 2126   6.018   2.460   1.054
  409SOL    HW2 2127   6.179   2.486   1.060
  410SOL     OW 2128   1.753   0.448   0.326
  410SOL    HW1 2129   1.694   0.387   0.378
  410SOL    HW2 2130   1.759   0.416   0.231
  411SOL     OW 2131   5.490   6.502   6.674
  411SOL    HW1 2132   5.554   6.574   6.645
  411SOL    HW2 2133   5.508   6.419   6.622
  412SOL     OW 2134   5.462   6.594   3.717
  412SOL    HW1 2135   5.480   6.505   3.761
  412SOL    HW2 2136   5.448   6.663   3.788
  413SOL     OW 2137   5.499   5.423   1.637
  413SOL    HW1 2138   5.403   5.434   1.612
  413SOL    HW2 2139   5.514   5.458   1.730
  414SOL     OW 2140   3.685   4.882   3.661
  414SOL    HW1 2141   3.707   4.854   3.754
  414SOL    HW2 2142   3.769   4.895   3.609
  415SOL     OW 2143   1.036   5.787   6.677
  415SOL    HW1 2144   0.972   5.831   6.614
  415SOL    HW2 2145   1.027   5.830   6.768
  416SOL     OW 2146   4.931   5.472   4.182
  416SOL    HW1 2147   4.970   5.519   4.102
  416SOL    HW2 2148   4.985   5.390   4.202
  417SOL     OW 2149   2.351   5.019   0.752
  417SOL    HW1 2150   2.326   5.110   0.784
  417SOL    HW2 2151   2.423   5.026   0.683
  418SOL     OW 2152   4.346   6.021   2.111
  418SOL    HW1 2153   4.332   6.120   2.101
  418SOL    HW2 2154   4.329   5.975   2.024
  419SOL     OW 2155   1.808   6.872   0.909
  419SOL    HW1 2156   1.718   6.854   0.948
  419SOL    HW2 2157   1.801   6.942   0.838
  420SOL     OW 2158   6.180   1.948   0.557
  420SOL    HW1 2159   6.099   1.890   0.563
  420SOL    HW2 2160   6.248   1.918   0.623
  421SOL     OW 2161   0.141   4.967   5.923
  421SOL    HW1 2162   0.101   5.016   5.846
  421SOL    HW2 2163   0.201   4.894   5.889
  422SOL     OW 2164   5.232   4.562   0.577
  422SOL    HW1 2165   5.253   4.492   0.508
  422SOL    HW2 2166   5.139   4.595   0.563
  423SOL     OW 2167   0.889   2.684   0.185
  423SOL    HW1 2168   0.873   2.683   0.283
  423SOL    HW2 2169   0.893   2.779   0.153
  424SOL     OW 2170   2.862   3.434   1.232
  424SOL    HW1 2171   2.870   3.527   1.267
  424SOL    HW2 2172   2.896   3.370   1.301
  425SOL     OW 2173   5.839   1.068   1.939
  425SOL    HW1 2174   5.756   1.094   1.889
  425SOL    HW2 2175   5.822   1.074   2.037
  426SOL     OW 2176   4.660   2.737   3.918
  426SOL    HW1 2177   4.693   2.713   4.009
  426SOL    HW2 2178   4.722   2.803   3.876
  427SOL     OW 2179   5.102   5.070   2.681
  427SOL    HW1 2180   5.171   5.047   2.750
  427SOL    HW2 2181   5.062   4.986   2.644
  428SOL     OW 2182   4.294   0.629   4.714
  428SOL    HW1 2183   4.346   0.640   4.799
  428SOL    HW2 2184   4.353   0.588   4.645
  429SOL     OW 2185   2.406   3.769   0.702
  429SOL    HW1 2186   2.343   3.717   0.760
  429SOL    HW2 2187   2.401   3.866   0.727
  430SOL     OW 2188   6.620   0.205   4.189
  430SOL    HW1 2189   6.634   0.176   4.095
  430SOL    HW2 2190   6.614   0.124   4.248
  431SOL     OW 2191   3.809   6.764   0.450
  431SOL    HW1 2192   3.883   6.702   0.474
  431SOL    HW2 2193   3.796   6.764   0.350
  432SOL     OW 2194   6.645   1.772   1.579
  432SOL    HW1 2195   6.662   1.749   1.483
  432SOL    HW2 2196   6.726   1.752   1.633
  433SOL     OW 2197   3.392   6.365   4.535
  433SOL    HW1 2198   3.424   6.381   4.441
  433SOL    HW2 2199   3.318   6.429   4.556
  434SOL     OW 2200   3.719   6.166   2.017
  434SOL    HW1 2201   3.791   6.118   1.967
  434SOL    HW2 2202   3.691   6.111   2.096
  435SOL     OW 2203   5.208   2.326   5.595
  435SOL    HW1 2204   5.184   2.291   5.685
  435SOL    HW2 2205   5.230   2.423   5.601
  436SOL     OW 2206   3.343   6.150   1.002
  436SOL    HW1 2207   3.293   6.214   1.061
  436SOL    HW2 2208   3.377   6.074   1.057
  437SOL     OW 2209   0.989   0.073   6.477
  437SOL    HW1 2210   0.940   0.008   6.419
  437SOL    HW2 2211   0.948   0.164   6.469
  438SOL     OW 2212   2.054   3.357   2.307
  438SOL    HW1 2213   2.084   3.283   2.247
  438SOL    HW2 2214   2.027   3.319   2.395
  439SOL     OW 2215   5.800   4.279   3.514
  439SOL    HW1 2216   5.834   4.347   3.449
  439SOL    HW2 2217   5.760   4.202   3.464
  440SOL     OW 2218   1.395   1.222   5.180
  440SOL    HW1 2219   1.355   1.311   5.202
  440SOL    HW2 2220   1.358   1.153   5.242
  441SOL     OW 2221   1.244   2.663   3.568
  441SOL    HW1 2222   1.280   2.611   3.645
  441SOL    HW2 2223   1.145   2.670   3.576
  442SOL     OW 2224   2.882   5.274   6.320
  442SOL    HW1 2225   2.813   5.207   6.292
  442SOL    HW2 2226   2.900   5.265   6.418
  443SOL     OW 2227   6.629   4.210   4.413
  443SOL    HW1 2228   6.664   4.148   4.343
  443SOL    HW2 2229   6.580   4.157   4.482
  444SOL     OW 2230   5.279   1.765   5.918
  444SOL    HW1 2231   5.185   1.742   5.943
  444SOL    HW2 2232   5.326   1.801   5.999
  445SOL     OW 2233   1.007   5.340   2.745
  445SOL    HW1 2234   0.919   5.294   2.745
  445SOL    HW2 2235   1.028   5.373   2.653
  446SOL     OW 2236   4.165   4.789   3.574
  446SOL    HW1 2237   4.171   4.710   3.513
  446SOL    HW2 2238   4.197   4.763   3.665
  447SOL     OW 2239   0.770   2.569   6.330
  447SOL    HW1 2240   0.842   2.636   6.310
  447SOL    HW2 2241   0.713   2.555   6.250
  448SOL     OW 2242   3.127   0.703   4.137
  448SOL    HW1 2243   3.057   0.668   4.200
  448SOL    HW2 2244   3.102   0.796   4.109
  449SOL     OW 2245   4.397   0.921   4.372
  449SOL    HW1 2246   4.486   0.937   4.331
  449SOL    HW2 2247   4.405   0.923   4.471
  450SOL     OW 2248   1.392   5.650   3.658
  450SOL    HW1 2249   1.355   5.693   3.575
  450SOL    HW2 2250   1.484   5.687   3.676
  451SOL     OW 2251   2.111   1.960   3.702
  451SOL    HW1 2252   2.145   2.008   3.621
  451SOL    HW2 2253   2.024   2.000   3.730
  452SOL     OW 2254   6.490   6.495   1.111
  452SOL    HW1 2255   6.574   6.447   1.086
  452SOL    HW2 2256   6.415   6.430   1.116
  453SOL     OW 2257   3.885   1.012   4.955
  453SOL    HW1 2258   3.888   0.934   5.018
  453SOL    HW2 2259   3.897   1.097   5.007
  454SOL     OW 2260   0.006   4.805   6.103
  454SOL    HW1 2261   0.051   4.860   6.033
  454SOL    HW2 2262   6.940   4.846   6.126
  455SOL     OW 2263   6.029   2.763   2.743
  455SOL    HW1 2264   6.044   2.716   2.656
  455SOL    HW2 2265   6.116   2.792   2.782
  456SOL     OW 2266   5.734   6.355   4.336
  456SOL    HW1 2267   5.818   6.377   4.286
  456SOL    HW2 2268   5.665   6.425   4.317
  457SOL     OW 2269   1.669   3.363   3.710
  457SOL    HW1 2270   1.751   3.340   3.657
  457SOL    HW2 2271   1.691   3.433   3.777
  458SOL     OW 2272   4.254   5.702   3.432
  458SOL    HW1 2273   4.288   5.669   3.520
  458SOL    HW2 2274   4.301   5.653   3.358
  459SOL     OW 2275   1.834   6.973   5.367
  459SOL    HW1 2276   1.838   6.961   5.466
  459SOL    HW2 2277   1.741   7.002   5.341
  460SOL     OW 2278   1.561   0.306   3.781
  460SOL    HW1 2279   1.645   0.264   3.746
  460SOL    HW2 2280   1.580   0.399   3.812
  461SOL     OW 2281   5.783   0.002   5.870
  461SOL    HW1 2282   5.797   0.097   5.840
  461SOL    HW2 2283   5.871   6.976   5.867
  462SOL     OW 2284   3.432   2.900   6.303
  462SOL    HW1 2285   3.410   2.967   6.373
  462SOL    HW2 2286   3.394   2.929   6.215
  463SOL     OW 2287   6.571   5.834   3.006
  463SOL    HW1 2288   6.489   5.867   2.960
  463SOL    HW2 2289   6.639   5.907   3.008
  464SOL     OW 2290   2.301   2.199   5.235
  464SOL    HW1 2291   2.369   2.197   5.161
  464SOL    HW2 2292   2.330   2.136   5.307
  465SOL     OW 2293   0.727   2.557   5.482
  465SOL    HW1 2294   0.796   2.491   5.509
  465SOL    HW2 2295   0.688   2.531   5.393
  466SOL     OW 2296   0.963   5.580   3.066
  466SOL    HW1 2297   0.868   5.595   3.094
  466SOL    HW2 2298   0.984   5.637   2.987
  467SOL     OW 2299   1.769   1.479   0.699
  467SOL    HW1 2300   1.793   1.430   0.615
  467SOL    HW2 2301   1.709   1.556   0.677
  468SOL     OW 2302   3.783   6.829   0.158
  468SOL    HW1 2303   3.783   6.848   0.060
  468SOL    HW2 2304   3.700   6.778   0.182
  469SOL     OW 2305   2.748   3.912   6.961
  469SOL    HW1 2306   2.751   3.901   6.862
  469SOL    HW2 2307   2.832   3.877   7.002
  470SOL     OW 2308   4.380   0.456   1.950
  470SOL    HW1 2309   4.307   0.491   2.009
  470SOL    HW2 2310   4.349   0.372   1.905
  471SOL     OW 2311   2.505   2.161   4.052
  471SOL    HW1 2312   2.475   2.253   4.078
  471SOL    HW2 2313   2.525   2.159   3.954
  472SOL     OW 2314   5.269   3.596   6.534
  472SOL    HW1 2315   5.343   3.550   6.583
  472SOL    HW2 2316   5.196   3.619   6.598
  473SOL     OW 2317   1.224   3.129   2.758
  473SOL    HW1 2318   1.224   3.123   2.658
  473SOL    HW2 2319   1.190   3.219   2.786
  474SOL     OW 2320   5.477   5.580   4.134
  474SOL    HW1 2321   5.408   5.515   4.102
  474SOL    HW2 2322   5.435   5.645   4.197
  475SOL     OW 2323   5.467   0.746   6.789
  475SOL    HW1 2324   5.548   0.693   6.766
  475SOL    HW2 2325   5.461   0.825   6.728
  476SOL     OW 2326   6.615   3.823   3.229
  476SOL    HW1 2327   6.701   3.858   3.266
  476SOL    HW2 2328   6.542   3.889   3.249
  477SOL     OW 2329   2.011   4.837   3.693
  477SOL    HW1 2330   2.058   4.895   3.760
  477SOL    HW2 2331   1.973   4.757   3.739
  478SOL     OW 2332   3.304   0.010   1.741
  478SOL    HW1 2333   3.250   7.002   1.820
  478SOL    HW2 2334   3.398   7.000   1.750
  479SOL     OW 2335   4.118   2.356   6.042
  479SOL    HW1 2336   4.151   2.331   6.133
  479SOL    HW2 2337   4.184   2.326   5.973
  480SOL     OW 2338   2.236   1.367   6.953
  480SOL    HW1 2339   2.300   1.424   6.901
  480SOL    HW2 2340   2.214   1.412   0.017
  481SOL     OW 2341   1.954   6.850   0.509
  481SOL    HW1 2342   2.050   6.876   0.506
  481SOL    HW2 2343   1.928   6.805   0.423
  482SOL     OW 2344   4.490   4.796   3.128
  482SOL    HW1 2345   4.555   4.842   3.067
  482SOL    HW2 2346   4.420   4.751   3.073
  483SOL     OW 2347   6.589   0.833   1.947
  483SOL    HW1 2348   6.528   0.754   1.943
  483SOL    HW2 2349   6.681   0.803   1.968
  484SOL     OW 2350   1.688   3.348   5.167
  484SOL    HW1 2351   1.688   3.445   5.190
  484SOL    HW2 2352   1.699   3.294   5.251
  485SOL     OW 2353   3.912   5.154   2.553
  485SOL    HW1 2354   3.971   5.112   2.623
  485SOL    HW2 2355   3.956   5.236   2.518
  486SOL     OW 2356   6.736   1.707   0.401
  486SOL    HW1 2357   6.692   1.769   0.466
  486SOL    HW2 2358   6.781   1.633   0.451
  487SOL     OW 2359   1.180   0.507   1.084
  487SOL    HW1 2360   1.196   0.568   1.160
  487SOL    HW2 2361   1.213   0.548   0.999
  488SOL     OW 2362   0.781   1.418   2.410
  488SOL    HW1 2363   0.684   1.398   2.419
  488SOL    HW2 2364   0.808   1.486   2.479
  489SOL     OW 2365   3.147   6.531   6.548
  489SOL    HW1 2366   3.093   6.614   6.533
  489SOL    HW2 2367   3.217   6.523   6.477
  490SOL     OW 2368   6.109   5.613   3.421
  490SOL    HW1 2369   6.178   5.581   3.487
  490SOL    HW2 2370   6.060   5.691   3.459
  491SOL     OW 2371   0.414   3.266   2.813
  491SOL    HW1 2372   0.478   3.331   2.854
  491SOL    HW2 2373   0.350   3.316   2.754
  492SOL     OW 2374   2.093   0.638   5.728
  492SOL    HW1 2375   2.050   0.696   5.659
  492SOL    HW2 2376   2.080   0.680   5.818
  493SOL     OW 2377   5.238   5.938   4.992
  493SOL    HW1 2378   5.311   6.005   5.006
  493SOL    HW2 2379   5.270   5.848   5.021
  494SOL     OW 2380   0.139   0.488   6.872
  494SOL    HW1 2381   0.158   0.420   6.942
  494SOL    HW2 2382   0.180   0.459   6.785
  495SOL     OW 2383   4.890   5.897   3.522
  495SOL    HW1 2384   4.957   5.850   3.580
  495SOL    HW2 2385   4.921   5.991   3.505
  496SOL     OW 2386   5.124   4.024   1.861
  496SOL    HW1 2387   5.096   4.083   1.785
  496SOL    HW2 2388   5.066   3.943   1.865
  497SOL     OW 2389   3.328   1.273   4.572
  497SOL    HW1 2390   3.417   1.229   4.589
  497SOL    HW2 2391   3.327   1.312   4.480
  498SOL     OW 2392   2.237   3.643   1.362
  498SOL    HW1 2393   2.205   3.722   1.413
  498SOL    HW2 2394   2.197   3.560   1.401
  499SOL     OW 2395   2.441   6.650   4.247
  499SOL    HW1 2396   2.408   6.561   4.276
  499SOL    HW2 2397   2.368   6.718   4.255
  500SOL     OW 2398   0.398   3.318   4.578
  500SOL    HW1 2399   0.407   3.224   4.611
  500SOL    HW2 2400   0.458   3.377   4.631
  501SOL     OW 2401   2.860   5.624   0.836
  501SOL    HW1 2402   2.932   5.660   0.776
  501SOL    HW2 2403   2.779   5.681   0.828
  502SOL     OW 2404   0.106   3.965   0.555
  502SOL    HW1 2405   0.130   3.870   0.537
  502SOL    HW2 2406   0.008   3.972   0.574
  503SOL     OW 2407   6.439   5.350   6.310
  503SOL    HW1 2408   6.459   5.407   6.389
  503SOL    HW2 2409   6.363   5.288   6.332
  504SOL     OW 2410   1.448   5.716   2.668
  504SOL    HW1 2411   1.378   5.738   2.736
  504SOL    HW2 2412   1.505   5.797   2.652
  505SOL     OW 2413   2.844   6.315   5.136
  505SOL    HW1 2414   2.832   6.414   5.141
  505SOL    HW2 2415   2.803   6.280   5.052
  506SOL     OW 2416   1.623   5.008   4.871
  506SOL    HW1 2417   1.597   4.953   4.791
  506SOL    HW2 2418   1.541   5.045   4.914
  507SOL     OW 2419   3.553   6.709   3.091
  507SOL    HW1 2420   3.587   6.802   3.094
  507SOL    HW2 2421   3.567   6.664   3.179
  508SOL     OW 2422   6.942   3.656   2.439
  508SOL    HW1 2423   6.960   3.606   2.354
  508SOL    HW2 2424   6.983   3.747   2.434
  509SOL     OW 2425   3.149   0.768   1.591
  509SOL    HW1 2426   3.212   0.831   1.546
  509SOL    HW2 2427   3.202   0.703   1.647
  510SOL     OW 2428   5.977   4.780   0.221
  510SOL    HW1 2429   5.972   4.775   0.121
  510SOL    HW2 2430   6.006   4.691   0.258
  511SOL     OW 2431   0.606   1.280   5.714
  511SOL    HW1 2432   0.520   1.279   5.663
  511SOL    HW2 2433   0.608   1.361   5.773
  512SOL     OW 2434   6.535   2.747   6.818
  512SOL    HW1 2435   6.608   2.786   6.762
  512SOL    HW2 2436   6.564   2.745   6.914
  513SOL     OW 2437   6.173   6.640   3.318
  513SOL    HW1 2438   6.242   6.636   3.246
  513SOL    HW2 2439   6.180   6.728   3.365
  514SOL     OW 2440   6.117   2.355   4.121
  514SOL    HW1 2441   6.087   2.264   4.149
  514SOL    HW2 2442   6.109   2.418   4.199
  515SOL     OW 2443   1.385   0.661   6.550
  515SOL    HW1 2444   1.466   0.605   6.568
  515SOL    HW2 2445   1.346   0.691   6.638
  516SOL     OW 2446   2.399   5.141   1.973
  516SOL    HW1 2447   2.341   5.081   1.919
  516SOL    HW2 2448   2.347   5.178   2.050
  517SOL     OW 2449   4.561   5.363   2.401
  517SOL    HW1 2450   4.539   5.378   2.304
  517SOL    HW2 2451   4.660   5.354   2.411
  518SOL     OW 2452   2.480   2.506   2.744
  518SOL    HW1 2453   2.473   2.504   2.644
  518SOL    HW2 2454   2.570   2.473   2.772
  519SOL     OW 2455   0.695   0.867   4.645
  519SOL    HW1 2456   0.784   0.889   4.686
  519SOL    HW2 2457   0.628   0.937   4.671
  520SOL     OW 2458   6.405   4.294   0.304
  520SOL    HW1 2459   6.491   4.247   0.285
  520SOL    HW2 2460   6.425   4.382   0.347
  521SOL     OW 2461   6.247   4.050   5.010
  521SOL    HW1 2462   6.292   4.066   5.098
  521SOL    HW2 2463   6.252   3.953   4.987
  522SOL     OW 2464   3.650   3.096   4.774
  522SOL    HW1 2465   3.560   3.132   4.802
  522SOL    HW2 2466   3.654   2.999   4.795
  523SOL     OW 2467   0.458   5.006   1.798
  523SOL    HW1 2468   0.485   5.070   1.871
  523SOL    HW2 2469   0.364   5.025   1.771
  524SOL     OW 2470   6.908   1.328   0.913
  524SOL    HW1 2471   6.920   1.316   1.011
  524SOL    HW2 2472   6.953   1.253   0.864
  525SOL     OW 2473   1.967   3.239   6.121
  525SOL    HW1 2474   2.006   3.283   6.201
  525SOL    HW2 2475   2.034   3.176   6.082
  526SOL     OW 2476   4.384   6.273   4.384
  526SOL    HW1 2477   4.424   6.192   4.428
  526SOL    HW2 2478   4.356   6.338   4.453
  527SOL     OW 2479   6.631   2.635   0.044
  527SOL    HW1 2480   6.618   2.570   0.118
  527SOL    HW2 2481   6.723   2.625   0.006
  528SOL     OW 2482   1.054   1.686   3.283
  528SOL    HW1 2483   0.955   1.694   3.273
  528SOL    HW2 2484   1.076   1.623   3.358
  529SOL     OW 2485   1.806   6.833   3.985
  529SOL    HW1 2486   1.846   6.916   3.948
  529SOL    HW2 2487   1.769   6.778   3.910
  530SOL     OW 2488   3.300   2.955   4.652
  530SOL    HW1 2489   3.386   2.936   4.604
  530SOL    HW2 2490   3.264   2.871   4.691
  531SOL     OW 2491   0.793   0.870   2.982
  531SOL    HW1 2492   0.724   0.855   3.052
  531SOL    HW2 2493   0.760   0.836   2.894
  532SOL     OW 2494   1.385   2.304   0.019
  532SOL    HW1 2495   1.403   2.238   6.968
  532SOL    HW2 2496   1.290   2.295   0.048
  533SOL     OW 2497   4.781   0.046   3.849
  533SOL    HW1 2498   4.847   0.110   3.811
  533SOL    HW2 2499   4.785   6.983   3.798
  534SOL     OW 2500   5.105   6.118   2.928
  534SOL    HW1 2501   5.073   6.111   3.022
  534SOL    HW2 2502   5.199   6.085   2.922
  535SOL     OW 2503   0.905   3.820   4.394
  535SOL    HW1 2504   0.960   3.856   4.319
  535SOL    HW2 2505   0.860   3.896   4.441
  536SOL     OW 2506   6.903   5.304   1.680
  536SOL    HW1 2507   6.894   5.393   1.636
  536SOL    HW2 2508   6.833   5.294   1.751
  537SOL     OW 2509   2.018   6.280   4.277
  537SOL    HW1 2510   2.079   6.338   4.331
  537SOL    HW2 2511   2.052   6.186   4.279
  538SOL     OW 2512   1.290   4.266   2.791
  538SOL    HW1 2513   1.345   4.317   2.857
  538SOL    HW2 2514   1.204   4.239   2.834
  539SOL     OW 2515   1.233   6.533   0.820
  539SOL    HW1 2516   1.217   6.632   0.824
  539SOL    HW2 2517   1.232   6.503   0.724
  540SOL     OW 2518   0.981   0.334   2.825
  540SOL    HW1 2519   0.941   0.426   2.821
  540SOL    HW2 2520   1.047   0.330   2.899
  541SOL     OW 2521   3.917   6.427   4.316
  541SOL    HW1 2522   4.015   6.446   4.308
  541SOL    HW2 2523   3.866   6.487   4.255
  542SOL     OW 2524   6.568   0.397   0.088
  542SOL    HW1 2525   6.659   0.363   0.112
  542SOL    HW2 2526   6.504   0.373   0.161
  543SOL     OW 2527   1.641   4.204   5.638
  543SOL    HW1 2528   1.705   4.277   5.660
  543SOL    HW2 2529   1.608   4.161   5.722
  544SOL     OW 2530   2.731   3.886   0.280
  544SOL    HW1 2531   2.737   3.918   0.186
  544SOL    HW2 2532   2.794   3.939   0.338
  545SOL     OW 2533   2.746   0.384   2.676
  545SOL    HW1 2534   2.668   0.444   2.688
  545SOL    HW2 2535   2.799   0.413   2.596
  546SOL     OW 2536   1.794   3.207   0.835
  546SOL    HW1 2537   1.730   3.248   0.770
  546SOL    HW2 2538   1.838   3.280   0.888
  547SOL     OW 2539   3.135   1.507   0.190
  547SOL    HW1 2540   3.136   1.419   0.142
  547SOL    HW2 2541   3.229   1.542   0.197
  548SOL     OW 2542   3.812   3.033   2.812
  548SOL    HW1 2543   3.777   3.008   2.902
  548SOL    HW2 2544   3.739   3.026   2.744
  549SOL     OW 2545   4.596   3.570   0.945
  549SOL    HW1 2546   4.560   3.551   0.854
  549SOL    HW2 2547   4.540   3.521   1.013
  550SOL     OW 2548   6.143   4.206   3.493
  550SOL    HW1 2549   6.230   4.224   3.447
  550SOL    HW2 2550   6.077   4.277   3.468
  551SOL     OW 2551   1.202   0.577   1.585
  551SOL    HW1 2552   1.173   0.544   1.495
  551SOL    HW2 2553   1.300   0.591   1.586
  552SOL     OW 2554   4.891   4.505   6.967
  552SOL    HW1 2555   4.817   4.549   6.916
  552SOL    HW2 2556   4.945   4.447   6.906
  553SOL     OW 2557   1.821   6.682   2.445
  553SOL    HW1 2558   1.780   6.762   2.400
  553SOL    HW2 2559   1.770   6.662   2.528
  554SOL     OW 2560   5.616   6.807   5.829
  554SOL    HW1 2561   5.671   6.887   5.856
  554SOL    HW2 2562   5.605   6.747   5.908
  555SOL     OW 2563   1.920   5.620   2.936
  555SOL    HW1 2564   1.822   5.640   2.932
  555SOL    HW2 2565   1.945   5.561   2.858
  556SOL     OW 2566   5.076   2.321   3.473
  556SOL    HW1 2567   5.108   2.416   3.467
  556SOL    HW2 2568   5.142   2.261   3.428
  557SOL     OW 2569   0.385   4.780   0.100
  557SOL    HW1 2570   0.385   4.716   0.177
  557SOL    HW2 2571   0.458   4.847   0.114
  558SOL     OW 2572   2.944   3.351   4.535
  558SOL    HW1 2573   2.899   3.331   4.622
  558SOL    HW2 2574   2.990   3.269   4.502
  559SOL     OW 2575   6.495   5.425   6.553
  559SOL    HW1 2576   6.546   5.502   6.592
  559SOL    HW2 2577   6.416   5.405   6.611
  560SOL     OW 2578   4.295   5.316   0.554
  560SOL    HW1 2579   4.287   5.224   0.516
  560SOL    HW2 2580   4.246   5.381   0.496
  561SOL     OW 2581   6.130   1.065   0.168
  561SOL    HW1 2582   6.183   0.984   0.193
  561SOL    HW2 2583   6.162   1.100   0.080
  562SOL     OW 2584   5.107   0.633   5.825
  562SOL    HW1 2585   5.167   0.688   5.767
  562SOL    HW2 2586   5.150   0.620   5.914
  563SOL     OW 2587   2.079   0.416   3.185
  563SOL    HW1 2588   2.153   0.349   3.193
  563SOL    HW2 2589   2.018   0.408   3.264
  564SOL     OW 2590   2.872   1.947   6.622
  564SOL    HW1 2591   2.875   1.989   6.531
  564SOL    HW2 2592   2.881   2.018   6.692
  565SOL     OW 2593   3.548   2.930   5.449
  565SOL    HW1 2594   3.576   2.953   5.542
  565SOL    HW2 2595   3.459   2.884   5.451
  566SOL     OW 2596   6.070   4.256   4.529
  566SOL    HW1 2597   6.011   4.298   4.598
  566SOL    HW2 2598   6.021   4.251   4.442
  567SOL     OW 2599   3.858   3.872   2.530
  567SOL    HW1 2600   3.801   3.881   2.449
  567SOL    HW2 2601   3.828   3.938   2.599
  568SOL     OW 2602   4.013   2.144   0.317
  568SOL    HW1 2603   4.000   2.243   0.320
  568SOL    HW2 2604   3.955   2.101   0.387
  569SOL     OW 2605   1.568   3.249   6.845
  569SOL    HW1 2606   1.653   3.201   6.862
  569SOL    HW2 2607   1.587   3.341   6.812
  570SOL     OW 2608   2.363   6.200   6.601
  570SOL    HW1 2609   2.263   6.206   6.603
  570SOL    HW2 2610   2.400   6.273   6.544
  571SOL     OW 2611   2.850   0.120   2.537
  571SOL    HW1 2612   2.881   0.208   2.500
  571SOL    HW2 2613   2.877   0.113   2.633
  572SOL     OW 2614   2.348   4.861   5.996
  572SOL    HW1 2615   2.355   4.762   5.990
  572SOL    HW2 2616   2.257   4.890   5.967
  573SOL     OW 2617   4.967   1.238   5.050
  573SOL    HW1 2618   4.976   1.141   5.026
  573SOL    HW2 2619   5.053   1.270   5.088
  574SOL     OW 2620   3.018   2.185   4.216
  574SOL    HW1 2621   2.985   2.139   4.134
  574SOL    HW2 2622   3.048   2.117   4.282
  575SOL     OW 2623   5.933   2.895   0.476
  575SOL    HW1 2624   5.952   2.978   0.529
  575SOL    HW2 2625   6.002   2.825   0.497
  576SOL     OW 2626   0.982   1.994   2.816
  576SOL    HW1 2627   0.927   2.009   2.898
  576SOL    HW2 2628   1.040   2.073   2.800
  577SOL     OW 2629   2.129   1.175   3.383
  577SOL    HW1 2630   2.035   1.143   3.374
  577SOL    HW2 2631   2.190   1.113   3.332
  578SOL     OW 2632   6.693   4.674   3.561
  578SOL    HW1 2633   6.716   4.770   3.577
  578SOL    HW2 2634   6.759   4.615   3.608
  579SOL     OW 2635   1.841   3.537   1.494
  579SOL    HW1 2636   1.883   3.467   1.435
  579SOL    HW2 2637   1.747   3.511   1.515
  580SOL     OW 2638   0.233   4.564   6.686
  580SOL    HW1 2639   0.164   4.636   6.675
  580SOL    HW2 2640   0.278   4.575   6.774
  581SOL     OW 2641   3.116   3.554   2.280
  581SOL    HW1 2642   3.157   3.504   2.203
  581SOL    HW2 2643   3.074   3.638   2.246
  582SOL     OW 2644   5.923   5.018   2.483
  582SOL    HW1 2645   5.841   4.985   2.530
  582SOL    HW2 2646   5.937   4.966   2.399
  583SOL     OW 2647   2.581   5.653   6.472
  583SOL    HW1 2648   2.494   5.621   6.511
  583SOL    HW2 2649   2.580   5.638   6.373
  584SOL     OW 2650   1.606   4.067   6.492
  584SOL    HW1 2651   1.703   4.089   6.487
  584SOL    HW2 2652   1.561   4.129   6.555
  585SOL     OW 2653   5.977   2.959   6.615
  585SOL    HW1 2654   6.021   2.966   6.525
  585SOL    HW2 2655   5.987   2.866   6.649
  586SOL     OW 2656   3.211   1.229   6.319
  586SOL    HW1 2657   3.302   1.234   6.360
  586SOL    HW2 2658   3.157   1.158   6.364
  587SOL     OW 2659   2.672   2.423   4.795
  587SOL    HW1 2660   2.650   2.355   4.724
  587SOL    HW2 2661   2.630   2.510   4.770
  588SOL     OW 2662   2.367   4.745   0.800
  588SOL    HW1 2663   2.406   4.775   0.887
  588SOL    HW2 2664   2.324   4.823   0.755
  589SOL     OW 2665   3.498   5.289   1.423
  589SOL    HW1 2666   3.479   5.360   1.491
  589SOL    HW2 2667   3.434   5.298   1.346
  590SOL     OW 2668   5.912   2.795   1.692
  590SOL    HW1 2669   5.832   2.752   1.733
  590SOL    HW2 2670   5.977   2.725   1.662
  591SOL     OW 2671   3.605   6.033   3.957
  591SOL    HW1 2672   3.553   6.052   4.040
  591SOL    HW2 2673   3.703   6.033   3.978
  592SOL     OW 2674   3.649   0.282   1.455
  592SOL    HW1 2675   3.603   0.370   1.459
  592SOL    HW2 2676   3.727   0.281   1.518
  593SOL     OW 2677   4.923   2.352   3.734
  593SOL    HW1 2678   4.990   2.349   3.659
  593SOL    HW2 2679   4.830   2.345   3.696
  594SOL     OW 2680   4.791   2.168   6.425
  594SOL    HW1 2681   4.804   2.267   6.421
  594SOL    HW2 2682   4.700   2.148   6.462
  595SOL     OW 2683   5.680   0.350   3.720
  595SOL    HW1 2684   5.621   0.377   3.643
  595SOL    HW2 2685   5.774   0.379   3.702
  596SOL     OW 2686   1.247   4.050   2.262
  596SOL    HW1 2687   1.207   4.073   2.174
  596SOL    HW2 2688   1.267   4.133   2.313
  597SOL     OW 2689   4.011   6.750   5.975
  597SOL    HW1 2690   3.960   6.667   5.997
  597SOL    HW2 2691   3.959   6.830   6.006
  598SOL     OW 2692   3.161   4.312   6.616
  598SOL    HW1 2693   3.200   4.242   6.556
  598SOL    HW2 2694   3.161   4.279   6.710
  599SOL     OW 2695   2.268   6.523   2.661
  599SOL    HW1 2696   2.249   6.430   2.632
  599SOL    HW2 2697   2.207   6.586   2.612
  600SOL     OW 2698   0.848   0.859   1.052
  600SOL    HW1 2699   0.829   0.831   1.146
  600SOL    HW2 2700   0.934   0.910   1.048
  601SOL     OW 2701   3.427   6.695   4.518
  601SOL    HW1 2702   3.331   6.673   4.538
  601SOL    HW2 2703   3.438   6.709   4.419
  602SOL     OW 2704   1.287   2.662   0.305
  602SOL    HW1 2705   1.250   2.733   0.365
  602SOL    HW2 2706   1.231   2.655   0.222
  603SOL     OW 2707   4.368   1.490   3.581
  603SOL    HW1 2708   4.413   1.422   3.640
  603SOL    HW2 2709   4.351   1.573   3.633
  604SOL     OW 2710   0.559   3.767   1.528
  604SOL    HW1 2711   0.554   3.724   1.618
  604SOL    HW2 2712   0.469   3.803   1.503
  605SOL     OW 2713   6.468   5.668   3.192
  605SOL    HW1 2714   6.377   5.667   3.150
  605SOL    HW2 2715   6.529   5.725   3.137
  606SOL     OW 2716   5.331   0.426   6.153
  606SOL    HW1 2717   5.416   0.409   6.102
  606SOL    HW2 2718   5.291   0.512   6.122
  607SOL     OW 2719   5.055   0.780   5.525
  607SOL    HW1 2720   5.111   0.807   5.603
  607SOL    HW2 2721   5.015   0.862   5.482
  608SOL     OW 2722   4.010   6.294   0.015
  608SOL    HW1 2723   4.096   6.299   6.987
  608SOL    HW2 2724   3.990   6.382   0.056
  609SOL     OW 2725   3.802   2.916   3.931
  609SOL    HW1 2726   3.783   2.866   4.016
  609SOL    HW2 2727   3.719   2.963   3.901
  610SOL     OW 2728   5.379   2.382   2.138
  610SOL    HW1 2729   5.426   2.297   2.162
  610SOL    HW2 2730   5.435   2.460   2.164
  611SOL     OW 2731   1.586   0.341   6.458
  611SOL    HW1 2732   1.601   0.425   6.511
  611SOL    HW2 2733   1.598   0.360   6.361
  612SOL     OW 2734   3.762   6.258   5.895
  612SOL    HW1 2735   3.777   6.186   5.827
  612SOL    HW2 2736   3.849   6.280   5.940
  613SOL     OW 2737   4.053   6.465   5.725
  613SOL    HW1 2738   4.022   6.534   5.659
  613SOL    HW2 2739   4.055   6.506   5.817
  614SOL     OW 2740   5.912   3.889   0.894
  614SOL    HW1 2741   5.967   3.960   0.937
  614SOL    HW2 2742   5.913   3.901   0.795
  615SOL     OW 2743   0.668   1.891   0.938
  615SOL    HW1 2744   0.569   1.893   0.954
  615SOL    HW2 2745   0.693   1.804   0.896
  616SOL     OW 2746   6.433   1.633   2.907
  616SOL    HW1 2747   6.502   1.562   2.920
  616SOL    HW2 2748   6.376   1.609   2.828
  617SOL     OW 2749   6.950   3.911   6.744
  617SOL    HW1 2750   6.964   3.856   6.662
  617SOL    HW2 2751   7.013   3.881   6.816
  618SOL     OW 2752   0.165   3.222   0.190
  618SOL    HW1 2753   0.188   3.319   0.204
  618SOL    HW2 2754   0.219   3.166   0.253
  619SOL     OW 2755   4.303   0.076   6.705
  619SOL    HW1 2756   4.261   0.103   6.618
  619SOL    HW2 2757   4.392   0.033   6.686
  620SOL     OW 2758   5.779   2.805   1.119
  620SOL    HW1 2759   5.800   2.866   1.195
  620SOL    HW2 2760   5.694   2.834   1.075
  621SOL     OW 2761   1.583   0.333   5.417
  621SOL    HW1 2762   1.590   0.343   5.516
  621SOL    HW2 2763   1.534   0.248   5.396
  622SOL     OW 2764   0.615   1.633   4.949
  622SOL    HW1 2765   0.669   1.641   4.865
  622SOL    HW2 2766   0.517   1.635   4.927
  623SOL     OW 2767   0.292   6.507   5.619
  623SOL    HW1 2768   0.379   6.557   5.625
  623SOL    HW2 2769   0.230   6.557   5.558
  624SOL     OW 2770   6.255   0.954   0.547
  624SOL    HW1 2771   6.291   1.040   0.512
  624SOL    HW2 2772   6.214   0.969   0.637
  625SOL     OW 2773   1.783   2.201   1.065
  625SOL    HW1 2774   1.814   2.177   1.157
  625SOL    HW2 2775   1.750   2.118   1.019
  626SOL     OW 2776   0.322   6.055   2.813
  626SOL    HW1 2777   0.230   6.080   2.843
  626SOL    HW2 2778   0.388   6.085   2.882
  627SOL     OW 2779   6.330   6.484   0.531
  627SOL    HW1 2780   6.336   6.506   0.628
  627SOL    HW2 2781   6.333   6.385   0.518
  628SOL     OW 2782   5.483   4.373   5.054
  628SOL    HW1 2783   5.567   4.403   5.008
  628SOL    HW2 2784   5.459   4.440   5.125
  629SOL     OW 2785   0.911   1.118   6.975
  629SOL    HW1 2786   0.910   1.183   6.899
  629SOL    HW2 2787   1.004   1.081   6.986
  630SOL     OW 2788   0.478   2.375   0.719
  630SOL    HW1 2789   0.486   2.290   0.771
  630SOL    HW2 2790   0.569   2.405   0.690
  631SOL     OW 2791   3.937   1.409   4.748
  631SOL    HW1 2792   3.964   1.312   4.751
  631SOL    HW2 2793   3.985   1.454   4.672
  632SOL     OW 2794   5.126   2.304   0.657
  632SOL    HW1 2795   5.075   2.323   0.573
  632SOL    HW2 2796   5.218   2.274   0.634
  633SOL     OW 2797   3.347   4.653   6.986
  633SOL    HW1 2798   3.433   4.659   0.014
  633SOL    HW2 2799   3.275   4.700   0.015
  634SOL     OW 2800   3.460   3.864   2.628
  634SOL    HW1 2801   3.458   3.830   2.534
  634SOL    HW2 2802   3.473   3.963   2.627
  635SOL     OW 2803   4.961   6.184   0.202
  635SOL    HW1 2804   5.057   6.191   0.174
  635SOL    HW2 2805   4.952   6.113   0.271
  636SOL     OW 2806   2.730   6.902   6.059
  636SOL    HW1 2807   2.721   6.983   6.001
  636SOL    HW2 2808   2.639   6.873   6.090
  637SOL     OW 2809   6.958   3.070   2.495
  637SOL    HW1 2810   6.963   2.983   2.545
  637SOL    HW2 2811   0.019   3.123   2.512
  638SOL     OW 2812   5.841   3.484   3.458
  638SOL    HW1 2813   5.742   3.495   3.461
  638SOL    HW2 2814   5.872   3.439   3.542
  639SOL     OW 2815   5.117   4.182   2.807
  639SOL    HW1 2816   5.083   4.088   2.803
  639SOL    HW2 2817   5.048   4.244   2.770
  640SOL     OW 2818   6.740   4.937   3.150
  640SOL    HW1 2819   6.749   5.034   3.171
  640SOL    HW2 2820   6.644   4.911   3.151
  641SOL     OW 2821   0.580   4.665   4.786
  641SOL    HW1 2822   0.668   4.698   4.820
  641SOL    HW2 2823   0.516   4.654   4.862
  642SOL     OW 2824   1.088   3.126   4.410
  642SOL    HW1 2825   1.154   3.060   4.446
  642SOL    HW2 2826   1.035   3.084   4.337
  643SOL     OW 2827   6.344   0.643   6.997
  643SOL    HW1 2828   6.373   0.714   6.934
  643SOL    HW2 2829   6.381   0.555   6.968
  644SOL     OW 2830   0.978   0.428   4.772
  644SOL    HW1 2831   0.938   0.377   4.695
  644SOL    HW2 2832   1.063   0.383   4.801
  645SOL     OW 2833   3.382   6.049   4.617
  645SOL    HW1 2834   3.421   6.030   4.706
  645SOL    HW2 2835   3.304   6.111   4.627
  646SOL     OW 2836   3.346   0.664   4.631
  646SOL    HW1 2837   3.428   0.621   4.669
  646SOL    HW2 2838   3.272   0.657   4.697
  647SOL     OW 2839   5.372   2.113   4.650
  647SOL    HW1 2840   5.374   2.022   4.609
  647SOL    HW2 2841   5.283   2.130   4.691
  648SOL     OW 2842   6.633   4.269   3.981
  648SOL    HW1 2843   6.581   4.194   3.941
  648SOL    HW2 2844   6.686   4.315   3.910
  649SOL     OW 2845   2.234   3.548   0.431
  649SOL    HW1 2846   2.285   3.513   0.352
  649SOL    HW2 2847   2.250   3.646   0.440
  650SOL     OW 2848   6.517   4.903   0.703
  650SOL    HW1 2849   6.576   4.903   0.784
  650SOL    HW2 2850   6.522   4.992   0.658
  651SOL     OW 2851   1.682   0.797   5.982
  651SOL    HW1 2852   1.672   0.762   6.076
  651SOL    HW2 2853   1.593   0.826   5.948
  652SOL     OW 2854   4.695   6.964   2.743
  652SOL    HW1 2855   4.703   6.978   2.644
  652SOL    HW2 2856   4.784   6.978   2.786
  653SOL     OW 2857   0.298   6.170   0.100
  653SOL    HW1 2858   0.248   6.180   0.014
  653SOL    HW2 2859   0.376   6.109   0.086
  654SOL     OW 2860   0.936   6.242   6.254
  654SOL    HW1 2861   0.947   6.250   6.155
  654SOL    HW2 2862   0.898   6.152   6.277
  655SOL     OW 2863   6.345   5.548   1.505
  655SOL    HW1 2864   6.258   5.570   1.551
  655SOL    HW2 2865   6.356   5.607   1.425
  656SOL     OW 2866   2.217   6.652   0.465
  656SOL    HW1 2867   2.180   6.586   0.530
  656SOL    HW2 2868   2.156   6.658   0.386
  657SOL     OW 2869   2.781   4.176   0.936
  657SOL    HW1 2870   2.782   4.077   0.948
  657SOL    HW2 2871   2.861   4.216   0.979
  658SOL     OW 2872   1.493   3.965   5.396
  658SOL    HW1 2873   1.407   4.014   5.382
  658SOL    HW2 2874   1.569   4.018   5.357
  659SOL     OW 2875   2.692   6.195   4.909
  659SOL    HW1 2876   2.745   6.122   4.865
  659SOL    HW2 2877   2.595   6.171   4.908
  660SOL     OW 2878   4.432   4.516   2.712
  660SOL    HW1 2879   4.482   4.600   2.690
  660SOL    HW2 2880   4.334   4.532   2.701
  661SOL     OW 2881   4.980   3.809   4.452
  661SOL    HW1 2882   4.954   3.795   4.356
  661SOL    HW2 2883   4.980   3.722   4.500
  662SOL     OW 2884   4.208   0.652   5.584
  662SOL    HW1 2885   4.210   0.649   5.684
  662SOL    HW2 2886   4.236   0.743   5.552
  663SOL     OW 2887   0.627   4.265   0.569
  663SOL    HW1 2888   0.602   4.198   0.499
  663SOL    HW2 2889   0.727   4.264   0.581
  664SOL     OW 2890   1.855   5.677   6.427
  664SOL    HW1 2891   1.758   5.672   6.451
  664SOL    HW2 2892   1.872   5.622   6.345
  665SOL     OW 2893   4.258   5.209   0.925
  665SOL    HW1 2894   4.325   5.281   0.946
  665SOL    HW2 2895   4.294   5.121   0.955
  666SOL     OW 2896   4.456   2.456   0.972
  666SOL    HW1 2897   4.531   2.517   0.950
  666SOL    HW2 2898   4.489   2.362   0.978
  667SOL     OW 2899   6.689   3.996   4.225
  667SOL    HW1 2900   6.597   4.023   4.195
  667SOL    HW2 2901   6.729   3.934   4.159
  668SOL     OW 2902   5.045   5.274   6.819
  668SOL    HW1 2903   5.064   5.327   6.736
  668SOL    HW2 2904   5.108   5.300   6.891
  669SOL     OW 2905   3.194   6.077   3.003
  669SOL    HW1 2906   3.236   6.006   3.059
  669SOL    HW2 2907   3.254   6.101   2.927
  670SOL     OW 2908   3.283   2.799   1.878
  670SOL    HW1 2909   3.288   2.709   1.836
  670SOL    HW2 2910   3.372   2.821   1.920
  671SOL     OW 2911   2.385   6.172   6.868
  671SOL    HW1 2912   2.395   6.271   6.883
  671SOL    HW2 2913   2.372   6.154   6.770
  672SOL     OW 2914   0.560   4.148   1.877
  672SOL    HW1 2915   0.595   4.054   1.877
  672SOL    HW2 2916   0.584   4.192   1.964
  673SOL     OW 2917   5.368   0.417   1.189
  673SOL    HW1 2918   5.292   0.376   1.238
  673SOL    HW2 2919   5.427   0.466   1.253
  674SOL     OW 2920   6.694   3.245   4.619
  674SOL    HW1 2921   6.628   3.171   4.626
  674SOL    HW2 2922   6.688   3.286   4.527
  675SOL     OW 2923   0.053   1.169   5.097
  675SOL    HW1 2924   0.076   1.166   5.194
  675SOL    HW2 2925   6.987   1.126   5.082
  676SOL     OW 2926   2.962   4.904   3.313
  676SOL    HW1 2927   2.889   4.890   3.245
  676SOL    HW2 2928   3.019   4.981   3.284
  677SOL     OW 2929   5.914   1.088   5.968
  677SOL    HW1 2930   5.828   1.138   5.980
  677SOL    HW2 2931   5.956   1.114   5.881
  678SOL     OW 2932   1.363   1.489   5.221
  678SOL    HW1 2933   1.450   1.527   5.252
  678SOL    HW2 2934   1.319   1.553   5.159
  679SOL     OW 2935   4.926   0.935   4.094
  679SOL    HW1 2936   5.004   0.956   4.034
  679SOL    HW2 2937   4.878   0.855   4.059
  680SOL     OW 2938   5.397   5.178   6.094
  680SOL    HW1 2939   5.381   5.274   6.115
  680SOL    HW2 2940   5.387   5.163   5.996
  681SOL     OW 2941   6.246   0.108   1.093
  681SOL    HW1 2942   6.339   0.098   1.127
  681SOL    HW2 2943   6.235   0.055   1.009
  682SOL     OW 2944   1.731   6.789   6.782
  682SOL    HW1 2945   1.808   6.846   6.753
  682SOL    HW2 2946   1.662   6.846   6.827
  683SOL     OW 2947   3.621   0.765   6.453
  683SOL    HW1 2948   3.544   0.780   6.391
  683SOL    HW2 2949   3.648   0.852   6.495
  684SOL     OW 2950   5.880   1.202   6.395
  684SOL    HW1 2951   5.874   1.290   6.442
  684SOL    HW2 2952   5.924   1.215   6.306
  685SOL     OW 2953   5.150   6.716   5.120
  685SOL    HW1 2954   5.088   6.722   5.043
  685SOL    HW2 2955   5.244   6.734   5.089
  686SOL     OW 2956   5.621   3.151   3.226
  686SOL    HW1 2957   5.585   3.239   3.195
  686SOL    HW2 2958   5.643   3.156   3.323
  687SOL     OW 2959   6.691   2.645   5.200
  687SOL    HW1 2960   6.723   2.712   5.133
  687SOL    HW2 2961   6.705   2.681   5.292
  688SOL     OW 2962   1.404   3.357   0.776
  688SOL    HW1 2963   1.368   3.443   0.742
  688SOL    HW2 2964   1.328   3.300   0.810
  689SOL     OW 2965   0.703   4.541   5.441
  689SOL    HW1 2966   0.767   4.468   5.421
  689SOL    HW2 2967   0.691   4.599   5.360
  690SOL     OW 2968   0.825   3.309   3.684
  690SOL    HW1 2969   0.788   3.246   3.616
  690SOL    HW2 2970   0.813   3.403   3.651
  691SOL     OW 2971   2.438   1.689   6.208
  691SOL    HW1 2972   2.438   1.789   6.214
  691SOL    HW2 2973   2.382   1.652   6.282
  692SOL     OW 2974   3.444   6.335   3.507
  692SOL    HW1 2975   3.538   6.320   3.479
  692SOL    HW2 2976   3.392   6.250   3.499
  693SOL     OW 2977   6.612   1.755   2.645
  693SOL    HW1 2978   6.540   1.686   2.639
  693SOL    HW2 2979   6.697   1.716   2.610
  694SOL     OW 2980   3.430   6.050   2.586
  694SOL    HW1 2981   3.448   6.081   2.680
  694SOL    HW2 2982   3.448   6.125   2.523
  695SOL     OW 2983   4.337   5.105   6.295
  695SOL    HW1 2984   4.324   5.010   6.327
  695SOL    HW2 2985   4.359   5.163   6.373
  696SOL     OW 2986   3.446   5.251   1.838
  696SOL    HW1 2987   3.498   5.285   1.916
  696SOL    HW2 2988   3.373   5.316   1.816
  697SOL     OW 2989   1.223   2.705   4.540
  697SOL    HW1 2990   1.173   2.634   4.590
  697SOL    HW2 2991   1.321   2.686   4.546
  698SOL     OW 2992   5.796   6.947   6.378
  698SOL    HW1 2993   5.697   6.941   6.387
  698SOL    HW2 2994   5.820   6.979   6.286
  699SOL     OW 2995   0.632   3.953   6.982
  699SOL    HW1 2996   0.549   3.906   7.014
  699SOL    HW2 2997   0.712   3.897   7.004
  700SOL     OW 2998   3.054   1.622   4.142
  700SOL    HW1 2999   3.140   1.599   4.097
  700SOL    HW2 3000   2.977   1.583   4.091
  701SOL     OW 3001   0.047   4.105   5.447
  701SOL    HW1 3002   6.982   4.073   5.410
  701SOL    HW2 3003   0.114   4.112   5.374
  702SOL     OW 3004   5.679   5.858   5.778
  702SOL    HW1 3005   5.653   5.946   5.817
  702SOL    HW2 3006   5.645   5.852   5.684
  703SOL     OW 3007   4.100   3.986   6.593
  703SOL    HW1 3008   4.141   3.907   6.638
  703SOL    HW2 3009   4.118   4.068   6.647
  704SOL     OW 3010   1.894   1.867   6.379
  704SOL    HW1 3011   1.977   1.848   6.431
  704SOL    HW2 3012   1.815   1.830   6.428
  705SOL     OW 3013   5.214   6.694   3.671
  705SOL    HW1 3014   5.266   6.772   3.635
  705SOL    HW2 3015   5.264   6.609   3.652
  706SOL     OW 3016   4.399   1.921   3.322
  706SOL    HW1 3017   4.391   1.975   3.237
  706SOL    HW2 3018   4.343   1.963   3.393
  707SOL     OW 3019   4.492   0.553   2.658
  707SOL    HW1 3020   4.396   0.548   2.631
  707SOL    HW2 3021   4.512   0.481   2.724
  708SOL     OW 3022   3.976   0.371   1.560
  708SOL    HW1 3023   3.945   0.376   1.465
  708SOL    HW2 3024   3.898   0.353   1.619
  709SOL     OW 3025   0.913   5.198   0.098
  709SOL    HW1 3026   0.971   5.218   0.177
  709SOL    HW2 3027   0.966   5.146   0.031
  710SOL     OW 3028   3.650   3.303   2.363
  710SOL    HW1 3029   3.711   3.226   2.343
  710SOL    HW2 3030   3.688   3.356   2.439
  711SOL     OW 3031   0.936   1.880   5.981
  711SOL    HW1 3032   1.023   1.835   5.962
  711SOL    HW2 3033   0.932   1.906   6.077
  712SOL     OW 3034   2.302   3.971   0.220
  712SOL    HW1 3035   2.218   3.929   0.183
  712SOL    HW2 3036   2.323   3.929   0.308
  713SOL     OW 3037   3.055   3.365   0.076
  713SOL    HW1 3038   3.141   3.414   0.093
  713SOL    HW2 3039   2.996   3.373   0.156
  714SOL     OW 3040   6.670   5.435   4.793
  714SOL    HW1 3041   6.637   5.490   4.870
  714SOL    HW2 3042   6.657   5.338   4.813
  715SOL     OW 3043   5.357   6.071   0.709
  715SOL    HW1 3044   5.455   6.084   0.692
  715SOL    HW2 3045   5.335   6.101   0.802
  716SOL     OW 3046   1.264   6.815   0.812
  716SOL    HW1 3047   1.319   6.898   0.796
  716SOL    HW2 3048   1.175   6.841   0.850
  717SOL     OW 3049   5.809   4.970   6.495
  717SOL    HW1 3050   5.784   5.057   6.453
  717SOL    HW2 3051   5.788   4.974   6.593
  718SOL     OW 3052   4.538   2.205   5.641
  718SOL    HW1 3053   4.605   2.267   5.682
  718SOL    HW2 3054   4.554   2.112   5.673
  719SOL     OW 3055   6.826   2.707   0.985
  719SOL    HW1 3056   6.863   2.767   1.055
  719SOL    HW2 3057   6.763   2.641   1.027
  720SOL     OW 3058   3.461   1.030   6.121
  720SOL    HW1 3059   3.421   0.998   6.207
  720SOL    HW2 3060   3.559   1.043   6.133
  721SOL     OW 3061   2.028   0.071   4.176
  721SOL    HW1 3062   2.001   0.058   4.271
  721SOL    HW2 3063   1.975   0.146   4.136
  722SOL     OW 3064   2.803   0.119   5.063
  722SOL    HW1 3065   2.825   0.021   5.063
  722SOL    HW2 3066   2.720   0.134   5.117
  723SOL     OW 3067   2.084   3.634   2.591
  723SOL    HW1 3068   2.130   3.630   2.502
  723SOL    HW2 3069   2.132   3.576   2.656
  724SOL     OW 3070   1.187   2.023   4.554
  724SOL    HW1 3071   1.109   1.967   4.579
  724SOL    HW2 3072   1.162   2.084   4.478
  725SOL     OW 3073   2.982   5.619   1.573
  725SOL    HW1 3074   2.897   5.581   1.537
  725SOL    HW2 3075   3.050   5.546   1.581
  726SOL     OW 3076   3.701   4.899   1.024
  726SOL    HW1 3077   3.785   4.940   0.988
  726SOL    HW2 3078   3.698   4.912   1.124
  727SOL     OW 3079   5.090   5.198   5.935
  727SOL    HW1 3080   5.185   5.176   5.913
  727SOL    HW2 3081   5.045   5.234   5.854
  728SOL     OW 3082   0.277   3.450   5.205
  728SOL    HW1 3083   0.183   3.471   5.232
  728SOL    HW2 3084   0.286   3.457   5.106
  729SOL     OW 3085   2.461   1.570   0.211
  729SOL    HW1 3086   2.368   1.539   0.233
  729SOL    HW2 3087   2.494   1.631   0.283
  730SOL     OW 3088   5.681   0.605   3.354
  730SOL    HW1 3089   5.696   0.703   3.341
  730SOL    HW2 3090   5.770   0.559   3.363
  731SOL     OW 3091   6.005   3.852   5.983
  731SOL    HW1 3092   6.049   3.814   5.901
  731SOL    HW2 3093   5.909   3.868   5.964
  732SOL     OW 3094   1.028   3.179   1.261
  732SOL    HW1 3095   0.936   3.186   1.299
  732SOL    HW2 3096   1.095   3.177   1.335
  733SOL     OW 3097   6.193   4.853   5.063
  733SOL    HW1 3098   6.134   4.777   5.092
  733SOL    HW2 3099   6.176   4.932   5.121
  734SOL     OW 3100   0.109   4.470   2.676
  734SOL    HW1 3101   0.193   4.445   2.726
  734SOL    HW2 3102   0.099   4.570   2.677
  735SOL     OW 3103   3.885   3.158   0.674
  735SOL    HW1 3104   3.913   3.244   0.630
  735SOL    HW2 3105   3.899   3.082   0.610
  736SOL     OW 3106   6.868   6.600   2.418
  736SOL    HW1 3107   6.942   6.621   2.482
  736SOL    HW2 3108   6.816   6.683   2.399
  737SOL     OW 3109   4.023   2.421   6.682
  737SOL    HW1 3110   4.090   2.461   6.620
  737SOL    HW2 3111   3.932   2.424   6.638
  738SOL     OW 3112   2.064   3.991   2.100
  738SOL    HW1 3113   2.130   4.007   2.027
  738SOL    HW2 3114   2.000   3.919   2.072
  739SOL     OW 3115   3.941   6.694   4.497
  739SOL    HW1 3116   4.021   6.652   4.454
  739SOL    HW2 3117   3.859   6.640   4.475
  740SOL     OW 3118   4.741   6.534   0.320
  740SOL    HW1 3119   4.701   6.472   0.387
  740SOL    HW2 3120   4.737   6.491   0.229
  741SOL     OW 3121   2.139   6.101   3.403
  741SOL    HW1 3122   2.049   6.083   3.441
  741SOL    HW2 3123   2.170   6.192   3.432
  742SOL     OW 3124   2.031   6.876   1.814
  742SOL    HW1 3125   2.082   6.955   1.848
  742SOL    HW2 3126   2.088   6.793   1.823
  743SOL     OW 3127   1.607   4.046   5.012
  743SOL    HW1 3128   1.700   4.083   5.003
  743SOL    HW2 3129   1.606   3.951   4.980
  744SOL     OW 3130   5.333   6.799   6.351
  744SOL    HW1 3131   5.419   6.812   6.302
  744SOL    HW2 3132   5.276   6.733   6.302
  745SOL     OW 3133   1.024   5.045   4.230
  745SOL    HW1 3134   1.054   5.074   4.139
  745SOL    HW2 3135   1.047   5.116   4.297
  746SOL     OW 3136   1.060   5.131   6.035
  746SOL    HW1 3137   1.060   5.135   5.935
  746SOL    HW2 3138   1.102   5.046   6.065
  747SOL     OW 3139   4.663   5.805   4.888
  747SOL    HW1 3140   4.568   5.810   4.917
  747SOL    HW2 3141   4.701   5.716   4.913
  748SOL     OW 3142   3.580   5.198   2.643
  748SOL    HW1 3143   3.480   5.201   2.636
  748SOL    HW2 3144   3.612   5.279   2.691
  749SOL     OW 3145   6.430   4.081   4.803
  749SOL    HW1 3146   6.456   4.175   4.777
  749SOL    HW2 3147   6.371   4.084   4.884
  750SOL     OW 3148   1.817   2.842   0.638
  750SOL    HW1 3149   1.852   2.935   0.626
  750SOL    HW2 3150   1.885   2.776   0.604
  751SOL     OW 3151   3.878   2.064   6.088
  751SOL    HW1 3152   3.798   2.086   6.031
  751SOL    HW2 3153   3.945   2.015   6.032
  752SOL     OW 3154   3.954   2.254   1.852
  752SOL    HW1 3155   3.929   2.291   1.762
  752SOL    HW2 3156   3.871   2.246   1.909
  753SOL     OW 3157   1.391   3.162   4.004
  753SOL    HW1 3158   1.486   3.142   3.979
  753SOL    HW2 3159   1.387   3.181   4.102
  754SOL     OW 3160   5.577   2.670   6.483
  754SOL    HW1 3161   5.631   2.703   6.406
  754SOL    HW2 3162   5.535   2.582   6.460
  755SOL     OW 3163   1.298   5.491   5.960
  755SOL    HW1 3164   1.303   5.429   5.881
  755SOL    HW2 3165   1.204   5.493   5.995
  756SOL     OW 3166   3.597   0.180   1.120
  756SOL    HW1 3167   3.629   0.274   1.134
  756SOL    HW2 3168   3.605   0.156   1.023
  757SOL     OW 3169   0.049   6.125   3.156
  757SOL    HW1 3170   6.988   6.149   3.205
  757SOL    HW2 3171   0.026   6.095   3.063
  758SOL     OW 3172   4.092   0.853   2.194
  758SOL    HW1 3173   4.091   0.830   2.291
  758SOL    HW2 3174   4.000   0.841   2.155
  759SOL     OW 3175   0.486   0.807   0.493
  759SOL    HW1 3176   0.460   0.879   0.428
  759SOL    HW2 3177   0.509   0.724   0.442
  760SOL     OW 3178   4.650   0.242   5.855
  760SOL    HW1 3179   4.722   0.291   5.805
  760SOL    HW2 3180   4.690   0.187   5.928
  761SOL     OW 3181   5.192   3.957   5.623
  761SOL    HW1 3182   5.235   3.988   5.539
  761SOL    HW2 3183   5.240   3.877   5.658
  762SOL     OW 3184   1.743   6.967   4.931
  762SOL    HW1 3185   1.837   7.000   4.929
  762SOL    HW2 3186   1.703   6.983   5.021
  763SOL     OW 3187   4.327   5.250   6.774
  763SOL    HW1 3188   4.300   5.168   6.724
  763SOL    HW2 3189   4.371   5.223   6.860
  764SOL     OW 3190   4.273   0.616   4.003
  764SOL    HW1 3191   4.323   0.696   4.037
  764SOL    HW2 3192   4.196   0.598   4.064
  765SOL     OW 3193   1.062   5.959   1.544
  765SOL    HW1 3194   1.064   6.034   1.610
  765SOL    HW2 3195   1.034   5.993   1.455
  766SOL     OW 3196   1.104   2.977   0.722
  766SOL    HW1 3197   1.201   2.999   0.732
  766SOL    HW2 3198   1.049   3.060   0.735
  767SOL     OW 3199   6.118   5.732   2.788
  767SOL    HW1 3200   6.083   5.751   2.697
  767SOL    HW2 3201   6.141   5.635   2.796
  768SOL     OW 3202   2.188   6.884   2.182
  768SOL    HW1 3203   2.201   6.803   2.240
  768SOL    HW2 3204   2.240   6.873   2.097
  769SOL     OW 3205   3.142   0.716   4.844
  769SOL    HW1 3206   3.045   0.693   4.837
  769SOL    HW2 3207   3.157   0.770   4.927
  770SOL     OW 3208   2.211   4.350   3.169
  770SOL    HW1 3209   2.159   4.435   3.160
  770SOL    HW2 3210   2.252   4.327   3.081
  771SOL     OW 3211   2.604   5.928   2.487
  771SOL    HW1 3212   2.623   5.984   2.567
  771SOL    HW2 3213   2.684   5.871   2.465
  772SOL     OW 3214   6.574   5.300   0.653
  772SOL    HW1 3215   6.606   5.321   0.561
  772SOL    HW2 3216   6.594   5.204   0.674
  773SOL     OW 3217   6.948   3.909   3.856
  773SOL    HW1 3218   7.007   3.834   3.825
  773SOL    HW2 3219   7.001   3.970   3.915
  774SOL     OW 3220   1.060   1.675   2.203
  774SOL    HW1 3221   1.089   1.708   2.293
  774SOL    HW2 3222   1.073   1.576   2.198
  775SOL     OW 3223   0.971   2.144   3.080
  775SOL    HW1 3224   1.045   2.078   3.093
  775SOL    HW2 3225   0.884   2.101   3.106
  776SOL     OW 3226   6.830   0.741   5.907
  776SOL    HW1 3227   6.770   0.688   5.847
  776SOL    HW2 3228   6.849   0.830   5.866
  777SOL     OW 3229   3.109   5.398   0.961
  777SOL    HW1 3230   3.168   5.478   0.962
  777SOL    HW2 3231   3.089   5.372   0.866
  778SOL     OW 3232   3.570   1.855   3.204
  778SOL    HW1 3233   3.487   1.820   3.247
  778SOL    HW2 3234   3.616   1.781   3.155
  779SOL     OW 3235   0.305   1.996   2.754
  779SOL    HW1 3236   0.274   1.987   2.849
  779SOL    HW2 3237   0.253   2.068   2.709
  780SOL     OW 3238   6.365   3.879   4.045
  780SOL    HW1 3239   6.390   3.969   4.080
  780SOL    HW2 3240   6.332   3.823   4.121
  781SOL     OW 3241   5.512   1.392   6.662
  781SOL    HW1 3242   5.446   1.457   6.700
  781SOL    HW2 3243   5.605   1.418   6.689
  782SOL     OW 3244   1.271   3.588   6.862
  782SOL    HW1 3245   1.213   3.548   6.932
  782SOL    HW2 3246   1.239   3.558   6.772
  783SOL     OW 3247   4.038   4.785   1.451
  783SOL    HW1 3248   4.109   4.851   1.474
  783SOL    HW2 3249   3.962   4.793   1.515
  784SOL     OW 3250   5.352   6.208   6.868
  784SOL    HW1 3251   5.386   6.271   6.938
  784SOL    HW2 3252   5.254   6.220   6.856
  785SOL     OW 3253   6.711   2.947   3.196
  785SOL    HW1 3254   6.715   2.970   3.098
  785SOL    HW2 3255   6.745   3.025   3.249
  786SOL     OW 3256   1.432   0.951   0.941
  786SOL    HW1 3257   1.525   0.946   0.976
  786SOL    HW2 3258   1.379   1.014   0.997
  787SOL     OW 3259   2.934   0.714   6.722
  787SOL    HW1 3260   2.965   0.620   6.736
  787SOL    HW2 3261   2.991   0.776   6.776
  788SOL     OW 3262   3.062   2.042   5.162
  788SOL    HW1 3263   3.066   2.099   5.081
  788SOL    HW2 3264   3.058   2.100   5.244
  789SOL     OW 3265   5.221   3.948   0.749
  789SOL    HW1 3266   5.291   3.959   0.819
  789SOL    HW2 3267   5.148   3.889   0.784
  790SOL     OW 3268   2.629   0.602   3.999
  790SOL    HW1 3269   2.608   0.652   4.083
  790SOL    HW2 3270   2.720   0.561   4.007
  791SOL     OW 3271   3.117   6.179   3.251
  791SOL    HW1 3272   3.204   6.169   3.299
  791SOL    HW2 3273   3.133   6.179   3.152
  792SOL     OW 3274   0.392   0.619   2.270
  792SOL    HW1 3275   0.474   0.626   2.327
  792SOL    HW2 3276   0.408   0.666   2.183
  793SOL     OW 3277   4.983   6.156   2.692
  793SOL    HW1 3278   4.992   6.144   2.791
  793SOL    HW2 3279   5.049   6.097   2.645
  794SOL     OW 3280   3.195   3.372   4.849
  794SOL    HW1 3281   3.227   3.467   4.844
  794SOL    HW2 3282   3.095   3.371   4.861
  795SOL     OW 3283   3.641   6.200   4.964
  795SOL    HW1 3284   3.664   6.232   4.872
  795SOL    HW2 3285   3.544   6.214   4.981
  796SOL     OW 3286   1.364   2.074   6.302
  796SOL    HW1 3287   1.436   2.007   6.318
  796SOL    HW2 3288   1.387   2.160   6.349
  797SOL     OW 3289   4.963   2.722   2.311
  797SOL    HW1 3290   4.911   2.803   2.337
  797SOL    HW2 3291   4.905   2.641   2.319
  798SOL     OW 3292   4.952   0.040   1.380
  798SOL    HW1 3293   4.917   0.133   1.372
  798SOL    HW2 3294   4.948   7.017   1.291
  799SOL     OW 3295   6.052   1.547   4.726
  799SOL    HW1 3296   6.101   1.600   4.796
  799SOL    HW2 3297   6.104   1.465   4.704
  800SOL     OW 3298   5.395   1.274   2.399
  800SOL    HW1 3299   5.451   1.354   2.378
  800SOL    HW2 3300   5.349   1.243   2.315
  801SOL     OW 3301   2.007   3.420   4.008
  801SOL    HW1 3302   2.028   3.392   3.914
  801SOL    HW2 3303   1.911   3.401   4.028
  802SOL     OW 3304   4.493   0.627   0.672
  802SOL    HW1 3305   4.394   0.644   0.669
  802SOL    HW2 3306   4.540   0.713   0.691
  803SOL     OW 3307   0.025   6.140   4.623
  803SOL    HW1 3308   0.000   6.048   4.651
  803SOL    HW2 3309   0.105   6.136   4.563
  804SOL     OW 3310   6.029   6.329   6.700
  804SOL    HW1 3311   5.951   6.271   6.724
  804SOL    HW2 3312   6.002   6.394   6.630
  805SOL     OW 3313   3.595   1.625   5.492
  805SOL    HW1 3314   3.596   1.537   5.445
  805SOL    HW2 3315   3.678   1.676   5.470
  806SOL     OW 3316   5.104   1.385   4.053
  806SOL    HW1 3317   5.036   1.388   4.127
  806SOL    HW2 3318   5.104   1.294   4.011
  807SOL     OW 3319   0.730   1.632   4.441
  807SOL    HW1 3320   0.790   1.572   4.388
  807SOL    HW2 3321   0.644   1.646   4.391
  808SOL     OW 3322   4.113   3.533   6.536
  808SOL    HW1 3323   4.153   3.534   6.445
  808SOL    HW2 3324   4.013   3.524   6.528
  809SOL     OW 3325   0.238   4.415   1.516
  809SOL    HW1 3326   0.301   4.383   1.586
  809SOL    HW2 3327   0.210   4.509   1.535
  810SOL     OW 3328   3.639   2.756   1.003
  810SOL    HW1 3329   3.684   2.839   1.036
  810SOL    HW2 3330   3.543   2.757   1.031
  811SOL     OW 3331   3.921   5.853   4.263
  811SOL    HW1 3332   3.888   5.759   4.252
  811SOL    HW2 3333   3.991   5.871   4.194
  812SOL     OW 3334   0.349   1.647   1.502
  812SOL    HW1 3335   0.430   1.624   1.448
  812SOL    HW2 3336   0.373   1.714   1.572
  813SOL     OW 3337   3.803   5.218   4.296
  813SOL    HW1 3338   3.802   5.295   4.232
  813SOL    HW2 3339   3.848   5.245   4.381
  814SOL     OW 3340   5.565   6.088   2.831
  814SOL    HW1 3341   5.469   6.080   2.860
  814SOL    HW2 3342   5.622   6.110   2.910
  815SOL     OW 3343   0.067   3.195   3.224
  815SOL    HW1 3344   0.046   3.189   3.127
  815SOL    HW2 3345   7.012   3.162   3.278
  816SOL     OW 3346   0.008   6.290   0.193
  816SOL    HW1 3347   0.024   6.384   0.222
  816SOL    HW2 3348   0.003   6.286   0.093
  817SOL     OW 3349   2.426   3.908   1.392
  817SOL    HW1 3350   2.479   3.905   1.307
  817SOL    HW2 3351   2.452   3.831   1.450
  818SOL     OW 3352   6.476   2.984   2.009
  818SOL    HW1 3353   6.441   3.074   1.984
  818SOL    HW2 3354   6.476   2.975   2.109
  819SOL     OW 3355   5.398   2.914   3.371
  819SOL    HW1 3356   5.496   2.927   3.358
  819SOL    HW2 3357   5.367   2.969   3.448
  820SOL     OW 3358   2.693   2.510   6.108
  820SOL    HW1 3359   2.713   2.607   6.114
  820SOL    HW2 3360   2.651   2.479   6.193
  821SOL     OW 3361   2.086   3.871   0.604
  821SOL    HW1 3362   2.068   3.772   0.607
  821SOL    HW2 3363   2.138   3.893   0.522
  822SOL     OW 3364   1.064   4.606   4.504
  822SOL    HW1 3365   1.045   4.695   4.462
  822SOL    HW2 3366   1.095   4.619   4.598
  823SOL     OW 3367   4.598   3.978   6.531
  823SOL    HW1 3368   4.637   4.066   6.505
  823SOL    HW2 3369   4.562   3.983   6.624
  824SOL     OW 3370   5.372   1.215   5.392
  824SOL    HW1 3371   5.444   1.146   5.386
  824SOL    HW2 3372   5.319   1.201   5.476
  825SOL     OW 3373   1.127   4.068   1.146
  825SOL    HW1 3374   1.101   4.149   1.093
  825SOL    HW2 3375   1.093   4.077   1.239
  826SOL     OW 3376   5.634   3.253   6.699
  826SOL    HW1 3377   5.733   3.241   6.693
  826SOL    HW2 3378   5.594   3.179   6.754
  827SOL     OW 3379   3.586   5.667   6.281
  827SOL    HW1 3380   3.580   5.693   6.185
  827SOL    HW2 3381   3.678   5.634   6.302
  828SOL     OW 3382   5.575   6.616   6.012
  828SOL    HW1 3383   5.483   6.610   5.972
  828SOL    HW2 3384   5.594   6.532   6.063
  829SOL     OW 3385   2.958   3.763   3.864
  829SOL    HW1 3386   2.969   3.818   3.947
  829SOL    HW2 3387   2.992   3.671   3.880
  830SOL     OW 3388   5.010   4.862   6.667
  830SOL    HW1 3389   5.097   4.897   6.703
  830SOL    HW2 3390   4.935   4.921   6.698
  831SOL     OW 3391   5.901   1.045   5.585
  831SOL    HW1 3392   5.841   1.122   5.604
  831SOL    HW2 3393   5.852   0.959   5.600
  832SOL     OW 3394   2.378   1.210   1.239
  832SOL    HW1 3395   2.349   1.116   1.253
  832SOL    HW2 3396   2.442   1.236   1.311
  833SOL     OW 3397   0.036   4.707   6.344
  833SOL    HW1 3398   0.130   4.703   6.378
  833SOL    HW2 3399   0.037   4.731   6.247
  834SOL     OW 3400   2.624   3.461   0.785
  834SOL    HW1 3401   2.645   3.555   0.811
  834SOL    HW2 3402   2.599   3.459   0.688
  835SOL     OW 3403   3.107   0.289   4.564
  835SOL    HW1 3404   3.193   0.294   4.513
  835SOL    HW2 3405   3.126   0.281   4.662
  836SOL     OW 3406   3.518   6.646   0.317
  836SOL    HW1 3407   3.572   6.692   0.388
  836SOL    HW2 3408   3.443   6.596   0.360
  837SOL     OW 3409   5.204   6.324   0.142
  837SOL    HW1 3410   5.167   6.364   0.227
  837SOL    HW2 3411   5.279   6.381   0.109
  838SOL     OW 3412   1.075   6.738   4.970
  838SOL    HW1 3413   1.037   6.677   4.900
  838SOL    HW2 3414   1.054   6.701   5.061
  839SOL     OW 3415   2.691   2.259   2.196
  839SOL    HW1 3416   2.782   2.277   2.159
  839SOL    HW2 3417   2.648   2.184   2.146
  840SOL     OW 3418   5.880   6.989   6.127
  840SOL    HW1 3419   5.909   0.050   6.174
  840SOL    HW2 3420   5.827   7.014   6.046
  841SOL     OW 3421   4.648   5.078   0.763
  841SOL    HW1 3422   4.622   5.099   0.857
  841SOL    HW2 3423   4.722   5.011   0.763
  842SOL     OW 3424   4.592   5.104   4.238
  842SOL    HW1 3425   4.569   5.160   4.159
  842SOL    HW2 3426   4.680   5.058   4.222
  843SOL     OW 3427   3.343   1.485   6.822
  843SOL    HW1 3428   3.291   1.551   6.876
  843SOL    HW2 3429   3.353   1.519   6.729
  844SOL     OW 3430   5.284   0.025   1.018
  844SOL    HW1 3431   5.237   0.074   0.944
  844SOL    HW2 3432   5.371   7.011   0.984
  845SOL     OW 3433   5.601   3.443   5.025
  845SOL    HW1 3434   5.670   3.515   5.037
  845SOL    HW2 3435   5.516   3.470   5.071
  846SOL     OW 3436   3.363   1.644   0.293
  846SOL    HW1 3437   3.314   1.650   0.380
  846SOL    HW2 3438   3.450   1.596   0.306
  847SOL     OW 3439   0.511   3.867   0.444
  847SOL    HW1 3440   0.531   3.772   0.421
  847SOL    HW2 3441   0.539   3.885   0.538
  848SOL     OW 3442   6.367   1.240   6.548
  848SOL    HW1 3443   6.397   1.335   6.551
  848SOL    HW2 3444   6.292   1.230   6.482
  849SOL     OW 3445   0.863   4.781   5.478
  849SOL    HW1 3446   0.776   4.736   5.457
  849SOL    HW2 3447   0.927   4.766   5.403
  850SOL     OW 3448   5.336   1.422   4.218
  850SOL    HW1 3449   5.371   1.349   4.159
  850SOL    HW2 3450   5.237   1.412   4.227
  851SOL     OW 3451   6.900   1.062   1.298
  851SOL    HW1 3452   6.808   1.071   1.260
  851SOL    HW2 3453   6.960   1.131   1.258
  852SOL     OW 3454   1.634   2.010   0.560
  852SOL    HW1 3455   1.714   2.065   0.538
  852SOL    HW2 3456   1.596   2.040   0.648
  853SOL     OW 3457   1.408   4.387   2.251
  853SOL    HW1 3458   1.436   4.381   2.347
  853SOL    HW2 3459   1.457   4.319   2.197
  854SOL     OW 3460   4.849   5.925   2.377
  854SOL    HW1 3461   4.887   5.938   2.285
  854SOL    HW2 3462   4.805   5.835   2.382
  855SOL     OW 3463   6.926   0.123   0.968
  855SOL    HW1 3464   6.968   0.193   1.026
  855SOL    HW2 3465   6.834   0.101   1.002
  856SOL     OW 3466   1.664   1.909   5.105
  856SOL    HW1 3467   1.716   1.971   5.046
  856SOL    HW2 3468   1.707   1.903   5.194
  857SOL     OW 3469   5.969   4.646   1.617
  857SOL    HW1 3470   5.959   4.594   1.532
  857SOL    HW2 3471   5.880   4.679   1.647
  858SOL     OW 3472   2.568   4.337   1.413
  858SOL    HW1 3473   2.493   4.353   1.349
  858SOL    HW2 3474   2.613   4.251   1.391
  859SOL     OW 3475   4.740   5.258   6.930
  859SOL    HW1 3476   4.790   5.293   6.851
  859SOL    HW2 3477   4.802   5.203   6.987
  860SOL     OW 3478   4.582   4.476   0.763
  860SOL    HW1 3479   4.597   4.430   0.850
  860SOL    HW2 3480   4.561   4.573   0.779
  861SOL     OW 3481   2.334   0.313   5.014
  861SOL    HW1 3482   2.367   0.221   5.034
  861SOL    HW2 3483   2.412   0.376   5.006
  862SOL     OW 3484   6.944   4.776   5.813
  862SOL    HW1 3485   6.932   4.772   5.912
  862SOL    HW2 3486   6.952   4.684   5.776
  863SOL     OW 3487   1.181   0.888   0.464
  863SOL    HW1 3488   1.145   0.981   0.461
  863SOL    HW2 3489   1.143   0.840   0.543
  864SOL     OW 3490   4.930   4.663   3.801
  864SOL    HW1 3491   4.895   4.745   3.755
  864SOL    HW2 3492   4.910   4.583   3.744
  865SOL     OW 3493   2.145   6.285   4.881
  865SOL    HW1 3494   2.213   6.214   4.861
  865SOL    HW2 3495   2.062   6.243   4.917
  866SOL     OW 3496   2.152   2.431   1.732
  866SOL    HW1 3497   2.126   2.417   1.828
  866SOL    HW2 3498   2.160   2.529   1.714
  867SOL     OW 3499   4.108   3.010   1.297
  867SOL    HW1 3500   4.108   2.941   1.369
  867SOL    HW2 3501   4.169   2.980   1.223
  868SOL     OW 3502   5.793   6.380   1.253
  868SOL    HW1 3503   5.874   6.419   1.297
  868SOL    HW2 3504   5.744   6.324   1.319
  869SOL     OW 3505   6.651   5.435   3.238
  869SOL    HW1 3506   6.608   5.411   3.325
  869SOL    HW2 3507   6.605   5.516   3.201
  870SOL     OW 3508   5.544   3.227   0.009
  870SOL    HW1 3509   5.606   3.159   0.049
  870SOL    HW2 3510   5.489   3.183   6.960
  871SOL     OW 3511   5.572   3.669   1.608
  871SOL    HW1 3512   5.525   3.599   1.662
  871SOL    HW2 3513   5.668   3.675   1.636
  872SOL     OW 3514   6.032   4.077   4.117
  872SOL    HW1 3515   6.097   4.001   4.120
  872SOL    HW2 3516   6.082   4.163   4.101
  873SOL     OW 3517   5.501   0.248   3.469
  873SOL    HW1 3518   5.523   0.156   3.502
  873SOL    HW2 3519   5.525   0.255   3.372
  874SOL     OW 3520   1.558   4.578   5.354
  874SOL    HW1 3521   1.496   4.511   5.312
  874SOL    HW2 3522   1.649   4.538   5.361
  875SOL     OW 3523   4.464   3.819   0.888
  875SOL    HW1 3524   4.457   3.722   0.910
  875SOL    HW2 3525   4.474   3.871   0.973
  876SOL     OW 3526   0.434   5.914   3.686
  876SOL    HW1 3527   0.387   5.932   3.773
  876SOL    HW2 3528   0.476   5.998   3.652
  877SOL     OW 3529   3.508   4.860   0.231
  877SOL    HW1 3530   3.526   4.840   0.328
  877SOL    HW2 3531   3.533   4.780   0.176
  878SOL     OW 3532   4.308   6.095   6.189
  878SOL    HW1 3533   4.310   6.015   6.129
  878SOL    HW2 3534   4.218   6.103   6.231
  879SOL     OW 3535   3.402   1.996   2.081
  879SOL    HW1 3536   3.395   2.011   1.983
  879SOL    HW2 3537   3.497   2.009   2.110
  880SOL     OW 3538   3.097   4.852   7.019
  880SOL    HW1 3539   3.006   4.874   0.032
  880SOL    HW2 3540   3.089   4.825   6.923
  881SOL     OW 3541   4.052   4.529   5.319
  881SOL    HW1 3542   4.128   4.491   5.266
  881SOL    HW2 3543   4.072   4.521   5.417
  882SOL     OW 3544   1.443   1.245   4.199
  882SOL    HW1 3545   1.471   1.149   4.209
  882SOL    HW2 3546   1.520   1.300   4.169
  883SOL     OW 3547   4.954   5.405   4.648
  883SOL    HW1 3548   4.923   5.493   4.685
  883SOL    HW2 3549   4.951   5.336   4.720
  884SOL     OW 3550   0.148   3.370   1.571
  884SOL    HW1 3551   0.189   3.285   1.539
  884SOL    HW2 3552   0.111   3.357   1.663
  885SOL     OW 3553   5.336   5.629   6.569
  885SOL    HW1 3554   5.412   5.693   6.558
  885SOL    HW2 3555   5.293   5.643   6.658
  886SOL     OW 3556   4.091   0.186   0.420
  886SOL    HW1 3557   4.064   0.194   0.516
  886SOL    HW2 3558   4.048   0.258   0.367
  887SOL     OW 3559   4.469   6.885   4.890
  887SOL    HW1 3560   4.439   6.790   4.902
  887SOL    HW2 3561   4.415   6.945   4.949
  888SOL     OW 3562   5.905   6.509   3.632
  888SOL    HW1 3563   5.843   6.431   3.638
  888SOL    HW2 3564   6.000   6.476   3.637
  889SOL     OW 3565   0.745   6.466   6.361
  889SOL    HW1 3566   0.810   6.390   6.363
  889SOL    HW2 3567   0.668   6.445   6.422
  890SOL     OW 3568   2.867   5.044   2.080
  890SOL    HW1 3569   2.950   5.060   2.027
  890SOL    HW2 3570   2.835   4.950   2.065
  891SOL     OW 3571   5.976   3.631   1.443
  891SOL    HW1 3572   6.061   3.647   1.394
  891SOL    HW2 3573   5.899   3.636   1.379
  892SOL     OW 3574   3.714   4.079   0.548
  892SOL    HW1 3575   3.690   3.992   0.504
  892SOL    HW2 3576   3.643   4.104   0.614
  893SOL     OW 3577   2.562   1.082   1.999
  893SOL    HW1 3578   2.612   1.001   1.970
  893SOL    HW2 3579   2.626   1.159   2.009
  894SOL     OW 3580   1.896   3.266   4.343
  894SOL    HW1 3581   1.891   3.182   4.397
  894SOL    HW2 3582   1.986   3.308   4.353
  895SOL     OW 3583   2.122   5.812   4.954
  895SOL    HW1 3584   2.071   5.839   4.872
  895SOL    HW2 3585   2.058   5.792   5.028
  896SOL     OW 3586   5.553   6.035   2.302
  896SOL    HW1 3587   5.495   5.989   2.236
  896SOL    HW2 3588   5.512   6.028   2.393
  897SOL     OW 3589   5.706   0.681   0.275
  897SOL    HW1 3590   5.705   0.585   0.245
  897SOL    HW2 3591   5.622   0.701   0.325
  898SOL     OW 3592   3.811   5.823   3.587
  898SOL    HW1 3593   3.860   5.738   3.567
  898SOL    HW2 3594   3.764   5.855   3.505
  899SOL     OW 3595   0.546   5.027   6.819
  899SOL    HW1 3596   0.610   5.104   6.816
  899SOL    HW2 3597   0.491   5.032   6.903
  900SOL     OW 3598   5.226   5.936   1.455
  900SOL    HW1 3599   5.244   6.033   1.474
  900SOL    HW2 3600   5.206   5.925   1.358
  901SOL     OW 3601   0.477   1.125   5.277
  901SOL    HW1 3602   0.538   1.193   5.238
  901SOL    HW2 3603   0.529   1.043   5.301
  902SOL     OW 3604   0.317   1.466   6.006
  902SOL    HW1 3605   0.291   1.490   6.100
  902SOL    HW2 3606   0.284   1.536   5.943
  903SOL     OW 3607   6.497   3.752   6.371
  903SOL    HW1 3608   6.548   3.715   6.293
  903SOL    HW2 3609   6.445   3.679   6.415
  904SOL     OW 3610   1.495   2.159   4.342
  904SOL    HW1 3611   1.427   2.206   4.285
  904SOL    HW2 3612   1.469   2.063   4.352
  905SOL     OW 3613   4.741   2.914   6.265
  905SOL    HW1 3614   4.690   2.998   6.284
  905SOL    HW2 3615   4.723   2.885   6.171
  906SOL     OW 3616   0.384   3.673   6.336
  906SOL    HW1 3617   0.391   3.768   6.367
  906SOL    HW2 3618   0.354   3.670   6.241
  907SOL     OW 3619   5.475   2.717   3.611
  907SOL    HW1 3620   5.502   2.802   3.656
  907SOL    HW2 3621   5.412   2.737   3.536
  908SOL     OW 3622   1.779   6.531   3.617
  908SOL    HW1 3623   1.722   6.599   3.663
  908SOL    HW2 3624   1.858   6.509   3.676
  909SOL     OW 3625   2.365   0.660   1.280
  909SOL    HW1 3626   2.293   0.593   1.293
  909SOL    HW2 3627   2.454   0.618   1.298
  910SOL     OW 3628   2.588   0.271   0.796
  910SOL    HW1 3629   2.521   0.307   0.861
  910SOL    HW2 3630   2.640   0.347   0.756
  911SOL     OW 3631   6.472   5.696   1.050
  911SOL    HW1 3632   6.535   5.774   1.053
  911SOL    HW2 3633   6.521   5.612   1.071
  912SOL     OW 3634   6.546   0.856   5.118
  912SOL    HW1 3635   6.452   0.864   5.151
  912SOL    HW2 3636   6.551   0.781   5.051
  913SOL     OW 3637   2.103   0.281   3.737
  913SOL    HW1 3638   2.133   0.218   3.809
  913SOL    HW2 3639   2.145   0.371   3.750
  914SOL     OW 3640   2.669   5.707   5.516
  914SOL    HW1 3641   2.722   5.638   5.565
  914SOL    HW2 3642   2.600   5.746   5.577
  915SOL     OW 3643   1.006   3.494   1.005
  915SOL    HW1 3644   1.064   3.484   1.085
  915SOL    HW2 3645   0.980   3.591   0.995
  916SOL     OW 3646   1.319   2.318   2.710
  916SOL    HW1 3647   1.334   2.367   2.796
  916SOL    HW2 3648   1.397   2.333   2.649
  917SOL     OW 3649   4.700   0.762   1.464
  917SOL    HW1 3650   4.607   0.781   1.497
  917SOL    HW2 3651   4.704   0.669   1.428
  918SOL     OW 3652   2.448   6.001   0.058
  918SOL    HW1 3653   2.435   6.058   6.999
  918SOL    HW2 3654   2.411   6.048   0.138
  919SOL     OW 3655   0.608   5.649   2.093
  919SOL    HW1 3656   0.596   5.630   1.996
  919SOL    HW2 3657   0.637   5.744   2.106
  920SOL     OW 3658   1.887   0.411   2.753
  920SOL    HW1 3659   1.818   0.475   2.721
  920SOL    HW2 3660   1.844   0.339   2.807
  921SOL     OW 3661   5.356   4.756   3.751
  921SOL    HW1 3662   5.403   4.669   3.736
  921SOL    HW2 3663   5.294   4.774   3.674
  922SOL     OW 3664   3.889   2.751   6.421
  922SOL    HW1 3665   3.846   2.663   6.400
  922SOL    HW2 3666   3.819   2.818   6.443
  923SOL     OW 3667   3.008   5.548   0.349
  923SOL    HW1 3668   2.998   5.641   0.312
  923SOL    HW2 3669   3.064   5.493   0.286
  924SOL     OW 3670   5.492   3.363   2.008
  924SOL    HW1 3671   5.480   3.264   2.016
  924SOL    HW2 3672   5.445   3.408   2.084
  925SOL     OW 3673   6.969   1.666   5.388
  925SOL    HW1 3674   6.874   1.636   5.377
  925SOL    HW2 3675   0.002   1.591   5.423
  926SOL     OW 3676   5.832   1.002   6.829
  926SOL    HW1 3677   5.775   1.017   6.749
  926SOL    HW2 3678   5.776   1.008   6.912
  927SOL     OW 3679   5.400   4.351   3.982
  927SOL    HW1 3680   5.319   4.293   3.982
  927SOL    HW2 3681   5.476   4.301   4.025
  928SOL     OW 3682   2.169   0.726   0.564
  928SOL    HW1 3683   2.087   0.677   0.536
  928SOL    HW2 3684   2.163   0.747   0.662
  929SOL     OW 3685   0.019   1.653   0.964
  929SOL    HW1 3686   0.082   1.577   0.978
  929SOL    HW2 3687   6.976   1.629   0.892
  930SOL     OW 3688   6.346   5.872   4.651
  930SOL    HW1 3689   6.307   5.796   4.703
  930SOL    HW2 3690   6.327   5.859   4.554
  931SOL     OW 3691   0.126   3.446   3.879
  931SOL    HW1 3692   0.180   3.435   3.796
  931SOL    HW2 3693   0.175   3.404   3.956
  932SOL     OW 3694   2.678   6.675   1.689
  932SOL    HW1 3695   2.599   6.732   1.710
  932SOL    HW2 3696   2.734   6.665   1.771
  933SOL     OW 3697   0.855   5.122   2.120
  933SOL    HW1 3698   0.949   5.152   2.105
  933SOL    HW2 3699   0.844   5.094   2.216
  934SOL     OW 3700   2.265   0.593   4.274
  934SOL    HW1 3701   2.361   0.620   4.281
  934SOL    HW2 3702   2.235   0.603   4.179
  935SOL     OW 3703   4.910   4.155   5.242
  935SOL    HW1 3704   4.863   4.236   5.279
  935SOL    HW2 3705   4.932   4.093   5.317
  936SOL     OW 3706   1.013   0.107   5.844
  936SOL    HW1 3707   0.926   0.115   5.795
  936SOL    HW2 3708   1.088   0.130   5.782
  937SOL     OW 3709   5.022   1.951   5.515
  937SOL    HW1 3710   4.974   1.977   5.431
  937SOL    HW2 3711   4.978   1.995   5.593
  938SOL     OW 3712   0.081   5.260   5.956
  938SOL    HW1 3713   0.068   5.244   5.858
  938SOL    HW2 3714   7.014   5.278   5.998
  939SOL     OW 3715   5.115   1.499   5.529
  939SOL    HW1 3716   5.131   1.512   5.431
  939SOL    HW2 3717   5.068   1.579   5.566
  940SOL     OW 3718   6.775   3.190   2.681
  940SOL    HW1 3719   6.817   3.279   2.698
  940SOL    HW2 3720   6.832   3.137   2.618
  941SOL     OW 3721   6.346   0.824   3.884
  941SOL    HW1 3722   6.326   0.772   3.801
  941SOL    HW2 3723   6.433   0.793   3.923
  942SOL     OW 3724   4.994   0.869   4.437
  942SOL    HW1 3725   4.936   0.818   4.373
  942SOL    HW2 3726   5.065   0.918   4.386
  943SOL     OW 3727   1.224   3.194   3.363
  943SOL    HW1 3728   1.227   3.136   3.444
  943SOL    HW2 3729   1.228   3.138   3.280
  944SOL     OW 3730   6.415   3.136   6.577
  944SOL    HW1 3731   6.505   3.179   6.572
  944SOL    HW2 3732   6.371   3.162   6.663
  945SOL     OW 3733   6.594   4.421   5.699
  945SOL    HW1 3734   6.616   4.515   5.725
  945SOL    HW2 3735   6.651   4.357   5.751
  946SOL     OW 3736   5.324   2.841   6.062
  946SOL    HW1 3737   5.393   2.913   6.065
  946SOL    HW2 3738   5.272   2.840   6.148
  947SOL     OW 3739   3.292   3.570   5.158
  947SOL    HW1 3740   3.274   3.499   5.090
  947SOL    HW2 3741   3.205   3.604   5.195
  948SOL     OW 3742   4.685   1.157   1.103
  948SOL    HW1 3743   4.779   1.145   1.072
  948SOL    HW2 3744   4.652   1.073   1.145
  949SOL     OW 3745   0.024   6.323   6.397
  949SOL    HW1 3746   0.030   6.351   6.301
  949SOL    HW2 3747   0.061   6.395   6.456
  950SOL     OW 3748   4.210   5.206   2.358
  950SOL    HW1 3749   4.165   5.144   2.423
  950SOL    HW2 3750   4.268   5.153   2.296
  951SOL     OW 3751   1.818   0.746   1.914
  951SOL    HW1 3752   1.890   0.714   1.976
  951SOL    HW2 3753   1.837   0.840   1.885
  952SOL     OW 3754   5.392   1.220   1.717
  952SOL    HW1 3755   5.331   1.166   1.660
  952SOL    HW2 3756   5.339   1.268   1.787
  953SOL     OW 3757   5.039   5.633   5.073
  953SOL    HW1 3758   5.138   5.639   5.060
  953SOL    HW2 3759   5.019   5.596   5.163
  954SOL     OW 3760   5.157   6.044   0.544
  954SOL    HW1 3761   5.106   6.130   0.545
  954SOL    HW2 3762   5.244   6.057   0.593
  955SOL     OW 3763   0.690   4.797   3.145
  955SOL    HW1 3764   0.684   4.828   3.050
  955SOL    HW2 3765   0.696   4.697   3.147
  956SOL     OW 3766   0.833   1.819   2.184
  956SOL    HW1 3767   0.901   1.750   2.206
  956SOL    HW2 3768   0.878   1.908   2.172
  957SOL     OW 3769   1.525   4.480   4.110
  957SOL    HW1 3770   1.431   4.449   4.121
  957SOL    HW2 3771   1.587   4.403   4.121
  958SOL     OW 3772   4.653   2.494   1.286
  958SOL    HW1 3773   4.615   2.569   1.339
  958SOL    HW2 3774   4.584   2.422   1.275
  959SOL     OW 3775   2.566   4.974   3.121
  959SOL    HW1 3776   2.586   5.070   3.103
  959SOL    HW2 3777   2.484   4.947   3.071
  960SOL     OW 3778   0.262   6.139   4.060
  960SOL    HW1 3779   0.274   6.061   3.998
  960SOL    HW2 3780   0.341   6.146   4.120
  961SOL     OW 3781   4.969   6.406   3.165
  961SOL    HW1 3782   4.978   6.389   3.067
  961SOL    HW2 3783   5.002   6.499   3.186
  962SOL     OW 3784   1.696   1.526   4.010
  962SOL    HW1 3785   1.670   1.623   4.010
  962SOL    HW2 3786   1.670   1.485   4.097
  963SOL     OW 3787   6.046   1.206   6.181
  963SOL    HW1 3788   6.008   1.145   6.112
  963SOL    HW2 3789   6.142   1.182   6.198
  964SOL     OW 3790   6.353   3.252   0.601
  964SOL    HW1 3791   6.413   3.330   0.584
  964SOL    HW2 3792   6.385   3.173   0.548
  965SOL     OW 3793   5.472   1.573   0.852
  965SOL    HW1 3794   5.399   1.505   0.842
  965SOL    HW2 3795   5.432   1.659   0.884
  966SOL     OW 3796   6.435   1.657   2.157
  966SOL    HW1 3797   6.518   1.661   2.102
  966SOL    HW2 3798   6.363   1.712   2.113
  967SOL     OW 3799   1.479   5.421   0.630
  967SOL    HW1 3800   1.477   5.328   0.595
  967SOL    HW2 3801   1.385   5.453   0.647
  968SOL     OW 3802   4.599   2.433   1.967
  968SOL    HW1 3803   4.672   2.502   1.964
  968SOL    HW2 3804   4.527   2.458   1.902
  969SOL     OW 3805   4.365   5.877   6.011
  969SOL    HW1 3806   4.394   5.794   6.059
  969SOL    HW2 3807   4.416   5.886   5.925
  970SOL     OW 3808   4.608   1.011   5.029
  970SOL    HW1 3809   4.628   1.024   5.126
  970SOL    HW2 3810   4.528   1.064   5.004
  971SOL     OW 3811   0.421   1.913   3.180
  971SOL    HW1 3812   0.454   1.907   3.086
  971SOL    HW2 3813   0.475   1.853   3.239
  972SOL     OW 3814   5.501   3.625   0.994
  972SOL    HW1 3815   5.570   3.573   1.045
  972SOL    HW2 3816   5.443   3.675   1.059
  973SOL     OW 3817   0.034   4.403   6.349
  973SOL    HW1 3818   0.030   4.500   6.324
  973SOL    HW2 3819   0.108   4.388   6.415
  974SOL     OW 3820   4.463   0.694   2.402
  974SOL    HW1 3821   4.482   0.792   2.410
  974SOL    HW2 3822   4.485   0.648   2.489
  975SOL     OW 3823   1.965   5.374   6.501
  975SOL    HW1 3824   2.048   5.326   6.530
  975SOL    HW2 3825   1.981   5.415   6.411
  976SOL     OW 3826   5.756   2.974   2.852
  976SOL    HW1 3827   5.793   3.047   2.909
  976SOL    HW2 3828   5.800   2.887   2.876
  977SOL     OW 3829   2.748   1.256   3.479
  977SOL    HW1 3830   2.674   1.235   3.543
  977SOL    HW2 3831   2.812   1.179   3.476
  978SOL     OW 3832   4.865   4.233   5.644
  978SOL    HW1 3833   4.963   4.239   5.622
  978SOL    HW2 3834   4.820   4.174   5.578
  979SOL     OW 3835   6.820   1.683   2.364
  979SOL    HW1 3836   6.807   1.776   2.329
  979SOL    HW2 3837   6.917   1.661   2.364
  980SOL     OW 3838   4.744   2.092   3.711
  980SOL    HW1 3839   4.716   2.178   3.670
  980SOL    HW2 3840   4.837   2.070   3.683
  981SOL     OW 3841   1.547   1.398   5.007
  981SOL    HW1 3842   1.496   1.406   5.092
  981SOL    HW2 3843   1.565   1.302   4.988
  982SOL     OW 3844   2.365   1.898   4.107
  982SOL    HW1 3845   2.303   1.902   4.186
  982SOL    HW2 3846   2.417   1.983   4.102
  983SOL     OW 3847   6.158   2.187   2.998
  983SOL    HW1 3848   6.094   2.162   2.926
  983SOL    HW2 3849   6.164   2.287   3.004
  984SOL     OW 3850   3.604   0.957   4.187
  984SOL    HW1 3851   3.527   0.893   4.189
  984SOL    HW2 3852   3.570   1.050   4.204
  985SOL     OW 3853   5.479   4.793   6.583
  985SOL    HW1 3854   5.499   4.859   6.511
  985SOL    HW2 3855   5.381   4.773   6.585
  986SOL     OW 3856   5.624   5.031   0.408
  986SOL    HW1 3857   5.570   5.032   0.491
  986SOL    HW2 3858   5.612   4.944   0.360
  987SOL     OW 3859   4.314   6.422   1.391
  987SOL    HW1 3860   4.401   6.397   1.435
  987SOL    HW2 3861   4.308   6.376   1.303
  988SOL     OW 3862   3.753   3.187   1.324
  988SOL    HW1 3863   3.663   3.144   1.321
  988SOL    HW2 3864   3.776   3.223   1.234
  989SOL     OW 3865   6.825   0.845   5.459
  989SOL    HW1 3866   6.788   0.922   5.406
  989SOL    HW2 3867   6.881   0.881   5.534
  990SOL     OW 3868   4.531   0.371   2.868
  990SOL    HW1 3869   4.586   0.301   2.913
  990SOL    HW2 3870   4.560   0.461   2.901
  991SOL     OW 3871   1.621   2.530   4.886
  991SOL    HW1 3872   1.720   2.545   4.887
  991SOL    HW2 3873   1.575   2.615   4.860
  992SOL     OW 3874   1.061   4.320   0.986
  992SOL    HW1 3875   0.987   4.300   0.922
  992SOL    HW2 3876   1.027   4.383   1.057
  993SOL     OW 3877   1.554   5.527   2.200
  993SOL    HW1 3878   1.591   5.599   2.142
  993SOL    HW2 3879   1.628   5.482   2.249
  994SOL     OW 3880   3.382   3.383   2.448
  994SOL    HW1 3881   3.474   3.377   2.409
  994SOL    HW2 3882   3.347   3.476   2.437
  995SOL     OW 3883   2.687   1.904   6.245
  995SOL    HW1 3884   2.780   1.943   6.242
  995SOL    HW2 3885   2.635   1.937   6.166
  996SOL     OW 3886   1.514   4.260   4.390
  996SOL    HW1 3887   1.441   4.192   4.385
  996SOL    HW2 3888   1.577   4.247   4.313
  997SOL     OW 3889   6.757   0.498   1.917
  997SOL    HW1 3890   6.759   0.569   1.847
  997SOL    HW2 3891   6.801   0.532   2.000
  998SOL     OW 3892   4.864   6.573   3.649
  998SOL    HW1 3893   4.867   6.493   3.710
  998SOL    HW2 3894   4.873   6.542   3.554
  999SOL     OW 3895   5.718   4.988   1.354
  999SOL    HW1 3896   5.700   5.027   1.445
  999SOL    HW2 3897   5.809   4.947   1.353
 1000SOL     OW 3898   1.309   1.217   2.392
 1000SOL    HW1 3899   1.386   1.267   2.352
 1000SOL    HW2 3900   1.240   1.282   2.423
 1001SOL     OW 3901   6.084   6.805   0.102
 1001SOL    HW1 3902   6.084   6.883   0.039
 1001SOL    HW2 3903   6.102   6.837   0.195
 1002SOL     OW 3904   6.082   1.865   6.608
 1002SOL    HW1 3905   6.152   1.924   6.648
 1002SOL    HW2 3906   6.028   1.823   6.682
 1003SOL     OW 3907   2.217   6.670   1.842
 1003SOL    HW1 3908   2.254   6.641   1.753
 1003SOL    HW2 3909   2.286   6.724   1.890
 1004SOL     OW 3910   0.090   0.647   1.249
 1004SOL    HW1 3911   0.100   0.563   1.196
 1004SOL    HW2 3912   0.031   0.711   1.199
 1005SOL     OW 3913   0.537   1.597   2.970
 1005SOL    HW1 3914   0.634   1.574   2.960
 1005SOL    HW2 3915   0.501   1.558   3.055
 1006SOL     OW 3916   1.411   5.951   1.798
 1006SOL    HW1 3917   1.410   5.900   1.712
 1006SOL    HW2 3918   1.408   6.049   1.780
 1007SOL     OW 3919   5.660   6.944   4.304
 1007SOL    HW1 3920   5.646   7.000   4.223
 1007SOL    HW2 3921   5.694   6.854   4.277
 1008SOL     OW 3922   1.996   3.013   4.853
 1008SOL    HW1 3923   2.024   2.918   4.840
 1008SOL    HW2 3924   2.047   3.072   4.791
 1009SOL     OW 3925   0.791   6.168   4.229
 1009SOL    HW1 3926   0.694   6.151   4.216
 1009SOL    HW2 3927   0.832   6.092   4.280
 1010SOL     OW 3928   3.686   2.295   6.203
 1010SOL    HW1 3929   3.675   2.247   6.116
 1010SOL    HW2 3930   3.596   2.309   6.245
 1011SOL     OW 3931   2.898   5.031   2.471
 1011SOL    HW1 3932   2.905   5.106   2.404
 1011SOL    HW2 3933   2.839   5.059   2.546
 1012SOL     OW 3934   0.022   6.517   0.352
 1012SOL    HW1 3935   0.096   6.567   0.307
 1012SOL    HW2 3936   0.058   6.471   0.433
 1013SOL     OW 3937   0.255   1.463   6.301
 1013SOL    HW1 3938   0.311   1.398   6.353
 1013SOL    HW2 3939   0.161   1.428   6.296
 1014SOL     OW 3940   5.336   5.318   6.439
 1014SOL    HW1 3941   5.330   5.237   6.497
 1014SOL    HW2 3942   5.247   5.364   6.438
 1015SOL     OW 3943   2.150   6.846   5.474
 1015SOL    HW1 3944   2.207   6.839   5.392
 1015SOL    HW2 3945   2.207   6.866   5.553
 1016SOL     OW 3946   2.560   3.665   0.318
 1016SOL    HW1 3947   2.613   3.744   0.284
 1016SOL    HW2 3948   2.522   3.616   0.240
 1017SOL     OW 3949   4.309   2.848   0.898
 1017SOL    HW1 3950   4.281   2.773   0.838
 1017SOL    HW2 3951   4.405   2.837   0.923
 1018SOL     OW 3952   1.482   2.965   3.630
 1018SOL    HW1 3953   1.497   2.996   3.724
 1018SOL    HW2 3954   1.384   2.969   3.609
 1019SOL     OW 3955   1.320   0.395   0.108
 1019SOL    HW1 3956   1.227   0.430   0.121
 1019SOL    HW2 3957   1.386   0.466   0.134
 1020SOL     OW 3958   0.959   6.900   1.267
 1020SOL    HW1 3959   0.947   6.966   1.341
 1020SOL    HW2 3960   1.057   6.883   1.254
 1021SOL     OW 3961   5.814   0.906   1.247
 1021SOL    HW1 3962   5.737   0.958   1.283
 1021SOL    HW2 3963   5.890   0.968   1.228
 1022SOL     OW 3964   4.150   4.745   6.313
 1022SOL    HW1 3965   4.167   4.671   6.247
 1022SOL    HW2 3966   4.116   4.706   6.398
 1023SOL     OW 3967   6.515   6.939   1.807
 1023SOL    HW1 3968   6.566   6.954   1.722
 1023SOL    HW2 3969   6.556   6.863   1.857
 1024SOL     OW 3970   5.847   3.593   4.070
 1024SOL    HW1 3971   5.893   3.549   4.147
 1024SOL    HW2 3972   5.797   3.525   4.017
 1025SOL     OW 3973   3.223   4.189   0.781
 1025SOL    HW1 3974   3.251   4.093   0.791
 1025SOL    HW2 3975   3.199   4.206   0.685
 1026SOL     OW 3976   2.127   1.682   1.367
 1026SOL    HW1 3977   2.150   1.593   1.405
 1026SOL    HW2 3978   2.153   1.685   1.270
 1027SOL     OW 3979   2.433   6.096   0.962
 1027SOL    HW1 3980   2.421   6.041   1.045
 1027SOL    HW2 3981   2.529   6.121   0.952
 1028SOL     OW 3982   4.197   5.873   0.331
 1028SOL    HW1 3983   4.127   5.836   0.271
 1028SOL    HW2 3984   4.287   5.837   0.303
 1029SOL     OW 3985   2.166   0.431   0.281
 1029SOL    HW1 3986   2.138   0.437   0.377
 1029SOL    HW2 3987   2.086   0.414   0.224
 1030SOL     OW 3988   3.696   3.541   1.455
 1030SOL    HW1 3989   3.723   3.517   1.548
 1030SOL    HW2 3990   3.682   3.457   1.402
 1031SOL     OW 3991   5.385   5.278   0.479
 1031SOL    HW1 3992   5.387   5.202   0.414
 1031SOL    HW2 3993   5.299   5.277   0.529
 1032SOL     OW 3994   1.564   1.766   4.581
 1032SOL    HW1 3995   1.543   1.669   4.568
 1032SOL    HW2 3996   1.565   1.787   4.678
 1033SOL     OW 3997   1.838   6.505   1.359
 1033SOL    HW1 3998   1.765   6.538   1.298
 1033SOL    HW2 3999   1.926   6.541   1.327
 1034SOL     OW 4000   1.202   5.787   5.241
 1034SOL    HW1 4001   1.147   5.712   5.204
 1034SOL    HW2 4002   1.210   5.859   5.173
 1035SOL     OW 4003   2.461   1.276   3.625
 1035SOL    HW1 4004   2.458   1.376   3.626
 1035SOL    HW2 4005   2.415   1.241   3.706
 1036SOL     OW 4006   3.531   0.543   1.530
 1036SOL    HW1 4007   3.560   0.638   1.522
 1036SOL    HW2 4008   3.490   0.528   1.620
 1037SOL     OW 4009   2.437   0.709   1.666
 1037SOL    HW1 4010   2.536   0.707   1.648
 1037SOL    HW2 4011   2.422   0.725   1.763
 1038SOL     OW 4012   1.393   0.838   5.911
 1038SOL    HW1 4013   1.302   0.874   5.934
 1038SOL    HW2 4014   1.392   0.802   5.818
 1039SOL     OW 4015   4.175   3.002   5.901
 1039SOL    HW1 4016   4.268   2.981   5.932
 1039SOL    HW2 4017   4.133   2.918   5.864
 1040SOL     OW 4018   5.149   3.000   2.488
 1040SOL    HW1 4019   5.223   3.041   2.542
 1040SOL    HW2 4020   5.187   2.928   2.429
 1041SOL     OW 4021   6.703   6.925   4.109
 1041SOL    HW1 4022   6.783   6.945   4.052
 1041SOL    HW2 4023   6.631   6.886   4.053
 1042SOL     OW 4024   3.520   4.924   2.162
 1042SOL    HW1 4025   3.583   4.881   2.098
 1042SOL    HW2 4026   3.426   4.907   2.132
 1043SOL     OW 4027   4.859   1.238   5.342
 1043SOL    HW1 4028   4.855   1.320   5.285
 1043SOL    HW2 4029   4.843   1.263   5.437
 1044SOL     OW 4030   4.732   4.270   1.802
 1044SOL    HW1 4031   4.816   4.253   1.854
 1044SOL    HW2 4032   4.656   4.283   1.866
 1045SOL     OW 4033   2.494   0.006   2.603
 1045SOL    HW1 4034   2.563   0.025   2.672
 1045SOL    HW2 4035   2.408   0.050   2.628
 1046SOL     OW 4036   1.950   6.895   0.098
 1046SOL    HW1 4037   2.036   6.940   0.120
 1046SOL    HW2 4038   1.874   6.958   0.115
 1047SOL     OW 4039   1.214   6.183   2.761
 1047SOL    HW1 4040   1.244   6.277   2.780
 1047SOL    HW2 4041   1.292   6.129   2.731
 1048SOL     OW 4042   5.007   5.299   5.694
 1048SOL    HW1 4043   4.967   5.391   5.692
 1048SOL    HW2 4044   4.974   5.247   5.615
 1049SOL     OW 4045   6.790   4.918   4.514
 1049SOL    HW1 4046   6.801   4.893   4.610
 1049SOL    HW2 4047   6.741   5.005   4.508
 1050SOL     OW 4048   3.085   5.261   0.670
 1050SOL    HW1 4049   3.040   5.172   0.660
 1050SOL    HW2 4050   3.024   5.333   0.637
 1051SOL     OW 4051   2.854   5.236   0.409
 1051SOL    HW1 4052   2.847   5.274   0.316
 1051SOL    HW2 4053   2.857   5.311   0.475
 1052SOL     OW 4054   4.745   6.854   4.145
 1052SOL    HW1 4055   4.707   6.766   4.173
 1052SOL    HW2 4056   4.674   6.910   4.103
 1053SOL     OW 4057   5.178   5.425   2.890
 1053SOL    HW1 4058   5.213   5.359   2.958
 1053SOL    HW2 4059   5.106   5.382   2.836
 1054SOL     OW 4060   3.015   4.645   5.907
 1054SOL    HW1 4061   3.099   4.598   5.934
 1054SOL    HW2 4062   2.952   4.580   5.866
 1055SOL     OW 4063   5.951   6.867   4.433
 1055SOL    HW1 4064   6.046   6.851   4.404
 1055SOL    HW2 4065   5.938   6.964   4.452
 1056SOL     OW 4066   1.497   5.654   5.572
 1056SOL    HW1 4067   1.446   5.698   5.646
 1056SOL    HW2 4068   1.585   5.621   5.607
 1057SOL     OW 4069   3.278   3.626   2.651
 1057SOL    HW1 4070   3.254   3.579   2.736
 1057SOL    HW2 4071   3.371   3.662   2.659
 1058SOL     OW 4072   5.065   1.621   1.845
 1058SOL    HW1 4073   5.117   1.646   1.927
 1058SOL    HW2 4074   4.972   1.594   1.871
 1059SOL     OW 4075   2.354   0.829   1.052
 1059SOL    HW1 4076   2.350   0.755   1.119
 1059SOL    HW2 4077   2.449   0.851   1.032
 1060SOL     OW 4078   0.337   2.598   4.793
 1060SOL    HW1 4079   0.255   2.618   4.739
 1060SOL    HW2 4080   0.327   2.637   4.884
 1061SOL     OW 4081   5.153   3.935   1.358
 1061SOL    HW1 4082   5.097   3.937   1.275
 1061SOL    HW2 4083   5.172   3.840   1.383
 1062SOL     OW 4084   6.704   5.102   5.859
 1062SOL    HW1 4085   6.612   5.114   5.821
 1062SOL    HW2 4086   6.746   5.019   5.820
 1063SOL     OW 4087   1.335   4.368   1.633
 1063SOL    HW1 4088   1.376   4.277   1.624
 1063SOL    HW2 4089   1.280   4.372   1.716
 1064SOL     OW 4090   1.146   3.972   1.755
 1064SOL    HW1 4091   1.223   3.951   1.695
 1064SOL    HW2 4092   1.148   3.909   1.833
 1065SOL     OW 4093   4.547   0.432   4.251
 1065SOL    HW1 4094   4.563   0.527   4.224
 1065SOL    HW2 4095   4.535   0.376   4.170
 1066SOL     OW 4096   5.375   1.139   4.161
 1066SOL    HW1 4097   5.439   1.105   4.230
 1066SOL    HW2 4098   5.379   1.081   4.080
 1067SOL     OW 4099   1.591   2.919   0.222
 1067SOL    HW1 4100   1.585   2.820   0.236
 1067SOL    HW2 4101   1.527   2.946   0.150
 1068SOL     OW 4102   5.300   4.341   1.963
 1068SOL    HW1 4103   5.369   4.329   2.034
 1068SOL    HW2 4104   5.236   4.264   1.965
 1069SOL     OW 4105   4.744   5.189   1.444
 1069SOL    HW1 4106   4.822   5.158   1.498
 1069SOL    HW2 4107   4.739   5.137   1.359
 1070SOL     OW 4108   1.569   0.667   0.458
 1070SOL    HW1 4109   1.636   0.726   0.504
 1070SOL    HW2 4110   1.510   0.724   0.399
 1071SOL     OW 4111   3.806   6.966   3.445
 1071SOL    HW1 4112   3.721   6.922   3.417
 1071SOL    HW2 4113   3.818   6.955   3.544
 1072SOL     OW 4114   1.674   5.967   1.132
 1072SOL    HW1 4115   1.662   5.918   1.045
 1072SOL    HW2 4116   1.684   5.901   1.206
 1073SOL     OW 4117   3.343   6.205   2.820
 1073SOL    HW1 4118   3.439   6.189   2.845
 1073SOL    HW2 4119   3.307   6.280   2.875
 1074SOL     OW 4120   1.991   5.246   0.979
 1074SOL    HW1 4121   1.932   5.311   1.027
 1074SOL    HW2 4122   1.976   5.255   0.880
 1075SOL     OW 4123   4.247   6.419   3.482
 1075SOL    HW1 4124   4.304   6.352   3.434
 1075SOL    HW2 4125   4.271   6.511   3.452
 1076SOL     OW 4126   0.300   4.395   4.787
 1076SOL    HW1 4127   0.271   4.306   4.823
 1076SOL    HW2 4128   0.243   4.419   4.709
 1077SOL     OW 4129   6.290   0.228   7.019
 1077SOL    HW1 4130   6.261   0.278   0.078
 1077SOL    HW2 4131   6.316   0.294   6.948
 1078SOL     OW 4132   2.211   0.836   2.528
 1078SOL    HW1 4133   2.244   0.860   2.437
 1078SOL    HW2 4134   2.160   0.751   2.525
 1079SOL     OW 4135   1.674   5.710   2.483
 1079SOL    HW1 4136   1.744   5.650   2.444
 1079SOL    HW2 4137   1.595   5.655   2.510
 1080SOL     OW 4138   2.089   4.222   3.392
 1080SOL    HW1 4139   2.170   4.206   3.448
 1080SOL    HW2 4140   2.115   4.268   3.307
 1081SOL     OW 4141   7.000   0.103   5.284
 1081SOL    HW1 4142   7.006   0.098   5.184
 1081SOL    HW2 4143   6.909   0.136   5.310
 1082SOL     OW 4144   2.344   1.156   5.437
 1082SOL    HW1 4145   2.245   1.140   5.441
 1082SOL    HW2 4146   2.375   1.197   5.523
 1083SOL     OW 4147   3.830   4.118   1.323
 1083SOL    HW1 4148   3.769   4.189   1.358
 1083SOL    HW2 4149   3.789   4.028   1.338
 1084SOL     OW 4150   6.572   6.007   0.552
 1084SOL    HW1 4151   6.536   5.918   0.523
 1084SOL    HW2 4152   6.671   6.007   0.545
 1085SOL     OW 4153   2.047   4.582   3.179
 1085SOL    HW1 4154   1.997   4.618   3.258
 1085SOL    HW2 4155   2.122   4.643   3.156
 1086SOL     OW 4156   6.684   6.100   3.045
 1086SOL    HW1 4157   6.649   6.178   2.992
 1086SOL    HW2 4158   6.732   6.134   3.126
 1087SOL     OW 4159   5.790   2.530   5.845
 1087SOL    HW1 4160   5.872   2.537   5.901
 1087SOL    HW2 4161   5.728   2.606   5.865
 1088SOL     OW 4162   6.026   4.759   3.201
 1088SOL    HW1 4163   6.046   4.856   3.188
 1088SOL    HW2 4164   6.039   4.710   3.114
 1089SOL     OW 4165   1.434   6.893   4.597
 1089SOL    HW1 4166   1.371   6.899   4.519
 1089SOL    HW2 4167   1.419   6.971   4.657
 1090SOL     OW 4168   2.884   1.416   3.681
 1090SOL    HW1 4169   2.982   1.422   3.663
 1090SOL    HW2 4170   2.836   1.398   3.595
 1091SOL     OW 4171   1.737   3.096   4.716
 1091SOL    HW1 4172   1.785   3.015   4.750
 1091SOL    HW2 4173   1.802   3.169   4.701
 1092SOL     OW 4174   3.081   3.715   0.940
 1092SOL    HW1 4175   3.070   3.616   0.952
 1092SOL    HW2 4176   2.995   3.754   0.908
 1093SOL     OW 4177   1.866   2.242   2.903
 1093SOL    HW1 4178   1.917   2.180   2.963
 1093SOL    HW2 4179   1.928   2.311   2.865
 1094SOL     OW 4180   0.976   6.944   3.056
 1094SOL    HW1 4181   1.063   6.929   3.009
 1094SOL    HW2 4182   0.992   6.986   3.145
 1095SOL     OW 4183   6.774   2.309   5.735
 1095SOL    HW1 4184   6.785   2.370   5.814
 1095SOL    HW2 4185   6.705   2.240   5.756
 1096SOL     OW 4186   3.714   4.605   1.596
 1096SOL    HW1 4187   3.675   4.614   1.687
 1096SOL    HW2 4188   3.657   4.654   1.530
 1097SOL     OW 4189   0.714   4.399   4.415
 1097SOL    HW1 4190   0.762   4.318   4.450
 1097SOL    HW2 4191   0.695   4.461   4.491
 1098SOL     OW 4192   5.234   3.009   0.657
 1098SOL    HW1 4193   5.162   3.025   0.590
 1098SOL    HW2 4194   5.193   2.999   0.748
 1099SOL     OW 4195   4.130   1.332   4.492
 1099SOL    HW1 4196   4.209   1.391   4.509
 1099SOL    HW2 4197   4.054   1.388   4.458
 1100SOL     OW 4198   2.702   2.218   6.704
 1100SOL    HW1 4199   2.790   2.186   6.738
 1100SOL    HW2 4200   2.714   2.263   6.615
 1101SOL     OW 4201   5.192   3.002   0.950
 1101SOL    HW1 4202   5.183   2.917   1.002
 1101SOL    HW2 4203   5.227   3.074   1.010
 1102SOL     OW 4204   1.403   5.480   3.022
 1102SOL    HW1 4205   1.306   5.461   3.012
 1102SOL    HW2 4206   1.429   5.474   3.118
 1103SOL     OW 4207   3.082   1.088   1.264
 1103SOL    HW1 4208   3.073   0.992   1.238
 1103SOL    HW2 4209   3.108   1.142   1.183
 1104SOL     OW 4210   1.940   3.668   6.280
 1104SOL    HW1 4211   1.935   3.699   6.185
 1104SOL    HW2 4212   1.857   3.694   6.328
 1105SOL     OW 4213   5.123   3.697   5.192
 1105SOL    HW1 4214   5.105   3.712   5.289
 1105SOL    HW2 4215   5.087   3.608   5.164
 1106SOL     OW 4216   1.082   1.632   0.571
 1106SOL    HW1 4217   1.082   1.580   0.656
 1106SOL    HW2 4218   1.160   1.694   0.570
 1107SOL     OW 4219   0.759   0.582   6.541
 1107SOL    HW1 4220   0.745   0.675   6.507
 1107SOL    HW2 4221   0.671   0.541   6.562
 1108SOL     OW 4222   2.473   0.322   6.143
 1108SOL    HW1 4223   2.535   0.250   6.173
 1108SOL    HW2 4224   2.487   0.339   6.045
 1109SOL     OW 4225   4.363   5.588   4.718
 1109SOL    HW1 4226   4.305   5.669   4.718
 1109SOL    HW2 4227   4.390   5.566   4.812
 1110SOL     OW 4228   3.093   1.390   2.425
 1110SOL    HW1 4229   3.189   1.414   2.436
 1110SOL    HW2 4230   3.063   1.415   2.333
 1111SOL     OW 4231   5.757   5.726   0.260
 1111SOL    HW1 4232   5.695   5.741   0.183
 1111SOL    HW2 4233   5.839   5.782   0.249
 1112SOL     OW 4234   6.073   0.971   2.476
 1112SOL    HW1 4235   6.100   1.027   2.397
 1112SOL    HW2 4236   6.153   0.950   2.532
 1113SOL     OW 4237   6.065   3.456   2.272
 1113SOL    HW1 4238   6.128   3.453   2.350
 1113SOL    HW2 4239   6.114   3.491   2.192
 1114SOL     OW 4240   4.456   0.861   6.444
 1114SOL    HW1 4241   4.384   0.878   6.511
 1114SOL    HW2 4242   4.512   0.784   6.475
 1115SOL     OW 4243   4.036   3.185   6.949
 1115SOL    HW1 4244   3.979   3.115   6.907
 1115SOL    HW2 4245   4.018   3.189   0.025
 1116SOL     OW 4246   5.745   5.511   4.241
 1116SOL    HW1 4247   5.646   5.528   4.235
 1116SOL    HW2 4248   5.768   5.433   4.184
 1117SOL     OW 4249   2.182   2.714   1.704
 1117SOL    HW1 4250   2.166   2.746   1.611
 1117SOL    HW2 4251   2.206   2.791   1.762
 1118SOL     OW 4252   1.706   4.918   1.805
 1118SOL    HW1 4253   1.790   4.899   1.753
 1118SOL    HW2 4254   1.633   4.858   1.773
 1119SOL     OW 4255   4.043   4.276   1.586
 1119SOL    HW1 4256   4.075   4.253   1.494
 1119SOL    HW2 4257   4.093   4.355   1.619
 1120SOL     OW 4258   5.136   6.212   5.346
 1120SOL    HW1 4259   5.203   6.268   5.297
 1120SOL    HW2 4260   5.140   6.235   5.443
 1121SOL     OW 4261   5.192   4.079   2.482
 1121SOL    HW1 4262   5.193   4.179   2.491
 1121SOL    HW2 4263   5.283   4.043   2.502
 1122SOL     OW 4264   4.944   3.289   5.571
 1122SOL    HW1 4265   5.041   3.311   5.583
 1122SOL    HW2 4266   4.932   3.189   5.571
 1123SOL     OW 4267   5.483   1.856   2.152
 1123SOL    HW1 4268   5.437   1.790   2.211
 1123SOL    HW2 4269   5.452   1.844   2.058
 1124SOL     OW 4270   6.041   3.938   5.349
 1124SOL    HW1 4271   5.967   4.002   5.330
 1124SOL    HW2 4272   6.103   3.978   5.416
 1125SOL     OW 4273   1.957   1.340   5.013
 1125SOL    HW1 4274   1.872   1.390   4.994
 1125SOL    HW2 4275   2.030   1.405   5.032
 1126SOL     OW 4276   5.647   6.715   0.488
 1126SOL    HW1 4277   5.612   6.794   0.538
 1126SOL    HW2 4278   5.747   6.721   0.482
 1127SOL     OW 4279   4.932   5.692   4.700
 1127SOL    HW1 4280   4.942   5.791   4.688
 1127SOL    HW2 4281   4.894   5.673   4.791
 1128SOL     OW 4282   4.901   2.308   5.511
 1128SOL    HW1 4283   4.863   2.395   5.479
 1128SOL    HW2 4284   5.000   2.318   5.522
 1129SOL     OW 4285   3.904   0.085   0.132
 1129SOL    HW1 4286   3.855   0.142   0.198
 1129SOL    HW2 4287   3.857   7.020   0.122
 1130SOL     OW 4288   1.989   3.979   1.036
 1130SOL    HW1 4289   1.933   4.005   0.957
 1130SOL    HW2 4290   1.929   3.953   1.112
 1131SOL     OW 4291   0.865   6.364   5.588
 1131SOL    HW1 4292   0.857   6.274   5.631
 1131SOL    HW2 4293   0.774   6.400   5.568
 1132SOL     OW 4294   4.567   0.005   6.729
 1132SOL    HW1 4295   4.570   6.927   6.732
 1132SOL    HW2 4296   4.606   0.042   6.813
 1133SOL     OW 4297   0.093   1.591   0.517
 1133SOL    HW1 4298   0.141   1.678   0.521
 1133SOL    HW2 4299   0.113   1.538   0.599
 1134SOL     OW 4300   5.547   1.647   0.608
 1134SOL    HW1 4301   5.521   1.578   0.541
 1134SOL    HW2 4302   5.505   1.626   0.696
 1135SOL     OW 4303   2.970   1.578   2.878
 1135SOL    HW1 4304   2.979   1.665   2.828
 1135SOL    HW2 4305   3.053   1.524   2.865
 1136SOL     OW 4306   3.222   5.095   5.246
 1136SOL    HW1 4307   3.272   5.030   5.303
 1136SOL    HW2 4308   3.241   5.188   5.277
 1137SOL     OW 4309   1.167   3.003   0.299
 1137SOL    HW1 4310   1.074   2.988   0.265
 1137SOL    HW2 4311   1.166   3.009   0.399
 1138SOL     OW 4312   0.925   1.768   6.444
 1138SOL    HW1 4313   0.979   1.693   6.482
 1138SOL    HW2 4314   0.978   1.853   6.450
 1139SOL     OW 4315   2.306   6.355   1.872
 1139SOL    HW1 4316   2.399   6.378   1.900
 1139SOL    HW2 4317   2.242   6.420   1.910
 1140SOL     OW 4318   3.751   1.714   2.071
 1140SOL    HW1 4319   3.681   1.701   2.142
 1140SOL    HW2 4320   3.747   1.809   2.039
 1141SOL     OW 4321   6.512   6.119   6.352
 1141SOL    HW1 4322   6.437   6.123   6.418
 1141SOL    HW2 4323   6.487   6.059   6.276
 1142SOL     OW 4324   4.372   0.489   4.507
 1142SOL    HW1 4325   4.427   0.419   4.554
 1142SOL    HW2 4326   4.426   0.529   4.433
 1143SOL     OW 4327   3.071   2.173   2.574
 1143SOL    HW1 4328   3.152   2.133   2.533
 1143SOL    HW2 4329   3.010   2.206   2.501
 1144SOL     OW 4330   6.801   4.949   4.863
 1144SOL    HW1 4331   6.796   4.940   4.962
 1144SOL    HW2 4332   6.893   4.924   4.832
 1145SOL     OW 4333   0.444   4.191   2.969
 1145SOL    HW1 4334   0.517   4.186   2.901
 1145SOL    HW2 4335   0.455   4.118   3.035
 1146SOL     OW 4336   5.165   0.687   0.665
 1146SOL    HW1 4337   5.173   0.680   0.565
 1146SOL    HW2 4338   5.243   0.641   0.708
 1147SOL     OW 4339   1.038   4.930   0.377
 1147SOL    HW1 4340   1.061   4.994   0.450
 1147SOL    HW2 4341   1.100   4.851   0.381
 1148SOL     OW 4342   3.650   6.949   0.592
 1148SOL    HW1 4343   3.710   6.880   0.554
 1148SOL    HW2 4344   3.603   6.913   0.673
 1149SOL     OW 4345   5.666   3.706   3.183
 1149SOL    HW1 4346   5.766   3.711   3.172
 1149SOL    HW2 4347   5.645   3.669   3.274
 1150SOL     OW 4348   1.055   4.040   0.836
 1150SOL    HW1 4349   0.991   4.116   0.831
 1150SOL    HW2 4350   1.141   4.066   0.792
 1151SOL     OW 4351   5.027   5.513   6.621
 1151SOL    HW1 4352   5.111   5.563   6.643
 1151SOL    HW2 4353   4.980   5.559   6.545
 1152SOL     OW 4354   0.792   6.124   5.720
 1152SOL    HW1 4355   0.744   6.137   5.807
 1152SOL    HW2 4356   0.879   6.078   5.737
 1153SOL     OW 4357   2.492   0.038   1.595
 1153SOL    HW1 4358   2.414   0.079   1.547
 1153SOL    HW2 4359   2.575   0.049   1.539
 1154SOL     OW 4360   0.265   3.437   1.966
 1154SOL    HW1 4361   0.320   3.353   1.964
 1154SOL    HW2 4362   0.187   3.428   1.904
 1155SOL     OW 4363   2.953   5.185   6.893
 1155SOL    HW1 4364   2.970   5.095   6.853
 1155SOL    HW2 4365   2.992   5.256   6.833
 1156SOL     OW 4366   1.997   0.402   4.349
 1156SOL    HW1 4367   1.948   0.338   4.290
 1156SOL    HW2 4368   1.934   0.439   4.417
 1157SOL     OW 4369   6.103   1.648   4.318
 1157SOL    HW1 4370   6.119   1.554   4.289
 1157SOL    HW2 4371   6.090   1.706   4.238
 1158SOL     OW 4372   0.065   5.374   5.585
 1158SOL    HW1 4373   7.019   5.430   5.632
 1158SOL    HW2 4374   0.068   5.397   5.488
 1159SOL     OW 4375   5.385   0.145   2.845
 1159SOL    HW1 4376   5.394   0.180   2.938
 1159SOL    HW2 4377   5.367   0.221   2.782
 1160SOL     OW 4378   3.990   4.058   1.729
 1160SOL    HW1 4379   3.916   4.000   1.694
 1160SOL    HW2 4380   4.001   4.137   1.668
 1161SOL     OW 4381   4.959   0.141   5.914
 1161SOL    HW1 4382   4.960   0.237   5.885
 1161SOL    HW2 4383   5.051   0.103   5.907
 1162SOL     OW 4384   3.931   3.050   0.409
 1162SOL    HW1 4385   4.019   3.089   0.437
 1162SOL    HW2 4386   3.944   2.955   0.379
 1163SOL     OW 4387   5.420   3.109   2.083
 1163SOL    HW1 4388   5.322   3.090   2.093
 1163SOL    HW2 4389   5.471   3.023   2.081
 1164SOL     OW 4390   5.172   2.503   3.830
 1164SOL    HW1 4391   5.163   2.408   3.861
 1164SOL    HW2 4392   5.190   2.562   3.909
 1165SOL     OW 4393   2.228   4.517   4.025
 1165SOL    HW1 4394   2.169   4.501   4.104
 1165SOL    HW2 4395   2.178   4.568   3.955
 1166SOL     OW 4396   3.770   0.824   0.093
 1166SOL    HW1 4397   3.773   0.755   0.165
 1166SOL    HW2 4398   3.863   0.848   0.066
 1167SOL     OW 4399   3.249   0.098   6.503
 1167SOL    HW1 4400   3.273   0.061   6.593
 1167SOL    HW2 4401   3.154   0.075   6.482
 1168SOL     OW 4402   6.949   6.893   2.345
 1168SOL    HW1 4403   6.957   6.850   2.256
 1168SOL    HW2 4404   6.858   6.877   2.383
 1169SOL     OW 4405   6.540   2.863   0.227
 1169SOL    HW1 4406   6.537   2.770   0.192
 1169SOL    HW2 4407   6.531   2.927   0.151
 1170SOL     OW 4408   4.609   0.774   2.092
 1170SOL    HW1 4409   4.671   0.761   2.169
 1170SOL    HW2 4410   4.574   0.868   2.093
 1171SOL     OW 4411   2.106   6.256   0.153
 1171SOL    HW1 4412   2.016   6.227   0.186
 1171SOL    HW2 4413   2.178   6.213   0.208
 1172SOL     OW 4414   3.627   4.140   3.012
 1172SOL    HW1 4415   3.586   4.129   2.922
 1172SOL    HW2 4416   3.558   4.172   3.077
 1173SOL     OW 4417   3.032   0.056   6.164
 1173SOL    HW1 4418   3.058   0.049   6.068
 1173SOL    HW2 4419   3.008   6.987   6.198
 1174SOL     OW 4420   2.971   5.022   0.781
 1174SOL    HW1 4421   2.922   5.070   0.854
 1174SOL    HW2 4422   2.913   4.948   0.746
 1175SOL     OW 4423   5.132   3.393   6.425
 1175SOL    HW1 4424   5.126   3.304   6.470
 1175SOL    HW2 4425   5.201   3.449   6.470
 1176SOL     OW 4426   5.864   4.030   0.658
 1176SOL    HW1 4427   5.944   4.090   0.652
 1176SOL    HW2 4428   5.785   4.076   0.617
 1177SOL     OW 4429   0.040   1.380   5.407
 1177SOL    HW1 4430   0.114   1.378   5.339
 1177SOL    HW2 4431   6.975   1.363   5.361
 1178SOL     OW 4432   3.848   3.287   1.075
 1178SOL    HW1 4433   3.901   3.215   1.032
 1178SOL    HW2 4434   3.907   3.366   1.093
 1179SOL     OW 4435   2.914   5.430   0.585
 1179SOL    HW1 4436   2.881   5.484   0.663
 1179SOL    HW2 4437   2.958   5.491   0.518
 1180SOL     OW 4438   2.960   0.221   3.523
 1180SOL    HW1 4439   2.871   0.224   3.479
 1180SOL    HW2 4440   3.017   0.151   3.480
 1181SOL     OW 4441   0.222   2.765   5.059
 1181SOL    HW1 4442   0.188   2.672   5.070
 1181SOL    HW2 4443   0.244   2.804   5.149
 1182SOL     OW 4444   2.003   5.231   3.437
 1182SOL    HW1 4445   2.008   5.226   3.536
 1182SOL    HW2 4446   1.985   5.326   3.409
 1183SOL     OW 4447   3.463   5.466   2.472
 1183SOL    HW1 4448   3.384   5.451   2.532
 1183SOL    HW2 4449   3.500   5.377   2.443
 1184SOL     OW 4450   4.032   1.618   5.259
 1184SOL    HW1 4451   4.083   1.694   5.299
 1184SOL    HW2 4452   4.015   1.549   5.330
 1185SOL     OW 4453   2.169   0.068   0.142
 1185SOL    HW1 4454   2.095   0.115   0.190
 1185SOL    HW2 4455   2.253   0.077   0.194
 1186SOL     OW 4456   5.893   6.480   6.135
 1186SOL    HW1 4457   5.897   6.460   6.038
 1186SOL    HW2 4458   5.966   6.543   6.160
 1187SOL     OW 4459   5.706   5.956   4.774
 1187SOL    HW1 4460   5.692   5.914   4.684
 1187SOL    HW2 4461   5.697   5.887   4.845
 1188SOL     OW 4462   3.435   6.521   6.640
 1188SOL    HW1 4463   3.487   6.436   6.643
 1188SOL    HW2 4464   3.345   6.504   6.600
 1189SOL     OW 4465   5.441   0.382   1.721
 1189SOL    HW1 4466   5.371   0.339   1.777
 1189SOL    HW2 4467   5.453   0.477   1.749
 1190SOL     OW 4468   4.096   4.803   5.045
 1190SOL    HW1 4469   4.068   4.836   5.135
 1190SOL    HW2 4470   4.031   4.835   4.976
 1191SOL     OW 4471   4.306   5.632   5.158
 1191SOL    HW1 4472   4.225   5.576   5.143
 1191SOL    HW2 4473   4.292   5.690   5.238
 1192SOL     OW 4474   5.554   5.325   2.843
 1192SOL    HW1 4475   5.549   5.344   2.941
 1192SOL    HW2 4476   5.507   5.397   2.793
 1193SOL     OW 4477   6.597   0.370   4.416
 1193SOL    HW1 4478   6.667   0.441   4.422
 1193SOL    HW2 4479   6.580   0.348   4.320
 1194SOL     OW 4480   6.946   1.332   1.190
 1194SOL    HW1 4481   7.005   1.411   1.172
 1194SOL    HW2 4482   6.910   1.338   1.283
 1195SOL     OW 4483   5.977   2.174   0.596
 1195SOL    HW1 4484   5.926   2.121   0.664
 1195SOL    HW2 4485   6.008   2.114   0.523
 1196SOL     OW 4486   6.985   4.625   2.094
 1196SOL    HW1 4487   0.015   4.673   2.164
 1196SOL    HW2 4488   7.020   4.648   2.003
 1197SOL     OW 4489   4.061   5.987   5.081
 1197SOL    HW1 4490   3.985   6.045   5.111
 1197SOL    HW2 4491   4.142   6.008   5.136
 1198SOL     OW 4492   2.324   2.861   2.682
 1198SOL    HW1 4493   2.297   2.941   2.628
 1198SOL    HW2 4494   2.400   2.814   2.638
 1199SOL     OW 4495   3.657   2.972   3.018
 1199SOL    HW1 4496   3.717   2.984   3.097
 1199SOL    HW2 4497   3.564   2.999   3.042
 1200SOL     OW 4498   3.509   4.098   4.938
 1200SOL    HW1 4499   3.531   4.109   5.035
 1200SOL    HW2 4500   3.594   4.083   4.887
 1201SOL     OW 4501   0.501   1.241   4.165
 1201SOL    HW1 4502   0.586   1.194   4.189
 1201SOL    HW2 4503   0.439   1.177   4.120
 1202SOL     OW 4504   6.570   0.924   5.976
 1202SOL    HW1 4505   6.531   0.889   6.062
 1202SOL    HW2 4506   6.575   0.850   5.909
 1203SOL     OW 4507   6.346   6.804   1.634
 1203SOL    HW1 4508   6.403   6.868   1.685
 1203SOL    HW2 4509   6.332   6.722   1.688
 1204SOL     OW 4510   4.353   1.442   0.550
 1204SOL    HW1 4511   4.403   1.485   0.475
 1204SOL    HW2 4512   4.289   1.509   0.589
 1205SOL     OW 4513   3.832   3.579   6.482
 1205SOL    HW1 4514   3.779   3.567   6.566
 1205SOL    HW2 4515   3.803   3.511   6.415
 1206SOL     OW 4516   1.062   1.994   4.873
 1206SOL    HW1 4517   1.013   2.080   4.859
 1206SOL    HW2 4518   0.999   1.917   4.861
 1207SOL     OW 4519   0.802   6.862   0.535
 1207SOL    HW1 4520   0.827   6.832   0.443
 1207SOL    HW2 4521   0.725   6.808   0.568
 1208SOL     OW 4522   3.439   4.148   2.493
 1208SOL    HW1 4523   3.341   4.155   2.510
 1208SOL    HW2 4524   3.458   4.171   2.398
 1209SOL     OW 4525   5.531   6.794   4.684
 1209SOL    HW1 4526   5.475   6.866   4.643
 1209SOL    HW2 4527   5.582   6.746   4.613
 1210SOL     OW 4528   4.543   6.914   3.666
 1210SOL    HW1 4529   4.571   6.843   3.730
 1210SOL    HW2 4530   4.443   6.917   3.661
 1211SOL     OW 4531   1.656   2.928   2.978
 1211SOL    HW1 4532   1.641   2.922   3.077
 1211SOL    HW2 4533   1.585   2.985   2.937
 1212SOL     OW 4534   0.144   1.820   5.646
 1212SOL    HW1 4535   0.196   1.796   5.564
 1212SOL    HW2 4536   0.052   1.849   5.620
 1213SOL     OW 4537   5.688   3.215   4.831
 1213SOL    HW1 4538   5.734   3.137   4.872
 1213SOL    HW2 4539   5.663   3.281   4.903
 1214SOL     OW 4540   1.306   3.233   4.782
 1214SOL    HW1 4541   1.220   3.263   4.825
 1214SOL    HW2 4542   1.348   3.310   4.735
 1215SOL     OW 4543   1.750   5.330   2.554
 1215SOL    HW1 4544   1.775   5.330   2.457
 1215SOL    HW2 4545   1.678   5.397   2.570
 1216SOL     OW 4546   0.179   0.149   1.055
 1216SOL    HW1 4547   0.118   0.118   1.127
 1216SOL    HW2 4548   0.228   0.071   1.015
 1217SOL     OW 4549   2.356   5.755   0.814
 1217SOL    HW1 4550   2.287   5.793   0.875
 1217SOL    HW2 4551   2.327   5.665   0.783
 1218SOL     OW 4552   0.622   3.251   5.104
 1218SOL    HW1 4553   0.713   3.244   5.063
 1218SOL    HW2 4554   0.553   3.254   5.031
 1219SOL     OW 4555   4.579   5.198   1.676
 1219SOL    HW1 4556   4.616   5.131   1.740
 1219SOL    HW2 4557   4.611   5.178   1.584
 1220SOL     OW 4558   5.276   3.961   3.004
 1220SOL    HW1 4559   5.374   3.978   3.014
 1220SOL    HW2 4560   5.256   3.940   2.908
 1221SOL     OW 4561   5.807   3.958   6.365
 1221SOL    HW1 4562   5.810   3.979   6.462
 1221SOL    HW2 4563   5.845   3.867   6.349
 1222SOL     OW 4564   6.482   0.309   0.390
 1222SOL    HW1 4565   6.577   0.336   0.405
 1222SOL    HW2 4566   6.423   0.389   0.397
 1223SOL     OW 4567   5.286   1.352   0.823
 1223SOL    HW1 4568   5.290   1.275   0.759
 1223SOL    HW2 4569   5.194   1.360   0.860
 1224SOL     OW 4570   3.175   5.818   0.468
 1224SOL    HW1 4571   3.269   5.839   0.494
 1224SOL    HW2 4572   3.166   5.819   0.368
 1225SOL     OW 4573   3.950   2.812   0.867
 1225SOL    HW1 4574   3.935   2.900   0.912
 1225SOL    HW2 4575   4.026   2.821   0.802
 1226SOL     OW 4576   4.799   5.775   0.678
 1226SOL    HW1 4577   4.898   5.782   0.693
 1226SOL    HW2 4578   4.752   5.846   0.731
 1227SOL     OW 4579   6.133   5.174   6.234
 1227SOL    HW1 4580   6.040   5.208   6.247
 1227SOL    HW2 4581   6.133   5.074   6.235
 1228SOL     OW 4582   3.885   3.409   0.546
 1228SOL    HW1 4583   3.845   3.353   0.474
 1228SOL    HW2 4584   3.976   3.440   0.518
 1229SOL     OW 4585   1.744   6.293   1.523
 1229SOL    HW1 4586   1.802   6.297   1.604
 1229SOL    HW2 4587   1.767   6.368   1.461
 1230SOL     OW 4588   5.462   5.704   2.819
 1230SOL    HW1 4589   5.476   5.638   2.745
 1230SOL    HW2 4590   5.551   5.731   2.856
 1231SOL     OW 4591   1.214   2.254   6.100
 1231SOL    HW1 4592   1.259   2.210   6.178
 1231SOL    HW2 4593   1.283   2.283   6.033
 1232SOL     OW 4594   4.642   1.048   5.287
 1232SOL    HW1 4595   4.618   1.032   5.383
 1232SOL    HW2 4596   4.719   1.112   5.282
 1233SOL     OW 4597   1.022   5.552   3.339
 1233SOL    HW1 4598   1.077   5.621   3.387
 1233SOL    HW2 4599   1.001   5.585   3.247
 1234SOL     OW 4600   6.983   2.596   6.298
 1234SOL    HW1 4601   6.938   2.643   6.221
 1234SOL    HW2 4602   0.055   2.576   6.273
 1235SOL     OW 4603   6.742   4.610   0.636
 1235SOL    HW1 4604   6.646   4.585   0.647
 1235SOL    HW2 4605   6.749   4.684   0.569
 1236SOL     OW 4606   4.097   1.800   1.135
 1236SOL    HW1 4607   4.039   1.726   1.103
 1236SOL    HW2 4608   4.041   1.879   1.161
 1237SOL     OW 4609   1.278   6.026   4.799
 1237SOL    HW1 4610   1.232   5.995   4.882
 1237SOL    HW2 4611   1.342   5.955   4.768
 1238SOL     OW 4612   0.309   6.882   3.796
 1238SOL    HW1 4613   0.223   6.831   3.801
 1238SOL    HW2 4614   0.380   6.833   3.846
 1239SOL     OW 4615   6.304   5.854   5.215
 1239SOL    HW1 4616   6.276   5.925   5.151
 1239SOL    HW2 4617   6.404   5.851   5.221
 1240SOL     OW 4618   6.100   4.897   2.228
 1240SOL    HW1 4619   6.159   4.927   2.153
 1240SOL    HW2 4620   6.151   4.837   2.289
 1241SOL     OW 4621   6.862   4.635   5.116
 1241SOL    HW1 4622   6.822   4.556   5.163
 1241SOL    HW2 4623   6.879   4.612   5.021
 1242SOL     OW 4624   2.174   3.281   0.608
 1242SOL    HW1 4625   2.202   3.348   0.539
 1242SOL    HW2 4626   2.194   3.316   0.699
 1243SOL     OW 4627   0.640   1.309   4.639
 1243SOL    HW1 4628   0.633   1.242   4.565
 1243SOL    HW2 4629   0.726   1.359   4.631
 1244SOL     OW 4630   5.258   6.586   5.359
 1244SOL    HW1 4631   5.218   6.651   5.295
 1244SOL    HW2 4632   5.186   6.551   5.420
 1245SOL     OW 4633   5.253   5.400   0.775
 1245SOL    HW1 4634   5.219   5.327   0.835
 1245SOL    HW2 4635   5.351   5.388   0.760
 1246SOL     OW 4636   3.363   0.937   2.415
 1246SOL    HW1 4637   3.320   0.848   2.407
 1246SOL    HW2 4638   3.336   0.994   2.337
 1247SOL     OW 4639   5.763   0.292   5.019
 1247SOL    HW1 4640   5.665   0.274   5.027
 1247SOL    HW2 4641   5.803   0.233   4.949
 1248SOL     OW 4642   1.380   6.437   4.149
 1248SOL    HW1 4643   1.382   6.367   4.077
 1248SOL    HW2 4644   1.417   6.400   4.233
 1249SOL     OW 4645   6.860   4.206   1.811
 1249SOL    HW1 4646   6.927   4.265   1.767
 1249SOL    HW2 4647   6.768   4.231   1.779
 1250SOL     OW 4648   6.099   3.581   4.478
 1250SOL    HW1 4649   6.012   3.623   4.452
 1250SOL    HW2 4650   6.173   3.645   4.460
 1251SOL     OW 4651   2.124   0.804   2.988
 1251SOL    HW1 4652   2.184   0.764   3.058
 1251SOL    HW2 4653   2.114   0.902   3.006
 1252SOL     OW 4654   3.262   5.093   6.880
 1252SOL    HW1 4655   3.203   5.032   6.933
 1252SOL    HW2 4656   3.332   5.132   6.939
 1253SOL     OW 4657   2.701   0.118   1.433
 1253SOL    HW1 4658   2.705   0.214   1.462
 1253SOL    HW2 4659   2.768   0.103   1.360
 1254SOL     OW 4660   6.308   2.994   2.633
 1254SOL    HW1 4661   6.379   2.956   2.693
 1254SOL    HW2 4662   6.338   3.082   2.598
 1255SOL     OW 4663   5.963   2.749   6.080
 1255SOL    HW1 4664   5.913   2.664   6.066
 1255SOL    HW2 4665   6.014   2.771   5.997
 1256SOL     OW 4666   0.612   6.122   3.584
 1256SOL    HW1 4667   0.569   6.107   3.495
 1256SOL    HW2 4668   0.597   6.217   3.613
 1257SOL     OW 4669   0.065   4.943   4.377
 1257SOL    HW1 4670   7.001   4.928   4.328
 1257SOL    HW2 4671   0.061   5.031   4.424
 1258SOL     OW 4672   1.771   5.910   2.954
 1258SOL    HW1 4673   1.720   5.827   2.973
 1258SOL    HW2 4674   1.778   5.923   2.855
 1259SOL     OW 4675   3.100   6.268   5.607
 1259SOL    HW1 4676   3.144   6.200   5.666
 1259SOL    HW2 4677   3.084   6.228   5.517
 1260SOL     OW 4678   3.391   0.909   1.231
 1260SOL    HW1 4679   3.366   0.881   1.323
 1260SOL    HW2 4680   3.312   0.950   1.185
 1261SOL     OW 4681   0.210   4.044   0.243
 1261SOL    HW1 4682   0.152   3.965   0.260
 1261SOL    HW2 4683   0.306   4.017   0.247
 1262SOL     OW 4684   4.946   5.584   1.610
 1262SOL    HW1 4685   4.895   5.554   1.690
 1262SOL    HW2 4686   4.904   5.546   1.528
 1263SOL     OW 4687   6.529   1.545   0.643
 1263SOL    HW1 4688   6.508   1.492   0.561
 1263SOL    HW2 4689   6.588   1.622   0.619
 1264SOL     OW 4690   1.022   3.594   2.076
 1264SOL    HW1 4691   0.942   3.570   2.131
 1264SOL    HW2 4692   1.105   3.561   2.121
 1265SOL     OW 4693   6.772   4.439   3.788
 1265SOL    HW1 4694   6.787   4.537   3.804
 1265SOL    HW2 4695   6.836   4.407   3.718
 1266SOL     OW 4696   2.169   0.761   4.031
 1266SOL    HW1 4697   2.264   0.787   4.045
 1266SOL    HW2 4698   2.124   0.828   3.972
 1267SOL     OW 4699   5.254   6.150   0.955
 1267SOL    HW1 4700   5.178   6.199   0.912
 1267SOL    HW2 4701   5.268   6.185   1.047
 1268SOL     OW 4702   4.586   2.430   6.624
 1268SOL    HW1 4703   4.581   2.477   6.536
 1268SOL    HW2 4704   4.506   2.371   6.635
 1269SOL     OW 4705   5.775   6.120   5.180
 1269SOL    HW1 4706   5.721   6.189   5.227
 1269SOL    HW2 4707   5.832   6.164   5.111
 1270SOL     OW 4708   2.092   3.458   4.279
 1270SOL    HW1 4709   2.087   3.435   4.182
 1270SOL    HW2 4710   2.052   3.549   4.294
 1271SOL     OW 4711   3.861   1.865   3.849
 1271SOL    HW1 4712   3.847   1.855   3.948
 1271SOL    HW2 4713   3.776   1.897   3.807
 1272SOL     OW 4714   6.422   6.114   0.979
 1272SOL    HW1 4715   6.452   6.182   0.912
 1272SOL    HW2 4716   6.404   6.159   1.067
 1273SOL     OW 4717   1.582   4.814   6.935
 1273SOL    HW1 4718   1.637   4.897   6.944
 1273SOL    HW2 4719   1.512   4.814   7.006
 1274SOL     OW 4720   6.396   2.978   1.651
 1274SOL    HW1 4721   6.383   3.006   1.556
 1274SOL    HW2 4722   6.448   2.893   1.654
 1275SOL     OW 4723   4.003   0.049   3.802
 1275SOL    HW1 4724   3.945   0.095   3.869
 1275SOL    HW2 4725   4.037   0.117   3.736
 1276SOL     OW 4726   7.013   1.024   3.383
 1276SOL    HW1 4727   6.986   1.110   3.427
 1276SOL    HW2 4728   6.947   1.001   3.312
 1277SOL     OW 4729   0.230   0.285   4.885
 1277SOL    HW1 4730   0.235   0.249   4.978
 1277SOL    HW2 4731   0.312   0.258   4.835
 1278SOL     OW 4732   1.265   1.072   5.385
 1278SOL    HW1 4733   1.308   1.068   5.476
 1278SOL    HW2 4734   1.246   0.979   5.354
 1279SOL     OW 4735   2.791   6.110   0.450
 1279SOL    HW1 4736   2.885   6.136   0.426
 1279SOL    HW2 4737   2.775   6.016   0.420
 1280SOL     OW 4738   2.772   6.441   3.691
 1280SOL    HW1 4739   2.809   6.533   3.681
 1280SOL    HW2 4740   2.845   6.374   3.682
 1281SOL     OW 4741   1.095   5.942   3.123
 1281SOL    HW1 4742   1.026   5.935   3.194
 1281SOL    HW2 4743   1.071   5.881   3.047
 1282SOL     OW 4744   0.508   1.095   0.088
 1282SOL    HW1 4745   0.444   1.132   0.021
 1282SOL    HW2 4746   0.566   1.026   0.044
 1283SOL     OW 4747   5.527   2.870   5.365
 1283SOL    HW1 4748   5.541   2.818   5.280
 1283SOL    HW2 4749   5.431   2.893   5.375
 1284SOL     OW 4750   4.170   3.424   1.446
 1284SOL    HW1 4751   4.114   3.341   1.449
 1284SOL    HW2 4752   4.259   3.406   1.488
 1285SOL     OW 4753   5.561   3.528   5.968
 1285SOL    HW1 4754   5.582   3.490   5.878
 1285SOL    HW2 4755   5.464   3.548   5.975
 1286SOL     OW 4756   4.955   4.370   2.676
 1286SOL    HW1 4757   4.908   4.443   2.726
 1286SOL    HW2 4758   4.890   4.297   2.654
 1287SOL     OW 4759   4.620   4.027   5.892
 1287SOL    HW1 4760   4.574   4.099   5.944
 1287SOL    HW2 4761   4.554   3.956   5.869
 1288SOL     OW 4762   6.183   3.860   0.673
 1288SOL    HW1 4763   6.106   3.815   0.628
 1288SOL    HW2 4764   6.226   3.797   0.737
 1289SOL     OW 4765   0.503   5.857   1.673
 1289SOL    HW1 4766   0.545   5.770   1.697
 1289SOL    HW2 4767   0.404   5.850   1.686
 1290SOL     OW 4768   1.406   0.201   0.278
 1290SOL    HW1 4769   1.347   0.254   0.217
 1290SOL    HW2 4770   1.463   0.140   0.224
 1291SOL     OW 4771   0.276   3.427   5.823
 1291SOL    HW1 4772   0.244   3.369   5.898
 1291SOL    HW2 4773   0.376   3.428   5.823
 1292SOL     OW 4774   5.785   5.558   2.617
 1292SOL    HW1 4775   5.803   5.462   2.639
 1292SOL    HW2 4776   5.822   5.616   2.690
 1293SOL     OW 4777   1.753   1.203   6.658
 1293SOL    HW1 4778   1.739   1.114   6.701
 1293SOL    HW2 4779   1.742   1.195   6.559
 1294SOL     OW 4780   1.264   3.727   0.482
 1294SOL    HW1 4781   1.299   3.820   0.468
 1294SOL    HW2 4782   1.291   3.695   0.573
 1295SOL     OW 4783   6.484   3.716   2.582
 1295SOL    HW1 4784   6.575   3.742   2.614
 1295SOL    HW2 4785   6.462   3.767   2.499
 1296SOL     OW 4786   4.018   0.455   5.557
 1296SOL    HW1 4787   3.921   0.479   5.560
 1296SOL    HW2 4788   4.073   0.536   5.573
 1297SOL     OW 4789   5.903   0.623   6.476
 1297SOL    HW1 4790   5.989   0.658   6.514
 1297SOL    HW2 4791   5.907   0.626   6.376
 1298SOL     OW 4792   6.081   3.949   3.120
 1298SOL    HW1 4793   6.174   3.952   3.082
 1298SOL    HW2 4794   6.029   3.876   3.074
 1299SOL     OW 4795   0.751   3.611   2.945
 1299SOL    HW1 4796   0.665   3.561   2.950
 1299SOL    HW2 4797   0.803   3.582   2.864
 1300SOL     OW 4798   3.441   4.131   1.922
 1300SOL    HW1 4799   3.392   4.102   2.004
 1300SOL    HW2 4800   3.540   4.126   1.937
 1301SOL     OW 4801   0.323   6.133   1.951
 1301SOL    HW1 4802   0.315   6.161   2.046
 1301SOL    HW2 4803   0.319   6.034   1.945
 1302SOL     OW 4804   2.613   0.545   5.172
 1302SOL    HW1 4805   2.591   0.533   5.075
 1302SOL    HW2 4806   2.582   0.635   5.202
 1303SOL     OW 4807   4.790   2.062   1.047
 1303SOL    HW1 4808   4.730   2.086   1.124
 1303SOL    HW2 4809   4.740   2.005   0.982
 1304SOL     OW 4810   1.664   1.413   6.799
 1304SOL    HW1 4811   1.608   1.457   6.729
 1304SOL    HW2 4812   1.706   1.331   6.761
 1305SOL     OW 4813   5.756   4.238   6.691
 1305SOL    HW1 4814   5.666   4.228   6.733
 1305SOL    HW2 4815   5.750   4.303   6.616
 1306SOL     OW 4816   0.957   4.539   5.219
 1306SOL    HW1 4817   1.038   4.568   5.268
 1306SOL    HW2 4818   0.927   4.611   5.156
 1307SOL     OW 4819   1.759   2.582   4.573
 1307SOL    HW1 4820   1.817   2.563   4.493
 1307SOL    HW2 4821   1.745   2.497   4.624
 1308SOL     OW 4822   4.425   5.225   4.482
 1308SOL    HW1 4823   4.512   5.248   4.526
 1308SOL    HW2 4824   4.443   5.179   4.394
 1309SOL     OW 4825   5.723   3.426   5.763
 1309SOL    HW1 4826   5.809   3.469   5.791
 1309SOL    HW2 4827   5.737   3.380   5.675
 1310SOL     OW 4828   0.113   3.938   4.863
 1310SOL    HW1 4829   0.020   3.919   4.894
 1310SOL    HW2 4830   0.120   3.917   4.765
 1311SOL     OW 4831   6.651   6.808   3.761
 1311SOL    HW1 4832   6.572   6.756   3.727
 1311SOL    HW2 4833   6.661   6.892   3.707
 1312SOL     OW 4834   0.978   0.363   6.414
 1312SOL    HW1 4835   0.941   0.448   6.450
 1312SOL    HW2 4836   1.035   0.319   6.483
 1313SOL     OW 4837   1.241   4.785   4.769
 1313SOL    HW1 4838   1.181   4.705   4.770
 1313SOL    HW2 4839   1.253   4.817   4.675
 1314SOL     OW 4840   2.880   1.870   5.905
 1314SOL    HW1 4841   2.931   1.787   5.886
 1314SOL    HW2 4842   2.782   1.850   5.906
 1315SOL     OW 4843   0.322   1.046   0.406
 1315SOL    HW1 4844   0.283   1.007   0.322
 1315SOL    HW2 4845   0.351   1.140   0.388
 1316SOL     OW 4846   2.460   6.356   3.996
 1316SOL    HW1 4847   2.398   6.279   3.980
 1316SOL    HW2 4848   2.479   6.363   4.094
 1317SOL     OW 4849   0.555   3.812   4.637
 1317SOL    HW1 4850   0.476   3.817   4.576
 1317SOL    HW2 4851   0.588   3.718   4.643
 1318SOL     OW 4852   0.016   0.340   0.613
 1318SOL    HW1 4853   6.950   0.308   0.647
 1318SOL    HW2 4854   0.066   0.263   0.574
 1319SOL     OW 4855   6.834   0.761   0.157
 1319SOL    HW1 4856   6.744   0.803   0.141
 1319SOL    HW2 4857   6.862   0.712   0.075
 1320SOL     OW 4858   6.369   3.602   0.357
 1320SOL    HW1 4859   6.353   3.694   0.393
 1320SOL    HW2 4860   6.282   3.560   0.333
 1321SOL     OW 4861   4.295   2.392   6.274
 1321SOL    HW1 4862   4.266   2.312   6.325
 1321SOL    HW2 4863   4.264   2.475   6.322
 1322SOL     OW 4864   4.979   0.840   3.518
 1322SOL    HW1 4865   4.961   0.853   3.421
 1322SOL    HW2 4866   4.989   0.742   3.537
 1323SOL     OW 4867   5.300   1.950   5.441
 1323SOL    HW1 4868   5.216   1.904   5.469
 1323SOL    HW2 4869   5.347   1.893   5.373
 1324SOL     OW 4870   1.385   2.915   1.176
 1324SOL    HW1 4871   1.387   2.887   1.080
 1324SOL    HW2 4872   1.394   2.834   1.234
 1325SOL     OW 4873   1.815   7.011   1.904
 1325SOL    HW1 4874   1.841   0.049   1.979
 1325SOL    HW2 4875   1.889   6.946   1.886
 1326SOL     OW 4876   5.138   2.832   4.781
 1326SOL    HW1 4877   5.238   2.827   4.783
 1326SOL    HW2 4878   5.110   2.928   4.782
 1327SOL     OW 4879   2.523   4.877   2.421
 1327SOL    HW1 4880   2.577   4.934   2.483
 1327SOL    HW2 4881   2.583   4.835   2.353
 1328SOL     OW 4882   1.386   2.799   0.922
 1328SOL    HW1 4883   1.328   2.720   0.903
 1328SOL    HW2 4884   1.479   2.780   0.890
 1329SOL     OW 4885   0.520   2.135   0.868
 1329SOL    HW1 4886   0.442   2.075   0.849
 1329SOL    HW2 4887   0.597   2.080   0.900
 1330SOL     OW 4888   6.405   0.973   1.208
 1330SOL    HW1 4889   6.326   0.967   1.270
 1330SOL    HW2 4890   6.459   0.889   1.215
 1331SOL     OW 4891   4.806   2.337   3.354
 1331SOL    HW1 4892   4.844   2.245   3.356
 1331SOL    HW2 4893   4.864   2.396   3.298
 1332SOL     OW 4894   3.805   6.966   6.891
 1332SOL    HW1 4895   3.863   0.019   6.921
 1332SOL    HW2 4896   3.778   6.980   6.796
 1333SOL     OW 4897   3.569   3.461   6.562
 1333SOL    HW1 4898   3.599   3.369   6.536
 1333SOL    HW2 4899   3.574   3.522   6.483
 1334SOL     OW 4900   6.997   2.521   5.130
 1334SOL    HW1 4901   6.967   2.441   5.181
 1334SOL    HW2 4902   6.958   2.519   5.038
 1335SOL     OW 4903   2.882   0.306   2.884
 1335SOL    HW1 4904   2.946   0.246   2.836
 1335SOL    HW2 4905   2.838   0.367   2.818
 1336SOL     OW 4906   2.043   1.397   6.533
 1336SOL    HW1 4907   2.035   1.300   6.557
 1336SOL    HW2 4908   1.978   1.450   6.587
 1337SOL     OW 4909   1.240   1.810   4.841
 1337SOL    HW1 4910   1.241   1.783   4.745
 1337SOL    HW2 4911   1.186   1.893   4.852
 1338SOL     OW 4912   4.204   2.664   5.870
 1338SOL    HW1 4913   4.125   2.683   5.929
 1338SOL    HW2 4914   4.177   2.600   5.798
 1339SOL     OW 4915   0.855   0.102   0.165
 1339SOL    HW1 4916   0.891   0.114   0.073
 1339SOL    HW2 4917   0.828   0.191   0.202
 1340SOL     OW 4918   0.809   1.454   1.647
 1340SOL    HW1 4919   0.844   1.548   1.637
 1340SOL    HW2 4920   0.733   1.440   1.583
 1341SOL     OW 4921   4.222   0.578   5.855
 1341SOL    HW1 4922   4.180   0.577   5.946
 1341SOL    HW2 4923   4.225   0.485   5.818
 1342SOL     OW 4924   2.046   4.709   6.124
 1342SOL    HW1 4925   2.053   4.619   6.166
 1342SOL    HW2 4926   2.119   4.768   6.160
 1343SOL     OW 4927   4.317   5.868   2.671
 1343SOL    HW1 4928   4.329   5.894   2.575
 1343SOL    HW2 4929   4.219   5.860   2.691
 1344SOL     OW 4930   6.529   4.113   3.796
 1344SOL    HW1 4931   6.620   4.101   3.756
 1344SOL    HW2 4932   6.468   4.042   3.760
 1345SOL     OW 4933   1.487   1.742   3.439
 1345SOL    HW1 4934   1.466   1.649   3.469
 1345SOL    HW2 4935   1.580   1.746   3.403
 1346SOL     OW 4936   1.246   0.213   3.224
 1346SOL    HW1 4937   1.286   0.304   3.232
 1346SOL    HW2 4938   1.293   0.151   3.287
 1347SOL     OW 4939   6.089   6.493   3.926
 1347SOL    HW1 4940   6.025   6.571   3.924
 1347SOL    HW2 4941   6.182   6.527   3.938
 1348SOL     OW 4942   5.409   5.646   3.286
 1348SOL    HW1 4943   5.475   5.717   3.312
 1348SOL    HW2 4944   5.332   5.689   3.238
 1349SOL     OW 4945   4.679   2.767   6.002
 1349SOL    HW1 4946   4.735   2.705   5.948
 1349SOL    HW2 4947   4.583   2.738   5.998
 1350SOL     OW 4948   3.875   4.524   0.034
 1350SOL    HW1 4949   3.899   4.575   0.116
 1350SOL    HW2 4950   3.841   4.586   6.987
 1351SOL     OW 4951   6.762   2.173   2.995
 1351SOL    HW1 4952   6.853   2.187   3.035
 1351SOL    HW2 4953   6.765   2.094   2.934
 1352SOL     OW 4954   0.649   0.591   3.314
 1352SOL    HW1 4955   0.628   0.565   3.408
 1352SOL    HW2 4956   0.740   0.557   3.289
 1353SOL     OW 4957   6.202   3.981   5.576
 1353SOL    HW1 4958   6.220   3.882   5.575
 1353SOL    HW2 4959   6.185   4.010   5.671
 1354SOL     OW 4960   0.459   2.223   0.498
 1354SOL    HW1 4961   0.543   2.250   0.451
 1354SOL    HW2 4962   0.438   2.290   0.569
 1355SOL     OW 4963   6.057   2.476   5.944
 1355SOL    HW1 4964   6.073   2.442   6.037
 1355SOL    HW2 4965   6.144   2.508   5.905
 1356SOL     OW 4966   3.243   3.296   3.675
 1356SOL    HW1 4967   3.297   3.300   3.591
 1356SOL    HW2 4968   3.228   3.200   3.700
 1357SOL     OW 4969   1.169   4.246   5.917
 1357SOL    HW1 4970   1.169   4.339   5.880
 1357SOL    HW2 4971   1.210   4.183   5.850
 1358SOL     OW 4972   3.835   1.429   5.769
 1358SOL    HW1 4973   3.831   1.461   5.863
 1358SOL    HW2 4974   3.797   1.337   5.762
 1359SOL     OW 4975   6.535   4.762   1.393
 1359SOL    HW1 4976   6.581   4.849   1.377
 1359SOL    HW2 4977   6.485   4.735   1.311
 1360SOL     OW 4978   4.169   3.451   2.203
 1360SOL    HW1 4979   4.185   3.403   2.290
 1360SOL    HW2 4980   4.230   3.413   2.133
 1361SOL     OW 4981   6.920   6.604   5.944
 1361SOL    HW1 4982   6.991   6.673   5.956
 1361SOL    HW2 4983   6.843   6.644   5.894
 1362SOL     OW 4984   2.956   3.566   4.328
 1362SOL    HW1 4985   3.033   3.628   4.333
 1362SOL    HW2 4986   2.965   3.496   4.400
 1363SOL     OW 4987   6.327   6.007   3.700
 1363SOL    HW1 4988   6.405   5.967   3.748
 1363SOL    HW2 4989   6.360   6.067   3.626
 1364SOL     OW 4990   0.709   2.352   0.412
 1364SOL    HW1 4991   0.731   2.397   0.499
 1364SOL    HW2 4992   0.794   2.322   0.369
 1365SOL     OW 4993   0.552   3.425   5.808
 1365SOL    HW1 4994   0.650   3.428   5.825
 1365SOL    HW2 4995   0.534   3.401   5.713
 1366SOL     OW 4996   0.425   4.193   0.772
 1366SOL    HW1 4997   0.436   4.121   0.841
 1366SOL    HW2 4998   0.494   4.183   0.701
 1367SOL     OW 4999   1.385   5.867   3.154
 1367SOL    HW1 5000   1.452   5.937   3.179
 1367SOL    HW2 5001   1.293   5.905   3.161
 1368SOL     OW 5002   6.609   0.833   4.012
 1368SOL    HW1 5003   6.667   0.775   4.069
 1368SOL    HW2 5004   6.565   0.903   4.069
 1369SOL     OW 5005   2.209   0.061   2.380
 1369SOL    HW1 5006   2.199   0.007   2.296
 1369SOL    HW2 5007   2.123   0.061   2.431
 1370SOL     OW 5008   5.541   2.247   3.949
 1370SOL    HW1 5009   5.468   2.188   3.914
 1370SOL    HW2 5010   5.627   2.222   3.905
 1371SOL     OW 5011   5.038   1.420   4.850
 1371SOL    HW1 5012   5.025   1.358   4.928
 1371SOL    HW2 5013   4.993   1.507   4.868
 1372SOL     OW 5014   1.086   1.754   0.907
 1372SOL    HW1 5015   1.137   1.816   0.967
 1372SOL    HW2 5016   1.008   1.801   0.867
 1373SOL     OW 5017   4.543   2.354   6.921
 1373SOL    HW1 5018   4.467   2.288   6.926
 1373SOL    HW2 5019   4.552   2.387   6.827
 1374SOL     OW 5020   4.623   3.134   0.248
 1374SOL    HW1 5021   4.608   3.129   0.347
 1374SOL    HW2 5022   4.535   3.139   0.201
 1375SOL     OW 5023   0.401   6.916   6.411
 1375SOL    HW1 5024   0.475   6.874   6.463
 1375SOL    HW2 5025   0.428   6.922   6.314
 1376SOL     OW 5026   3.570   4.867   5.545
 1376SOL    HW1 5027   3.654   4.915   5.521
 1376SOL    HW2 5028   3.590   4.771   5.564
 1377SOL     OW 5029   0.862   3.531   3.206
 1377SOL    HW1 5030   0.778   3.489   3.240
 1377SOL    HW2 5031   0.840   3.589   3.127
 1378SOL     OW 5032   5.872   2.544   5.368
 1378SOL    HW1 5033   5.786   2.496   5.386
 1378SOL    HW2 5034   5.911   2.575   5.455
 1379SOL     OW 5035   4.140   5.804   3.060
 1379SOL    HW1 5036   4.231   5.806   3.019
 1379SOL    HW2 5037   4.115   5.710   3.083
 1380SOL     OW 5038   0.317   5.967   3.456
 1380SOL    HW1 5039   0.340   5.947   3.551
 1380SOL    HW2 5040   0.363   5.902   3.396
 1381SOL     OW 5041   5.582   1.671   6.924
 1381SOL    HW1 5042   5.573   1.649   7.021
 1381SOL    HW2 5043   5.511   1.624   6.872
 1382SOL     OW 5044   5.136   3.404   1.433
 1382SOL    HW1 5045   5.177   3.357   1.356
 1382SOL    HW2 5046   5.060   3.350   1.469
 1383SOL     OW 5047   1.292   0.229   1.559
 1383SOL    HW1 5048   1.318   0.143   1.516
 1383SOL    HW2 5049   1.374   0.282   1.580
 1384SOL     OW 5050   4.587   0.260   2.206
 1384SOL    HW1 5051   4.579   0.345   2.155
 1384SOL    HW2 5052   4.684   0.241   2.225
 1385SOL     OW 5053   2.870   4.866   3.838
 1385SOL    HW1 5054   2.944   4.856   3.772
 1385SOL    HW2 5055   2.907   4.862   3.931
 1386SOL     OW 5056   3.013   0.929   4.005
 1386SOL    HW1 5057   2.932   0.979   3.973
 1386SOL    HW2 5058   3.075   0.993   4.049
 1387SOL     OW 5059   4.292   5.476   2.810
 1387SOL    HW1 5060   4.315   5.568   2.841
 1387SOL    HW2 5061   4.333   5.409   2.871
 1388SOL     OW 5062   6.674   0.040   2.231
 1388SOL    HW1 5063   6.712   0.030   2.139
 1388SOL    HW2 5064   6.658   6.972   2.270
 1389SOL     OW 5065   6.141   1.167   4.099
 1389SOL    HW1 5066   6.223   1.225   4.107
 1389SOL    HW2 5067   6.166   1.072   4.119
 1390SOL     OW 5068   0.173   3.463   6.969
 1390SOL    HW1 5069   0.117   3.468   6.886
 1390SOL    HW2 5070   0.120   3.494   0.025
 1391SOL     OW 5071   6.710   6.140   4.864
 1391SOL    HW1 5072   6.751   6.060   4.908
 1391SOL    HW2 5073   6.650   6.110   4.790
 1392SOL     OW 5074   5.277   6.309   5.901
 1392SOL    HW1 5075   5.374   6.290   5.895
 1392SOL    HW2 5076   5.225   6.238   5.853
 1393SOL     OW 5077   6.488   4.790   5.644
 1393SOL    HW1 5078   6.428   4.712   5.662
 1393SOL    HW2 5079   6.481   4.815   5.547
 1394SOL     OW 5080   3.271   5.160   5.735
 1394SOL    HW1 5081   3.311   5.216   5.807
 1394SOL    HW2 5082   3.182   5.125   5.765
 1395SOL     OW 5083   2.511   4.649   5.278
 1395SOL    HW1 5084   2.533   4.552   5.270
 1395SOL    HW2 5085   2.570   4.702   5.217
 1396SOL     OW 5086   1.051   1.504   5.205
 1396SOL    HW1 5087   1.082   1.522   5.298
 1396SOL    HW2 5088   1.110   1.553   5.141
 1397SOL     OW 5089   0.437   6.721   3.984
 1397SOL    HW1 5090   0.362   6.732   4.050
 1397SOL    HW2 5091   0.504   6.656   4.020
 1398SOL     OW 5092   3.243   0.565   6.670
 1398SOL    HW1 5093   3.325   0.583   6.724
 1398SOL    HW2 5094   3.175   0.517   6.726
 1399SOL     OW 5095   3.468   5.441   0.832
 1399SOL    HW1 5096   3.429   5.495   0.907
 1399SOL    HW2 5097   3.543   5.492   0.790
 1400SOL     OW 5098   6.950   1.641   3.965
 1400SOL    HW1 5099   6.950   1.679   4.057
 1400SOL    HW2 5100   0.018   1.605   3.943
 1401SOL     OW 5101   6.226   0.936   4.960
 1401SOL    HW1 5102   6.287   0.968   4.887
 1401SOL    HW2 5103   6.280   0.901   5.036
 1402SOL     OW 5104   6.347   3.587   6.522
 1402SOL    HW1 5105   6.264   3.599   6.577
 1402SOL    HW2 5106   6.322   3.555   6.431
 1403SOL     OW 5107   2.642   2.547   1.615
 1403SOL    HW1 5108   2.645   2.480   1.689
 1403SOL    HW2 5109   2.606   2.503   1.532
 1404SOL     OW 5110   6.421   6.566   0.243
 1404SOL    HW1 5111   6.383   6.558   0.335
 1404SOL    HW2 5112   6.349   6.548   0.176
 1405SOL     OW 5113   2.349   3.344   0.820
 1405SOL    HW1 5114   2.441   3.364   0.784
 1405SOL    HW2 5115   2.301   3.430   0.837
 1406SOL     OW 5116   0.691   5.472   0.857
 1406SOL    HW1 5117   0.654   5.381   0.875
 1406SOL    HW2 5118   0.735   5.508   0.939
 1407SOL     OW 5119   0.387   3.174   1.937
 1407SOL    HW1 5120   0.333   3.090   1.942
 1407SOL    HW2 5121   0.459   3.171   2.007
 1408SOL     OW 5122   5.420   0.872   6.097
 1408SOL    HW1 5123   5.512   0.910   6.095
 1408SOL    HW2 5124   5.388   0.870   6.192
 1409SOL     OW 5125   6.601   0.295   4.903
 1409SOL    HW1 5126   6.631   0.351   4.826
 1409SOL    HW2 5127   6.509   0.322   4.931
 1410SOL     OW 5128   1.229   3.723   6.260
 1410SOL    HW1 5129   1.281   3.766   6.186
 1410SOL    HW2 5130   1.167   3.790   6.301
 1411SOL     OW 5131   3.840   6.881   0.873
 1411SOL    HW1 5132   3.914   6.937   0.837
 1411SOL    HW2 5133   3.752   6.927   0.858
 1412SOL     OW 5134   1.260   1.959   1.096
 1412SOL    HW1 5135   1.345   1.923   1.057
 1412SOL    HW2 5136   1.272   1.974   1.194
 1413SOL     OW 5137   1.809   2.191   5.484
 1413SOL    HW1 5138   1.783   2.272   5.430
 1413SOL    HW2 5139   1.890   2.213   5.539
 1414SOL     OW 5140   2.826   1.289   1.706
 1414SOL    HW1 5141   2.915   1.266   1.745
 1414SOL    HW2 5142   2.836   1.363   1.640
 1415SOL     OW 5143   2.352   0.908   4.167
 1415SOL    HW1 5144   2.408   0.856   4.232
 1415SOL    HW2 5145   2.264   0.931   4.210
 1416SOL     OW 5146   5.283   5.395   4.043
 1416SOL    HW1 5147   5.362   5.334   4.045
 1416SOL    HW2 5148   5.216   5.365   4.111
 1417SOL     OW 5149   3.020   2.175   0.053
 1417SOL    HW1 5150   3.060   2.260   0.019
 1417SOL    HW2 5151   3.088   2.102   0.047
 1418SOL     OW 5152   3.538   4.128   2.730
 1418SOL    HW1 5153   3.511   4.154   2.637
 1418SOL    HW2 5154   3.457   4.127   2.788
 1419SOL     OW 5155   2.554   5.548   4.204
 1419SOL    HW1 5156   2.651   5.525   4.199
 1419SOL    HW2 5157   2.507   5.509   4.125
 1420SOL     OW 5158   2.382   6.806   2.004
 1420SOL    HW1 5159   2.431   6.770   2.084
 1420SOL    HW2 5160   2.439   6.875   1.959
 1421SOL     OW 5161   2.218   4.907   3.308
 1421SOL    HW1 5162   2.132   4.896   3.358
 1421SOL    HW2 5163   2.254   4.817   3.285
 1422SOL     OW 5164   1.362   3.987   0.378
 1422SOL    HW1 5165   1.401   3.975   0.287
 1422SOL    HW2 5166   1.368   4.083   0.404
 1423SOL     OW 5167   4.980   6.152   3.519
 1423SOL    HW1 5168   4.965   6.182   3.613
 1423SOL    HW2 5169   5.073   6.117   3.510
 1424SOL     OW 5170   6.823   5.186   5.610
 1424SOL    HW1 5171   6.799   5.259   5.546
 1424SOL    HW2 5172   6.755   5.182   5.683
 1425SOL     OW 5173   1.935   5.517   5.497
 1425SOL    HW1 5174   2.023   5.562   5.484
 1425SOL    HW2 5175   1.947   5.435   5.553
 1426SOL     OW 5176   1.865   4.121   6.418
 1426SOL    HW1 5177   1.915   4.091   6.500
 1426SOL    HW2 5178   1.918   4.097   6.336
 1427SOL     OW 5179   0.162   0.049   3.647
 1427SOL    HW1 5180   0.199   7.005   3.712
 1427SOL    HW2 5181   0.202   0.032   3.557
 1428SOL     OW 5182   0.348   3.250   6.945
 1428SOL    HW1 5183   0.283   3.325   6.934
 1428SOL    HW2 5184   0.311   3.184   7.011
 1429SOL     OW 5185   4.418   1.517   0.036
 1429SOL    HW1 5186   4.348   1.470   7.005
 1429SOL    HW2 5187   4.465   1.451   0.095
 1430SOL     OW 5188   1.571   4.552   3.849
 1430SOL    HW1 5189   1.616   4.638   3.826
 1430SOL    HW2 5190   1.556   4.548   3.947
 1431SOL     OW 5191   2.889   1.741   0.685
 1431SOL    HW1 5192   2.835   1.784   0.757
 1431SOL    HW2 5193   2.878   1.641   0.691
 1432SOL     OW 5194   2.674   1.808   1.747
 1432SOL    HW1 5195   2.698   1.777   1.655
 1432SOL    HW2 5196   2.676   1.908   1.751
 1433SOL     OW 5197   4.608   0.689   5.015
 1433SOL    HW1 5198   4.651   0.779   5.011
 1433SOL    HW2 5199   4.517   0.697   5.056
 1434SOL     OW 5200   0.592   0.440   5.938
 1434SOL    HW1 5201   0.563   0.430   5.843
 1434SOL    HW2 5202   0.553   0.524   5.977
 1435SOL     OW 5203   6.769   0.085   2.908
 1435SOL    HW1 5204   6.830   0.127   2.841
 1435SOL    HW2 5205   6.719   0.010   2.865
 1436SOL     OW 5206   5.094   4.124   6.495
 1436SOL    HW1 5207   5.180   4.076   6.515
 1436SOL    HW2 5208   5.025   4.100   6.563
 1437SOL     OW 5209   3.090   1.952   4.692
 1437SOL    HW1 5210   2.991   1.961   4.705
 1437SOL    HW2 5211   3.138   1.989   4.772
 1438SOL     OW 5212   2.698   6.278   1.784
 1438SOL    HW1 5213   2.649   6.201   1.826
 1438SOL    HW2 5214   2.658   6.298   1.694
 1439SOL     OW 5215   6.186   5.781   0.899
 1439SOL    HW1 5216   6.260   5.743   0.955
 1439SOL    HW2 5217   6.165   5.873   0.930
 1440SOL     OW 5218   2.727   3.025   6.823
 1440SOL    HW1 5219   2.790   3.073   6.884
 1440SOL    HW2 5220   2.726   3.071   6.734
 1441SOL     OW 5221   6.231   0.666   3.640
 1441SOL    HW1 5222   6.330   0.663   3.626
 1441SOL    HW2 5223   6.185   0.683   3.553
 1442SOL     OW 5224   0.117   5.785   6.658
 1442SOL    HW1 5225   0.145   5.776   6.754
 1442SOL    HW2 5226   0.148   5.706   6.606
 1443SOL     OW 5227   0.623   2.586   4.390
 1443SOL    HW1 5228   0.568   2.669   4.403
 1443SOL    HW2 5229   0.710   2.595   4.439
 1444SOL     OW 5230   4.981   5.505   0.888
 1444SOL    HW1 5231   5.064   5.468   0.845
 1444SOL    HW2 5232   4.986   5.605   0.888
 1445SOL     OW 5233   1.277   2.712   2.867
 1445SOL    HW1 5234   1.179   2.695   2.871
 1445SOL    HW2 5235   1.326   2.630   2.898
 1446SOL     OW 5236   5.888   1.929   0.329
 1446SOL    HW1 5237   5.887   1.863   0.404
 1446SOL    HW2 5238   5.974   1.920   0.279
 1447SOL     OW 5239   6.165   6.192   4.800
 1447SOL    HW1 5240   6.264   6.187   4.808
 1447SOL    HW2 5241   6.134   6.133   4.725
 1448SOL     OW 5242   6.840   2.347   5.345
 1448SOL    HW1 5243   6.856   2.417   5.415
 1448SOL    HW2 5244   6.760   2.372   5.290
 1449SOL     OW 5245   0.957   2.347   6.703
 1449SOL    HW1 5246   0.900   2.345   6.621
 1449SOL    HW2 5247   0.935   2.269   6.761
 1450SOL     OW 5248   1.147   2.531   1.358
 1450SOL    HW1 5249   1.062   2.541   1.305
 1450SOL    HW2 5250   1.127   2.485   1.445
 1451SOL     OW 5251   0.742   6.949   2.175
 1451SOL    HW1 5252   0.768   6.960   2.271
 1451SOL    HW2 5253   0.692   6.863   2.164
 1452SOL     OW 5254   4.546   1.790   5.066
 1452SOL    HW1 5255   4.473   1.820   5.128
 1452SOL    HW2 5256   4.542   1.843   4.981
 1453SOL     OW 5257   6.971   3.681   5.974
 1453SOL    HW1 5258   6.931   3.702   6.063
 1453SOL    HW2 5259   6.931   3.742   5.904
 1454SOL     OW 5260   0.573   2.876   2.335
 1454SOL    HW1 5261   0.619   2.946   2.390
 1454SOL    HW2 5262   0.598   2.785   2.368
 1455SOL     OW 5263   1.523   0.369   1.369
 1455SOL    HW1 5264   1.512   0.449   1.428
 1455SOL    HW2 5265   1.478   0.385   1.281
 1456SOL     OW 5266   7.005   6.411   5.731
 1456SOL    HW1 5267   6.992   6.467   5.813
 1456SOL    HW2 5268   6.981   6.464   5.650
 1457SOL     OW 5269   0.688   6.839   1.688
 1457SOL    HW1 5270   0.663   6.804   1.598
 1457SOL    HW2 5271   0.612   6.893   1.725
 1458SOL     OW 5272   5.787   5.312   4.026
 1458SOL    HW1 5273   5.833   5.263   4.099
 1458SOL    HW2 5274   5.804   5.265   3.939
 1459SOL     OW 5275   3.233   6.071   5.746
 1459SOL    HW1 5276   3.223   5.994   5.682
 1459SOL    HW2 5277   3.326   6.106   5.741
 1460SOL     OW 5278   0.273   0.011   5.367
 1460SOL    HW1 5279   0.176   0.030   5.355
 1460SOL    HW2 5280   0.289   7.001   5.461
 1461SOL     OW 5281   6.072   4.621   2.925
 1461SOL    HW1 5282   6.144   4.691   2.933
 1461SOL    HW2 5283   6.061   4.595   2.829
 1462SOL     OW 5284   1.515   0.577   0.191
 1462SOL    HW1 5285   1.511   0.676   0.199
 1462SOL    HW2 5286   1.600   0.543   0.231
 1463SOL     OW 5287   0.028   5.406   6.578
 1463SOL    HW1 5288   0.065   5.313   6.572
 1463SOL    HW2 5289   0.088   5.469   6.527
 1464SOL     OW 5290   6.949   6.306   2.156
 1464SOL    HW1 5291   0.006   6.364   2.177
 1464SOL    HW2 5292   6.942   6.233   2.223
 1465SOL     OW 5293   1.460   0.479   3.545
 1465SOL    HW1 5294   1.434   0.562   3.595
 1465SOL    HW2 5295   1.485   0.407   3.611
 1466SOL     OW 5296   2.566   2.494   2.445
 1466SOL    HW1 5297   2.475   2.474   2.409
 1466SOL    HW2 5298   2.611   2.561   2.387
 1467SOL     OW 5299   1.958   1.473   2.711
 1467SOL    HW1 5300   1.957   1.566   2.746
 1467SOL    HW2 5301   2.035   1.423   2.751
 1468SOL     OW 5302   2.958   5.560   2.650
 1468SOL    HW1 5303   2.909   5.563   2.563
 1468SOL    HW2 5304   2.893   5.554   2.725
 1469SOL     OW 5305   0.772   0.870   2.363
 1469SOL    HW1 5306   0.859   0.901   2.326
 1469SOL    HW2 5307   0.710   0.947   2.373
 1470SOL     OW 5308   1.190   2.031   2.249
 1470SOL    HW1 5309   1.184   1.959   2.318
 1470SOL    HW2 5310   1.107   2.087   2.252
 1471SOL     OW 5311   0.818   0.017   0.725
 1471SOL    HW1 5312   0.809   6.960   0.665
 1471SOL    HW2 5313   0.875   7.016   0.803
 1472SOL     OW 5314   2.760   5.291   5.292
 1472SOL    HW1 5315   2.717   5.206   5.264
 1472SOL    HW2 5316   2.846   5.271   5.339
 1473SOL     OW 5317   4.240   5.160   5.233
 1473SOL    HW1 5318   4.219   5.254   5.260
 1473SOL    HW2 5319   4.229   5.149   5.135
 1474SOL     OW 5320   5.734   5.235   2.377
 1474SOL    HW1 5321   5.786   5.206   2.458
 1474SOL    HW2 5322   5.775   5.196   2.295
 1475SOL     OW 5323   5.993   0.858   1.950
 1475SOL    HW1 5324   5.977   0.813   2.038
 1475SOL    HW2 5325   5.927   0.932   1.938
 1476SOL     OW 5326   3.629   0.729   1.213
 1476SOL    HW1 5327   3.550   0.758   1.267
 1476SOL    HW2 5328   3.712   0.743   1.266
 1477SOL     OW 5329   3.033   6.728   5.738
 1477SOL    HW1 5330   2.989   6.639   5.725
 1477SOL    HW2 5331   3.121   6.715   5.784
 1478SOL     OW 5332   6.187   5.148   5.858
 1478SOL    HW1 5333   6.241   5.232   5.848
 1478SOL    HW2 5334   6.249   5.071   5.879
 1479SOL     OW 5335   1.883   2.418   0.923
 1479SOL    HW1 5336   1.951   2.462   0.982
 1479SOL    HW2 5337   1.844   2.339   0.971
 1480SOL     OW 5338   3.215   0.957   4.697
 1480SOL    HW1 5339   3.238   1.010   4.779
 1480SOL    HW2 5340   3.216   0.860   4.719
 1481SOL     OW 5341   6.670   3.081   6.782
 1481SOL    HW1 5342   6.708   3.078   6.874
 1481SOL    HW2 5343   6.684   2.993   6.736
 1482SOL     OW 5344   4.192   1.434   2.007
 1482SOL    HW1 5345   4.188   1.528   1.972
 1482SOL    HW2 5346   4.131   1.424   2.085
 1483SOL     OW 5347   4.357   1.829   6.369
 1483SOL    HW1 5348   4.263   1.855   6.391
 1483SOL    HW2 5349   4.358   1.777   6.284
 1484SOL     OW 5350   5.274   4.702   4.042
 1484SOL    HW1 5351   5.311   4.764   4.111
 1484SOL    HW2 5352   5.319   4.717   3.955
 1485SOL     OW 5353   3.583   1.218   4.253
 1485SOL    HW1 5354   3.659   1.199   4.316
 1485SOL    HW2 5355   3.533   1.298   4.286
 1486SOL     OW 5356   5.574   1.026   2.602
 1486SOL    HW1 5357   5.648   1.060   2.544
 1486SOL    HW2 5358   5.510   1.101   2.622
 1487SOL     OW 5359   0.685   2.451   6.985
 1487SOL    HW1 5360   0.629   2.454   6.902
 1487SOL    HW2 5361   0.759   2.518   6.979
 1488SOL     OW 5362   5.478   0.686   3.651
 1488SOL    HW1 5363   5.435   0.761   3.601
 1488SOL    HW2 5364   5.452   0.599   3.609
 1489SOL     OW 5365   3.895   4.736   5.653
 1489SOL    HW1 5366   3.988   4.760   5.681
 1489SOL    HW2 5367   3.860   4.664   5.714
 1490SOL     OW 5368   0.920   3.539   1.493
 1490SOL    HW1 5369   0.838   3.575   1.449
 1490SOL    HW2 5370   0.949   3.601   1.566
 1491SOL     OW 5371   6.229   4.677   2.322
 1491SOL    HW1 5372   6.252   4.646   2.230
 1491SOL    HW2 5373   6.300   4.650   2.386
 1492SOL     OW 5374   6.403   0.919   2.588
 1492SOL    HW1 5375   6.345   0.841   2.612
 1492SOL    HW2 5376   6.498   0.899   2.611
 1493SOL     OW 5377   3.298   6.875   5.996
 1493SOL    HW1 5378   3.263   6.789   5.958
 1493SOL    HW2 5379   3.237   6.950   5.971
 1494SOL     OW 5380   4.766   1.421   6.406
 1494SOL    HW1 5381   4.792   1.491   6.473
 1494SOL    HW2 5382   4.822   1.339   6.420
 1495SOL     OW 5383   0.188   3.266   5.455
 1495SOL    HW1 5384   0.185   3.189   5.392
 1495SOL    HW2 5385   0.166   3.350   5.406
 1496SOL     OW 5386   6.901   1.753   1.697
 1496SOL    HW1 5387   6.939   1.845   1.683
 1496SOL    HW2 5388   6.964   1.685   1.661
 1497SOL     OW 5389   5.797   3.487   2.756
 1497SOL    HW1 5390   5.798   3.435   2.671
 1497SOL    HW2 5391   5.755   3.576   2.741
 1498SOL     OW 5392   2.571   4.625   6.885
 1498SOL    HW1 5393   2.591   4.574   6.970
 1498SOL    HW2 5394   2.578   4.563   6.807
 1499SOL     OW 5395   0.620   2.765   5.628
 1499SOL    HW1 5396   0.645   2.674   5.592
 1499SOL    HW2 5397   0.599   2.758   5.725
 1500SOL     OW 5398   6.995   0.071   0.015
 1500SOL    HW1 5399   6.951   7.014   0.056
 1500SOL    HW2 5400   6.928   0.122   6.983
 1501SOL     OW 5401   4.985   2.576   6.542
 1501SOL    HW1 5402   4.927   2.531   6.474
 1501SOL    HW2 5403   4.981   2.525   6.628
 1502SOL     OW 5404   4.081   0.406   0.015
 1502SOL    HW1 5405   4.151   0.341   7.009
 1502SOL    HW2 5406   3.995   0.357   0.032
 1503SOL     OW 5407   1.222   3.029   1.828
 1503SOL    HW1 5408   1.265   2.962   1.887
 1503SOL    HW2 5409   1.291   3.071   1.769
 1504SOL     OW 5410   0.161   0.294   4.332
 1504SOL    HW1 5411   0.125   0.369   4.387
 1504SOL    HW2 5412   0.245   0.259   4.373
 1505SOL     OW 5413   5.015   0.182   4.793
 1505SOL    HW1 5414   5.007   0.086   4.821
 1505SOL    HW2 5415   5.067   0.233   4.862
 1506SOL     OW 5416   0.856   6.203   0.006
 1506SOL    HW1 5417   0.936   6.149   0.030
 1506SOL    HW2 5418   0.862   6.294   0.048
 1507SOL     OW 5419   0.730   1.655   5.999
 1507SOL    HW1 5420   0.778   1.628   6.083
 1507SOL    HW2 5421   0.756   1.748   5.974
 1508SOL     OW 5422   6.471   1.393   1.547
 1508SOL    HW1 5423   6.407   1.383   1.471
 1508SOL    HW2 5424   6.545   1.326   1.538
 1509SOL     OW 5425   4.081   1.837   5.425
 1509SOL    HW1 5426   4.110   1.918   5.373
 1509SOL    HW2 5427   4.144   1.823   5.502
 1510SOL     OW 5428   4.843   1.740   4.670
 1510SOL    HW1 5429   4.863   1.789   4.585
 1510SOL    HW2 5430   4.852   1.803   4.747
 1511SOL     OW 5431   3.986   3.077   3.495
 1511SOL    HW1 5432   3.950   3.157   3.447
 1511SOL    HW2 5433   3.988   3.095   3.594
 1512SOL     OW 5434   0.145   5.118   0.794
 1512SOL    HW1 5435   0.097   5.135   0.708
 1512SOL    HW2 5436   0.140   5.020   0.816
 1513SOL     OW 5437   4.164   0.635   5.257
 1513SOL    HW1 5438   4.197   0.650   5.350
 1513SOL    HW2 5439   4.086   0.572   5.259
 1514SOL     OW 5440   3.901   2.106   5.679
 1514SOL    HW1 5441   3.809   2.099   5.640
 1514SOL    HW2 5442   3.913   2.196   5.720
 1515SOL     OW 5443   5.748   1.659   2.290
 1515SOL    HW1 5444   5.773   1.733   2.227
 1515SOL    HW2 5445   5.816   1.654   2.363
 1516SOL     OW 5446   6.771   5.964   6.350
 1516SOL    HW1 5447   6.697   5.897   6.357
 1516SOL    HW2 5448   6.746   6.034   6.283
 1517SOL     OW 5449   4.644   6.285   3.212
 1517SOL    HW1 5450   4.696   6.317   3.292
 1517SOL    HW2 5451   4.707   6.247   3.144
 1518SOL     OW 5452   1.012   2.383   0.444
 1518SOL    HW1 5453   1.029   2.318   0.518
 1518SOL    HW2 5454   1.067   2.465   0.457
 1519SOL     OW 5455   6.739   4.738   1.704
 1519SOL    HW1 5456   6.665   4.791   1.661
 1519SOL    HW2 5457   6.827   4.773   1.673
 1520SOL     OW 5458   0.163   4.162   1.768
 1520SOL    HW1 5459   0.081   4.208   1.735
 1520SOL    HW2 5460   0.165   4.166   1.868
 1521SOL     OW 5461   1.851   3.840   6.075
 1521SOL    HW1 5462   1.901   3.912   6.123
 1521SOL    HW2 5463   1.893   3.826   5.985
 1522SOL     OW 5464   5.501   6.082   4.922
 1522SOL    HW1 5465   5.533   6.093   5.016
 1522SOL    HW2 5466   5.542   6.000   4.881
 1523SOL     OW 5467   4.760   5.731   0.127
 1523SOL    HW1 5468   4.700   5.673   0.071
 1523SOL    HW2 5469   4.721   5.741   0.219
 1524SOL     OW 5470   2.563   1.863   2.432
 1524SOL    HW1 5471   2.554   1.822   2.341
 1524SOL    HW2 5472   2.497   1.820   2.493
 1525SOL     OW 5473   6.898   3.479   0.421
 1525SOL    HW1 5474   6.940   3.560   0.464
 1525SOL    HW2 5475   6.866   3.417   0.492
 1526SOL     OW 5476   0.049   0.970   6.977
 1526SOL    HW1 5477   0.021   0.876   6.960
 1526SOL    HW2 5478   0.099   0.976   0.041
 1527SOL     OW 5479   4.314   0.907   4.830
 1527SOL    HW1 5480   4.333   1.005   4.841
 1527SOL    HW2 5481   4.393   0.863   4.788
 1528SOL     OW 5482   4.093   5.057   2.730
 1528SOL    HW1 5483   4.115   5.074   2.826
 1528SOL    HW2 5484   4.176   5.029   2.681
 1529SOL     OW 5485   4.680   0.771   0.463
 1529SOL    HW1 5486   4.624   0.689   0.449
 1529SOL    HW2 5487   4.765   0.763   0.410
 1530SOL     OW 5488   3.648   2.045   2.171
 1530SOL    HW1 5489   3.647   2.130   2.117
 1530SOL    HW2 5490   3.730   2.043   2.228
 1531SOL     OW 5491   4.429   0.140   5.708
 1531SOL    HW1 5492   4.464   0.210   5.646
 1531SOL    HW2 5493   4.488   0.133   5.788
 1532SOL     OW 5494   3.023   3.186   6.423
 1532SOL    HW1 5495   3.033   3.278   6.461
 1532SOL    HW2 5496   3.113   3.144   6.413
 1533SOL     OW 5497   6.332   4.451   6.483
 1533SOL    HW1 5498   6.402   4.516   6.514
 1533SOL    HW2 5499   6.246   4.468   6.532
 1534SOL     OW 5500   2.687   4.866   6.881
 1534SOL    HW1 5501   2.624   4.788   6.876
 1534SOL    HW2 5502   2.650   4.941   6.826
 1535SOL     OW 5503   5.178   6.624   4.573
 1535SOL    HW1 5504   5.245   6.660   4.507
 1535SOL    HW2 5505   5.133   6.544   4.535
 1536SOL     OW 5506   3.638   4.297   5.805
 1536SOL    HW1 5507   3.558   4.281   5.748
 1536SOL    HW2 5508   3.623   4.258   5.896
 1537SOL     OW 5509   4.680   5.977   3.796
 1537SOL    HW1 5510   4.628   6.016   3.872
 1537SOL    HW2 5511   4.661   5.879   3.790
 1538SOL     OW 5512   3.631   6.330   6.760
 1538SOL    HW1 5513   3.723   6.368   6.755
 1538SOL    HW2 5514   3.603   6.325   6.856
 1539SOL     OW 5515   4.788   4.169   1.542
 1539SOL    HW1 5516   4.767   4.196   1.636
 1539SOL    HW2 5517   4.881   4.132   1.537
 1540SOL     OW 5518   1.013   6.038   5.498
 1540SOL    HW1 5519   1.042   6.110   5.435
 1540SOL    HW2 5520   0.950   5.976   5.450
 1541SOL     OW 5521   3.575   3.044   3.842
 1541SOL    HW1 5522   3.586   3.131   3.794
 1541SOL    HW2 5523   3.507   2.988   3.795
 1542SOL     OW 5524   6.416   0.071   2.705
 1542SOL    HW1 5525   6.472   0.094   2.625
 1542SOL    HW2 5526   6.320   0.084   2.684
 1543SOL     OW 5527   2.950   5.183   5.467
 1543SOL    HW1 5528   3.034   5.237   5.460
 1543SOL    HW2 5529   2.957   5.101   5.411
 1544SOL     OW 5530   2.931   3.326   2.729
 1544SOL    HW1 5531   3.007   3.359   2.673
 1544SOL    HW2 5532   2.921   3.228   2.717
 1545SOL     OW 5533   5.257   0.864   3.287
 1545SOL    HW1 5534   5.293   0.846   3.379
 1545SOL    HW2 5535   5.212   0.782   3.253
 1546SOL     OW 5536   3.852   6.988   5.939
 1546SOL    HW1 5537   3.907   7.012   5.859
 1546SOL    HW2 5538   3.763   6.953   5.909
 1547SOL     OW 5539   1.702   3.969   2.657
 1547SOL    HW1 5540   1.604   3.988   2.662
 1547SOL    HW2 5541   1.742   3.976   2.749
 1548SOL     OW 5542   5.486   3.965   5.840
 1548SOL    HW1 5543   5.503   3.920   5.752
 1548SOL    HW2 5544   5.571   3.970   5.892
 1549SOL     OW 5545   4.661   1.431   2.180
 1549SOL    HW1 5546   4.583   1.386   2.135
 1549SOL    HW2 5547   4.628   1.509   2.232
 1550SOL     OW 5548   3.124   3.947   0.172
 1550SOL    HW1 5549   3.200   3.998   0.132
 1550SOL    HW2 5550   3.158   3.860   0.209
 1551SOL     OW 5551   2.492   4.042   6.049
 1551SOL    HW1 5552   2.521   4.014   5.957
 1551SOL    HW2 5553   2.417   4.107   6.041
 1552SOL     OW 5554   0.797   6.082   0.475
 1552SOL    HW1 5555   0.758   6.001   0.430
 1552SOL    HW2 5556   0.867   6.122   0.416
 1553SOL     OW 5557   0.417   1.974   5.797
 1553SOL    HW1 5558   0.359   1.900   5.763
 1553SOL    HW2 5559   0.396   1.991   5.894
 1554SOL     OW 5560   4.121   2.080   2.977
 1554SOL    HW1 5561   4.150   2.144   2.907
 1554SOL    HW2 5562   4.077   2.001   2.934
 1555SOL     OW 5563   4.883   2.426   6.739
 1555SOL    HW1 5564   4.813   2.411   6.669
 1555SOL    HW2 5565   4.839   2.437   6.828
 1556SOL     OW 5566   3.567   1.454   0.359
 1556SOL    HW1 5567   3.623   1.434   0.278
 1556SOL    HW2 5568   3.627   1.464   0.439
 1557SOL     OW 5569   2.550   2.128   6.076
 1557SOL    HW1 5570   2.588   2.163   5.991
 1557SOL    HW2 5571   2.457   2.095   6.060
 1558SOL     OW 5572   5.226   0.930   4.848
 1558SOL    HW1 5573   5.127   0.916   4.851
 1558SOL    HW2 5574   5.255   0.981   4.929
 1559SOL     OW 5575   0.893   2.256   0.014
 1559SOL    HW1 5576   0.949   2.305   0.080
 1559SOL    HW2 5577   0.806   2.305   0.001
 1560SOL     OW 5578   0.706   0.961   6.084
 1560SOL    HW1 5579   0.786   0.912   6.050
 1560SOL    HW2 5580   0.624   0.927   6.037
 1561SOL     OW 5581   6.376   6.689   3.750
 1561SOL    HW1 5582   6.372   6.596   3.786
 1561SOL    HW2 5583   6.306   6.700   3.679
 1562SOL     OW 5584   3.893   5.724   2.788
 1562SOL    HW1 5585   3.819   5.657   2.784
 1562SOL    HW2 5586   3.896   5.765   2.879
 1563SOL     OW 5587   1.769   0.178   5.813
 1563SOL    HW1 5588   1.795   0.214   5.903
 1563SOL    HW2 5589   1.718   0.248   5.763
 1564SOL     OW 5590   1.434   2.645   3.377
 1564SOL    HW1 5591   1.530   2.668   3.393
 1564SOL    HW2 5592   1.381   2.663   3.460
 1565SOL     OW 5593   4.190   4.830   4.740
 1565SOL    HW1 5594   4.183   4.929   4.749
 1565SOL    HW2 5595   4.226   4.791   4.825
 1566SOL     OW 5596   5.806   4.962   2.979
 1566SOL    HW1 5597   5.816   4.863   2.985
 1566SOL    HW2 5598   5.727   4.984   2.921
 1567SOL     OW 5599   5.993   5.980   0.503
 1567SOL    HW1 5600   5.987   5.894   0.451
 1567SOL    HW2 5601   6.075   5.980   0.559
 1568SOL     OW 5602   1.745   6.226   1.129
 1568SOL    HW1 5603   1.667   6.281   1.157
 1568SOL    HW2 5604   1.718   6.129   1.126
 1569SOL     OW 5605   4.167   6.051   3.674
 1569SOL    HW1 5606   4.211   5.988   3.736
 1569SOL    HW2 5607   4.178   6.019   3.580
 1570SOL     OW 5608   2.021   0.280   0.480
 1570SOL    HW1 5609   1.973   0.329   0.553
 1570SOL    HW2 5610   2.103   0.236   0.518
 1571SOL     OW 5611   5.496   2.177   1.469
 1571SOL    HW1 5612   5.429   2.135   1.531
 1571SOL    HW2 5613   5.497   2.276   1.483
 1572SOL     OW 5614   0.616   6.746   0.908
 1572SOL    HW1 5615   0.694   6.734   0.969
 1572SOL    HW2 5616   0.588   6.842   0.906
 1573SOL     OW 5617   5.184   3.688   1.460
 1573SOL    HW1 5618   5.221   3.721   1.546
 1573SOL    HW2 5619   5.186   3.588   1.458
 1574SOL     OW 5620   6.791   0.768   1.768
 1574SOL    HW1 5621   6.861   0.814   1.822
 1574SOL    HW2 5622   6.714   0.830   1.752
 1575SOL     OW 5623   4.428   1.397   0.825
 1575SOL    HW1 5624   4.417   1.407   0.726
 1575SOL    HW2 5625   4.379   1.315   0.855
 1576SOL     OW 5626   1.642   6.739   3.749
 1576SOL    HW1 5627   1.561   6.685   3.768
 1576SOL    HW2 5628   1.616   6.834   3.734
 1577SOL     OW 5629   3.037   1.459   5.158
 1577SOL    HW1 5630   3.027   1.521   5.080
 1577SOL    HW2 5631   2.986   1.496   5.236
 1578SOL     OW 5632   6.424   2.992   5.580
 1578SOL    HW1 5633   6.369   3.007   5.497
 1578SOL    HW2 5634   6.505   3.050   5.577
 1579SOL     OW 5635   0.137   1.415   2.348
 1579SOL    HW1 5636   0.166   1.398   2.254
 1579SOL    HW2 5637   0.094   1.332   2.384
 1580SOL     OW 5638   2.892   3.882   5.058
 1580SOL    HW1 5639   2.969   3.944   5.077
 1580SOL    HW2 5640   2.903   3.843   4.967
 1581SOL     OW 5641   0.515   3.470   4.895
 1581SOL    HW1 5642   0.456   3.389   4.896
 1581SOL    HW2 5643   0.467   3.547   4.937
 1582SOL     OW 5644   1.266   6.933   4.373
 1582SOL    HW1 5645   1.296   6.857   4.315
 1582SOL    HW2 5646   1.166   6.934   4.378
 1583SOL     OW 5647   1.034   4.655   3.286
 1583SOL    HW1 5648   1.078   4.701   3.209
 1583SOL    HW2 5649   1.011   4.723   3.356
 1584SOL     OW 5650   1.078   6.755   5.258
 1584SOL    HW1 5651   1.055   6.825   5.325
 1584SOL    HW2 5652   1.058   6.665   5.296
 1585SOL     OW 5653   5.999   2.057   3.672
 1585SOL    HW1 5654   6.066   2.040   3.600
 1585SOL    HW2 5655   6.019   2.146   3.715
 1586SOL     OW 5656   3.625   4.989   1.818
 1586SOL    HW1 5657   3.638   4.910   1.878
 1586SOL    HW2 5658   3.553   5.048   1.856
 1587SOL     OW 5659   3.085   6.173   6.495
 1587SOL    HW1 5660   3.135   6.180   6.581
 1587SOL    HW2 5661   2.987   6.165   6.514
 1588SOL     OW 5662   4.790   1.367   2.997
 1588SOL    HW1 5663   4.846   1.437   3.042
 1588SOL    HW2 5664   4.746   1.310   3.067
 1589SOL     OW 5665   5.425   4.315   1.363
 1589SOL    HW1 5666   5.450   4.222   1.337
 1589SOL    HW2 5667   5.492   4.379   1.324
 1590SOL     OW 5668   3.233   5.755   6.405
 1590SOL    HW1 5669   3.282   5.822   6.349
 1590SOL    HW2 5670   3.156   5.717   6.353
 1591SOL     OW 5671   6.559   5.254   2.822
 1591SOL    HW1 5672   6.532   5.170   2.773
 1591SOL    HW2 5673   6.517   5.333   2.778
 1592SOL     OW 5674   2.300   4.486   0.526
 1592SOL    HW1 5675   2.383   4.501   0.579
 1592SOL    HW2 5676   2.220   4.493   0.586
 1593SOL     OW 5677   1.080   6.625   4.428
 1593SOL    HW1 5678   1.173   6.603   4.398
 1593SOL    HW2 5679   1.023   6.543   4.421
 1594SOL     OW 5680   0.068   6.346   2.487
 1594SOL    HW1 5681   0.147   6.319   2.432
 1594SOL    HW2 5682   0.061   6.445   2.490
 1595SOL     OW 5683   1.340   5.149   6.861
 1595SOL    HW1 5684   1.422   5.109   6.819
 1595SOL    HW2 5685   1.322   5.238   6.820
 1596SOL     OW 5686   0.367   2.599   4.079
 1596SOL    HW1 5687   0.384   2.560   3.988
 1596SOL    HW2 5688   0.392   2.696   4.079
 1597SOL     OW 5689   1.869   6.447   6.710
 1597SOL    HW1 5690   1.827   6.358   6.695
 1597SOL    HW2 5691   1.825   6.515   6.652
 1598SOL     OW 5692   1.165   3.487   6.611
 1598SOL    HW1 5693   1.263   3.487   6.592
 1598SOL    HW2 5694   1.114   3.492   6.525
 1599SOL     OW 5695   4.462   4.365   5.809
 1599SOL    HW1 5696   4.458   4.460   5.837
 1599SOL    HW2 5697   4.449   4.306   5.889
 1600SOL     OW 5698   5.305   1.558   4.771
 1600SOL    HW1 5699   5.382   1.600   4.723
 1600SOL    HW2 5700   5.259   1.493   4.710
 1601SOL     OW 5701   0.010   4.906   4.741
 1601SOL    HW1 5702   0.046   5.000   4.742
 1601SOL    HW2 5703   0.073   4.846   4.692
 1602SOL     OW 5704   1.983   4.956   3.427
 1602SOL    HW1 5705   1.992   5.055   3.431
 1602SOL    HW2 5706   1.989   4.918   3.519
 1603SOL     OW 5707   6.514   6.293   2.877
 1603SOL    HW1 5708   6.573   6.294   2.796
 1603SOL    HW2 5709   6.424   6.256   2.853
 1604SOL     OW 5710   6.337   4.606   0.378
 1604SOL    HW1 5711   6.415   4.641   0.326
 1604SOL    HW2 5712   6.334   4.649   0.468
 1605SOL     OW 5713   6.768   6.501   1.948
 1605SOL    HW1 5714   6.840   6.511   1.879
 1605SOL    HW2 5715   6.808   6.473   2.035
 1606SOL     OW 5716   3.495   0.608   4.918
 1606SOL    HW1 5717   3.538   0.614   4.829
 1606SOL    HW2 5718   3.445   0.692   4.937
 1607SOL     OW 5719   3.763   2.227   0.737
 1607SOL    HW1 5720   3.796   2.311   0.781
 1607SOL    HW2 5721   3.684   2.248   0.680
 1608SOL     OW 5722   0.943   6.971   4.235
 1608SOL    HW1 5723   0.943   0.015   4.161
 1608SOL    HW2 5724   0.852   6.967   4.276
 1609SOL     OW 5725   4.214   0.685   0.657
 1609SOL    HW1 5726   4.211   0.779   0.692
 1609SOL    HW2 5727   4.192   0.621   0.731
 1610SOL     OW 5728   5.706   4.666   6.451
 1610SOL    HW1 5729   5.787   4.664   6.510
 1610SOL    HW2 5730   5.626   4.693   6.506
 1611SOL     OW 5731   2.725   3.816   1.597
 1611SOL    HW1 5732   2.737   3.852   1.689
 1611SOL    HW2 5733   2.707   3.892   1.533
 1612SOL     OW 5734   2.532   0.860   5.005
 1612SOL    HW1 5735   2.474   0.792   4.959
 1612SOL    HW2 5736   2.477   0.912   5.070
 1613SOL     OW 5737   1.959   5.182   1.481
 1613SOL    HW1 5738   1.984   5.193   1.577
 1613SOL    HW2 5739   1.963   5.085   1.456
 1614SOL     OW 5740   6.539   3.247   0.129
 1614SOL    HW1 5741   6.491   3.165   0.097
 1614SOL    HW2 5742   6.600   3.280   0.057
 1615SOL     OW 5743   6.658   5.503   1.063
 1615SOL    HW1 5744   6.681   5.490   0.967
 1615SOL    HW2 5745   6.639   5.415   1.106
 1616SOL     OW 5746   3.535   2.065   5.057
 1616SOL    HW1 5747   3.471   2.096   5.126
 1616SOL    HW2 5748   3.593   2.142   5.027
 1617SOL     OW 5749   5.745   0.551   1.917
 1617SOL    HW1 5750   5.795   0.621   1.968
 1617SOL    HW2 5751   5.763   0.461   1.957
 1618SOL     OW 5752   1.406   4.127   1.883
 1618SOL    HW1 5753   1.434   4.044   1.834
 1618SOL    HW2 5754   1.481   4.193   1.884
 1619SOL     OW 5755   0.645   2.444   2.779
 1619SOL    HW1 5756   0.628   2.428   2.877
 1619SOL    HW2 5757   0.713   2.379   2.747
 1620SOL     OW 5758   2.795   5.275   1.298
 1620SOL    HW1 5759   2.810   5.186   1.342
 1620SOL    HW2 5760   2.848   5.280   1.214
 1621SOL     OW 5761   0.445   1.303   0.702
 1621SOL    HW1 5762   0.487   1.369   0.763
 1621SOL    HW2 5763   0.515   1.243   0.663
 1622SOL     OW 5764   0.446   2.233   4.615
 1622SOL    HW1 5765   0.416   2.138   4.614
 1622SOL    HW2 5766   0.367   2.293   4.606
 1623SOL     OW 5767   2.407   3.469   5.379
 1623SOL    HW1 5768   2.332   3.449   5.315
 1623SOL    HW2 5769   2.423   3.567   5.381
 1624SOL     OW 5770   2.645   1.294   5.184
 1624SOL    HW1 5771   2.579   1.220   5.175
 1624SOL    HW2 5772   2.737   1.257   5.192
 1625SOL     OW 5773   1.306   5.595   1.685
 1625SOL    HW1 5774   1.376   5.531   1.716
 1625SOL    HW2 5775   1.217   5.550   1.686
 1626SOL     OW 5776   3.432   2.399   6.244
 1626SOL    HW1 5777   3.381   2.470   6.292
 1626SOL    HW2 5778   3.389   2.310   6.259
 1627SOL     OW 5779   6.413   2.738   3.952
 1627SOL    HW1 5780   6.409   2.638   3.950
 1627SOL    HW2 5781   6.388   2.770   4.044
 1628SOL     OW 5782   4.383   4.691   0.114
 1628SOL    HW1 5783   4.361   4.773   0.166
 1628SOL    HW2 5784   4.451   4.637   0.163
 1629SOL     OW 5785   2.776   1.071   3.986
 1629SOL    HW1 5786   2.714   1.067   3.908
 1629SOL    HW2 5787   2.747   1.144   4.048
 1630SOL     OW 5788   1.531   6.074   5.915
 1630SOL    HW1 5789   1.515   6.034   6.006
 1630SOL    HW2 5790   1.445   6.111   5.880
 1631SOL     OW 5791   0.115   1.718   6.272
 1631SOL    HW1 5792   0.089   1.727   6.176
 1631SOL    HW2 5793   0.212   1.693   6.277
 1632SOL     OW 5794   0.356   1.752   6.908
 1632SOL    HW1 5795   0.363   1.767   6.810
 1632SOL    HW2 5796   0.372   1.656   6.929
 1633SOL     OW 5797   4.984   2.536   4.147
 1633SOL    HW1 5798   5.020   2.482   4.223
 1633SOL    HW2 5799   4.891   2.566   4.169
 1634SOL     OW 5800   3.981   5.040   6.705
 1634SOL    HW1 5801   3.911   4.969   6.704
 1634SOL    HW2 5802   3.948   5.119   6.757
 1635SOL     OW 5803   6.971   5.857   5.668
 1635SOL    HW1 5804   6.970   5.876   5.570
 1635SOL    HW2 5805   6.885   5.815   5.695
 1636SOL     OW 5806   2.717   4.098   1.304
 1636SOL    HW1 5807   2.805   4.116   1.260
 1636SOL    HW2 5808   2.669   4.025   1.255
 1637SOL     OW 5809   0.289   0.104   3.408
 1637SOL    HW1 5810   0.281   0.137   3.314
 1637SOL    HW2 5811   0.384   0.114   3.439
 1638SOL     OW 5812   0.553   4.244   3.998
 1638SOL    HW1 5813   0.636   4.216   4.047
 1638SOL    HW2 5814   0.521   4.331   4.034
 1639SOL     OW 5815   4.493   6.971   3.162
 1639SOL    HW1 5816   4.507   6.905   3.089
 1639SOL    HW2 5817   4.530   6.935   3.248
 1640SOL     OW 5818   5.758   1.508   0.666
 1640SOL    HW1 5819   5.681   1.563   0.635
 1640SOL    HW2 5820   5.758   1.504   0.766
 1641SOL     OW 5821   4.983   2.721   4.516
 1641SOL    HW1 5822   5.019   2.628   4.510
 1641SOL    HW2 5823   4.998   2.757   4.608
 1642SOL     OW 5824   6.073   3.872   6.229
 1642SOL    HW1 5825   6.057   3.882   6.131
 1642SOL    HW2 5826   6.164   3.908   6.251
 1643SOL     OW 5827   2.973   4.953   4.083
 1643SOL    HW1 5828   2.883   4.995   4.097
 1643SOL    HW2 5829   2.987   4.882   4.152
 1644SOL     OW 5830   0.335   2.958   1.276
 1644SOL    HW1 5831   0.335   3.012   1.192
 1644SOL    HW2 5832   0.424   2.914   1.287
 1645SOL     OW 5833   2.595   6.145   5.705
 1645SOL    HW1 5834   2.562   6.202   5.630
 1645SOL    HW2 5835   2.666   6.194   5.756
 1646SOL     OW 5836   2.610   5.820   0.870
 1646SOL    HW1 5837   2.640   5.901   0.820
 1646SOL    HW2 5838   2.521   5.791   0.836
 1647SOL     OW 5839   6.089   2.619   4.937
 1647SOL    HW1 5840   6.129   2.547   4.994
 1647SOL    HW2 5841   5.989   2.612   4.939
 1648SOL     OW 5842   6.094   6.266   0.542
 1648SOL    HW1 5843   6.088   6.173   0.507
 1648SOL    HW2 5844   6.059   6.330   0.473
 1649SOL     OW 5845   3.794   0.012   4.787
 1649SOL    HW1 5846   3.749   6.981   4.858
 1649SOL    HW2 5847   3.867   6.980   4.746
 1650SOL     OW 5848   1.877   6.832   5.594
 1650SOL    HW1 5849   1.973   6.847   5.567
 1650SOL    HW2 5850   1.859   6.734   5.598
 1651SOL     OW 5851   0.357   1.430   1.748
 1651SOL    HW1 5852   0.328   1.495   1.678
 1651SOL    HW2 5853   0.419   1.475   1.812
 1652SOL     OW 5854   1.687   3.254   1.851
 1652SOL    HW1 5855   1.728   3.245   1.760
 1652SOL    HW2 5856   1.682   3.350   1.876
 1653SOL     OW 5857   0.636   6.920   1.230
 1653SOL    HW1 5858   0.726   6.894   1.265
 1653SOL    HW2 5859   0.646   6.971   1.145
 1654SOL     OW 5860   6.661   3.399   2.082
 1654SOL    HW1 5861   6.703   3.361   2.164
 1654SOL    HW2 5862   6.697   3.352   2.001
 1655SOL     OW 5863   6.230   2.328   5.135
 1655SOL    HW1 5864   6.133   2.352   5.136
 1655SOL    HW2 5865   6.240   2.229   5.142
 1656SOL     OW 5866   2.210   4.482   2.443
 1656SOL    HW1 5867   2.162   4.513   2.362
 1656SOL    HW2 5868   2.300   4.445   2.418
 1657SOL     OW 5869   6.846   1.018   4.236
 1657SOL    HW1 5870   6.901   0.970   4.167
 1657SOL    HW2 5871   6.750   1.014   4.210
 1658SOL     OW 5872   0.895   0.298   1.754
 1658SOL    HW1 5873   0.923   0.296   1.850
 1658SOL    HW2 5874   0.921   0.212   1.710
 1659SOL     OW 5875   3.874   1.083   5.513
 1659SOL    HW1 5876   3.951   1.027   5.481
 1659SOL    HW2 5877   3.791   1.058   5.463
 1660SOL     OW 5878   0.979   5.431   3.844
 1660SOL    HW1 5879   1.028   5.347   3.820
 1660SOL    HW2 5880   0.912   5.452   3.773
 1661SOL     OW 5881   3.375   1.382   2.322
 1661SOL    HW1 5882   3.348   1.297   2.276
 1661SOL    HW2 5883   3.333   1.460   2.276
 1662SOL     OW 5884   6.567   1.006   4.228
 1662SOL    HW1 5885   6.525   0.973   4.313
 1662SOL    HW2 5886   6.524   1.092   4.200
 1663SOL     OW 5887   3.255   0.813   3.006
 1663SOL    HW1 5888   3.227   0.898   2.962
 1663SOL    HW2 5889   3.221   0.735   2.954
 1664SOL     OW 5890   2.438   6.780   3.828
 1664SOL    HW1 5891   2.487   6.764   3.914
 1664SOL    HW2 5892   2.433   6.694   3.776
 1665SOL     OW 5893   0.630   0.838   3.200
 1665SOL    HW1 5894   0.632   0.757   3.258
 1665SOL    HW2 5895   0.553   0.896   3.225
 1666SOL     OW 5896   5.252   3.535   0.647
 1666SOL    HW1 5897   5.321   3.475   0.688
 1666SOL    HW2 5898   5.164   3.486   0.642
 1667SOL     OW 5899   6.635   6.740   1.196
 1667SOL    HW1 5900   6.593   6.732   1.286
 1667SOL    HW2 5901   6.605   6.665   1.137
 1668SOL     OW 5902   5.215   5.807   5.494
 1668SOL    HW1 5903   5.224   5.726   5.552
 1668SOL    HW2 5904   5.121   5.842   5.501
 1669SOL     OW 5905   6.478   6.385   6.294
 1669SOL    HW1 5906   6.563   6.437   6.286
 1669SOL    HW2 5907   6.497   6.297   6.336
 1670SOL     OW 5908   6.602   4.620   6.239
 1670SOL    HW1 5909   6.638   4.709   6.208
 1670SOL    HW2 5910   6.677   4.554   6.242
 1671SOL     OW 5911   4.176   3.209   1.045
 1671SOL    HW1 5912   4.243   3.142   1.078
 1671SOL    HW2 5913   4.181   3.292   1.101
 1672SOL     OW 5914   1.850   3.833   1.474
 1672SOL    HW1 5915   1.821   3.738   1.487
 1672SOL    HW2 5916   1.781   3.894   1.515
 1673SOL     OW 5917   6.719   2.052   4.301
 1673SOL    HW1 5918   6.633   2.099   4.278
 1673SOL    HW2 5919   6.707   2.004   4.388
 1674SOL     OW 5920   0.729   3.940   2.677
 1674SOL    HW1 5921   0.691   3.988   2.598
 1674SOL    HW2 5922   0.828   3.954   2.680
 1675SOL     OW 5923   4.212   0.329   5.762
 1675SOL    HW1 5924   4.287   0.263   5.760
 1675SOL    HW2 5925   4.150   0.312   5.685
 1676SOL     OW 5926   2.514   1.373   2.197
 1676SOL    HW1 5927   2.568   1.335   2.122
 1676SOL    HW2 5928   2.481   1.299   2.255
 1677SOL     OW 5929   3.949   3.566   5.535
 1677SOL    HW1 5930   4.033   3.551   5.587
 1677SOL    HW2 5931   3.899   3.480   5.526
 1678SOL     OW 5932   5.195   4.625   4.922
 1678SOL    HW1 5933   5.287   4.643   4.954
 1678SOL    HW2 5934   5.167   4.533   4.950
 1679SOL     OW 5935   2.126   3.147   5.143
 1679SOL    HW1 5936   2.220   3.129   5.114
 1679SOL    HW2 5937   2.073   3.062   5.138
 1680SOL     OW 5938   0.460   2.412   4.253
 1680SOL    HW1 5939   0.530   2.464   4.302
 1680SOL    HW2 5940   0.420   2.468   4.181
 1681SOL     OW 5941   6.239   5.964   0.634
 1681SOL    HW1 5942   6.255   5.866   0.647
 1681SOL    HW2 5943   6.320   6.016   0.663
 1682SOL     OW 5944   0.339   1.950   4.920
 1682SOL    HW1 5945   0.341   1.869   4.861
 1682SOL    HW2 5946   0.423   2.002   4.908
 1683SOL     OW 5947   3.883   5.877   1.013
 1683SOL    HW1 5948   3.851   5.971   1.025
 1683SOL    HW2 5949   3.978   5.877   0.982
 1684SOL     OW 5950   1.130   6.202   3.040
 1684SOL    HW1 5951   1.100   6.109   3.063
 1684SOL    HW2 5952   1.205   6.197   2.974
 1685SOL     OW 5953   2.804   1.055   6.342
 1685SOL    HW1 5954   2.751   0.995   6.282
 1685SOL    HW2 5955   2.757   1.063   6.431
 1686SOL     OW 5956   2.305   4.870   5.058
 1686SOL    HW1 5957   2.368   4.798   5.029
 1686SOL    HW2 5958   2.265   4.846   5.146
 1687SOL     OW 5959   2.081   2.987   1.484
 1687SOL    HW1 5960   2.131   2.906   1.454
 1687SOL    HW2 5961   2.086   3.058   1.414
 1688SOL     OW 5962   1.995   2.432   3.956
 1688SOL    HW1 5963   1.933   2.481   4.017
 1688SOL    HW2 5964   2.028   2.493   3.885
 1689SOL     OW 5965   4.739   0.761   2.312
 1689SOL    HW1 5966   4.819   0.772   2.372
 1689SOL    HW2 5967   4.664   0.720   2.365
 1690SOL     OW 5968   1.615   3.243   3.414
 1690SOL    HW1 5969   1.579   3.307   3.482
 1690SOL    HW2 5970   1.610   3.285   3.323
 1691SOL     OW 5971   5.447   4.299   3.232
 1691SOL    HW1 5972   5.464   4.324   3.327
 1691SOL    HW2 5973   5.527   4.321   3.177
 1692SOL     OW 5974   5.881   0.563   1.624
 1692SOL    HW1 5975   5.901   0.650   1.578
 1692SOL    HW2 5976   5.873   0.578   1.722
 1693SOL     OW 5977   0.123   2.153   2.657
 1693SOL    HW1 5978   0.105   2.226   2.591
 1693SOL    HW2 5979   0.069   2.072   2.632
 1694SOL     OW 5980   5.318   0.470   3.485
 1694SOL    HW1 5981   5.365   0.382   3.485
 1694SOL    HW2 5982   5.320   0.509   3.393
 1695SOL     OW 5983   2.656   1.671   6.047
 1695SOL    HW1 5984   2.641   1.671   5.948
 1695SOL    HW2 5985   2.568   1.662   6.094
 1696SOL     OW 5986   4.876   4.593   0.829
 1696SOL    HW1 5987   4.971   4.609   0.854
 1696SOL    HW2 5988   4.846   4.505   0.867
 1697SOL     OW 5989   5.648   6.259   1.819
 1697SOL    HW1 5990   5.679   6.275   1.913
 1697SOL    HW2 5991   5.602   6.341   1.785
 1698SOL     OW 5992   5.430   0.951   0.511
 1698SOL    HW1 5993   5.375   1.030   0.540
 1698SOL    HW2 5994   5.516   0.951   0.561
 1699SOL     OW 5995   2.834   1.137   0.992
 1699SOL    HW1 5996   2.880   1.202   0.932
 1699SOL    HW2 5997   2.830   1.048   0.947
 1700SOL     OW 5998   6.363   2.587   3.341
 1700SOL    HW1 5999   6.404   2.678   3.343
 1700SOL    HW2 6000   6.365   2.548   3.434
 1701SOL     OW 6001   5.652   3.754   6.092
 1701SOL    HW1 6002   5.624   3.680   6.031
 1701SOL    HW2 6003   5.726   3.722   6.151
 1702SOL     OW 6004   6.637   2.760   0.793
 1702SOL    HW1 6005   6.591   2.674   0.772
 1702SOL    HW2 6006   6.704   2.745   0.866
 1703SOL     OW 6007   4.138   3.411   2.744
 1703SOL    HW1 6008   4.111   3.321   2.709
 1703SOL    HW2 6009   4.111   3.418   2.840
 1704SOL     OW 6010   0.458   1.186   2.026
 1704SOL    HW1 6011   0.467   1.108   2.087
 1704SOL    HW2 6012   0.543   1.239   2.028
 1705SOL     OW 6013   3.834   2.598   1.435
 1705SOL    HW1 6014   3.849   2.569   1.340
 1705SOL    HW2 6015   3.741   2.633   1.444
 1706SOL     OW 6016   4.685   0.506   1.362
 1706SOL    HW1 6017   4.600   0.491   1.413
 1706SOL    HW2 6018   4.665   0.510   1.264
 1707SOL     OW 6019   4.756   2.043   2.432
 1707SOL    HW1 6020   4.780   2.136   2.458
 1707SOL    HW2 6021   4.662   2.024   2.458
 1708SOL     OW 6022   4.827   5.166   2.157
 1708SOL    HW1 6023   4.836   5.068   2.140
 1708SOL    HW2 6024   4.777   5.208   2.081
 1709SOL     OW 6025   2.301   5.874   1.635
 1709SOL    HW1 6026   2.275   5.967   1.658
 1709SOL    HW2 6027   2.365   5.875   1.558
 1710SOL     OW 6028   5.678   4.684   3.452
 1710SOL    HW1 6029   5.740   4.726   3.518
 1710SOL    HW2 6030   5.585   4.685   3.488
 1711SOL     OW 6031   1.104   4.537   4.799
 1711SOL    HW1 6032   1.015   4.533   4.845
 1711SOL    HW2 6033   1.167   4.472   4.842
 1712SOL     OW 6034   0.564   2.903   6.287
 1712SOL    HW1 6035   0.574   2.811   6.325
 1712SOL    HW2 6036   0.591   2.970   6.356
 1713SOL     OW 6037   3.912   2.382   1.562
 1713SOL    HW1 6038   3.887   2.438   1.483
 1713SOL    HW2 6039   3.866   2.293   1.555
 1714SOL     OW 6040   4.409   1.707   6.138
 1714SOL    HW1 6041   4.449   1.760   6.063
 1714SOL    HW2 6042   4.391   1.613   6.107
 1715SOL     OW 6043   6.746   3.782   2.587
 1715SOL    HW1 6044   6.807   3.723   2.534
 1715SOL    HW2 6045   6.782   3.876   2.587
 1716SOL     OW 6046   4.881   0.315   2.734
 1716SOL    HW1 6047   4.906   0.361   2.819
 1716SOL    HW2 6048   4.960   0.263   2.701
 1717SOL     OW 6049   2.124   6.562   6.076
 1717SOL    HW1 6050   2.105   6.498   6.002
 1717SOL    HW2 6051   2.147   6.511   6.159
 1718SOL     OW 6052   2.299   2.385   2.198
 1718SOL    HW1 6053   2.335   2.450   2.132
 1718SOL    HW2 6054   2.375   2.336   2.242
 1719SOL     OW 6055   2.376   4.242   0.886
 1719SOL    HW1 6056   2.308   4.213   0.955
 1719SOL    HW2 6057   2.330   4.294   0.814
 1720SOL     OW 6058   0.281   1.823   0.649
 1720SOL    HW1 6059   0.265   1.877   0.731
 1720SOL    HW2 6060   0.229   1.862   0.572
 1721SOL     OW 6061   1.072   6.811   2.687
 1721SOL    HW1 6062   1.013   6.877   2.734
 1721SOL    HW2 6063   1.076   6.727   2.740
 1722SOL     OW 6064   4.772   2.355   3.979
 1722SOL    HW1 6065   4.804   2.360   3.885
 1722SOL    HW2 6066   4.810   2.431   4.032
 1723SOL     OW 6067   6.772   2.653   2.383
 1723SOL    HW1 6068   6.707   2.655   2.459
 1723SOL    HW2 6069   6.798   2.558   2.365
 1724SOL     OW 6070   6.101   1.868   1.127
 1724SOL    HW1 6071   6.118   1.956   1.083
 1724SOL    HW2 6072   6.040   1.813   1.070
 1725SOL     OW 6073   2.161   4.512   6.848
 1725SOL    HW1 6074   2.121   4.604   6.856
 1725SOL    HW2 6075   2.233   4.500   6.916
 1726SOL     OW 6076   5.869   4.510   5.241
 1726SOL    HW1 6077   5.947   4.448   5.247
 1726SOL    HW2 6078   5.787   4.462   5.272
 1727SOL     OW 6079   3.854   3.287   4.564
 1727SOL    HW1 6080   3.846   3.369   4.621
 1727SOL    HW2 6081   3.763   3.251   4.543
 1728SOL     OW 6082   5.624   4.927   4.465
 1728SOL    HW1 6083   5.681   4.936   4.547
 1728SOL    HW2 6084   5.539   4.977   4.478
 1729SOL     OW 6085   2.104   3.569   3.693
 1729SOL    HW1 6086   2.135   3.479   3.725
 1729SOL    HW2 6087   2.055   3.557   3.606
 1730SOL     OW 6088   6.326   0.252   5.320
 1730SOL    HW1 6089   6.321   0.197   5.403
 1730SOL    HW2 6090   6.251   0.319   5.320
 1731SOL     OW 6091   0.055   5.008   1.998
 1731SOL    HW1 6092   0.113   5.056   2.062
 1731SOL    HW2 6093   6.991   4.983   2.042
 1732SOL     OW 6094   2.558   4.400   5.310
 1732SOL    HW1 6095   2.503   4.349   5.376
 1732SOL    HW2 6096   2.648   4.356   5.301
 1733SOL     OW 6097   0.970   3.676   2.727
 1733SOL    HW1 6098   1.002   3.699   2.634
 1733SOL    HW2 6099   0.955   3.761   2.778
 1734SOL     OW 6100   4.815   3.253   1.800
 1734SOL    HW1 6101   4.878   3.242   1.877
 1734SOL    HW2 6102   4.744   3.183   1.805
 1735SOL     OW 6103   5.809   6.025   1.247
 1735SOL    HW1 6104   5.764   6.099   1.297
 1735SOL    HW2 6105   5.774   6.022   1.153
 1736SOL     OW 6106   4.092   2.603   1.004
 1736SOL    HW1 6107   4.056   2.669   0.938
 1736SOL    HW2 6108   4.180   2.634   1.039
 1737SOL     OW 6109   2.952   0.954   4.352
 1737SOL    HW1 6110   2.945   1.021   4.427
 1737SOL    HW2 6111   3.048   0.944   4.325
 1738SOL     OW 6112   2.009   1.746   4.081
 1738SOL    HW1 6113   2.081   1.754   4.012
 1738SOL    HW2 6114   1.942   1.820   4.069
 1739SOL     OW 6115   5.726   2.375   5.623
 1739SOL    HW1 6116   5.789   2.297   5.627
 1739SOL    HW2 6117   5.751   2.441   5.694
 1740SOL     OW 6118   0.604   1.528   6.313
 1740SOL    HW1 6119   0.596   1.585   6.395
 1740SOL    HW2 6120   0.700   1.523   6.285
 1741SOL     OW 6121   2.155   0.507   3.897
 1741SOL    HW1 6122   2.164   0.599   3.935
 1741SOL    HW2 6123   2.079   0.460   3.942
 1742SOL     OW 6124   5.022   6.448   5.942
 1742SOL    HW1 6125   5.108   6.397   5.947
 1742SOL    HW2 6126   4.947   6.386   5.918
 1743SOL     OW 6127   2.059   2.302   2.324
 1743SOL    HW1 6128   2.147   2.334   2.287
 1743SOL    HW2 6129   2.051   2.331   2.419
 1744SOL     OW 6130   0.626   0.574   1.796
 1744SOL    HW1 6131   0.661   0.643   1.859
 1744SOL    HW2 6132   0.690   0.563   1.720
 1745SOL     OW 6133   6.238   0.687   3.285
 1745SOL    HW1 6134   6.296   0.747   3.340
 1745SOL    HW2 6135   6.142   0.705   3.307
 1746SOL     OW 6136   2.300   4.523   5.423
 1746SOL    HW1 6137   2.237   4.601   5.427
 1746SOL    HW2 6138   2.392   4.556   5.405
 1747SOL     OW 6139   5.685   1.288   3.088
 1747SOL    HW1 6140   5.630   1.372   3.093
 1747SOL    HW2 6141   5.633   1.217   3.040
 1748SOL     OW 6142   0.507   0.966   3.799
 1748SOL    HW1 6143   0.446   1.021   3.743
 1748SOL    HW2 6144   0.505   0.871   3.767
 1749SOL     OW 6145   2.648   6.955   5.224
 1749SOL    HW1 6146   2.706   6.909   5.156
 1749SOL    HW2 6147   2.705   6.986   5.300
 1750SOL     OW 6148   6.678   0.012   3.617
 1750SOL    HW1 6149   6.632   0.099   3.633
 1750SOL    HW2 6150   6.770   0.028   3.583
 1751SOL     OW 6151   4.230   5.439   4.506
 1751SOL    HW1 6152   4.292   5.508   4.544
 1751SOL    HW2 6153   4.278   5.351   4.500
 1752SOL     OW 6154   0.379   2.242   2.205
 1752SOL    HW1 6155   0.428   2.214   2.122
 1752SOL    HW2 6156   0.363   2.341   2.203
 1753SOL     OW 6157   0.203   2.019   0.831
 1753SOL    HW1 6158   0.131   2.002   0.899
 1753SOL    HW2 6159   0.170   2.084   0.763
 1754SOL     OW 6160   3.069   3.431   0.996
 1754SOL    HW1 6161   3.012   3.386   1.064
 1754SOL    HW2 6162   3.134   3.365   0.957
 1755SOL     OW 6163   5.933   6.126   2.136
 1755SOL    HW1 6164   5.972   6.192   2.200
 1755SOL    HW2 6165   6.004   6.094   2.073
 1756SOL     OW 6166   4.175   4.285   6.030
 1756SOL    HW1 6167   4.173   4.208   6.094
 1756SOL    HW2 6168   4.201   4.253   5.939
 1757SOL     OW 6169   2.699   5.020   4.881
 1757SOL    HW1 6170   2.616   5.030   4.826
 1757SOL    HW2 6171   2.775   5.066   4.835
 1758SOL     OW 6172   2.601   0.158   3.972
 1758SOL    HW1 6173   2.593   0.103   4.055
 1758SOL    HW2 6174   2.594   0.255   3.995
 1759SOL     OW 6175   1.620   5.161   6.436
 1759SOL    HW1 6176   1.579   5.070   6.429
 1759SOL    HW2 6177   1.717   5.152   6.457
 1760SOL     OW 6178   5.479   2.284   1.894
 1760SOL    HW1 6179   5.408   2.225   1.855
 1760SOL    HW2 6180   5.448   2.320   1.982
 1761SOL     OW 6181   0.388   0.474   0.761
 1761SOL    HW1 6182   0.314   0.538   0.777
 1761SOL    HW2 6183   0.363   0.384   0.797
 1762SOL     OW 6184   0.073   2.022   4.977
 1762SOL    HW1 6185   0.151   1.964   4.954
 1762SOL    HW2 6186   7.011   1.977   4.949
 1763SOL     OW 6187   1.404   3.627   3.888
 1763SOL    HW1 6188   1.363   3.541   3.857
 1763SOL    HW2 6189   1.395   3.634   3.987
 1764SOL     OW 6190   2.218   4.008   1.846
 1764SOL    HW1 6191   2.311   3.995   1.813
 1764SOL    HW2 6192   2.165   3.924   1.831
 1765SOL     OW 6193   4.336   1.777   0.078
 1765SOL    HW1 6194   4.371   1.685   0.055
 1765SOL    HW2 6195   4.305   1.778   0.173
 1766SOL     OW 6196   4.863   3.588   3.050
 1766SOL    HW1 6197   4.960   3.593   3.026
 1766SOL    HW2 6198   4.827   3.681   3.066
 1767SOL     OW 6199   6.414   4.004   3.240
 1767SOL    HW1 6200   6.388   3.953   3.158
 1767SOL    HW2 6201   6.343   3.996   3.309
 1768SOL     OW 6202   3.670   1.336   4.872
 1768SOL    HW1 6203   3.763   1.351   4.838
 1768SOL    HW2 6204   3.653   1.237   4.880
 1769SOL     OW 6205   4.604   2.488   5.147
 1769SOL    HW1 6206   4.597   2.533   5.058
 1769SOL    HW2 6207   4.673   2.534   5.203
 1770SOL     OW 6208   0.297   5.369   4.518
 1770SOL    HW1 6209   0.300   5.462   4.555
 1770SOL    HW2 6210   0.387   5.327   4.526
 1771SOL     OW 6211   2.248   4.807   0.144
 1771SOL    HW1 6212   2.203   4.888   0.180
 1771SOL    HW2 6213   2.305   4.831   0.066
 1772SOL     OW 6214   3.025   6.343   3.643
 1772SOL    HW1 6215   3.088   6.301   3.709
 1772SOL    HW2 6216   3.068   6.423   3.601
 1773SOL     OW 6217   2.824   4.925   5.982
 1773SOL    HW1 6218   2.870   4.848   5.939
 1773SOL    HW2 6219   2.732   4.935   5.943
 1774SOL     OW 6220   4.675   6.786   1.944
 1774SOL    HW1 6221   4.725   6.769   2.028
 1774SOL    HW2 6222   4.635   6.877   1.947
 1775SOL     OW 6223   1.078   4.763   3.839
 1775SOL    HW1 6224   1.096   4.844   3.895
 1775SOL    HW2 6225   1.163   4.712   3.824
 1776SOL     OW 6226   3.573   0.822   5.186
 1776SOL    HW1 6227   3.565   0.853   5.091
 1776SOL    HW2 6228   3.597   0.725   5.188
 1777SOL     OW 6229   3.412   5.214   5.526
 1777SOL    HW1 6230   3.355   5.202   5.608
 1777SOL    HW2 6231   3.499   5.167   5.539
 1778SOL     OW 6232   4.721   2.705   5.685
 1778SOL    HW1 6233   4.633   2.669   5.653
 1778SOL    HW2 6234   4.712   2.803   5.703
 1779SOL     OW 6235   4.559   1.149   4.527
 1779SOL    HW1 6236   4.553   1.248   4.521
 1779SOL    HW2 6237   4.656   1.121   4.532
 1780SOL     OW 6238   2.868   3.838   6.006
 1780SOL    HW1 6239   2.806   3.807   5.933
 1780SOL    HW2 6240   2.875   3.766   6.075
 1781SOL     OW 6241   4.108   5.536   3.829
 1781SOL    HW1 6242   4.166   5.575   3.757
 1781SOL    HW2 6243   4.028   5.493   3.787
 1782SOL     OW 6244   2.737   2.056   3.448
 1782SOL    HW1 6245   2.645   2.095   3.451
 1782SOL    HW2 6246   2.785   2.089   3.367
 1783SOL     OW 6247   1.650   3.807   6.416
 1783SOL    HW1 6248   1.574   3.779   6.357
 1783SOL    HW2 6249   1.648   3.906   6.429
 1784SOL     OW 6250   2.992   1.003   4.925
 1784SOL    HW1 6251   2.912   0.961   4.881
 1784SOL    HW2 6252   3.038   0.934   4.981
 1785SOL     OW 6253   5.328   5.432   3.423
 1785SOL    HW1 6254   5.351   5.516   3.374
 1785SOL    HW2 6255   5.238   5.443   3.467
 1786SOL     OW 6256   1.589   2.760   1.518
 1786SOL    HW1 6257   1.669   2.772   1.459
 1786SOL    HW2 6258   1.512   2.727   1.464
 1787SOL     OW 6259   2.533   0.675   4.304
 1787SOL    HW1 6260   2.612   0.727   4.272
 1787SOL    HW2 6261   2.548   0.644   4.398
 1788SOL     OW 6262   2.954   3.062   0.153
 1788SOL    HW1 6263   2.936   3.158   0.131
 1788SOL    HW2 6264   3.022   3.057   0.227
 1789SOL     OW 6265   6.555   1.605   2.397
 1789SOL    HW1 6266   6.643   1.650   2.384
 1789SOL    HW2 6267   6.509   1.595   2.309
 1790SOL     OW 6268   4.153   6.565   4.318
 1790SOL    HW1 6269   4.170   6.638   4.252
 1790SOL    HW2 6270   4.228   6.499   4.314
 1791SOL     OW 6271   0.161   1.380   4.151
 1791SOL    HW1 6272   0.191   1.386   4.247
 1791SOL    HW2 6273   0.199   1.456   4.099
 1792SOL     OW 6274   7.013   2.213   3.807
 1792SOL    HW1 6275   7.005   2.172   3.898
 1792SOL    HW2 6276   0.074   2.268   3.803
 1793SOL     OW 6277   6.679   0.495   3.855
 1793SOL    HW1 6278   6.704   0.401   3.881
 1793SOL    HW2 6279   6.719   0.517   3.766
 1794SOL     OW 6280   5.402   5.925   6.215
 1794SOL    HW1 6281   5.365   5.838   6.249
 1794SOL    HW2 6282   5.327   5.986   6.189
 1795SOL     OW 6283   0.284   2.873   2.256
 1795SOL    HW1 6284   0.373   2.882   2.301
 1795SOL    HW2 6285   0.220   2.829   2.319
 1796SOL     OW 6286   1.863   0.804   4.100
 1796SOL    HW1 6287   1.861   0.904   4.096
 1796SOL    HW2 6288   1.917   0.775   4.179
 1797SOL     OW 6289   1.294   1.019   6.494
 1797SOL    HW1 6290   1.346   0.952   6.441
 1797SOL    HW2 6291   1.305   1.000   6.592
 1798SOL     OW 6292   5.218   2.243   5.001
 1798SOL    HW1 6293   5.126   2.282   4.996
 1798SOL    HW2 6294   5.225   2.164   4.939
 1799SOL     OW 6295   6.434   1.578   6.234
 1799SOL    HW1 6296   6.510   1.643   6.221
 1799SOL    HW2 6297   6.365   1.620   6.293
 1800SOL     OW 6298   4.470   5.288   2.950
 1800SOL    HW1 6299   4.514   5.294   3.040
 1800SOL    HW2 6300   4.524   5.340   2.884
 1801SOL     OW 6301   0.998   0.979   2.251
 1801SOL    HW1 6302   1.095   0.959   2.262
 1801SOL    HW2 6303   0.975   1.063   2.300
 1802SOL     OW 6304   5.406   5.198   2.011
 1802SOL    HW1 6305   5.322   5.144   2.014
 1802SOL    HW2 6306   5.400   5.272   2.078
 1803SOL     OW 6307   0.070   6.069   0.295
 1803SOL    HW1 6308   0.060   6.164   0.264
 1803SOL    HW2 6309   0.146   6.026   0.246
 1804SOL     OW 6310   1.899   4.089   5.796
 1804SOL    HW1 6311   1.993   4.106   5.824
 1804SOL    HW2 6312   1.885   4.122   5.703
 1805SOL     OW 6313   6.588   3.782   5.579
 1805SOL    HW1 6314   6.617   3.812   5.670
 1805SOL    HW2 6315   6.659   3.725   5.538
 1806SOL     OW 6316   1.432   0.864   0.325
 1806SOL    HW1 6317   1.451   0.961   0.342
 1806SOL    HW2 6318   1.334   0.847   0.339
 1807SOL     OW 6319   4.781   2.472   6.105
 1807SOL    HW1 6320   4.855   2.435   6.050
 1807SOL    HW2 6321   4.693   2.437   6.071
 1808SOL     OW 6322   7.008   3.433   6.078
 1808SOL    HW1 6323   6.992   3.356   6.016
 1808SOL    HW2 6324   0.007   3.515   6.025
 1809SOL     OW 6325   2.232   3.028   4.308
 1809SOL    HW1 6326   2.153   2.976   4.274
 1809SOL    HW2 6327   2.219   3.125   4.288
 1810SOL     OW 6328   2.795   0.913   5.340
 1810SOL    HW1 6329   2.872   0.963   5.379
 1810SOL    HW2 6330   2.828   0.835   5.287
 1811SOL     OW 6331   4.459   4.549   3.655
 1811SOL    HW1 6332   4.518   4.493   3.595
 1811SOL    HW2 6333   4.381   4.583   3.602
 1812SOL     OW 6334   3.896   6.523   6.110
 1812SOL    HW1 6335   3.823   6.455   6.121
 1812SOL    HW2 6336   3.968   6.507   6.177
 1813SOL     OW 6337   4.964   4.663   0.423
 1813SOL    HW1 6338   4.942   4.585   0.482
 1813SOL    HW2 6339   4.944   4.640   0.328
 1814SOL     OW 6340   0.145   1.010   0.194
 1814SOL    HW1 6341   0.133   1.110   0.200
 1814SOL    HW2 6342   0.076   0.965   0.249
 1815SOL     OW 6343   5.859   2.432   1.849
 1815SOL    HW1 6344   5.862   2.379   1.765
 1815SOL    HW2 6345   5.805   2.515   1.835
 1816SOL     OW 6346   2.203   4.144   1.087
 1816SOL    HW1 6347   2.232   4.131   1.182
 1816SOL    HW2 6348   2.122   4.088   1.069
 1817SOL     OW 6349   3.071   6.830   3.441
 1817SOL    HW1 6350   2.983   6.859   3.404
 1817SOL    HW2 6351   3.142   6.895   3.413
 1818SOL     OW 6352   1.788   6.961   2.353
 1818SOL    HW1 6353   1.821   7.011   2.433
 1818SOL    HW2 6354   1.858   6.963   2.282
 1819SOL     OW 6355   0.350   5.331   1.589
 1819SOL    HW1 6356   0.275   5.299   1.647
 1819SOL    HW2 6357   0.327   5.312   1.493
 1820SOL     OW 6358   4.689   0.575   2.884
 1820SOL    HW1 6359   4.655   0.591   2.791
 1820SOL    HW2 6360   4.665   0.652   2.942
 1821SOL     OW 6361   2.561   0.495   1.807
 1821SOL    HW1 6362   2.609   0.407   1.819
 1821SOL    HW2 6363   2.509   0.492   1.722
 1822SOL     OW 6364   2.423   2.626   1.259
 1822SOL    HW1 6365   2.346   2.561   1.260
 1822SOL    HW2 6366   2.459   2.633   1.167
 1823SOL     OW 6367   2.786   5.689   3.463
 1823SOL    HW1 6368   2.745   5.764   3.411
 1823SOL    HW2 6369   2.723   5.610   3.464
 1824SOL     OW 6370   3.864   3.735   1.450
 1824SOL    HW1 6371   3.951   3.700   1.414
 1824SOL    HW2 6372   3.799   3.659   1.458
 1825SOL     OW 6373   1.267   1.964   3.871
 1825SOL    HW1 6374   1.286   1.917   3.785
 1825SOL    HW2 6375   1.329   1.930   3.942
 1826SOL     OW 6376   3.211   0.250   0.863
 1826SOL    HW1 6377   3.244   0.263   0.956
 1826SOL    HW2 6378   3.152   0.328   0.838
 1827SOL     OW 6379   0.348   5.968   1.386
 1827SOL    HW1 6380   0.255   5.965   1.421
 1827SOL    HW2 6381   0.395   6.048   1.425
 1828SOL     OW 6382   0.861   2.374   0.910
 1828SOL    HW1 6383   0.890   2.280   0.931
 1828SOL    HW2 6384   0.937   2.436   0.927
 1829SOL     OW 6385   2.694   0.495   3.265
 1829SOL    HW1 6386   2.769   0.551   3.230
 1829SOL    HW2 6387   2.608   0.546   3.259
 1830SOL     OW 6388   5.975   6.261   3.988
 1830SOL    HW1 6389   6.033   6.182   3.967
 1830SOL    HW2 6390   6.005   6.340   3.934
 1831SOL     OW 6391   6.092   0.268   2.589
 1831SOL    HW1 6392   6.119   0.187   2.642
 1831SOL    HW2 6393   6.055   0.337   2.651
 1832SOL     OW 6394   4.549   1.453   1.406
 1832SOL    HW1 6395   4.625   1.507   1.371
 1832SOL    HW2 6396   4.498   1.412   1.330
 1833SOL     OW 6397   5.130   0.382   6.312
 1833SOL    HW1 6398   5.055   0.331   6.270
 1833SOL    HW2 6399   5.207   0.386   6.248
 1834SOL     OW 6400   2.617   4.322   0.268
 1834SOL    HW1 6401   2.614   4.276   0.357
 1834SOL    HW2 6402   2.545   4.286   0.209
 1835SOL     OW 6403   0.002   3.906   2.392
 1835SOL    HW1 6404   0.039   3.985   2.441
 1835SOL    HW2 6405   0.033   3.908   2.297
 1836SOL     OW 6406   4.818   2.869   1.282
 1836SOL    HW1 6407   4.887   2.799   1.263
 1836SOL    HW2 6408   4.829   2.902   1.376
 1837SOL     OW 6409   0.869   1.040   5.097
 1837SOL    HW1 6410   0.933   1.083   5.033
 1837SOL    HW2 6411   0.844   1.106   5.169
 1838SOL     OW 6412   0.146   1.385   4.454
 1838SOL    HW1 6413   0.181   1.292   4.470
 1838SOL    HW2 6414   0.144   1.435   4.540
 1839SOL     OW 6415   5.593   2.430   5.377
 1839SOL    HW1 6416   5.572   2.354   5.315
 1839SOL    HW2 6417   5.632   2.395   5.462
 1840SOL     OW 6418   3.473   6.578   1.483
 1840SOL    HW1 6419   3.416   6.515   1.535
 1840SOL    HW2 6420   3.551   6.606   1.539
 1841SOL     OW 6421   2.268   1.174   3.807
 1841SOL    HW1 6422   2.193   1.108   3.813
 1841SOL    HW2 6423   2.347   1.139   3.857
 1842SOL     OW 6424   1.718   5.750   0.299
 1842SOL    HW1 6425   1.753   5.679   0.360
 1842SOL    HW2 6426   1.789   5.775   0.233
 1843SOL     OW 6427   6.307   2.405   3.139
 1843SOL    HW1 6428   6.312   2.484   3.199
 1843SOL    HW2 6429   6.399   2.371   3.120
 1844SOL     OW 6430   3.131   0.240   5.717
 1844SOL    HW1 6431   3.142   0.319   5.777
 1844SOL    HW2 6432   3.218   0.218   5.673
 1845SOL     OW 6433   2.246   0.169   5.288
 1845SOL    HW1 6434   2.246   0.145   5.385
 1845SOL    HW2 6435   2.152   0.178   5.255
 1846SOL     OW 6436   4.067   2.436   1.210
 1846SOL    HW1 6437   4.120   2.353   1.193
 1846SOL    HW2 6438   4.105   2.511   1.156
 1847SOL     OW 6439   1.921   1.264   0.132
 1847SOL    HW1 6440   1.972   1.179   0.127
 1847SOL    HW2 6441   1.823   1.246   0.122
 1848SOL     OW 6442   0.962   6.705   3.582
 1848SOL    HW1 6443   0.944   6.733   3.488
 1848SOL    HW2 6444   0.967   6.605   3.587
 1849SOL     OW 6445   3.844   2.590   0.420
 1849SOL    HW1 6446   3.830   2.520   0.350
 1849SOL    HW2 6447   3.878   2.548   0.504
 1850SOL     OW 6448   1.002   2.383   2.032
 1850SOL    HW1 6449   1.071   2.350   2.097
 1850SOL    HW2 6450   0.943   2.449   2.077
 1851SOL     OW 6451   6.950   2.584   0.568
 1851SOL    HW1 6452   0.001   2.631   0.617
 1851SOL    HW2 6453   6.911   2.646   0.500
 1852SOL     OW 6454   6.330   4.337   2.168
 1852SOL    HW1 6455   6.257   4.273   2.192
 1852SOL    HW2 6456   6.298   4.430   2.182
 1853SOL     OW 6457   6.901   2.426   2.767
 1853SOL    HW1 6458   6.837   2.398   2.695
 1853SOL    HW2 6459   6.933   2.345   2.816
 1854SOL     OW 6460   2.403   6.165   2.922
 1854SOL    HW1 6461   2.357   6.085   2.961
 1854SOL    HW2 6462   2.455   6.211   2.993
 1855SOL     OW 6463   5.342   3.066   5.625
 1855SOL    HW1 6464   5.423   3.090   5.679
 1855SOL    HW2 6465   5.271   3.030   5.686
 1856SOL     OW 6466   6.173   3.730   5.814
 1856SOL    HW1 6467   6.217   3.762   5.730
 1856SOL    HW2 6468   6.120   3.648   5.795
 1857SOL     OW 6469   4.689   1.601   5.714
 1857SOL    HW1 6470   4.781   1.567   5.693
 1857SOL    HW2 6471   4.685   1.628   5.810
 1858SOL     OW 6472   5.935   3.906   3.812
 1858SOL    HW1 6473   5.983   3.877   3.894
 1858SOL    HW2 6474   5.886   3.991   3.830
 1859SOL     OW 6475   5.131   2.032   2.683
 1859SOL    HW1 6476   5.210   2.094   2.681
 1859SOL    HW2 6477   5.102   2.012   2.589
 1860SOL     OW 6478   6.134   0.437   5.233
 1860SOL    HW1 6479   6.129   0.460   5.136
 1860SOL    HW2 6480   6.058   0.479   5.282
 1861SOL     OW 6481   6.185   6.830   2.358
 1861SOL    HW1 6482   6.127   6.807   2.280
 1861SOL    HW2 6483   6.177   6.759   2.427
 1862SOL     OW 6484   2.208   0.221   6.144
 1862SOL    HW1 6485   2.174   0.297   6.199
 1862SOL    HW2 6486   2.293   0.247   6.099
 1863SOL     OW 6487   1.058   2.227   2.741
 1863SOL    HW1 6488   0.994   2.293   2.781
 1863SOL    HW2 6489   1.145   2.272   2.721
 1864SOL     OW 6490   1.436   0.238   5.130
 1864SOL    HW1 6491   1.348   0.260   5.088
 1864SOL    HW2 6492   1.501   0.313   5.115
 1865SOL     OW 6493   3.337   6.525   6.289
 1865SOL    HW1 6494   3.307   6.614   6.323
 1865SOL    HW2 6495   3.264   6.483   6.235
 1866SOL     OW 6496   4.300   5.008   3.443
 1866SOL    HW1 6497   4.397   4.994   3.424
 1866SOL    HW2 6498   4.272   4.950   3.520
 1867SOL     OW 6499   0.462   4.125   0.403
 1867SOL    HW1 6500   0.463   4.025   0.403
 1867SOL    HW2 6501   0.367   4.157   0.412
 1868SOL     OW 6502   4.922   3.768   6.506
 1868SOL    HW1 6503   4.833   3.809   6.484
 1868SOL    HW2 6504   4.978   3.766   6.423
 1869SOL     OW 6505   5.937   2.875   5.619
 1869SOL    HW1 6506   5.855   2.900   5.671
 1869SOL    HW2 6507   5.961   2.950   5.557
 1870SOL     OW 6508   1.272   3.206   5.577
 1870SOL    HW1 6509   1.301   3.166   5.490
 1870SOL    HW2 6510   1.344   3.192   5.646
 1871SOL     OW 6511   0.571   0.676   0.053
 1871SOL    HW1 6512   0.572   0.576   0.041
 1871SOL    HW2 6513   0.617   0.699   0.139
 1872SOL     OW 6514   3.958   1.803   6.697
 1872SOL    HW1 6515   3.985   1.724   6.752
 1872SOL    HW2 6516   3.982   1.887   6.747
 1873SOL     OW 6517   5.167   1.211   5.576
 1873SOL    HW1 6518   5.097   1.160   5.626
 1873SOL    HW2 6519   5.141   1.308   5.572
 1874SOL     OW 6520   3.176   1.656   0.496
 1874SOL    HW1 6521   3.178   1.707   0.582
 1874SOL    HW2 6522   3.106   1.695   0.435
 1875SOL     OW 6523   0.303   0.613   0.073
 1875SOL    HW1 6524   0.257   0.608   7.006
 1875SOL    HW2 6525   0.390   0.659   0.062
 1876SOL     OW 6526   3.050   6.225   5.998
 1876SOL    HW1 6527   2.978   6.168   5.957
 1876SOL    HW2 6528   3.120   6.245   5.928
 1877SOL     OW 6529   0.503   0.688   2.987
 1877SOL    HW1 6530   0.524   0.720   3.079
 1877SOL    HW2 6531   0.494   0.589   2.987
 1878SOL     OW 6532   6.825   2.617   3.919
 1878SOL    HW1 6533   6.859   2.636   4.011
 1878SOL    HW2 6534   6.753   2.548   3.924
 1879SOL     OW 6535   1.337   5.084   4.109
 1879SOL    HW1 6536   1.435   5.078   4.091
 1879SOL    HW2 6537   1.321   5.094   4.208
 1880SOL     OW 6538   6.758   0.815   4.484
 1880SOL    HW1 6539   6.832   0.865   4.438
 1880SOL    HW2 6540   6.753   0.722   4.447
 1881SOL     OW 6541   6.063   2.980   2.516
 1881SOL    HW1 6542   6.148   2.970   2.567
 1881SOL    HW2 6543   6.078   3.039   2.436
 1882SOL     OW 6544   0.608   3.135   6.437
 1882SOL    HW1 6545   0.703   3.161   6.418
 1882SOL    HW2 6546   0.577   3.182   6.520
 1883SOL     OW 6547   1.020   2.123   3.832
 1883SOL    HW1 6548   1.107   2.098   3.873
 1883SOL    HW2 6549   0.978   2.043   3.790
 1884SOL     OW 6550   6.755   3.082   0.459
 1884SOL    HW1 6551   6.779   3.083   0.362
 1884SOL    HW2 6552   6.786   2.996   0.501
 1885SOL     OW 6553   1.450   2.566   6.240
 1885SOL    HW1 6554   1.532   2.533   6.193
 1885SOL    HW2 6555   1.477   2.608   6.327
 1886SOL     OW 6556   2.589   0.544   1.347
 1886SOL    HW1 6557   2.652   0.622   1.346
 1886SOL    HW2 6558   2.615   0.482   1.421
 1887SOL     OW 6559   0.892   5.928   4.914
 1887SOL    HW1 6560   0.911   5.997   4.984
 1887SOL    HW2 6561   0.828   5.965   4.847
 1888SOL     OW 6562   2.283   2.522   6.876
 1888SOL    HW1 6563   2.216   2.489   6.943
 1888SOL    HW2 6564   2.359   2.566   6.923
 1889SOL     OW 6565   0.438   2.886   6.034
 1889SOL    HW1 6566   0.468   2.918   6.124
 1889SOL    HW2 6567   0.425   2.964   5.973
 1890SOL     OW 6568   1.542   6.552   4.812
 1890SOL    HW1 6569   1.446   6.546   4.782
 1890SOL    HW2 6570   1.590   6.617   4.753
 1891SOL     OW 6571   5.285   2.147   1.784
 1891SOL    HW1 6572   5.325   2.077   1.726
 1891SOL    HW2 6573   5.224   2.104   1.851
 1892SOL     OW 6574   2.420   1.198   2.393
 1892SOL    HW1 6575   2.334   1.147   2.401
 1892SOL    HW2 6576   2.452   1.225   2.484
 1893SOL     OW 6577   3.772   2.876   0.118
 1893SOL    HW1 6578   3.811   2.869   0.210
 1893SOL    HW2 6579   3.792   2.794   0.066
 1894SOL     OW 6580   3.731   3.808   3.642
 1894SOL    HW1 6581   3.637   3.822   3.671
 1894SOL    HW2 6582   3.766   3.722   3.679
 1895SOL     OW 6583   5.143   0.406   1.573
 1895SOL    HW1 6584   5.054   0.401   1.618
 1895SOL    HW2 6585   5.215   0.417   1.642
 1896SOL     OW 6586   5.663   0.181   1.355
 1896SOL    HW1 6587   5.614   0.175   1.267
 1896SOL    HW2 6588   5.653   0.274   1.391
 1897SOL     OW 6589   1.665   4.934   1.457
 1897SOL    HW1 6590   1.694   4.840   1.475
 1897SOL    HW2 6591   1.745   4.990   1.435
 1898SOL     OW 6592   2.229   6.041   3.159
 1898SOL    HW1 6593   2.197   6.038   3.254
 1898SOL    HW2 6594   2.192   5.963   3.109
 1899SOL     OW 6595   1.245   0.966   2.292
 1899SOL    HW1 6596   1.319   0.912   2.331
 1899SOL    HW2 6597   1.255   1.062   2.321
 1900SOL     OW 6598   1.194   0.254   6.048
 1900SOL    HW1 6599   1.154   0.197   5.976
 1900SOL    HW2 6600   1.281   0.216   6.077
 1901SOL     OW 6601   2.020   1.626   0.895
 1901SOL    HW1 6602   2.093   1.561   0.916
 1901SOL    HW2 6603   1.956   1.631   0.972
 1902SOL     OW 6604   2.079   2.060   4.789
 1902SOL    HW1 6605   2.073   1.961   4.781
 1902SOL    HW2 6606   2.175   2.087   4.795
 1903SOL     OW 6607   6.776   3.326   2.311
 1903SOL    HW1 6608   6.769   3.341   2.409
 1903SOL    HW2 6609   6.872   3.331   2.283
 1904SOL     OW 6610   5.061   5.605   3.415
 1904SOL    HW1 6611   5.081   5.679   3.480
 1904SOL    HW2 6612   5.033   5.645   3.327
 1905SOL     OW 6613   1.340   0.228   3.963
 1905SOL    HW1 6614   1.428   0.262   3.929
 1905SOL    HW2 6615   1.347   0.130   3.981
 1906SOL     OW 6616   2.151   0.503   5.142
 1906SOL    HW1 6617   2.166   0.524   5.239
 1906SOL    HW2 6618   2.195   0.416   5.119
 1907SOL     OW 6619   3.630   0.495   2.072
 1907SOL    HW1 6620   3.647   0.522   1.977
 1907SOL    HW2 6621   3.619   0.578   2.128
 1908SOL     OW 6622   3.774   6.810   5.533
 1908SOL    HW1 6623   3.774   6.909   5.546
 1908SOL    HW2 6624   3.733   6.788   5.445
 1909SOL     OW 6625   0.329   3.623   2.836
 1909SOL    HW1 6626   0.316   3.570   2.752
 1909SOL    HW2 6627   0.401   3.691   2.820
 1910SOL     OW 6628   0.370   3.720   6.666
 1910SOL    HW1 6629   0.433   3.796   6.650
 1910SOL    HW2 6630   0.298   3.721   6.597
 1911SOL     OW 6631   6.596   3.452   5.088
 1911SOL    HW1 6632   6.621   3.392   5.164
 1911SOL    HW2 6633   6.499   3.438   5.065
 1912SOL     OW 6634   3.771   5.675   0.847
 1912SOL    HW1 6635   3.753   5.594   0.902
 1912SOL    HW2 6636   3.809   5.747   0.905
 1913SOL     OW 6637   2.132   6.502   4.745
 1913SOL    HW1 6638   2.041   6.534   4.773
 1913SOL    HW2 6639   2.144   6.408   4.777
 1914SOL     OW 6640   3.860   3.099   5.853
 1914SOL    HW1 6641   3.950   3.128   5.888
 1914SOL    HW2 6642   3.810   3.179   5.820
 1915SOL     OW 6643   3.643   1.874   5.254
 1915SOL    HW1 6644   3.604   1.803   5.195
 1915SOL    HW2 6645   3.601   1.962   5.232
 1916SOL     OW 6646   4.360   5.765   1.564
 1916SOL    HW1 6647   4.445   5.715   1.552
 1916SOL    HW2 6648   4.292   5.706   1.609
 1917SOL     OW 6649   2.532   2.941   6.028
 1917SOL    HW1 6650   2.527   3.038   6.052
 1917SOL    HW2 6651   2.493   2.886   6.102
 1918SOL     OW 6652   1.086   1.282   5.427
 1918SOL    HW1 6653   1.144   1.357   5.459
 1918SOL    HW2 6654   1.142   1.202   5.408
 1919SOL     OW 6655   2.070   0.509   1.969
 1919SOL    HW1 6656   1.972   0.499   1.951
 1919SOL    HW2 6657   2.084   0.564   2.052
 1920SOL     OW 6658   0.523   3.991   3.111
 1920SOL    HW1 6659   0.482   3.901   3.123
 1920SOL    HW2 6660   0.536   4.034   3.201
 1921SOL     OW 6661   1.374   3.863   6.062
 1921SOL    HW1 6662   1.293   3.839   6.008
 1921SOL    HW2 6663   1.366   3.958   6.093
 1922SOL     OW 6664   2.027   3.711   0.932
 1922SOL    HW1 6665   1.979   3.715   0.845
 1922SOL    HW2 6666   2.019   3.799   0.979
 1923SOL     OW 6667   4.056   0.937   5.395
 1923SOL    HW1 6668   4.030   0.885   5.314
 1923SOL    HW2 6669   4.152   0.917   5.418
 1924SOL     OW 6670   4.708   5.712   0.415
 1924SOL    HW1 6671   4.618   5.671   0.426
 1924SOL    HW2 6672   4.746   5.735   0.505
 1925SOL     OW 6673   1.642   4.822   0.875
 1925SOL    HW1 6674   1.586   4.863   0.947
 1925SOL    HW2 6675   1.698   4.892   0.831
 1926SOL     OW 6676   2.685   0.065   2.796
 1926SOL    HW1 6677   2.663   0.066   2.894
 1926SOL    HW2 6678   2.738   0.146   2.773
 1927SOL     OW 6679   2.334   4.469   0.000
 1927SOL    HW1 6680   2.363   4.379   0.034
 1927SOL    HW2 6681   2.346   4.537   0.073
 1928SOL     OW 6682   6.666   4.190   5.453
 1928SOL    HW1 6683   6.670   4.214   5.550
 1928SOL    HW2 6684   6.605   4.112   5.440
 1929SOL     OW 6685   2.072   6.662   1.568
 1929SOL    HW1 6686   2.161   6.619   1.583
 1929SOL    HW2 6687   2.029   6.681   1.656
 1930SOL     OW 6688   3.711   3.978   6.743
 1930SOL    HW1 6689   3.624   3.969   6.693
 1930SOL    HW2 6690   3.720   4.072   6.775
 1931SOL     OW 6691   1.383   2.665   1.308
 1931SOL    HW1 6692   1.289   2.640   1.332
 1931SOL    HW2 6693   1.442   2.585   1.315
 1932SOL     OW 6694   4.615   2.582   3.246
 1932SOL    HW1 6695   4.616   2.581   3.146
 1932SOL    HW2 6696   4.651   2.495   3.280
 1933SOL     OW 6697   2.034   3.053   1.067
 1933SOL    HW1 6698   1.968   2.978   1.079
 1933SOL    HW2 6699   2.079   3.044   0.978
 1934SOL     OW 6700   0.091   6.837   5.191
 1934SOL    HW1 6701   0.016   6.900   5.174
 1934SOL    HW2 6702   0.060   6.743   5.175
 1935SOL     OW 6703   4.316   5.895   3.824
 1935SOL    HW1 6704   4.347   5.811   3.869
 1935SOL    HW2 6705   4.376   5.970   3.850
 1936SOL     OW 6706   5.519   4.097   3.682
 1936SOL    HW1 6707   5.456   4.174   3.674
 1936SOL    HW2 6708   5.567   4.084   3.595
 1937SOL     OW 6709   4.439   6.170   0.849
 1937SOL    HW1 6710   4.461   6.116   0.930
 1937SOL    HW2 6711   4.406   6.260   0.877
 1938SOL     OW 6712   1.749   1.589   2.064
 1938SOL    HW1 6713   1.755   1.527   1.986
 1938SOL    HW2 6714   1.654   1.621   2.073
 1939SOL     OW 6715   6.799   6.806   4.397
 1939SOL    HW1 6716   6.731   6.794   4.469
 1939SOL    HW2 6717   6.756   6.847   4.316
 1940SOL     OW 6718   5.871   5.516   0.967
 1940SOL    HW1 6719   5.868   5.616   0.963
 1940SOL    HW2 6720   5.780   5.480   0.952
 1941SOL     OW 6721   1.044   3.386   4.473
 1941SOL    HW1 6722   1.000   3.442   4.403
 1941SOL    HW2 6723   1.059   3.294   4.437
 1942SOL     OW 6724   5.479   3.241   1.380
 1942SOL    HW1 6725   5.441   3.203   1.464
 1942SOL    HW2 6726   5.534   3.322   1.402
 1943SOL     OW 6727   1.965   6.913   3.341
 1943SOL    HW1 6728   2.061   6.917   3.367
 1943SOL    HW2 6729   1.917   6.852   3.404
 1944SOL     OW 6730   6.135   3.068   0.293
 1944SOL    HW1 6731   6.152   3.158   0.253
 1944SOL    HW2 6732   6.215   3.040   0.346
 1945SOL     OW 6733   3.971   5.526   0.481
 1945SOL    HW1 6734   4.061   5.510   0.439
 1945SOL    HW2 6735   3.900   5.487   0.422
 1946SOL     OW 6736   6.045   6.623   0.972
 1946SOL    HW1 6737   5.988   6.629   0.891
 1946SOL    HW2 6738   6.141   6.627   0.946
 1947SOL     OW 6739   5.189   6.088   4.232
 1947SOL    HW1 6740   5.096   6.118   4.209
 1947SOL    HW2 6741   5.249   6.168   4.240
 1948SOL     OW 6742   6.319   5.351   3.193
 1948SOL    HW1 6743   6.331   5.449   3.210
 1948SOL    HW2 6744   6.320   5.301   3.280
 1949SOL     OW 6745   3.292   3.510   6.568
 1949SOL    HW1 6746   3.370   3.448   6.578
 1949SOL    HW2 6747   3.323   3.598   6.531
 1950SOL     OW 6748   3.834   2.882   1.225
 1950SOL    HW1 6749   3.911   2.853   1.283
 1950SOL    HW2 6750   3.862   2.961   1.170
 1951SOL     OW 6751   6.647   4.927   6.920
 1951SOL    HW1 6752   6.617   5.002   6.861
 1951SOL    HW2 6753   6.570   4.866   6.939
 1952SOL     OW 6754   4.950   4.235   1.316
 1952SOL    HW1 6755   4.861   4.255   1.275
 1952SOL    HW2 6756   4.940   4.162   1.383
 1953SOL     OW 6757   6.057   1.509   5.615
 1953SOL    HW1 6758   5.968   1.536   5.578
 1953SOL    HW2 6759   6.110   1.463   5.544
 1954SOL     OW 6760   6.834   0.330   1.263
 1954SOL    HW1 6761   6.849   0.427   1.280
 1954SOL    HW2 6762   6.859   0.277   1.344
 1955SOL     OW 6763   0.611   0.273   3.152
 1955SOL    HW1 6764   0.586   0.321   3.067
 1955SOL    HW2 6765   0.583   0.329   3.230
 1956SOL     OW 6766   4.626   6.631   1.441
 1956SOL    HW1 6767   4.585   6.671   1.359
 1956SOL    HW2 6768   4.555   6.618   1.510
 1957SOL     OW 6769   5.528   4.363   3.496
 1957SOL    HW1 6770   5.620   4.362   3.534
 1957SOL    HW2 6771   5.496   4.457   3.488
 1958SOL     OW 6772   4.606   1.726   1.971
 1958SOL    HW1 6773   4.627   1.813   1.926
 1958SOL    HW2 6774   4.602   1.741   2.070
 1959SOL     OW 6775   1.405   6.995   3.938
 1959SOL    HW1 6776   1.495   6.963   3.910
 1959SOL    HW2 6777   1.334   6.944   3.890
 1960SOL     OW 6778   0.363   3.937   2.510
 1960SOL    HW1 6779   0.455   3.976   2.498
 1960SOL    HW2 6780   0.297   4.011   2.519
 1961SOL     OW 6781   6.437   4.404   5.110
 1961SOL    HW1 6782   6.482   4.493   5.097
 1961SOL    HW2 6783   6.350   4.418   5.156
 1962SOL     OW 6784   1.464   6.405   2.545
 1962SOL    HW1 6785   1.556   6.372   2.524
 1962SOL    HW2 6786   1.469   6.480   2.610
 1963SOL     OW 6787   0.934   1.701   1.478
 1963SOL    HW1 6788   0.957   1.657   1.392
 1963SOL    HW2 6789   0.868   1.774   1.462
 1964SOL     OW 6790   4.381   4.843   1.625
 1964SOL    HW1 6791   4.479   4.834   1.610
 1964SOL    HW2 6792   4.343   4.910   1.560
 1965SOL     OW 6793   1.381   3.219   4.269
 1965SOL    HW1 6794   1.303   3.212   4.331
 1965SOL    HW2 6795   1.432   3.302   4.288
 1966SOL     OW 6796   0.607   5.901   1.134
 1966SOL    HW1 6797   0.702   5.890   1.107
 1966SOL    HW2 6798   0.603   5.935   1.228
 1967SOL     OW 6799   5.356   3.049   4.154
 1967SOL    HW1 6800   5.405   2.962   4.162
 1967SOL    HW2 6801   5.348   3.092   4.244
 1968SOL     OW 6802   1.830   0.657   5.331
 1968SOL    HW1 6803   1.735   0.675   5.356
 1968SOL    HW2 6804   1.838   0.564   5.294
 1969SOL     OW 6805   2.663   1.577   0.902
 1969SOL    HW1 6806   2.726   1.616   0.970
 1969SOL    HW2 6807   2.612   1.502   0.944
 1970SOL     OW 6808   2.316   6.880   5.710
 1970SOL    HW1 6809   2.265   6.797   5.728
 1970SOL    HW2 6810   2.280   6.955   5.766
 1971SOL     OW 6811   0.193   0.364   5.310
 1971SOL    HW1 6812   0.196   0.328   5.403
 1971SOL    HW2 6813   0.212   0.290   5.245
 1972SOL     OW 6814   5.341   2.220   1.212
 1972SOL    HW1 6815   5.340   2.131   1.167
 1972SOL    HW2 6816   5.381   2.211   1.303
 1973SOL     OW 6817   2.827   3.816   0.548
 1973SOL    HW1 6818   2.886   3.892   0.521
 1973SOL    HW2 6819   2.765   3.793   0.473
 1974SOL     OW 6820   5.324   0.552   4.694
 1974SOL    HW1 6821   5.379   0.631   4.720
 1974SOL    HW2 6822   5.312   0.550   4.595
 1975SOL     OW 6823   1.841   1.773   4.470
 1975SOL    HW1 6824   1.878   1.681   4.466
 1975SOL    HW2 6825   1.745   1.770   4.500
 1976SOL     OW 6826   6.775   6.651   0.330
 1976SOL    HW1 6827   6.706   6.696   0.274
 1976SOL    HW2 6828   6.840   6.603   0.271
 1977SOL     OW 6829   1.937   2.969   5.122
 1977SOL    HW1 6830   1.850   3.010   5.148
 1977SOL    HW2 6831   1.962   2.999   5.030
 1978SOL     OW 6832   1.993   5.760   3.203
 1978SOL    HW1 6833   2.060   5.689   3.226
 1978SOL    HW2 6834   1.953   5.739   3.113
 1979SOL     OW 6835   5.567   4.767   6.873
 1979SOL    HW1 6836   5.594   4.849   6.924
 1979SOL    HW2 6837   5.538   4.792   6.781
 1980SOL     OW 6838   3.755   6.917   4.109
 1980SOL    HW1 6839   3.783   6.900   4.203
 1980SOL    HW2 6840   3.658   6.893   4.098
 1981SOL     OW 6841   5.966   3.747   2.126
 1981SOL    HW1 6842   6.004   3.769   2.216
 1981SOL    HW2 6843   6.039   3.717   2.065
 1982SOL     OW 6844   6.836   4.293   4.178
 1982SOL    HW1 6845   6.768   4.267   4.110
 1982SOL    HW2 6846   6.802   4.371   4.231
 1983SOL     OW 6847   1.508   0.101   1.413
 1983SOL    HW1 6848   1.531   0.195   1.389
 1983SOL    HW2 6849   1.586   0.041   1.393
 1984SOL     OW 6850   5.271   3.075   4.849
 1984SOL    HW1 6851   5.188   3.129   4.840
 1984SOL    HW2 6852   5.297   3.068   4.945
 1985SOL     OW 6853   0.302   6.490   2.787
 1985SOL    HW1 6854   0.385   6.450   2.746
 1985SOL    HW2 6855   0.329   6.557   2.857
 1986SOL     OW 6856   2.960   0.942   6.953
 1986SOL    HW1 6857   2.955   1.016   6.886
 1986SOL    HW2 6858   2.927   0.975   0.019
 1987SOL     OW 6859   2.381   1.824   3.109
 1987SOL    HW1 6860   2.325   1.743   3.091
 1987SOL    HW2 6861   2.477   1.797   3.121
 1988SOL     OW 6862   6.719   3.296   0.635
 1988SOL    HW1 6863   6.713   3.233   0.558
 1988SOL    HW2 6864   6.649   3.366   0.627
 1989SOL     OW 6865   1.994   5.698   5.205
 1989SOL    HW1 6866   1.896   5.709   5.225
 1989SOL    HW2 6867   2.047   5.720   5.287
 1990SOL     OW 6868   3.999   5.721   0.677
 1990SOL    HW1 6869   3.977   5.651   0.609
 1990SOL    HW2 6870   3.925   5.727   0.743
 1991SOL     OW 6871   2.839   5.992   0.014
 1991SOL    HW1 6872   2.921   6.028   6.990
 1991SOL    HW2 6873   2.785   6.068   0.049
 1992SOL     OW 6874   6.999   0.452   0.255
 1992SOL    HW1 6875   0.010   0.533   0.302
 1992SOL    HW2 6876   0.037   0.430   0.178
 1993SOL     OW 6877   3.869   1.773   5.994
 1993SOL    HW1 6878   3.967   1.774   5.973
 1993SOL    HW2 6879   3.818   1.801   5.912
 1994SOL     OW 6880   0.120   2.206   0.638
 1994SOL    HW1 6881   0.034   2.245   0.670
 1994SOL    HW2 6882   0.170   2.274   0.585
 1995SOL     OW 6883   4.770   2.887   3.474
 1995SOL    HW1 6884   4.798   2.887   3.378
 1995SOL    HW2 6885   4.689   2.830   3.485
 1996SOL     OW 6886   2.364   2.084   0.841
 1996SOL    HW1 6887   2.410   2.154   0.786
 1996SOL    HW2 6888   2.433   2.027   0.885
 1997SOL     OW 6889   3.943   2.101   4.596
 1997SOL    HW1 6890   3.909   2.116   4.503
 1997SOL    HW2 6891   3.866   2.094   4.659
 1998SOL     OW 6892   1.622   3.263   0.650
 1998SOL    HW1 6893   1.589   3.222   0.565
 1998SOL    HW2 6894   1.546   3.308   0.697
 1999SOL     OW 6895   1.892   6.507   6.327
 1999SOL    HW1 6896   1.835   6.537   6.404
 1999SOL    HW2 6897   1.989   6.517   6.352
 2000SOL     OW 6898   3.856   2.618   5.738
 2000SOL    HW1 6899   3.798   2.657   5.667
 2000SOL    HW2 6900   3.847   2.672   5.822
 2001SOL     OW 6901   2.235   0.879   1.573
 2001SOL    HW1 6902   2.264   0.888   1.478
 2001SOL    HW2 6903   2.297   0.818   1.622
 2002SOL     OW 6904   0.452   4.470   0.472
 2002SOL    HW1 6905   0.513   4.396   0.500
 2002SOL    HW2 6906   0.393   4.495   0.548
 2003SOL     OW 6907   6.840   4.920   2.647
 2003SOL    HW1 6908   6.782   4.873   2.580
 2003SOL    HW2 6909   6.845   5.017   2.624
 2004SOL     OW 6910   5.725   1.245   4.208
 2004SOL    HW1 6911   5.657   1.193   4.261
 2004SOL    HW2 6912   5.761   1.186   4.135
 2005SOL     OW 6913   0.294   4.548   0.664
 2005SOL    HW1 6914   0.304   4.545   0.763
 2005SOL    HW2 6915   0.271   4.641   0.636
 2006SOL     OW 6916   5.566   0.290   3.112
 2006SOL    HW1 6917   5.503   0.365   3.090
 2006SOL    HW2 6918   5.655   0.310   3.072
 2007SOL     OW 6919   5.144   4.219   0.881
 2007SOL    HW1 6920   5.047   4.204   0.866
 2007SOL    HW2 6921   5.157   4.267   0.968
 2008SOL     OW 6922   2.206   3.895   3.568
 2008SOL    HW1 6923   2.219   3.853   3.658
 2008SOL    HW2 6924   2.143   3.839   3.514
 2009SOL     OW 6925   5.077   0.147   2.639
 2009SOL    HW1 6926   5.009   0.097   2.692
 2009SOL    HW2 6927   5.158   0.090   2.625
 2010SOL     OW 6928   2.931   1.454   1.522
 2010SOL    HW1 6929   3.015   1.474   1.573
 2010SOL    HW2 6930   2.893   1.538   1.485
 2011SOL     OW 6931   0.477   0.939   4.878
 2011SOL    HW1 6932   0.401   0.938   4.942
 2011SOL    HW2 6933   0.461   1.008   4.807
 2012SOL     OW 6934   1.059   3.765   2.419
 2012SOL    HW1 6935   0.989   3.702   2.386
 2012SOL    HW2 6936   1.071   3.839   2.353
 2013SOL     OW 6937   5.985   2.975   3.617
 2013SOL    HW1 6938   5.980   3.024   3.704
 2013SOL    HW2 6939   5.987   3.041   3.542
 2014SOL     OW 6940   2.641   6.809   3.162
 2014SOL    HW1 6941   2.689   6.731   3.120
 2014SOL    HW2 6942   2.561   6.776   3.212
 2015SOL     OW 6943   2.419   0.264   1.000
 2015SOL    HW1 6944   2.341   0.325   1.011
 2015SOL    HW2 6945   2.409   0.185   1.060
 2016SOL     OW 6946   1.610   5.706   5.972
 2016SOL    HW1 6947   1.563   5.756   5.900
 2016SOL    HW2 6948   1.593   5.751   6.060
 2017SOL     OW 6949   3.913   0.270   3.467
 2017SOL    HW1 6950   4.003   0.228   3.482
 2017SOL    HW2 6951   3.886   0.321   3.549
 2018SOL     OW 6952   5.627   2.956   3.697
 2018SOL    HW1 6953   5.676   3.012   3.631
 2018SOL    HW2 6954   5.691   2.922   3.766
 2019SOL     OW 6955   5.295   3.947   6.584
 2019SOL    HW1 6956   5.384   3.924   6.543
 2019SOL    HW2 6957   5.246   3.863   6.606
 2020SOL     OW 6958   2.070   6.824   6.446
 2020SOL    HW1 6959   2.093   6.821   6.349
 2020SOL    HW2 6960   2.147   6.789   6.499
 2021SOL     OW 6961   6.703   6.576   5.073
 2021SOL    HW1 6962   6.616   6.616   5.046
 2021SOL    HW2 6963   6.749   6.539   4.993
 2022SOL     OW 6964   1.726   4.386   3.685
 2022SOL    HW1 6965   1.658   4.345   3.625
 2022SOL    HW2 6966   1.680   4.424   3.766
 2023SOL     OW 6967   0.486   0.392   6.398
 2023SOL    HW1 6968   0.500   0.301   6.359
 2023SOL    HW2 6969   0.490   0.386   6.498
 2024SOL     OW 6970   0.340   5.621   3.644
 2024SOL    HW1 6971   0.414   5.571   3.599
 2024SOL    HW2 6972   0.325   5.582   3.735
 2025SOL     OW 6973   3.986   0.784   3.944
 2025SOL    HW1 6974   3.986   0.685   3.952
 2025SOL    HW2 6975   3.992   0.810   3.848
 2026SOL     OW 6976   6.337   2.535   6.159
 2026SOL    HW1 6977   6.251   2.499   6.196
 2026SOL    HW2 6978   6.411   2.515   6.222
 2027SOL     OW 6979   1.404   0.356   1.119
 2027SOL    HW1 6980   1.324   0.410   1.091
 2027SOL    HW2 6981   1.376   0.262   1.137
 2028SOL     OW 6982   3.532   5.723   4.912
 2028SOL    HW1 6983   3.548   5.735   5.010
 2028SOL    HW2 6984   3.575   5.639   4.881
 2029SOL     OW 6985   6.171   1.876   0.297
 2029SOL    HW1 6986   6.264   1.845   0.278
 2029SOL    HW2 6987   6.165   1.906   0.392
 2030SOL     OW 6988   2.866   0.568   3.475
 2030SOL    HW1 6989   2.958   0.538   3.500
 2030SOL    HW2 6990   2.822   0.498   3.418
 2031SOL     OW 6991   6.644   5.857   1.429
 2031SOL    HW1 6992   6.574   5.848   1.358
 2031SOL    HW2 6993   6.714   5.788   1.415
 2032SOL     OW 6994   3.843   1.257   1.736
 2032SOL    HW1 6995   3.916   1.324   1.723
 2032SOL    HW2 6996   3.868   1.194   1.810
 2033SOL     OW 6997   2.159   2.205   0.282
 2033SOL    HW1 6998   2.067   2.186   0.249
 2033SOL    HW2 6999   2.204   2.271   0.222
 2034SOL     OW 7000   2.708   4.716   5.711
 2034SOL    HW1 7001   2.690   4.712   5.612
 2034SOL    HW2 7002   2.693   4.809   5.743
 2035SOL     OW 7003   6.414   6.475   3.433
 2035SOL    HW1 7004   6.315   6.487   3.429
 2035SOL    HW2 7005   6.453   6.544   3.494
 2036SOL     OW 7006   1.304   3.388   2.632
 2036SOL    HW1 7007   1.306   3.332   2.549
 2036SOL    HW2 7008   1.357   3.472   2.618
 2037SOL     OW 7009   6.364   2.851   5.806
 2037SOL    HW1 7010   6.383   2.908   5.726
 2037SOL    HW2 7011   6.444   2.848   5.866
 2038SOL     OW 7012   2.226   1.485   0.291
 2038SOL    HW1 7013   2.204   1.407   0.349
 2038SOL    HW2 7014   2.192   1.569   0.333
 2039SOL     OW 7015   6.683   6.071   3.477
 2039SOL    HW1 7016   6.741   6.052   3.555
 2039SOL    HW2 7017   6.666   5.986   3.427
 2040SOL     OW 7018   1.625   2.231   0.104
 2040SOL    HW1 7019   1.607   2.171   0.182
 2040SOL    HW2 7020   1.543   2.283   0.081
 2041SOL     OW 7021   0.869   0.192   4.969
 2041SOL    HW1 7022   0.944   0.126   4.962
 2041SOL    HW2 7023   0.872   0.254   4.891
 2042SOL     OW 7024   5.213   6.120   6.463
 2042SOL    HW1 7025   5.193   6.096   6.368
 2042SOL    HW2 7026   5.186   6.044   6.523
 2043SOL     OW 7027   6.568   2.912   2.767
 2043SOL    HW1 7028   6.574   2.826   2.818
 2043SOL    HW2 7029   6.597   2.987   2.827
 2044SOL     OW 7030   6.279   0.499   1.195
 2044SOL    HW1 7031   6.246   0.588   1.225
 2044SOL    HW2 7032   6.332   0.509   1.110
 2045SOL     OW 7033   1.333   4.619   4.338
 2045SOL    HW1 7034   1.265   4.553   4.308
 2045SOL    HW2 7035   1.416   4.571   4.368
 2046SOL     OW 7036   6.144   1.698   4.979
 2046SOL    HW1 7037   6.092   1.782   4.960
 2046SOL    HW2 7038   6.190   1.707   5.067
 2047SOL     OW 7039   7.002   2.479   0.301
 2047SOL    HW1 7040   6.996   2.483   0.401
 2047SOL    HW2 7041   6.925   2.425   0.266
 2048SOL     OW 7042   6.982   0.041   5.010
 2048SOL    HW1 7043   6.932   0.103   4.949
 2048SOL    HW2 7044   6.994   6.975   4.965
 2049SOL     OW 7045   5.822   1.462   4.322
 2049SOL    HW1 7046   5.780   1.546   4.288
 2049SOL    HW2 7047   5.771   1.383   4.289
 2050SOL     OW 7048   6.511   2.735   4.235
 2050SOL    HW1 7049   6.441   2.672   4.269
 2050SOL    HW2 7050   6.601   2.696   4.252
 2051SOL     OW 7051   1.746   6.241   6.603
 2051SOL    HW1 7052   1.748   6.141   6.610
 2051SOL    HW2 7053   1.813   6.271   6.536
 2052SOL     OW 7054   1.624   2.527   1.024
 2052SOL    HW1 7055   1.695   2.463   0.994
 2052SOL    HW2 7056   1.609   2.596   0.953
 2053SOL     OW 7057   6.932   5.449   4.708
 2053SOL    HW1 7058   6.833   5.447   4.694
 2053SOL    HW2 7059   6.966   5.356   4.722
 2054SOL     OW 7060   3.357   3.847   2.974
 2054SOL    HW1 7061   3.315   3.777   3.032
 2054SOL    HW2 7062   3.443   3.813   2.937
 2055SOL     OW 7063   5.950   2.944   4.688
 2055SOL    HW1 7064   5.979   3.031   4.649
 2055SOL    HW2 7065   6.029   2.896   4.725
 2056SOL     OW 7066   4.145   5.612   1.223
 2056SOL    HW1 7067   4.212   5.606   1.298
 2056SOL    HW2 7068   4.062   5.563   1.248
 2057SOL     OW 7069   4.906   3.946   5.795
 2057SOL    HW1 7070   4.948   3.949   5.885
 2057SOL    HW2 7071   4.976   3.926   5.726
 2058SOL     OW 7072   0.378   6.619   2.467
 2058SOL    HW1 7073   0.462   6.588   2.424
 2058SOL    HW2 7074   0.363   6.568   2.552
 2059SOL     OW 7075   2.049   6.384   6.959
 2059SOL    HW1 7076   2.015   6.320   6.890
 2059SOL    HW2 7077   2.069   6.335   0.021
 2060SOL     OW 7078   0.659   3.898   1.881
 2060SOL    HW1 7079   0.711   3.893   1.966
 2060SOL    HW2 7080   0.618   3.808   1.862
 2061SOL     OW 7081   1.671   2.109   2.759
 2061SOL    HW1 7082   1.744   2.146   2.816
 2061SOL    HW2 7083   1.636   2.181   2.699
 2062SOL     OW 7084   0.114   6.273   5.564
 2062SOL    HW1 7085   0.107   6.313   5.473
 2062SOL    HW2 7086   0.058   6.325   5.629
 2063SOL     OW 7087   1.073   6.394   5.118
 2063SOL    HW1 7088   1.010   6.363   5.046
 2063SOL    HW2 7089   1.020   6.428   5.196
 2064SOL     OW 7090   0.075   2.277   4.814
 2064SOL    HW1 7091   7.007   2.287   4.856
 2064SOL    HW2 7092   0.123   2.200   4.857
 2065SOL     OW 7093   6.325   2.796   6.202
 2065SOL    HW1 7094   6.389   2.796   6.279
 2065SOL    HW2 7095   6.307   2.701   6.174
 2066SOL     OW 7096   6.852   4.050   5.303
 2066SOL    HW1 7097   6.775   4.091   5.352
 2066SOL    HW2 7098   6.868   4.100   5.218
 2067SOL     OW 7099   6.854   5.020   1.016
 2067SOL    HW1 7100   6.933   4.973   0.977
 2067SOL    HW2 7101   6.882   5.111   1.049
 2068SOL     OW 7102   3.622   0.296   4.036
 2068SOL    HW1 7103   3.689   0.223   4.048
 2068SOL    HW2 7104   3.579   0.289   3.946
 2069SOL     OW 7105   6.929   2.245   4.097
 2069SOL    HW1 7106   6.849   2.295   4.130
 2069SOL    HW2 7107   6.907   2.148   4.089
 2070SOL     OW 7108   1.001   1.487   0.784
 2070SOL    HW1 7109   0.975   1.554   0.854
 2070SOL    HW2 7110   0.921   1.433   0.759
 2071SOL     OW 7111   6.217   0.752   5.871
 2071SOL    HW1 7112   6.175   0.800   5.948
 2071SOL    HW2 7113   6.298   0.703   5.903
 2072SOL     OW 7114   4.704   5.490   4.565
 2072SOL    HW1 7115   4.792   5.445   4.551
 2072SOL    HW2 7116   4.648   5.434   4.626
 2073SOL     OW 7117   4.452   6.144   5.386
 2073SOL    HW1 7118   4.462   6.242   5.397
 2073SOL    HW2 7119   4.477   6.118   5.292
 2074SOL     OW 7120   1.762   2.750   6.673
 2074SOL    HW1 7121   1.794   2.820   6.609
 2074SOL    HW2 7122   1.841   2.703   6.713
 2075SOL     OW 7123   6.747   2.663   2.882
 2075SOL    HW1 7124   6.836   2.619   2.871
 2075SOL    HW2 7125   6.681   2.622   2.819
 2076SOL     OW 7126   5.517   6.160   6.108
 2076SOL    HW1 7127   5.511   6.243   6.163
 2076SOL    HW2 7128   5.481   6.082   6.160
 2077SOL     OW 7129   6.835   2.233   2.004
 2077SOL    HW1 7130   6.915   2.182   1.971
 2077SOL    HW2 7131   6.762   2.169   2.029
 2078SOL     OW 7132   2.210   5.251   6.543
 2078SOL    HW1 7133   2.260   5.321   6.593
 2078SOL    HW2 7134   2.226   5.162   6.586
 2079SOL     OW 7135   0.259   1.084   2.983
 2079SOL    HW1 7136   0.253   1.183   2.994
 2079SOL    HW2 7137   0.202   1.056   2.906
 2080SOL     OW 7138   2.705   0.979   4.837
 2080SOL    HW1 7139   2.643   0.929   4.898
 2080SOL    HW2 7140   2.661   0.992   4.748
 2081SOL     OW 7141   0.990   6.853   4.498
 2081SOL    HW1 7142   0.930   6.888   4.426
 2081SOL    HW2 7143   1.006   6.756   4.483
 2082SOL     OW 7144   0.986   6.435   3.621
 2082SOL    HW1 7145   0.952   6.366   3.557
 2082SOL    HW2 7146   1.052   6.393   3.683
 2083SOL     OW 7147   1.453   6.130   5.140
 2083SOL    HW1 7148   1.515   6.134   5.219
 2083SOL    HW2 7149   1.485   6.195   5.070
 2084SOL     OW 7150   0.889   2.628   2.139
 2084SOL    HW1 7151   0.811   2.685   2.113
 2084SOL    HW2 7152   0.973   2.679   2.122
 2085SOL     OW 7153   4.728   6.651   1.026
 2085SOL    HW1 7154   4.824   6.638   1.003
 2085SOL    HW2 7155   4.707   6.749   1.026
 2086SOL     OW 7156   3.597   5.912   0.207
 2086SOL    HW1 7157   3.637   5.995   0.246
 2086SOL    HW2 7158   3.585   5.924   0.109
 2087SOL     OW 7159   4.513   2.184   0.970
 2087SOL    HW1 7160   4.462   2.135   1.041
 2087SOL    HW2 7161   4.527   2.124   0.892
 2088SOL     OW 7162   1.598   5.696   6.467
 2088SOL    HW1 7163   1.546   5.629   6.414
 2088SOL    HW2 7164   1.562   5.701   6.560
 2089SOL     OW 7165   4.395   2.359   5.439
 2089SOL    HW1 7166   4.431   2.444   5.477
 2089SOL    HW2 7167   4.429   2.282   5.493
 2090SOL     OW 7168   4.927   2.939   5.475
 2090SOL    HW1 7169   5.002   2.874   5.490
 2090SOL    HW2 7170   4.909   2.988   5.560
 2091SOL     OW 7171   0.021   5.763   1.112
 2091SOL    HW1 7172   0.117   5.736   1.100
 2091SOL    HW2 7173   6.986   5.711   1.049
 2092SOL     OW 7174   5.708   3.385   0.677
 2092SOL    HW1 7175   5.729   3.444   0.599
 2092SOL    HW2 7176   5.778   3.395   0.747
 2093SOL     OW 7177   3.248   1.750   1.785
 2093SOL    HW1 7178   3.189   1.764   1.864
 2093SOL    HW2 7179   3.312   1.826   1.776
 2094SOL     OW 7180   5.222   1.562   1.292
 2094SOL    HW1 7181   5.177   1.642   1.331
 2094SOL    HW2 7182   5.260   1.585   1.202
 2095SOL     OW 7183   5.971   6.731   3.891
 2095SOL    HW1 7184   5.876   6.703   3.876
 2095SOL    HW2 7185   5.975   6.798   3.965
 2096SOL     OW 7186   4.572   5.545   3.370
 2096SOL    HW1 7187   4.595   5.570   3.276
 2096SOL    HW2 7188   4.601   5.618   3.432
 2097SOL     OW 7189   2.863   3.376   6.904
 2097SOL    HW1 7190   2.917   3.360   6.988
 2097SOL    HW2 7191   2.909   3.446   6.849
 2098SOL     OW 7192   3.987   6.045   2.939
 2098SOL    HW1 7193   3.912   6.064   3.002
 2098SOL    HW2 7194   4.073   6.076   2.979
 2099SOL     OW 7195   4.521   1.237   6.987
 2099SOL    HW1 7196   4.613   1.239   6.946
 2099SOL    HW2 7197   4.524   1.284   0.053
 2100SOL     OW 7198   5.195   1.528   0.383
 2100SOL    HW1 7199   5.142   1.445   0.367
 2100SOL    HW2 7200   5.133   1.606   0.391
 2101SOL     OW 7201   6.947   6.002   1.097
 2101SOL    HW1 7202   7.004   5.921   1.082
 2101SOL    HW2 7203   6.991   6.060   1.166
 2102SOL     OW 7204   4.659   3.617   1.610
 2102SOL    HW1 7205   4.727   3.596   1.681
 2102SOL    HW2 7206   4.598   3.688   1.644
 2103SOL     OW 7207   3.933   3.917   0.378
 2103SOL    HW1 7208   4.011   3.855   0.380
 2103SOL    HW2 7209   3.854   3.872   0.419
 2104SOL     OW 7210   1.386   4.598   1.870
 2104SOL    HW1 7211   1.292   4.565   1.872
 2104SOL    HW2 7212   1.436   4.554   1.795
 2105SOL     OW 7213   4.424   5.121   6.991
 2105SOL    HW1 7214   4.401   5.028   6.963
 2105SOL    HW2 7215   4.483   5.118   0.049
 2106SOL     OW 7216   4.910   3.810   0.941
 2106SOL    HW1 7217   4.927   3.715   0.966
 2106SOL    HW2 7218   4.835   3.815   0.875
 2107SOL     OW 7219   5.927   2.605   5.608
 2107SOL    HW1 7220   5.924   2.701   5.633
 2107SOL    HW2 7221   5.919   2.548   5.690
 2108SOL     OW 7222   6.098   5.673   4.835
 2108SOL    HW1 7223   6.075   5.688   4.739
 2108SOL    HW2 7224   6.014   5.663   4.888
 2109SOL     OW 7225   3.066   6.008   2.545
 2109SOL    HW1 7226   3.100   6.014   2.451
 2109SOL    HW2 7227   3.128   5.951   2.598
 2110SOL     OW 7228   3.583   0.627   6.147
 2110SOL    HW1 7229   3.546   0.613   6.239
 2110SOL    HW2 7230   3.681   0.648   6.153
 2111SOL     OW 7231   1.750   3.242   5.404
 2111SOL    HW1 7232   1.758   3.151   5.445
 2111SOL    HW2 7233   1.708   3.305   5.469
 2112SOL     OW 7234   4.935   2.137   6.978
 2112SOL    HW1 7235   4.922   2.124   0.053
 2112SOL    HW2 7236   5.032   2.123   6.955
 2113SOL     OW 7237   1.929   0.145   5.214
 2113SOL    HW1 7238   1.916   0.143   5.115
 2113SOL    HW2 7239   1.906   0.055   5.252
 2114SOL     OW 7240   1.959   2.550   6.780
 2114SOL    HW1 7241   1.960   2.497   6.864
 2114SOL    HW2 7242   2.052   2.564   6.747
 2115SOL     OW 7243   0.737   4.321   2.430
 2115SOL    HW1 7244   0.703   4.407   2.391
 2115SOL    HW2 7245   0.833   4.309   2.407
 2116SOL     OW 7246   1.220   3.237   1.441
 2116SOL    HW1 7247   1.304   3.187   1.461
 2116SOL    HW2 7248   1.177   3.266   1.527
 2117SOL     OW 7249   5.551   4.054   1.222
 2117SOL    HW1 7250   5.539   3.984   1.152
 2117SOL    HW2 7251   5.632   4.035   1.277
 2118SOL     OW 7252   6.438   3.494   2.414
 2118SOL    HW1 7253   6.496   3.543   2.479
 2118SOL    HW2 7254   6.352   3.470   2.458
 2119SOL     OW 7255   1.918   1.172   0.917
 2119SOL    HW1 7256   1.875   1.210   0.835
 2119SOL    HW2 7257   2.013   1.201   0.921
 2120SOL     OW 7258   0.077   2.914   2.079
 2120SOL    HW1 7259   7.012   2.875   2.107
 2120SOL    HW2 7260   0.131   2.937   2.160
 2121SOL     OW 7261   1.976   2.782   5.952
 2121SOL    HW1 7262   1.999   2.697   5.904
 2121SOL    HW2 7263   1.965   2.855   5.885
 2122SOL     OW 7264   5.793   6.223   5.593
 2122SOL    HW1 7265   5.820   6.257   5.682
 2122SOL    HW2 7266   5.838   6.136   5.575
 2123SOL     OW 7267   6.452   6.459   2.132
 2123SOL    HW1 7268   6.439   6.413   2.044
 2123SOL    HW2 7269   6.546   6.445   2.164
 2124SOL     OW 7270   2.937   1.681   0.100
 2124SOL    HW1 7271   2.952   1.706   0.004
 2124SOL    HW2 7272   3.010   1.618   0.129
 2125SOL     OW 7273   0.695   5.450   2.256
 2125SOL    HW1 7274   0.645   5.510   2.194
 2125SOL    HW2 7275   0.772   5.409   2.208
 2126SOL     OW 7276   3.656   2.792   6.157
 2126SOL    HW1 7277   3.578   2.744   6.117
 2126SOL    HW2 7278   3.624   2.851   6.231
 2127SOL     OW 7279   0.920   1.842   5.510
 2127SOL    HW1 7280   0.861   1.920   5.530
 2127SOL    HW2 7281   0.866   1.758   5.513
 2128SOL     OW 7282   5.849   2.492   1.496
 2128SOL    HW1 7283   5.763   2.541   1.503
 2128SOL    HW2 7284   5.846   2.429   1.419
 2129SOL     OW 7285   4.386   4.582   4.347
 2129SOL    HW1 7286   4.447   4.661   4.350
 2129SOL    HW2 7287   4.302   4.604   4.398
 2130SOL     OW 7288   2.578   1.115   1.646
 2130SOL    HW1 7289   2.582   1.019   1.673
 2130SOL    HW2 7290   2.654   1.165   1.689
 2131SOL     OW 7291   4.807   1.659   1.004
 2131SOL    HW1 7292   4.898   1.691   0.979
 2131SOL    HW2 7293   4.788   1.572   0.957
 2132SOL     OW 7294   3.055   1.259   0.100
 2132SOL    HW1 7295   3.057   1.232   0.004
 2132SOL    HW2 7296   3.009   1.189   0.154
 2133SOL     OW 7297   3.406   2.145   0.866
 2133SOL    HW1 7298   3.313   2.178   0.880
 2133SOL    HW2 7299   3.434   2.088   0.944
 2134SOL     OW 7300   0.952   0.894   4.719
 2134SOL    HW1 7301   1.038   0.910   4.767
 2134SOL    HW2 7302   0.961   0.815   4.659
 2135SOL     OW 7303   0.418   1.500   4.577
 2135SOL    HW1 7304   0.485   1.438   4.617
 2135SOL    HW2 7305   0.438   1.512   4.480
 2136SOL     OW 7306   1.504   3.452   4.314
 2136SOL    HW1 7307   1.443   3.504   4.254
 2136SOL    HW2 7308   1.512   3.499   4.402
 2137SOL     OW 7309   0.433   6.499   4.293
 2137SOL    HW1 7310   0.365   6.568   4.270
 2137SOL    HW2 7311   0.467   6.456   4.209
 2138SOL     OW 7312   6.162   2.797   1.946
 2138SOL    HW1 7313   6.101   2.805   2.024
 2138SOL    HW2 7314   6.148   2.875   1.884
 2139SOL     OW 7315   3.973   1.208   3.370
 2139SOL    HW1 7316   3.926   1.296   3.383
 2139SOL    HW2 7317   4.071   1.222   3.384
 2140SOL     OW 7318   2.989   6.135   3.476
 2140SOL    HW1 7319   3.041   6.144   3.391
 2140SOL    HW2 7320   2.996   6.219   3.529
 2141SOL     OW 7321   6.587   3.092   1.436
 2141SOL    HW1 7322   6.657   3.108   1.367
 2141SOL    HW2 7323   6.527   3.017   1.405
 2142SOL     OW 7324   1.377   2.041   3.449
 2142SOL    HW1 7325   1.408   1.991   3.530
 2142SOL    HW2 7326   1.279   2.028   3.437
 2143SOL     OW 7327   3.140   4.973   1.071
 2143SOL    HW1 7328   3.056   4.998   1.023
 2143SOL    HW2 7329   3.199   5.053   1.080
 2144SOL     OW 7330   1.947   0.747   2.737
 2144SOL    HW1 7331   1.990   0.786   2.818
 2144SOL    HW2 7332   1.847   0.750   2.747
 2145SOL     OW 7333   3.566   5.596   4.110
 2145SOL    HW1 7334   3.650   5.554   4.142
 2145SOL    HW2 7335   3.550   5.570   4.014
 2146SOL     OW 7336   3.003   3.772   2.164
 2146SOL    HW1 7337   2.945   3.691   2.158
 2146SOL    HW2 7338   3.031   3.800   2.072
 2147SOL     OW 7339   6.673   1.070   0.253
 2147SOL    HW1 7340   6.768   1.100   0.254
 2147SOL    HW2 7341   6.616   1.138   0.207
 2148SOL     OW 7342   5.082   3.132   4.312
 2148SOL    HW1 7343   5.159   3.191   4.289
 2148SOL    HW2 7344   5.115   3.052   4.362
 2149SOL     OW 7345   3.692   0.458   1.121
 2149SOL    HW1 7346   3.774   0.469   1.065
 2149SOL    HW2 7347   3.670   0.545   1.166
 2150SOL     OW 7348   3.235   2.059   2.291
 2150SOL    HW1 7349   3.278   2.035   2.204
 2150SOL    HW2 7350   3.151   2.111   2.274
 2151SOL     OW 7351   2.465   1.541   4.476
 2151SOL    HW1 7352   2.442   1.444   4.473
 2151SOL    HW2 7353   2.558   1.552   4.511
 2152SOL     OW 7354   4.075   6.427   2.333
 2152SOL    HW1 7355   4.029   6.490   2.395
 2152SOL    HW2 7356   4.022   6.342   2.327
 2153SOL     OW 7357   4.269   0.730   3.720
 2153SOL    HW1 7358   4.281   0.681   3.806
 2153SOL    HW2 7359   4.186   0.786   3.725
 2154SOL     OW 7360   3.483   5.974   4.862
 2154SOL    HW1 7361   3.557   6.008   4.919
 2154SOL    HW2 7362   3.460   5.881   4.890
 2155SOL     OW 7363   1.599   5.087   0.308
 2155SOL    HW1 7364   1.559   5.098   0.217
 2155SOL    HW2 7365   1.697   5.068   0.299
 2156SOL     OW 7366   2.657   0.247   1.786
 2156SOL    HW1 7367   2.571   0.196   1.789
 2156SOL    HW2 7368   2.733   0.187   1.811
 2157SOL     OW 7369   6.573   1.012   3.021
 2157SOL    HW1 7370   6.550   1.084   2.955
 2157SOL    HW2 7371   6.493   0.955   3.038
 2158SOL     OW 7372   3.958   6.632   0.835
 2158SOL    HW1 7373   3.920   6.724   0.845
 2158SOL    HW2 7374   3.963   6.588   0.925
 2159SOL     OW 7375   1.612   6.144   5.372
 2159SOL    HW1 7376   1.684   6.077   5.388
 2159SOL    HW2 7377   1.531   6.120   5.425
 2160SOL     OW 7378   4.309   3.661   1.736
 2160SOL    HW1 7379   4.255   3.732   1.782
 2160SOL    HW2 7380   4.336   3.693   1.646
 2161SOL     OW 7381   5.236   3.413   3.649
 2161SOL    HW1 7382   5.150   3.362   3.659
 2161SOL    HW2 7383   5.216   3.503   3.610
 2162SOL     OW 7384   2.544   0.416   0.483
 2162SOL    HW1 7385   2.619   0.434   0.546
 2162SOL    HW2 7386   2.462   0.465   0.513
 2163SOL     OW 7387   0.117   5.478   6.278
 2163SOL    HW1 7388   0.127   5.534   6.196
 2163SOL    HW2 7389   0.147   5.384   6.259
 2164SOL     OW 7390   1.739   1.573   0.149
 2164SOL    HW1 7391   1.748   1.671   0.134
 2164SOL    HW2 7392   1.654   1.554   0.197
 2165SOL     OW 7393   1.381   1.466   3.157
 2165SOL    HW1 7394   1.315   1.392   3.150
 2165SOL    HW2 7395   1.450   1.443   3.225
 2166SOL     OW 7396   2.168   2.212   5.551
 2166SOL    HW1 7397   2.109   2.199   5.630
 2166SOL    HW2 7398   2.183   2.310   5.536
 2167SOL     OW 7399   2.477   0.175   2.374
 2167SOL    HW1 7400   2.531   0.126   2.442
 2167SOL    HW2 7401   2.392   0.125   2.357
 2168SOL     OW 7402   6.485   2.184   4.242
 2168SOL    HW1 7403   6.429   2.222   4.316
 2168SOL    HW2 7404   6.435   2.111   4.197
 2169SOL     OW 7405   5.597   2.072   6.370
 2169SOL    HW1 7406   5.573   2.163   6.335
 2169SOL    HW2 7407   5.684   2.043   6.330
 2170SOL     OW 7408   5.954   4.777   5.237
 2170SOL    HW1 7409   5.932   4.680   5.239
 2170SOL    HW2 7410   5.888   4.825   5.179
 2171SOL     OW 7411   6.149   2.903   0.686
 2171SOL    HW1 7412   6.102   2.979   0.640
 2171SOL    HW2 7413   6.247   2.906   0.664
 2172SOL     OW 7414   2.848   1.471   0.669
 2172SOL    HW1 7415   2.889   1.443   0.582
 2172SOL    HW2 7416   2.766   1.418   0.686
 2173SOL     OW 7417   3.758   0.571   5.501
 2173SOL    HW1 7418   3.674   0.548   5.452
 2173SOL    HW2 7419   3.748   0.662   5.542
 2174SOL     OW 7420   6.449   4.977   5.852
 2174SOL    HW1 7421   6.439   4.920   5.933
 2174SOL    HW2 7422   6.445   4.920   5.770
 2175SOL     OW 7423   2.809   2.175   3.009
 2175SOL    HW1 7424   2.811   2.194   3.107
 2175SOL    HW2 7425   2.896   2.201   2.968
 2176SOL     OW 7426   1.024   2.203   1.489
 2176SOL    HW1 7427   0.929   2.203   1.520
 2176SOL    HW2 7428   1.066   2.291   1.510
 2177SOL     OW 7429   6.468   0.548   1.929
 2177SOL    HW1 7430   6.541   0.492   1.889
 2177SOL    HW2 7431   6.453   0.521   2.024
 2178SOL     OW 7432   0.911   4.331   0.530
 2178SOL    HW1 7433   0.868   4.353   0.443
 2178SOL    HW2 7434   1.006   4.304   0.515
 2179SOL     OW 7435   2.023   5.436   4.376
 2179SOL    HW1 7436   2.043   5.475   4.466
 2179SOL    HW2 7437   2.109   5.420   4.327
 2180SOL     OW 7438   2.933   3.226   1.828
 2180SOL    HW1 7439   2.967   3.298   1.768
 2180SOL    HW2 7440   2.989   3.144   1.817
 2181SOL     OW 7441   4.450   4.218   6.039
 2181SOL    HW1 7442   4.385   4.153   6.079
 2181SOL    HW2 7443   4.517   4.246   6.108
 2182SOL     OW 7444   6.346   3.225   6.190
 2182SOL    HW1 7445   6.286   3.146   6.207
 2182SOL    HW2 7446   6.391   3.215   6.102
 2183SOL     OW 7447   3.722   3.789   0.455
 2183SOL    HW1 7448   3.708   3.719   0.384
 2183SOL    HW2 7449   3.701   3.750   0.544
 2184SOL     OW 7450   3.309   0.941   5.297
 2184SOL    HW1 7451   3.317   1.041   5.293
 2184SOL    HW2 7452   3.399   0.900   5.284
 2185SOL     OW 7453   1.957   1.449   1.541
 2185SOL    HW1 7454   1.911   1.511   1.604
 2185SOL    HW2 7455   1.925   1.356   1.556
 2186SOL     OW 7456   0.188   4.415   2.267
 2186SOL    HW1 7457   0.235   4.358   2.335
 2186SOL    HW2 7458   0.104   4.451   2.306
 2187SOL     OW 7459   0.501   0.967   1.820
 2187SOL    HW1 7460   0.533   1.043   1.876
 2187SOL    HW2 7461   0.409   0.988   1.787
 2188SOL     OW 7462   4.624   5.707   3.792
 2188SOL    HW1 7463   4.559   5.694   3.866
 2188SOL    HW2 7464   4.716   5.682   3.822
 2189SOL     OW 7465   1.216   6.775   6.193
 2189SOL    HW1 7466   1.160   6.709   6.244
 2189SOL    HW2 7467   1.264   6.835   6.257
 2190SOL     OW 7468   6.440   2.273   1.489
 2190SOL    HW1 7469   6.460   2.175   1.485
 2190SOL    HW2 7470   6.366   2.294   1.425
 2191SOL     OW 7471   3.851   2.066   6.391
 2191SOL    HW1 7472   3.828   2.123   6.313
 2191SOL    HW2 7473   3.796   2.092   6.470
 2192SOL     OW 7474   4.145   0.133   4.767
 2192SOL    HW1 7475   4.154   0.223   4.807
 2192SOL    HW2 7476   4.235   0.096   4.745
 2193SOL     OW 7477   6.686   5.658   6.084
 2193SOL    HW1 7478   6.775   5.699   6.063
 2193SOL    HW2 7479   6.663   5.676   6.180
 2194SOL     OW 7480   2.545   5.500   0.257
 2194SOL    HW1 7481   2.583   5.407   0.255
 2194SOL    HW2 7482   2.523   5.528   0.164
 2195SOL     OW 7483   6.893   6.793   2.033
 2195SOL    HW1 7484   6.800   6.793   1.996
 2195SOL    HW2 7485   6.943   6.873   1.998
 2196SOL     OW 7486   2.130   0.378   5.858
 2196SOL    HW1 7487   2.090   0.461   5.820
 2196SOL    HW2 7488   2.216   0.401   5.905
 2197SOL     OW 7489   5.017   4.033   1.555
 2197SOL    HW1 7490   4.985   3.962   1.618
 2197SOL    HW2 7491   5.089   3.996   1.497
 2198SOL     OW 7492   6.886   2.609   6.969
 2198SOL    HW1 7493   6.925   2.517   6.981
 2198SOL    HW2 7494   6.958   2.677   6.983
 2199SOL     OW 7495   4.945   6.974   1.127
 2199SOL    HW1 7496   5.033   6.928   1.138
 2199SOL    HW2 7497   4.951   0.019   1.053
 2200SOL     OW 7498   4.102   0.380   4.400
 2200SOL    HW1 7499   4.186   0.413   4.443
 2200SOL    HW2 7500   4.061   0.311   4.460
 2201SOL     OW 7501   6.142   4.029   2.453
 2201SOL    HW1 7502   6.239   4.041   2.432
 2201SOL    HW2 7503   6.112   3.938   2.423
 2202SOL     OW 7504   3.257   5.377   4.835
 2202SOL    HW1 7505   3.230   5.472   4.846
 2202SOL    HW2 7506   3.268   5.335   4.926
 2203SOL     OW 7507   3.192   1.904   2.870
 2203SOL    HW1 7508   3.196   1.976   2.939
 2203SOL    HW2 7509   3.128   1.931   2.798
 2204SOL     OW 7510   3.670   1.499   6.774
 2204SOL    HW1 7511   3.643   1.570   6.838
 2204SOL    HW2 7512   3.589   1.459   6.732
 2205SOL     OW 7513   1.112   0.346   6.698
 2205SOL    HW1 7514   1.183   0.332   6.630
 2205SOL    HW2 7515   1.137   0.298   6.783
 2206SOL     OW 7516   3.173   4.003   5.558
 2206SOL    HW1 7517   3.114   3.934   5.515
 2206SOL    HW2 7518   3.257   4.013   5.506
 2207SOL     OW 7519   1.889   4.398   6.460
 2207SOL    HW1 7520   1.881   4.299   6.444
 2207SOL    HW2 7521   1.916   4.414   6.555
 2208SOL     OW 7522   1.552   4.497   1.673
 2208SOL    HW1 7523   1.480   4.444   1.628
 2208SOL    HW2 7524   1.604   4.548   1.604
 2209SOL     OW 7525   1.426   6.065   5.560
 2209SOL    HW1 7526   1.376   6.107   5.636
 2209SOL    HW2 7527   1.371   5.992   5.521
 2210SOL     OW 7528   0.908   5.295   3.065
 2210SOL    HW1 7529   0.864   5.274   3.152
 2210SOL    HW2 7530   0.939   5.390   3.065
 2211SOL     OW 7531   5.316   1.470   5.705
 2211SOL    HW1 7532   5.295   1.543   5.770
 2211SOL    HW2 7533   5.251   1.473   5.629
 2212SOL     OW 7534   0.441   6.374   6.799
 2212SOL    HW1 7535   0.354   6.349   6.840
 2212SOL    HW2 7536   0.481   6.294   6.754
 2213SOL     OW 7537   4.516   2.610   4.887
 2213SOL    HW1 7538   4.416   2.608   4.888
 2213SOL    HW2 7539   4.548   2.701   4.913
 2214SOL     OW 7540   4.583   0.721   5.405
 2214SOL    HW1 7541   4.516   0.794   5.389
 2214SOL    HW2 7542   4.554   0.638   5.358
 2215SOL     OW 7543   6.932   0.954   5.683
 2215SOL    HW1 7544   0.004   0.982   5.667
 2215SOL    HW2 7545   6.883   1.025   5.733
 2216SOL     OW 7546   1.637   0.569   6.649
 2216SOL    HW1 7547   1.625   0.546   6.745
 2216SOL    HW2 7548   1.729   0.606   6.634
 2217SOL     OW 7549   3.319   0.265   1.142
 2217SOL    HW1 7550   3.395   0.202   1.158
 2217SOL    HW2 7551   3.233   0.216   1.151
 2218SOL     OW 7552   1.024   6.636   0.625
 2218SOL    HW1 7553   0.930   6.671   0.627
 2218SOL    HW2 7554   1.076   6.685   0.555
 2219SOL     OW 7555   1.541   3.986   3.274
 2219SOL    HW1 7556   1.563   3.901   3.226
 2219SOL    HW2 7557   1.603   4.058   3.244
 2220SOL     OW 7558   0.432   1.382   3.941
 2220SOL    HW1 7559   0.361   1.450   3.958
 2220SOL    HW2 7560   0.442   1.324   4.022
 2221SOL     OW 7561   0.154   1.522   0.109
 2221SOL    HW1 7562   0.073   1.503   0.165
 2221SOL    HW2 7563   0.183   1.617   0.123
 2222SOL     OW 7564   3.819   0.743   0.799
 2222SOL    HW1 7565   3.815   0.843   0.802
 2222SOL    HW2 7566   3.885   0.716   0.729
 2223SOL     OW 7567   5.568   5.319   3.467
 2223SOL    HW1 7568   5.472   5.349   3.473
 2223SOL    HW2 7569   5.571   5.222   3.442
 2224SOL     OW 7570   1.548   4.535   1.286
 2224SOL    HW1 7571   1.609   4.577   1.354
 2224SOL    HW2 7572   1.592   4.537   1.196
 2225SOL     OW 7573   6.496   4.768   2.830
 2225SOL    HW1 7574   6.409   4.748   2.875
 2225SOL    HW2 7575   6.566   4.787   2.899
 2226SOL     OW 7576   3.634   3.296   0.682
 2226SOL    HW1 7577   3.621   3.310   0.584
 2226SOL    HW2 7578   3.712   3.235   0.697
 2227SOL     OW 7579   6.312   4.370   6.797
 2227SOL    HW1 7580   6.244   4.297   6.807
 2227SOL    HW2 7581   6.371   4.350   6.719
 2228SOL     OW 7582   3.243   5.648   0.935
 2228SOL    HW1 7583   3.229   5.714   1.008
 2228SOL    HW2 7584   3.195   5.678   0.853
 2229SOL     OW 7585   4.685   1.908   3.935
 2229SOL    HW1 7586   4.705   1.917   3.837
 2229SOL    HW2 7587   4.591   1.878   3.948
 2230SOL     OW 7588   1.202   6.360   3.795
 2230SOL    HW1 7589   1.175   6.404   3.881
 2230SOL    HW2 7590   1.292   6.319   3.806
 2231SOL     OW 7591   1.768   1.977   2.308
 2231SOL    HW1 7592   1.743   1.882   2.289
 2231SOL    HW2 7593   1.695   2.021   2.360
 2232SOL     OW 7594   0.722   3.131   4.354
 2232SOL    HW1 7595   0.677   3.219   4.338
 2232SOL    HW2 7596   0.730   3.115   4.452
 2233SOL     OW 7597   3.222   4.933   0.245
 2233SOL    HW1 7598   3.321   4.944   0.246
 2233SOL    HW2 7599   3.193   4.896   0.157
 2234SOL     OW 7600   4.315   2.384   0.735
 2234SOL    HW1 7601   4.344   2.352   0.825
 2234SOL    HW2 7602   4.242   2.452   0.745
 2235SOL     OW 7603   1.578   0.279   0.452
 2235SOL    HW1 7604   1.533   0.276   0.541
 2235SOL    HW2 7605   1.510   0.258   0.380
 2236SOL     OW 7606   0.876   4.745   0.952
 2236SOL    HW1 7607   0.854   4.776   0.860
 2236SOL    HW2 7608   0.812   4.786   1.017
 2237SOL     OW 7609   6.461   3.583   4.743
 2237SOL    HW1 7610   6.453   3.486   4.769
 2237SOL    HW2 7611   6.494   3.635   4.822
 2238SOL     OW 7612   6.961   5.039   2.393
 2238SOL    HW1 7613   6.973   5.138   2.396
 2238SOL    HW2 7614   7.015   4.996   2.465
 2239SOL     OW 7615   3.891   4.882   3.871
 2239SOL    HW1 7616   3.949   4.916   3.945
 2239SOL    HW2 7617   3.933   4.800   3.831
 2240SOL     OW 7618   6.405   5.227   3.418
 2240SOL    HW1 7619   6.341   5.242   3.494
 2240SOL    HW2 7620   6.449   5.138   3.429
 2241SOL     OW 7621   6.960   6.103   2.368
 2241SOL    HW1 7622   7.008   6.170   2.424
 2241SOL    HW2 7623   7.006   6.014   2.375
 2242SOL     OW 7624   5.292   1.152   3.490
 2242SOL    HW1 7625   5.202   1.108   3.479
 2242SOL    HW2 7626   5.279   1.248   3.512
 2243SOL     OW 7627   2.147   6.107   5.163
 2243SOL    HW1 7628   2.086   6.102   5.084
 2243SOL    HW2 7629   2.103   6.156   5.238
 2244SOL     OW 7630   3.769   0.801   3.220
 2244SOL    HW1 7631   3.775   0.859   3.302
 2244SOL    HW2 7632   3.701   0.839   3.157
 2245SOL     OW 7633   0.585   2.137   2.398
 2245SOL    HW1 7634   0.501   2.172   2.357
 2245SOL    HW2 7635   0.658   2.205   2.389
 2246SOL     OW 7636   1.741   2.368   5.809
 2246SOL    HW1 7637   1.715   2.272   5.803
 2246SOL    HW2 7638   1.735   2.411   5.719
 2247SOL     OW 7639   2.703   2.234   6.271
 2247SOL    HW1 7640   2.758   2.300   6.221
 2247SOL    HW2 7641   2.635   2.193   6.210
 2248SOL     OW 7642   5.186   4.515   5.988
 2248SOL    HW1 7643   5.178   4.533   6.086
 2248SOL    HW2 7644   5.271   4.553   5.953
 2249SOL     OW 7645   5.997   6.327   2.841
 2249SOL    HW1 7646   6.014   6.388   2.919
 2249SOL    HW2 7647   5.902   6.335   2.813
 2250SOL     OW 7648   5.403   4.014   0.924
 2250SOL    HW1 7649   5.497   3.985   0.939
 2250SOL    HW2 7650   5.383   4.095   0.979
 2251SOL     OW 7651   6.411   1.715   0.402
 2251SOL    HW1 7652   6.466   1.764   0.468
 2251SOL    HW2 7653   6.462   1.705   0.316
 2252SOL     OW 7654   6.569   2.397   5.236
 2252SOL    HW1 7655   6.619   2.483   5.223
 2252SOL    HW2 7656   6.482   2.415   5.281
 2253SOL     OW 7657   0.922   2.976   6.454
 2253SOL    HW1 7658   0.880   3.066   6.442
 2253SOL    HW2 7659   0.857   2.915   6.500
 2254SOL     OW 7660   2.222   3.117   6.055
 2254SOL    HW1 7661   2.218   3.137   5.957
 2254SOL    HW2 7662   2.316   3.130   6.088
 2255SOL     OW 7663   6.268   2.251   0.919
 2255SOL    HW1 7664   6.318   2.243   0.833
 2255SOL    HW2 7665   6.326   2.221   0.995
 2256SOL     OW 7666   3.952   5.817   2.023
 2256SOL    HW1 7667   3.981   5.738   1.968
 2256SOL    HW2 7668   3.950   5.899   1.965
 2257SOL     OW 7669   1.093   2.466   4.600
 2257SOL    HW1 7670   1.041   2.447   4.684
 2257SOL    HW2 7671   1.165   2.398   4.589
 2258SOL     OW 7672   1.522   5.696   4.188
 2258SOL    HW1 7673   1.521   5.694   4.288
 2258SOL    HW2 7674   1.431   5.676   4.153
 2259SOL     OW 7675   4.995   3.734   6.234
 2259SOL    HW1 7676   5.089   3.701   6.244
 2259SOL    HW2 7677   4.933   3.656   6.220
 2260SOL     OW 7678   4.518   4.408   2.957
 2260SOL    HW1 7679   4.503   4.410   2.858
 2260SOL    HW2 7680   4.612   4.378   2.975
 2261SOL     OW 7681   5.902   6.605   0.749
 2261SOL    HW1 7682   5.824   6.542   0.750
 2261SOL    HW2 7683   5.900   6.659   0.665
 2262SOL     OW 7684   5.653   2.240   2.714
 2262SOL    HW1 7685   5.704   2.297   2.778
 2262SOL    HW2 7686   5.710   2.163   2.685
 2263SOL     OW 7687   2.354   5.865   5.983
 2263SOL    HW1 7688   2.407   5.936   6.027
 2263SOL    HW2 7689   2.283   5.832   6.045
 2264SOL     OW 7690   3.166   4.051   2.447
 2264SOL    HW1 7691   3.131   3.960   2.469
 2264SOL    HW2 7692   3.128   4.081   2.359
 2265SOL     OW 7693   0.356   1.112   3.630
 2265SOL    HW1 7694   0.370   1.143   3.535
 2265SOL    HW2 7695   0.258   1.106   3.648
 2266SOL     OW 7696   6.707   1.598   1.338
 2266SOL    HW1 7697   6.757   1.523   1.380
 2266SOL    HW2 7698   6.772   1.663   1.298
 2267SOL     OW 7699   5.449   2.794   4.412
 2267SOL    HW1 7700   5.514   2.783   4.337
 2267SOL    HW2 7701   5.406   2.706   4.432
 2268SOL     OW 7702   6.524   5.786   0.379
 2268SOL    HW1 7703   6.446   5.738   0.339
 2268SOL    HW2 7704   6.553   5.859   0.317
 2269SOL     OW 7705   5.863   5.580   4.944
 2269SOL    HW1 7706   5.840   5.575   5.041
 2269SOL    HW2 7707   5.808   5.514   4.893
 2270SOL     OW 7708   3.513   3.801   1.055
 2270SOL    HW1 7709   3.496   3.895   1.084
 2270SOL    HW2 7710   3.591   3.764   1.106
 2271SOL     OW 7711   6.286   4.334   1.137
 2271SOL    HW1 7712   6.205   4.369   1.184
 2271SOL    HW2 7713   6.335   4.271   1.198
 2272SOL     OW 7714   5.984   2.193   4.830
 2272SOL    HW1 7715   5.925   2.181   4.909
 2272SOL    HW2 7716   5.928   2.213   4.749
 2273SOL     OW 7717   1.936   1.688   2.925
 2273SOL    HW1 7718   1.880   1.726   2.998
 2273SOL    HW2 7719   2.030   1.677   2.956
 2274SOL     OW 7720   1.455   3.494   5.040
 2274SOL    HW1 7721   1.386   3.429   5.072
 2274SOL    HW2 7722   1.479   3.556   5.114
 2275SOL     OW 7723   4.392   0.049   4.691
 2275SOL    HW1 7724   4.450   0.013   4.764
 2275SOL    HW2 7725   4.400   7.013   4.610
 2276SOL     OW 7726   3.282   5.199   1.014
 2276SOL    HW1 7727   3.306   5.234   1.105
 2276SOL    HW2 7728   3.206   5.254   0.977
 2277SOL     OW 7729   3.287   3.384   4.566
 2277SOL    HW1 7730   3.259   3.294   4.534
 2277SOL    HW2 7731   3.332   3.376   4.655
 2278SOL     OW 7732   4.597   6.908   3.417
 2278SOL    HW1 7733   4.653   6.826   3.429
 2278SOL    HW2 7734   4.545   6.925   3.501
 2279SOL     OW 7735   5.536   4.520   3.783
 2279SOL    HW1 7736   5.502   4.439   3.829
 2279SOL    HW2 7737   5.589   4.576   3.848
 2280SOL     OW 7738   6.534   6.254   5.058
 2280SOL    HW1 7739   6.467   6.327   5.055
 2280SOL    HW2 7740   6.586   6.252   4.972
 2281SOL     OW 7741   3.358   1.644   1.328
 2281SOL    HW1 7742   3.449   1.676   1.352
 2281SOL    HW2 7743   3.339   1.668   1.232
 2282SOL     OW 7744   5.355   6.194   4.708
 2282SOL    HW1 7745   5.368   6.136   4.627
 2282SOL    HW2 7746   5.410   6.158   4.783
 2283SOL     OW 7747   6.653   3.591   1.880
 2283SOL    HW1 7748   6.593   3.574   1.802
 2283SOL    HW2 7749   6.646   3.515   1.944
 2284SOL     OW 7750   2.684   2.115   1.709
 2284SOL    HW1 7751   2.696   2.206   1.748
 2284SOL    HW2 7752   2.632   2.121   1.624
 2285SOL     OW 7753   1.505   3.436   0.355
 2285SOL    HW1 7754   1.507   3.347   0.401
 2285SOL    HW2 7755   1.467   3.425   0.263
 2286SOL     OW 7756   6.798   5.868   5.007
 2286SOL    HW1 7757   6.870   5.801   4.988
 2286SOL    HW2 7758   6.824   5.923   5.087
 2287SOL     OW 7759   2.518   3.113   1.615
 2287SOL    HW1 7760   2.478   3.094   1.526
 2287SOL    HW2 7761   2.521   3.029   1.669
 2288SOL     OW 7762   0.672   5.971   4.023
 2288SOL    HW1 7763   0.738   6.025   3.970
 2288SOL    HW2 7764   0.683   5.874   4.002
 2289SOL     OW 7765   5.664   3.141   1.743
 2289SOL    HW1 7766   5.762   3.119   1.741
 2289SOL    HW2 7767   5.613   3.063   1.779
 2290SOL     OW 7768   2.919   3.244   2.135
 2290SOL    HW1 7769   2.999   3.191   2.164
 2290SOL    HW2 7770   2.900   3.225   2.039
 2291SOL     OW 7771   2.091   1.980   1.106
 2291SOL    HW1 7772   2.083   2.053   1.038
 2291SOL    HW2 7773   2.008   1.924   1.104
 2292SOL     OW 7774   5.202   3.678   3.914
 2292SOL    HW1 7775   5.201   3.694   3.816
 2292SOL    HW2 7776   5.119   3.715   3.956
 2293SOL     OW 7777   5.953   1.132   0.387
 2293SOL    HW1 7778   5.995   1.174   0.306
 2293SOL    HW2 7779   5.940   1.035   0.370
 2294SOL     OW 7780   3.166   1.799   6.206
 2294SOL    HW1 7781   3.193   1.848   6.124
 2294SOL    HW2 7782   3.073   1.763   6.194
 2295SOL     OW 7783   6.796   0.965   2.448
 2295SOL    HW1 7784   6.755   0.929   2.532
 2295SOL    HW2 7785   6.747   0.928   2.369
 2296SOL     OW 7786   2.680   5.029   2.673
 2296SOL    HW1 7787   2.698   4.950   2.731
 2296SOL    HW2 7788   2.689   5.113   2.728
 2297SOL     OW 7789   4.601   4.915   5.647
 2297SOL    HW1 7790   4.689   4.868   5.648
 2297SOL    HW2 7791   4.569   4.929   5.741
 2298SOL     OW 7792   3.601   3.569   3.457
 2298SOL    HW1 7793   3.595   3.668   3.467
 2298SOL    HW2 7794   3.694   3.544   3.428
 2299SOL     OW 7795   4.867   4.184   4.945
 2299SOL    HW1 7796   4.909   4.114   4.886
 2299SOL    HW2 7797   4.873   4.154   5.040
 2300SOL     OW 7798   3.585   6.853   3.385
 2300SOL    HW1 7799   3.561   6.905   3.303
 2300SOL    HW2 7800   3.509   6.855   3.450
 2301SOL     OW 7801   3.411   2.916   4.074
 2301SOL    HW1 7802   3.421   2.911   3.974
 2301SOL    HW2 7803   3.316   2.897   4.099
 2302SOL     OW 7804   3.934   0.413   1.297
 2302SOL    HW1 7805   3.855   0.358   1.268
 2302SOL    HW2 7806   4.006   0.408   1.227
 2303SOL     OW 7807   2.470   2.990   1.382
 2303SOL    HW1 7808   2.454   3.028   1.291
 2303SOL    HW2 7809   2.537   2.917   1.377
 2304SOL     OW 7810   6.201   5.753   3.672
 2304SOL    HW1 7811   6.238   5.846   3.673
 2304SOL    HW2 7812   6.123   5.747   3.734
 2305SOL     OW 7813   1.545   0.568   3.855
 2305SOL    HW1 7814   1.567   0.662   3.882
 2305SOL    HW2 7815   1.453   0.565   3.817
 2306SOL     OW 7816   1.389   5.245   2.418
 2306SOL    HW1 7817   1.352   5.187   2.490
 2306SOL    HW2 7818   1.434   5.325   2.459
 2307SOL     OW 7819   1.009   3.240   5.571
 2307SOL    HW1 7820   1.108   3.225   5.575
 2307SOL    HW2 7821   0.974   3.254   5.663
 2308SOL     OW 7822   2.627   4.891   1.177
 2308SOL    HW1 7823   2.694   4.823   1.147
 2308SOL    HW2 7824   2.661   4.936   1.260
 2309SOL     OW 7825   1.493   0.551   4.139
 2309SOL    HW1 7826   1.409   0.604   4.133
 2309SOL    HW2 7827   1.551   0.570   4.060
 2310SOL     OW 7828   5.895   6.490   2.406
 2310SOL    HW1 7829   5.815   6.461   2.355
 2310SOL    HW2 7830   5.963   6.416   2.407
 2311SOL     OW 7831   1.970   5.780   6.656
 2311SOL    HW1 7832   1.911   5.736   6.588
 2311SOL    HW2 7833   2.004   5.711   6.719
 2312SOL     OW 7834   3.617   5.295   3.490
 2312SOL    HW1 7835   3.711   5.273   3.467
 2312SOL    HW2 7836   3.594   5.255   3.579
 2313SOL     OW 7837   5.154   5.059   1.949
 2313SOL    HW1 7838   5.150   4.995   2.026
 2313SOL    HW2 7839   5.139   5.008   1.864
 2314SOL     OW 7840   3.581   6.110   2.892
 2314SOL    HW1 7841   3.600   6.104   2.990
 2314SOL    HW2 7842   3.666   6.099   2.841
 2315SOL     OW 7843   5.265   3.810   5.853
 2315SOL    HW1 7844   5.192   3.845   5.911
 2315SOL    HW2 7845   5.346   3.868   5.862
 2316SOL     OW 7846   5.005   2.074   3.562
 2316SOL    HW1 7847   4.966   2.049   3.474
 2316SOL    HW2 7848   5.020   2.173   3.566
 2317SOL     OW 7849   0.979   5.080   2.930
 2317SOL    HW1 7850   0.973   5.164   2.985
 2317SOL    HW2 7851   0.900   5.022   2.952
 2318SOL     OW 7852   0.074   2.486   3.855
 2318SOL    HW1 7853   0.134   2.566   3.852
 2318SOL    HW2 7854   7.005   2.513   3.884
 2319SOL     OW 7855   1.854   4.119   4.974
 2319SOL    HW1 7856   1.846   4.176   4.892
 2319SOL    HW2 7857   1.950   4.103   4.995
 2320SOL     OW 7858   6.837   2.250   4.474
 2320SOL    HW1 7859   6.796   2.212   4.557
 2320SOL    HW2 7860   6.807   2.197   4.395
 2321SOL     OW 7861   3.927   0.780   5.078
 2321SOL    HW1 7862   4.005   0.721   5.053
 2321SOL    HW2 7863   3.844   0.725   5.081
 2322SOL     OW 7864   2.223   1.825   5.595
 2322SOL    HW1 7865   2.260   1.848   5.685
 2322SOL    HW2 7866   2.124   1.837   5.595
 2323SOL     OW 7867   3.318   5.600   3.450
 2323SOL    HW1 7868   3.321   5.506   3.418
 2323SOL    HW2 7869   3.253   5.652   3.394
 2324SOL     OW 7870   0.249   5.951   2.581
 2324SOL    HW1 7871   0.276   5.988   2.670
 2324SOL    HW2 7872   0.237   5.852   2.588
 2325SOL     OW 7873   1.159   3.784   1.947
 2325SOL    HW1 7874   1.081   3.738   1.991
 2325SOL    HW2 7875   1.244   3.752   1.989
 2326SOL     OW 7876   2.256   3.956   6.233
 2326SOL    HW1 7877   2.353   3.965   6.208
 2326SOL    HW2 7878   2.243   3.871   6.284
 2327SOL     OW 7879   4.804   3.016   4.515
 2327SOL    HW1 7880   4.793   2.937   4.456
 2327SOL    HW2 7881   4.716   3.041   4.556
 2328SOL     OW 7882   5.332   0.886   3.557
 2328SOL    HW1 7883   5.328   0.985   3.555
 2328SOL    HW2 7884   5.282   0.852   3.638
 2329SOL     OW 7885   1.284   5.118   4.393
 2329SOL    HW1 7886   1.215   5.190   4.402
 2329SOL    HW2 7887   1.360   5.138   4.454
 2330SOL     OW 7888   0.175   5.013   1.726
 2330SOL    HW1 7889   0.134   4.980   1.812
 2330SOL    HW2 7890   0.102   5.034   1.661
 2331SOL     OW 7891   6.847   4.506   5.951
 2331SOL    HW1 7892   6.900   4.508   5.867
 2331SOL    HW2 7893   6.759   4.550   5.936
 2332SOL     OW 7894   5.095   2.174   5.843
 2332SOL    HW1 7895   5.023   2.113   5.812
 2332SOL    HW2 7896   5.174   2.121   5.872
 2333SOL     OW 7897   0.500   5.023   2.315
 2333SOL    HW1 7898   0.492   5.101   2.378
 2333SOL    HW2 7899   0.579   5.037   2.256
 2334SOL     OW 7900   3.177   6.848   6.945
 2334SOL    HW1 7901   3.151   6.903   0.002
 2334SOL    HW2 7902   3.212   6.760   6.975
 2335SOL     OW 7903   6.139   1.023   3.152
 2335SOL    HW1 7904   6.052   1.070   3.138
 2335SOL    HW2 7905   6.149   0.997   3.248
 2336SOL     OW 7906   4.819   1.301   5.617
 2336SOL    HW1 7907   4.772   1.337   5.698
 2336SOL    HW2 7908   4.872   1.220   5.642
 2337SOL     OW 7909   5.311   0.442   3.034
 2337SOL    HW1 7910   5.333   0.486   3.121
 2337SOL    HW2 7911   5.316   0.510   2.961
 2338SOL     OW 7912   0.436   6.770   7.013
 2338SOL    HW1 7913   0.515   6.829   7.002
 2338SOL    HW2 7914   0.352   6.825   7.011
 2339SOL     OW 7915   3.321   3.262   5.553
 2339SOL    HW1 7916   3.365   3.268   5.463
 2339SOL    HW2 7917   3.274   3.174   5.561
 2340SOL     OW 7918   3.668   6.541   5.235
 2340SOL    HW1 7919   3.765   6.553   5.211
 2340SOL    HW2 7920   3.661   6.506   5.328
 2341SOL     OW 7921   5.312   4.350   0.431
 2341SOL    HW1 7922   5.264   4.346   0.343
 2341SOL    HW2 7923   5.330   4.257   0.464
 2342SOL     OW 7924   0.531   6.677   5.625
 2342SOL    HW1 7925   0.559   6.701   5.719
 2342SOL    HW2 7926   0.492   6.757   5.581
 2343SOL     OW 7927   1.519   6.590   1.024
 2343SOL    HW1 7928   1.427   6.556   1.003
 2343SOL    HW2 7929   1.515   6.686   1.048
 2344SOL     OW 7930   3.116   1.759   2.554
 2344SOL    HW1 7931   3.093   1.786   2.648
 2344SOL    HW2 7932   3.036   1.770   2.496
 2345SOL     OW 7933   1.022   7.005   4.924
 2345SOL    HW1 7934   1.096   0.028   4.973
 2345SOL    HW2 7935   1.033   6.906   4.929
 2346SOL     OW 7936   4.571   2.824   5.174
 2346SOL    HW1 7937   4.648   2.867   5.126
 2346SOL    HW2 7938   4.590   2.822   5.272
 2347SOL     OW 7939   1.947   4.115   1.721
 2347SOL    HW1 7940   1.986   4.023   1.717
 2347SOL    HW2 7941   1.962   4.154   1.812
 2348SOL     OW 7942   2.296   6.453   3.436
 2348SOL    HW1 7943   2.323   6.432   3.342
 2348SOL    HW2 7944   2.242   6.537   3.436
 2349SOL     OW 7945   0.149   6.362   6.150
 2349SOL    HW1 7946   0.171   6.422   6.073
 2349SOL    HW2 7947   0.162   6.267   6.123
 2350SOL     OW 7948   3.334   0.682   5.678
 2350SOL    HW1 7949   3.419   0.679   5.626
 2350SOL    HW2 7950   3.308   0.590   5.706
 2351SOL     OW 7951   2.771   5.059   3.577
 2351SOL    HW1 7952   2.709   5.015   3.512
 2351SOL    HW2 7953   2.740   5.040   3.670
 2352SOL     OW 7954   6.336   3.935   3.750
 2352SOL    HW1 7955   6.334   3.892   3.840
 2352SOL    HW2 7956   6.243   3.962   3.723
 2353SOL     OW 7957   2.427   4.044   5.441
 2353SOL    HW1 7958   2.421   4.021   5.344
 2353SOL    HW2 7959   2.446   3.961   5.494
 2354SOL     OW 7960   3.324   2.601   7.009
 2354SOL    HW1 7961   3.336   2.688   0.034
 2354SOL    HW2 7962   3.411   2.572   6.970
 2355SOL     OW 7963   1.013   6.930   0.913
 2355SOL    HW1 7964   0.969   7.007   0.959
 2355SOL    HW2 7965   0.978   6.844   0.951
 2356SOL     OW 7966   1.972   4.628   1.947
 2356SOL    HW1 7967   1.921   4.649   2.031
 2356SOL    HW2 7968   1.973   4.529   1.933
 2357SOL     OW 7969   5.216   4.818   3.537
 2357SOL    HW1 7970   5.250   4.899   3.489
 2357SOL    HW2 7971   5.116   4.821   3.540
 2358SOL     OW 7972   2.989   6.935   3.776
 2358SOL    HW1 7973   2.936   7.017   3.756
 2358SOL    HW2 7974   2.986   6.916   3.874
 2359SOL     OW 7975   2.835   1.341   6.279
 2359SOL    HW1 7976   2.756   1.392   6.312
 2359SOL    HW2 7977   2.835   1.250   6.320
 2360SOL     OW 7978   3.787   4.728   6.882
 2360SOL    HW1 7979   3.829   4.818   6.866
 2360SOL    HW2 7980   3.782   4.678   6.795
 2361SOL     OW 7981   2.726   6.961   3.387
 2361SOL    HW1 7982   2.706   6.894   3.458
 2361SOL    HW2 7983   2.687   6.929   3.300
 2362SOL     OW 7984   4.760   5.952   5.232
 2362SOL    HW1 7985   4.710   5.919   5.152
 2362SOL    HW2 7986   4.855   5.968   5.207
 2363SOL     OW 7987   4.187   2.092   5.399
 2363SOL    HW1 7988   4.143   2.174   5.361
 2363SOL    HW2 7989   4.206   2.106   5.496
 2364SOL     OW 7990   5.759   1.948   1.596
 2364SOL    HW1 7991   5.822   2.011   1.641
 2364SOL    HW2 7992   5.667   1.987   1.597
 2365SOL     OW 7993   6.211   4.520   4.888
 2365SOL    HW1 7994   6.117   4.494   4.912
 2365SOL    HW2 7995   6.273   4.489   4.959
 2366SOL     OW 7996   1.570   4.198   5.250
 2366SOL    HW1 7997   1.549   4.144   5.168
 2366SOL    HW2 7998   1.637   4.269   5.227
 2367SOL     OW 7999   0.780   3.522   5.572
 2367SOL    HW1 8000   0.773   3.593   5.641
 2367SOL    HW2 8001   0.793   3.564   5.482
 2368SOL     OW 8002   4.447   1.180   4.845
 2368SOL    HW1 8003   4.387   1.216   4.774
 2368SOL    HW2 8004   4.522   1.245   4.861
 2369SOL     OW 8005   3.292   1.862   3.522
 2369SOL    HW1 8006   3.236   1.927   3.573
 2369SOL    HW2 8007   3.316   1.785   3.580
 2370SOL     OW 8008   4.604   2.821   0.101
 2370SOL    HW1 8009   4.683   2.777   0.144
 2370SOL    HW2 8010   4.611   2.813   0.002
 2371SOL     OW 8011   1.101   6.569   2.851
 2371SOL    HW1 8012   1.167   6.501   2.817
 2371SOL    HW2 8013   1.031   6.523   2.905
 2372SOL     OW 8014   6.907   0.729   6.621
 2372SOL    HW1 8015   6.882   0.806   6.562
 2372SOL    HW2 8016   6.993   0.688   6.589
 2373SOL     OW 8017   6.104   0.750   6.605
 2373SOL    HW1 8018   6.117   0.802   6.689
 2373SOL    HW2 8019   6.193   0.725   6.566
 2374SOL     OW 8020   5.645   5.780   2.997
 2374SOL    HW1 8021   5.717   5.848   2.980
 2374SOL    HW2 8022   5.679   5.712   3.062
 2375SOL     OW 8023   0.553   0.427   3.804
 2375SOL    HW1 8024   0.575   0.411   3.708
 2375SOL    HW2 8025   0.478   0.367   3.831
 2376SOL     OW 8026   6.387   2.577   3.632
 2376SOL    HW1 8027   6.315   2.641   3.662
 2376SOL    HW2 8028   6.469   2.628   3.609
 2377SOL     OW 8029   3.336   4.138   6.172
 2377SOL    HW1 8030   3.310   4.233   6.189
 2377SOL    HW2 8031   3.254   4.086   6.148
 2378SOL     OW 8032   5.591   2.199   0.049
 2378SOL    HW1 8033   5.666   2.264   0.036
 2378SOL    HW2 8034   5.629   2.109   0.071
 2379SOL     OW 8035   6.974   4.616   0.127
 2379SOL    HW1 8036   6.932   4.550   0.064
 2379SOL    HW2 8037   7.003   4.697   0.076
 2380SOL     OW 8038   6.176   1.601   5.268
 2380SOL    HW1 8039   6.171   1.514   5.318
 2380SOL    HW2 8040   6.102   1.661   5.296
 2381SOL     OW 8041   2.207   4.847   4.758
 2381SOL    HW1 8042   2.283   4.862   4.694
 2381SOL    HW2 8043   2.239   4.792   4.835
 2382SOL     OW 8044   1.683   6.424   2.969
 2382SOL    HW1 8045   1.732   6.501   3.010
 2382SOL    HW2 8046   1.722   6.338   3.001
 2383SOL     OW 8047   5.263   5.309   5.605
 2383SOL    HW1 8048   5.166   5.309   5.631
 2383SOL    HW2 8049   5.271   5.333   5.508
 2384SOL     OW 8050   1.191   1.981   1.609
 2384SOL    HW1 8051   1.135   1.910   1.652
 2384SOL    HW2 8052   1.134   2.061   1.591
 2385SOL     OW 8053   0.997   1.719   0.305
 2385SOL    HW1 8054   0.987   1.700   0.402
 2385SOL    HW2 8055   0.922   1.778   0.274
 2386SOL     OW 8056   3.475   4.905   4.843
 2386SOL    HW1 8057   3.475   4.806   4.862
 2386SOL    HW2 8058   3.381   4.937   4.836
 2387SOL     OW 8059   6.759   3.413   4.015
 2387SOL    HW1 8060   6.664   3.385   4.030
 2387SOL    HW2 8061   6.812   3.394   4.098
 2388SOL     OW 8062   0.381   1.510   5.570
 2388SOL    HW1 8063   0.459   1.571   5.584
 2388SOL    HW2 8064   0.338   1.530   5.482
 2389SOL     OW 8065   4.861   4.490   4.025
 2389SOL    HW1 8066   4.880   4.515   3.930
 2389SOL    HW2 8067   4.946   4.493   4.078
 2390SOL     OW 8068   3.771   3.580   5.199
 2390SOL    HW1 8069   3.744   3.484   5.189
 2390SOL    HW2 8070   3.694   3.632   5.237
 2391SOL     OW 8071   3.708   3.797   6.196
 2391SOL    HW1 8072   3.696   3.771   6.100
 2391SOL    HW2 8073   3.695   3.896   6.205
 2392SOL     OW 8074   2.881   4.309   6.694
 2392SOL    HW1 8075   2.979   4.306   6.679
 2392SOL    HW2 8076   2.855   4.400   6.727
 2393SOL     OW 8077   3.859   5.478   1.274
 2393SOL    HW1 8078   3.911   5.403   1.316
 2393SOL    HW2 8079   3.792   5.441   1.210
 2394SOL     OW 8080   0.433   3.727   3.892
 2394SOL    HW1 8081   0.460   3.703   3.799
 2394SOL    HW2 8082   0.461   3.821   3.912
 2395SOL     OW 8083   0.097   3.078   6.966
 2395SOL    HW1 8084   0.082   3.107   0.039
 2395SOL    HW2 8085   0.057   3.146   6.905
 2396SOL     OW 8086   5.410   0.231   0.533
 2396SOL    HW1 8087   5.317   0.214   0.498
 2396SOL    HW2 8088   5.429   0.329   0.530
 2397SOL     OW 8089   0.021   4.740   6.668
 2397SOL    HW1 8090   6.972   4.759   6.601
 2397SOL    HW2 8091   7.002   4.710   6.754
 2398SOL     OW 8092   2.861   5.146   4.708
 2398SOL    HW1 8093   2.800   5.218   4.678
 2398SOL    HW2 8094   2.954   5.164   4.674
 2399SOL     OW 8095   3.953   2.163   3.931
 2399SOL    HW1 8096   3.863   2.144   3.970
 2399SOL    HW2 8097   3.953   2.139   3.834
 2400SOL     OW 8098   1.831   3.310   0.425
 2400SOL    HW1 8099   1.785   3.262   0.351
 2400SOL    HW2 8100   1.846   3.248   0.501
 2401SOL     OW 8101   3.424   0.040   3.782
 2401SOL    HW1 8102   3.403   0.137   3.796
 2401SOL    HW2 8103   3.499   0.031   3.717
 2402SOL     OW 8104   6.744   1.920   3.467
 2402SOL    HW1 8105   6.762   1.822   3.477
 2402SOL    HW2 8106   6.689   1.936   3.385
 2403SOL     OW 8107   3.822   3.682   0.951
 2403SOL    HW1 8108   3.777   3.701   1.038
 2403SOL    HW2 8109   3.878   3.760   0.925
 2404SOL     OW 8110   5.832   1.726   1.426
 2404SOL    HW1 8111   5.925   1.708   1.459
 2404SOL    HW2 8112   5.796   1.807   1.472
 2405SOL     OW 8113   3.002   5.119   5.761
 2405SOL    HW1 8114   2.955   5.037   5.794
 2405SOL    HW2 8115   2.979   5.133   5.664
 2406SOL     OW 8116   2.233   0.026   3.816
 2406SOL    HW1 8117   2.302   0.085   3.773
 2406SOL    HW2 8118   2.254   6.952   3.796
 2407SOL     OW 8119   4.521   2.277   3.057
 2407SOL    HW1 8120   4.614   2.241   3.062
 2407SOL    HW2 8121   4.495   2.288   2.961
 2408SOL     OW 8122   2.406   5.585   2.744
 2408SOL    HW1 8123   2.310   5.596   2.717
 2408SOL    HW2 8124   2.447   5.510   2.692
 2409SOL     OW 8125   2.622   2.954   0.725
 2409SOL    HW1 8126   2.671   2.991   0.804
 2409SOL    HW2 8127   2.686   2.910   0.662
 2410SOL     OW 8128   6.487   3.250   5.894
 2410SOL    HW1 8129   6.519   3.226   5.802
 2410SOL    HW2 8130   6.506   3.346   5.912
 2411SOL     OW 8131   2.629   3.876   5.823
 2411SOL    HW1 8132   2.573   3.847   5.746
 2411SOL    HW2 8133   2.706   3.931   5.789
 2412SOL     OW 8134   2.448   2.740   0.699
 2412SOL    HW1 8135   2.499   2.825   0.714
 2412SOL    HW2 8136   2.427   2.731   0.601
 2413SOL     OW 8137   5.864   3.455   6.582
 2413SOL    HW1 8138   5.768   3.449   6.555
 2413SOL    HW2 8139   5.907   3.365   6.575
 2414SOL     OW 8140   5.791   2.742   3.505
 2414SOL    HW1 8141   5.734   2.758   3.585
 2414SOL    HW2 8142   5.877   2.791   3.515
 2415SOL     OW 8143   2.397   0.153   1.349
 2415SOL    HW1 8144   2.496   0.140   1.353
 2415SOL    HW2 8145   2.366   0.143   1.255
 2416SOL     OW 8146   1.207   2.980   3.554
 2416SOL    HW1 8147   1.149   2.914   3.507
 2416SOL    HW2 8148   1.208   2.960   3.652
 2417SOL     OW 8149   4.588   2.000   6.638
 2417SOL    HW1 8150   4.607   2.017   6.734
 2417SOL    HW2 8151   4.569   1.902   6.625
 2418SOL     OW 8152   3.963   3.991   4.993
 2418SOL    HW1 8153   3.983   3.909   5.046
 2418SOL    HW2 8154   3.974   4.072   5.050
 2419SOL     OW 8155   1.924   6.686   4.741
 2419SOL    HW1 8156   1.897   6.692   4.837
 2419SOL    HW2 8157   1.844   6.660   4.686
 2420SOL     OW 8158   3.443   5.669   1.826
 2420SOL    HW1 8159   3.499   5.705   1.901
 2420SOL    HW2 8160   3.349   5.701   1.836
 2421SOL     OW 8161   4.204   6.759   4.132
 2421SOL    HW1 8162   4.138   6.763   4.056
 2421SOL    HW2 8163   4.212   6.849   4.175
 2422SOL     OW 8164   4.018   0.096   1.082
 2422SOL    HW1 8165   3.941   0.049   1.124
 2422SOL    HW2 8166   4.021   0.075   0.984
 2423SOL     OW 8167   1.663   5.506   1.333
 2423SOL    HW1 8168   1.689   5.551   1.248
 2423SOL    HW2 8169   1.605   5.427   1.312
 2424SOL     OW 8170   5.745   6.763   6.788
 2424SOL    HW1 8171   5.683   6.763   6.710
 2424SOL    HW2 8172   5.706   6.818   6.862
 2425SOL     OW 8173   4.976   6.022   5.515
 2425SOL    HW1 8174   4.877   6.026   5.525
 2425SOL    HW2 8175   5.005   6.089   5.446
 2426SOL     OW 8176   0.975   4.817   4.378
 2426SOL    HW1 8177   0.908   4.765   4.325
 2426SOL    HW2 8178   1.005   4.896   4.325
 2427SOL     OW 8179   5.195   5.701   6.820
 2427SOL    HW1 8180   5.216   5.667   6.911
 2427SOL    HW2 8181   5.176   5.799   6.824
 2428SOL     OW 8182   0.268   0.443   2.839
 2428SOL    HW1 8183   0.214   0.415   2.918
 2428SOL    HW2 8184   0.208   0.469   2.764
 2429SOL     OW 8185   5.799   4.622   2.673
 2429SOL    HW1 8186   5.881   4.566   2.663
 2429SOL    HW2 8187   5.719   4.563   2.688
 2430SOL     OW 8188   5.395   1.957   0.208
 2430SOL    HW1 8189   5.482   1.915   0.184
 2430SOL    HW2 8190   5.408   2.054   0.226
 2431SOL     OW 8191   5.105   1.326   1.216
 2431SOL    HW1 8192   5.143   1.411   1.251
 2431SOL    HW2 8193   5.037   1.290   1.280
 2432SOL     OW 8194   3.152   6.528   1.678
 2432SOL    HW1 8195   3.243   6.486   1.682
 2432SOL    HW2 8196   3.083   6.461   1.706
 2433SOL     OW 8197   0.939   6.655   0.321
 2433SOL    HW1 8198   0.909   6.715   0.247
 2433SOL    HW2 8199   1.035   6.673   0.342
 2434SOL     OW 8200   5.139   1.758   2.577
 2434SOL    HW1 8201   5.106   1.849   2.604
 2434SOL    HW2 8202   5.237   1.762   2.559
 2435SOL     OW 8203   5.901   5.575   6.969
 2435SOL    HW1 8204   5.826   5.620   7.019
 2435SOL    HW2 8205   5.957   5.523   0.012
 2436SOL     OW 8206   1.655   0.442   1.020
 2436SOL    HW1 8207   1.560   0.427   1.046
 2436SOL    HW2 8208   1.694   0.358   0.983
 2437SOL     OW 8209   5.365   6.458   0.988
 2437SOL    HW1 8210   5.325   6.491   1.073
 2437SOL    HW2 8211   5.412   6.371   1.005
 2438SOL     OW 8212   4.381   1.456   4.522
 2438SOL    HW1 8213   4.462   1.477   4.576
 2438SOL    HW2 8214   4.397   1.482   4.426
 2439SOL     OW 8215   0.296   5.102   0.509
 2439SOL    HW1 8216   0.395   5.090   0.500
 2439SOL    HW2 8217   0.266   5.175   0.448
 2440SOL     OW 8218   3.572   6.647   6.182
 2440SOL    HW1 8219   3.486   6.597   6.196
 2440SOL    HW2 8220   3.553   6.730   6.130
 2441SOL     OW 8221   5.778   1.224   0.079
 2441SOL    HW1 8222   5.785   1.124   0.084
 2441SOL    HW2 8223   5.744   1.259   0.166
 2442SOL     OW 8224   5.581   5.057   2.812
 2442SOL    HW1 8225   5.537   5.146   2.826
 2442SOL    HW2 8226   5.619   5.052   2.720
 2443SOL     OW 8227   2.713   0.713   0.113
 2443SOL    HW1 8228   2.708   0.760   0.201
 2443SOL    HW2 8229   2.687   0.777   0.040
 2444SOL     OW 8230   4.175   5.127   0.331
 2444SOL    HW1 8231   4.098   5.067   0.350
 2444SOL    HW2 8232   4.143   5.206   0.279
 2445SOL     OW 8233   5.656   1.178   1.752
 2445SOL    HW1 8234   5.557   1.167   1.741
 2445SOL    HW2 8235   5.686   1.261   1.705
 2446SOL     OW 8236   0.986   2.769   3.552
 2446SOL    HW1 8237   0.892   2.762   3.588
 2446SOL    HW2 8238   0.983   2.770   3.452
 2447SOL     OW 8239   2.579   0.952   0.923
 2447SOL    HW1 8240   2.564   1.039   0.875
 2447SOL    HW2 8241   2.560   0.876   0.861
 2448SOL     OW 8242   6.077   1.759   4.074
 2448SOL    HW1 8243   6.018   1.817   4.018
 2448SOL    HW2 8244   6.167   1.751   4.031
 2449SOL     OW 8245   1.705   3.403   1.255
 2449SOL    HW1 8246   1.629   3.453   1.299
 2449SOL    HW2 8247   1.688   3.397   1.157
 2450SOL     OW 8248   2.882   5.555   6.253
 2450SOL    HW1 8249   2.818   5.603   6.313
 2450SOL    HW2 8250   2.882   5.457   6.274
 2451SOL     OW 8251   1.345   0.510   3.297
 2451SOL    HW1 8252   1.388   0.487   3.384
 2451SOL    HW2 8253   1.409   0.563   3.241
 2452SOL     OW 8254   2.849   1.934   4.084
 2452SOL    HW1 8255   2.809   1.888   4.163
 2452SOL    HW2 8256   2.949   1.922   4.086
 2453SOL     OW 8257   0.363   3.197   0.465
 2453SOL    HW1 8258   0.440   3.231   0.411
 2453SOL    HW2 8259   0.370   3.098   0.475
 2454SOL     OW 8260   3.059   6.355   0.060
 2454SOL    HW1 8261   3.044   6.275   0.003
 2454SOL    HW2 8262   3.082   6.433   0.002
 2455SOL     OW 8263   4.550   1.040   0.598
 2455SOL    HW1 8264   4.571   1.022   0.694
 2455SOL    HW2 8265   4.537   0.953   0.550
 2456SOL     OW 8266   0.245   2.493   6.654
 2456SOL    HW1 8267   0.261   2.500   6.752
 2456SOL    HW2 8268   0.234   2.585   6.616
 2457SOL     OW 8269   6.595   1.047   6.435
 2457SOL    HW1 8270   6.518   1.078   6.490
 2457SOL    HW2 8271   6.617   1.116   6.365
 2458SOL     OW 8272   1.467   6.311   3.767
 2458SOL    HW1 8273   1.534   6.259   3.820
 2458SOL    HW2 8274   1.504   6.327   3.675
 2459SOL     OW 8275   2.706   6.746   5.565
 2459SOL    HW1 8276   2.750   6.719   5.651
 2459SOL    HW2 8277   2.729   6.678   5.495
 2460SOL     OW 8278   1.526   1.309   0.609
 2460SOL    HW1 8279   1.520   1.218   0.651
 2460SOL    HW2 8280   1.546   1.300   0.511
 2461SOL     OW 8281   5.076   0.611   4.152
 2461SOL    HW1 8282   5.148   0.654   4.208
 2461SOL    HW2 8283   5.115   0.531   4.105
 2462SOL     OW 8284   1.929   4.977   6.861
 2462SOL    HW1 8285   1.950   4.879   6.864
 2462SOL    HW2 8286   1.841   4.994   6.905
 2463SOL     OW 8287   5.845   2.039   6.865
 2463SOL    HW1 8288   5.776   1.997   6.925
 2463SOL    HW2 8289   5.933   2.041   6.913
 2464SOL     OW 8290   2.111   3.458   3.010
 2464SOL    HW1 8291   2.113   3.420   3.102
 2464SOL    HW2 8292   2.169   3.404   2.949
 2465SOL     OW 8293   0.682   6.701   6.533
 2465SOL    HW1 8294   0.682   6.632   6.461
 2465SOL    HW2 8295   0.642   6.661   6.616
 2466SOL     OW 8296   2.249   1.628   2.764
 2466SOL    HW1 8297   2.213   1.626   2.857
 2466SOL    HW2 8298   2.246   1.721   2.729
 2467SOL     OW 8299   4.942   1.811   5.186
 2467SOL    HW1 8300   5.015   1.877   5.166
 2467SOL    HW2 8301   4.853   1.854   5.172
 2468SOL     OW 8302   4.253   6.989   1.161
 2468SOL    HW1 8303   4.216   6.913   1.215
 2468SOL    HW2 8304   4.178   0.022   1.125
 2469SOL     OW 8305   4.092   3.468   4.523
 2469SOL    HW1 8306   4.115   3.506   4.613
 2469SOL    HW2 8307   4.142   3.382   4.510
 2470SOL     OW 8308   4.088   4.503   5.586
 2470SOL    HW1 8309   4.032   4.539   5.661
 2470SOL    HW2 8310   4.118   4.410   5.608
 2471SOL     OW 8311   3.277   6.141   0.425
 2471SOL    HW1 8312   3.246   6.230   0.393
 2471SOL    HW2 8313   3.319   6.150   0.515
 2472SOL     OW 8314   5.102   2.308   3.167
 2472SOL    HW1 8315   5.098   2.253   3.084
 2472SOL    HW2 8316   5.043   2.388   3.156
 2473SOL     OW 8317   0.941   3.668   4.654
 2473SOL    HW1 8318   1.018   3.658   4.591
 2473SOL    HW2 8319   0.855   3.659   4.604
 2474SOL     OW 8320   0.096   5.874   1.530
 2474SOL    HW1 8321   0.124   5.778   1.531
 2474SOL    HW2 8322   0.035   5.892   1.607
 2475SOL     OW 8323   4.291   0.971   2.688
 2475SOL    HW1 8324   4.215   1.013   2.738
 2475SOL    HW2 8325   4.367   1.037   2.681
 2476SOL     OW 8326   6.028   1.342   2.465
 2476SOL    HW1 8327   6.028   1.299   2.375
 2476SOL    HW2 8328   6.109   1.311   2.516
 2477SOL     OW 8329   4.480   1.262   2.953
 2477SOL    HW1 8330   4.542   1.336   2.927
 2477SOL    HW2 8331   4.530   1.194   3.006
 2478SOL     OW 8332   6.327   1.658   1.337
 2478SOL    HW1 8333   6.417   1.651   1.295
 2478SOL    HW2 8334   6.298   1.568   1.369
 2479SOL     OW 8335   1.042   2.827   2.602
 2479SOL    HW1 8336   1.027   2.732   2.631
 2479SOL    HW2 8337   1.136   2.837   2.570
 2480SOL     OW 8338   4.868   4.275   0.874
 2480SOL    HW1 8339   4.810   4.251   0.796
 2480SOL    HW2 8340   4.839   4.223   0.955
 2481SOL     OW 8341   4.007   6.652   0.564
 2481SOL    HW1 8342   4.020   6.653   0.664
 2481SOL    HW2 8343   4.026   6.560   0.529
 2482SOL     OW 8344   5.294   3.589   5.641
 2482SOL    HW1 8345   5.294   3.642   5.726
 2482SOL    HW2 8346   5.275   3.493   5.662
 2483SOL     OW 8347   1.992   1.635   0.440
 2483SOL    HW1 8348   1.990   1.701   0.515
 2483SOL    HW2 8349   1.953   1.676   0.358
 2484SOL     OW 8350   4.076   0.613   6.878
 2484SOL    HW1 8351   3.978   0.613   6.858
 2484SOL    HW2 8352   4.099   0.531   6.931
 2485SOL     OW 8353   5.777   3.715   1.210
 2485SOL    HW1 8354   5.796   3.776   1.287
 2485SOL    HW2 8355   5.704   3.753   1.153
 2486SOL     OW 8356   2.004   4.436   5.203
 2486SOL    HW1 8357   1.926   4.419   5.142
 2486SOL    HW2 8358   2.082   4.380   5.173
 2487SOL     OW 8359   4.319   6.090   0.169
 2487SOL    HW1 8360   4.297   6.187   0.185
 2487SOL    HW2 8361   4.254   6.033   0.219
 2488SOL     OW 8362   1.179   4.442   2.129
 2488SOL    HW1 8363   1.114   4.368   2.144
 2488SOL    HW2 8364   1.261   4.427   2.184
 2489SOL     OW 8365   1.109   6.766   4.100
 2489SOL    HW1 8366   1.104   6.795   4.005
 2489SOL    HW2 8367   1.047   6.823   4.155
 2490SOL     OW 8368   0.180   5.498   1.210
 2490SOL    HW1 8369   0.235   5.578   1.184
 2490SOL    HW2 8370   0.084   5.515   1.187
 2491SOL     OW 8371   2.395   4.607   0.254
 2491SOL    HW1 8372   2.362   4.580   0.344
 2491SOL    HW2 8373   2.338   4.680   0.217
 2492SOL     OW 8374   4.859   3.547   1.003
 2492SOL    HW1 8375   4.760   3.551   0.988
 2492SOL    HW2 8376   4.880   3.473   1.066
 2493SOL     OW 8377   5.554   0.095   2.268
 2493SOL    HW1 8378   5.579   0.189   2.293
 2493SOL    HW2 8379   5.637   0.041   2.254
 2494SOL     OW 8380   5.273   4.586   2.750
 2494SOL    HW1 8381   5.348   4.641   2.787
 2494SOL    HW2 8382   5.224   4.542   2.825
 2495SOL     OW 8383   5.011   6.690   4.274
 2495SOL    HW1 8384   4.979   6.742   4.353
 2495SOL    HW2 8385   5.029   6.753   4.198
 2496SOL     OW 8386   6.918   2.733   6.070
 2496SOL    HW1 8387   6.878   2.824   6.066
 2496SOL    HW2 8388   7.002   2.731   6.015
 2497SOL     OW 8389   0.412   0.445   0.437
 2497SOL    HW1 8390   0.381   0.366   0.386
 2497SOL    HW2 8391   0.449   0.416   0.525
 2498SOL     OW 8392   3.091   1.950   4.409
 2498SOL    HW1 8393   3.104   1.978   4.505
 2498SOL    HW2 8394   3.029   1.872   4.405
 2499SOL     OW 8395   6.135   2.293   1.988
 2499SOL    HW1 8396   6.159   2.273   1.892
 2499SOL    HW2 8397   6.086   2.380   1.993
 2500SOL     OW 8398   4.114   4.202   6.833
 2500SOL    HW1 8399   4.171   4.205   6.915
 2500SOL    HW2 8400   4.036   4.140   6.849
 2501SOL     OW 8401   5.894   5.044   0.440
 2501SOL    HW1 8402   5.922   4.962   0.490
 2501SOL    HW2 8403   5.795   5.048   0.435
 2502SOL     OW 8404   1.021   0.061   3.272
 2502SOL    HW1 8405   1.103   0.114   3.249
 2502SOL    HW2 8406   1.007   0.064   3.371
 2503SOL     OW 8407   2.596   5.634   4.502
 2503SOL    HW1 8408   2.628   5.633   4.408
 2503SOL    HW2 8409   2.674   5.633   4.564
 2504SOL     OW 8410   3.446   5.311   4.654
 2504SOL    HW1 8411   3.448   5.382   4.584
 2504SOL    HW2 8412   3.385   5.340   4.728
 2505SOL     OW 8413   0.640   6.387   3.283
 2505SOL    HW1 8414   0.623   6.392   3.381
 2505SOL    HW2 8415   0.735   6.361   3.266
 2506SOL     OW 8416   5.748   3.961   5.954
 2506SOL    HW1 8417   5.714   3.884   6.008
 2506SOL    HW2 8418   5.750   4.043   6.011
 2507SOL     OW 8419   6.867   3.747   0.797
 2507SOL    HW1 8420   6.785   3.803   0.810
 2507SOL    HW2 8421   6.936   3.772   0.865
 2508SOL     OW 8422   2.533   1.726   3.512
 2508SOL    HW1 8423   2.598   1.754   3.583
 2508SOL    HW2 8424   2.555   1.633   3.482
 2509SOL     OW 8425   0.071   3.749   0.957
 2509SOL    HW1 8426   0.046   3.705   1.044
 2509SOL    HW2 8427   0.112   3.681   0.896
 2510SOL     OW 8428   2.755   4.716   1.403
 2510SOL    HW1 8429   2.759   4.641   1.336
 2510SOL    HW2 8430   2.777   4.681   1.494
 2511SOL     OW 8431   4.170   2.212   4.678
 2511SOL    HW1 8432   4.082   2.196   4.632
 2511SOL    HW2 8433   4.191   2.135   4.738
 2512SOL     OW 8434   5.122   3.962   5.079
 2512SOL    HW1 8435   5.107   3.864   5.092
 2512SOL    HW2 8436   5.066   4.013   5.145
 2513SOL     OW 8437   1.975   4.251   5.515
 2513SOL    HW1 8438   2.058   4.260   5.460
 2513SOL    HW2 8439   1.933   4.162   5.498
 2514SOL     OW 8440   6.594   2.980   4.893
 2514SOL    HW1 8441   6.513   3.039   4.894
 2514SOL    HW2 8442   6.574   2.896   4.843
 2515SOL     OW 8443   1.762   6.995   0.663
 2515SOL    HW1 8444   1.826   6.945   0.605
 2515SOL    HW2 8445   1.670   6.991   0.623
 2516SOL     OW 8446   6.030   1.899   2.323
 2516SOL    HW1 8447   5.942   1.880   2.279
 2516SOL    HW2 8448   6.080   1.967   2.270
 2517SOL     OW 8449   1.355   6.394   5.666
 2517SOL    HW1 8450   1.368   6.375   5.568
 2517SOL    HW2 8451   1.427   6.454   5.699
 2518SOL     OW 8452   1.082   4.493   6.993
 2518SOL    HW1 8453   1.046   4.401   7.005
 2518SOL    HW2 8454   1.040   4.554   0.039
 2519SOL     OW 8455   3.892   6.307   3.095
 2519SOL    HW1 8456   3.946   6.328   3.177
 2519SOL    HW2 8457   3.952   6.307   3.015
 2520SOL     OW 8458   3.040   1.837   0.321
 2520SOL    HW1 8459   2.973   1.900   0.360
 2520SOL    HW2 8460   3.002   1.796   0.237
 2521SOL     OW 8461   1.947   1.045   5.433
 2521SOL    HW1 8462   1.848   1.034   5.424
 2521SOL    HW2 8463   1.982   1.103   5.359
 2522SOL     OW 8464   0.411   3.229   4.908
 2522SOL    HW1 8465   0.323   3.235   4.955
 2522SOL    HW2 8466   0.407   3.158   4.838
 2523SOL     OW 8467   0.284   3.099   1.511
 2523SOL    HW1 8468   0.226   3.035   1.563
 2523SOL    HW2 8469   0.296   3.064   1.418
 2524SOL     OW 8470   0.965   5.873   4.581
 2524SOL    HW1 8471   1.022   5.955   4.588
 2524SOL    HW2 8472   0.994   5.806   4.650
 2525SOL     OW 8473   1.035   2.701   5.844
 2525SOL    HW1 8474   0.989   2.647   5.916
 2525SOL    HW2 8475   1.078   2.639   5.779
 2526SOL     OW 8476   0.953   4.392   6.570
 2526SOL    HW1 8477   1.036   4.347   6.604
 2526SOL    HW2 8478   0.877   4.328   6.573
 2527SOL     OW 8479   5.503   5.549   4.768
 2527SOL    HW1 8480   5.435   5.621   4.785
 2527SOL    HW2 8481   5.511   5.534   4.670
 2528SOL     OW 8482   5.880   4.547   0.466
 2528SOL    HW1 8483   5.965   4.519   0.422
 2528SOL    HW2 8484   5.804   4.496   0.426
 2529SOL     OW 8485   6.234   6.443   6.432
 2529SOL    HW1 8486   6.311   6.385   6.458
 2529SOL    HW2 8487   6.247   6.475   6.338
 2530SOL     OW 8488   2.753   6.505   5.432
 2530SOL    HW1 8489   2.730   6.520   5.336
 2530SOL    HW2 8490   2.710   6.421   5.464
 2531SOL     OW 8491   4.969   5.908   4.027
 2531SOL    HW1 8492   5.018   5.845   4.088
 2531SOL    HW2 8493   4.955   5.995   4.073
 2532SOL     OW 8494   0.657   6.146   0.750
 2532SOL    HW1 8495   0.746   6.181   0.721
 2532SOL    HW2 8496   0.599   6.131   0.669
 2533SOL     OW 8497   3.063   6.673   4.104
 2533SOL    HW1 8498   3.084   6.607   4.177
 2533SOL    HW2 8499   2.978   6.647   4.059
 2534SOL     OW 8500   3.607   0.951   3.055
 2534SOL    HW1 8501   3.585   0.943   2.958
 2534SOL    HW2 8502   3.524   0.974   3.106
 2535SOL     OW 8503   3.677   2.369   5.392
 2535SOL    HW1 8504   3.723   2.316   5.320
 2535SOL    HW2 8505   3.658   2.461   5.359
 2536SOL     OW 8506   1.159   2.056   5.167
 2536SOL    HW1 8507   1.126   1.983   5.108
 2536SOL    HW2 8508   1.107   2.056   5.253
 2537SOL     OW 8509   3.995   0.226   6.792
 2537SOL    HW1 8510   4.089   0.228   6.825
 2537SOL    HW2 8511   3.995   0.235   6.692
 2538SOL     OW 8512   1.010   4.243   3.947
 2538SOL    HW1 8513   0.955   4.237   4.030
 2538SOL    HW2 8514   0.992   4.330   3.901
 2539SOL     OW 8515   5.189   1.302   5.205
 2539SOL    HW1 8516   5.145   1.390   5.224
 2539SOL    HW2 8517   5.254   1.280   5.277
 2540SOL     OW 8518   4.503   1.835   2.933
 2540SOL    HW1 8519   4.477   1.747   2.972
 2540SOL    HW2 8520   4.440   1.906   2.965
 2541SOL     OW 8521   2.544   0.196   5.547
 2541SOL    HW1 8522   2.560   0.100   5.569
 2541SOL    HW2 8523   2.446   0.215   5.551
 2542SOL     OW 8524   3.448   1.217   6.574
 2542SOL    HW1 8525   3.538   1.182   6.548
 2542SOL    HW2 8526   3.450   1.317   6.568
 2543SOL     OW 8527   1.591   1.387   3.321
 2543SOL    HW1 8528   1.667   1.396   3.256
 2543SOL    HW2 8529   1.628   1.379   3.414
 2544SOL     OW 8530   0.435   6.434   1.617
 2544SOL    HW1 8531   0.400   6.357   1.563
 2544SOL    HW2 8532   0.532   6.447   1.597
 2545SOL     OW 8533   1.283   6.750   1.504
 2545SOL    HW1 8534   1.227   6.817   1.552
 2545SOL    HW2 8535   1.233   6.714   1.426
 2546SOL     OW 8536   0.085   1.591   1.631
 2546SOL    HW1 8537   0.053   1.544   1.549
 2546SOL    HW2 8538   0.167   1.645   1.609
 2547SOL     OW 8539   5.937   5.516   0.617
 2547SOL    HW1 8540   5.939   5.596   0.677
 2547SOL    HW2 8541   5.998   5.445   0.655
 2548SOL     OW 8542   1.447   6.683   6.061
 2548SOL    HW1 8543   1.523   6.745   6.080
 2548SOL    HW2 8544   1.360   6.730   6.076
 2549SOL     OW 8545   2.385   0.878   0.568
 2549SOL    HW1 8546   2.315   0.807   0.570
 2549SOL    HW2 8547   2.351   0.959   0.617
 2550SOL     OW 8548   0.319   0.135   6.495
 2550SOL    HW1 8549   0.337   0.042   6.463
 2550SOL    HW2 8550   0.230   0.165   6.460
 2551SOL     OW 8551   3.135   5.188   0.282
 2551SOL    HW1 8552   3.042   5.171   0.313
 2551SOL    HW2 8553   3.182   5.101   0.269
 2552SOL     OW 8554   2.185   5.615   5.467
 2552SOL    HW1 8555   2.251   5.645   5.536
 2552SOL    HW2 8556   2.228   5.612   5.377
 2553SOL     OW 8557   4.979   3.004   5.198
 2553SOL    HW1 8558   4.903   3.005   5.132
 2553SOL    HW2 8559   4.943   2.998   5.291
 2554SOL     OW 8560   2.086   6.441   0.608
 2554SOL    HW1 8561   2.065   6.393   0.693
 2554SOL    HW2 8562   2.008   6.499   0.583
 2555SOL     OW 8563   5.975   6.778   5.516
 2555SOL    HW1 8564   5.951   6.724   5.596
 2555SOL    HW2 8565   5.927   6.866   5.520
 2556SOL     OW 8566   4.184   5.857   0.855
 2556SOL    HW1 8567   4.144   5.799   0.784
 2556SOL    HW2 8568   4.158   5.952   0.838
 2557SOL     OW 8569   2.684   3.799   6.683
 2557SOL    HW1 8570   2.585   3.812   6.682
 2557SOL    HW2 8571   2.707   3.722   6.743
 2558SOL     OW 8572   5.161   2.080   4.801
 2558SOL    HW1 8573   5.173   1.993   4.849
 2558SOL    HW2 8574   5.065   2.093   4.777
 2559SOL     OW 8575   6.902   3.919   4.394
 2559SOL    HW1 8576   6.808   3.939   4.364
 2559SOL    HW2 8577   6.957   3.894   4.315
 2560SOL     OW 8578   5.825   3.650   4.418
 2560SOL    HW1 8579   5.774   3.732   4.445
 2560SOL    HW2 8580   5.772   3.600   4.349
 2561SOL     OW 8581   3.414   6.314   5.404
 2561SOL    HW1 8582   3.492   6.370   5.434
 2561SOL    HW2 8583   3.344   6.373   5.365
 2562SOL     OW 8584   1.773   5.299   2.279
 2562SOL    HW1 8585   1.840   5.337   2.214
 2562SOL    HW2 8586   1.721   5.226   2.234
 2563SOL     OW 8587   4.313   2.477   0.309
 2563SOL    HW1 8588   4.400   2.507   0.349
 2563SOL    HW2 8589   4.308   2.509   0.214
 2564SOL     OW 8590   2.113   6.375   5.876
 2564SOL    HW1 8591   2.165   6.292   5.895
 2564SOL    HW2 8592   2.170   6.439   5.825
 2565SOL     OW 8593   0.925   0.495   6.808
 2565SOL    HW1 8594   0.983   0.429   6.761
 2565SOL    HW2 8595   0.841   0.508   6.755
 2566SOL     OW 8596   3.330   6.847   0.559
 2566SOL    HW1 8597   3.308   6.941   0.585
 2566SOL    HW2 8598   3.249   6.804   0.518
 2567SOL     OW 8599   0.577   1.046   1.348
 2567SOL    HW1 8600   0.624   0.970   1.392
 2567SOL    HW2 8601   0.642   1.120   1.331
 2568SOL     OW 8602   4.572   6.982   0.345
 2568SOL    HW1 8603   4.622   6.911   0.295
 2568SOL    HW2 8604   4.497   7.015   0.288
 2569SOL     OW 8605   3.224   1.224   1.466
 2569SOL    HW1 8606   3.172   1.166   1.403
 2569SOL    HW2 8607   3.322   1.207   1.453
 2570SOL     OW 8608   5.505   0.346   6.355
 2570SOL    HW1 8609   5.476   0.325   6.449
 2570SOL    HW2 8610   5.425   0.372   6.301
 2571SOL     OW 8611   2.215   4.282   5.365
 2571SOL    HW1 8612   2.244   4.377   5.380
 2571SOL    HW2 8613   2.258   4.223   5.433
 2572SOL     OW 8614   2.384   4.807   6.931
 2572SOL    HW1 8615   2.393   4.874   6.857
 2572SOL    HW2 8616   2.440   4.727   6.911
 2573SOL     OW 8617   6.632   2.552   1.972
 2573SOL    HW1 8618   6.546   2.601   1.985
 2573SOL    HW2 8619   6.615   2.463   1.930
 2574SOL     OW 8620   6.536   3.724   0.153
 2574SOL    HW1 8621   6.468   3.739   0.081
 2574SOL    HW2 8622   6.492   3.681   0.232
 2575SOL     OW 8623   5.437   4.981   0.603
 2575SOL    HW1 8624   5.354   4.979   0.658
 2575SOL    HW2 8625   5.457   4.889   0.570
 2576SOL     OW 8626   3.692   6.541   4.595
 2576SOL    HW1 8627   3.600   6.558   4.561
 2576SOL    HW2 8628   3.720   6.616   4.655
 2577SOL     OW 8629   4.027   6.733   2.164
 2577SOL    HW1 8630   4.013   6.820   2.117
 2577SOL    HW2 8631   4.125   6.711   2.164
 2578SOL     OW 8632   4.911   1.385   4.255
 2578SOL    HW1 8633   4.814   1.360   4.265
 2578SOL    HW2 8634   4.955   1.382   4.345
 2579SOL     OW 8635   1.546   6.072   3.473
 2579SOL    HW1 8636   1.546   6.070   3.373
 2579SOL    HW2 8637   1.577   6.162   3.504
 2580SOL     OW 8638   3.019   3.462   6.528
 2580SOL    HW1 8639   3.113   3.481   6.556
 2580SOL    HW2 8640   2.979   3.544   6.488
 2581SOL     OW 8641   0.725   5.284   1.346
 2581SOL    HW1 8642   0.727   5.383   1.362
 2581SOL    HW2 8643   0.800   5.241   1.398
 2582SOL     OW 8644   0.686   4.267   2.085
 2582SOL    HW1 8645   0.719   4.359   2.107
 2582SOL    HW2 8646   0.764   4.209   2.061
 2583SOL     OW 8647   0.666   1.174   0.547
 2583SOL    HW1 8648   0.651   1.212   0.456
 2583SOL    HW2 8649   0.704   1.082   0.538
 2584SOL     OW 8650   4.357   5.543   6.397
 2584SOL    HW1 8651   4.432   5.607   6.411
 2584SOL    HW2 8652   4.270   5.591   6.406
 2585SOL     OW 8653   4.169   2.734   0.108
 2585SOL    HW1 8654   4.256   2.689   0.087
 2585SOL    HW2 8655   4.164   2.821   0.060
 2586SOL     OW 8656   3.632   1.264   3.202
 2586SOL    HW1 8657   3.653   1.200   3.128
 2586SOL    HW2 8658   3.716   1.311   3.230
 2587SOL     OW 8659   0.222   0.893   3.400
 2587SOL    HW1 8660   0.279   0.939   3.332
 2587SOL    HW2 8661   0.129   0.929   3.396
 2588SOL     OW 8662   4.433   1.019   6.874
 2588SOL    HW1 8663   4.439   1.103   6.928
 2588SOL    HW2 8664   4.484   1.030   6.789
 2589SOL     OW 8665   1.022   6.276   5.954
 2589SOL    HW1 8666   1.112   6.320   5.963
 2589SOL    HW2 8667   1.028   6.199   5.891
 2590SOL     OW 8668   3.419   5.870   1.121
 2590SOL    HW1 8669   3.351   5.803   1.151
 2590SOL    HW2 8670   3.497   5.870   1.184
 2591SOL     OW 8671   0.116   4.601   3.199
 2591SOL    HW1 8672   0.194   4.648   3.159
 2591SOL    HW2 8673   0.038   4.664   3.203
 2592SOL     OW 8674   3.794   5.740   0.252
 2592SOL    HW1 8675   3.711   5.794   0.242
 2592SOL    HW2 8676   3.853   5.754   0.173
 2593SOL     OW 8677   3.628   5.306   1.042
 2593SOL    HW1 8678   3.588   5.308   0.950
 2593SOL    HW2 8679   3.718   5.262   1.038
 2594SOL     OW 8680   2.329   4.542   6.627
 2594SOL    HW1 8681   2.277   4.554   6.712
 2594SOL    HW2 8682   2.282   4.475   6.569
 2595SOL     OW 8683   6.815   1.121   3.893
 2595SOL    HW1 8684   6.823   1.058   3.815
 2595SOL    HW2 8685   6.720   1.151   3.901
 2596SOL     OW 8686   3.127   1.794   1.513
 2596SOL    HW1 8687   3.169   1.723   1.456
 2596SOL    HW2 8688   3.162   1.787   1.606
 2597SOL     OW 8689   1.365   4.746   5.860
 2597SOL    HW1 8690   1.410   4.677   5.803
 2597SOL    HW2 8691   1.274   4.764   5.825
 2598SOL     OW 8692   6.901   1.336   3.234
 2598SOL    HW1 8693   6.892   1.435   3.246
 2598SOL    HW2 8694   6.946   1.297   3.315
 2599SOL     OW 8695   1.985   6.121   1.118
 2599SOL    HW1 8696   1.906   6.183   1.120
 2599SOL    HW2 8697   2.008   6.092   1.210
 2600SOL     OW 8698   5.418   2.857   4.702
 2600SOL    HW1 8699   5.381   2.934   4.753
 2600SOL    HW2 8700   5.415   2.877   4.604
 2601SOL     OW 8701   1.883   1.219   2.509
 2601SOL    HW1 8702   1.878   1.207   2.410
 2601SOL    HW2 8703   1.852   1.310   2.533
 2602SOL     OW 8704   1.285   4.736   5.055
 2602SOL    HW1 8705   1.359   4.771   5.113
 2602SOL    HW2 8706   1.307   4.751   4.959
 2603SOL     OW 8707   3.216   1.074   4.113
 2603SOL    HW1 8708   3.208   1.063   4.212
 2603SOL    HW2 8709   3.243   1.168   4.092
 2604SOL     OW 8710   5.033   1.987   2.437
 2604SOL    HW1 8711   5.094   2.010   2.361
 2604SOL    HW2 8712   4.940   1.978   2.404
 2605SOL     OW 8713   2.162   3.322   3.767
 2605SOL    HW1 8714   2.199   3.265   3.694
 2605SOL    HW2 8715   2.098   3.267   3.822
 2606SOL     OW 8716   5.724   5.038   1.738
 2606SOL    HW1 8717   5.792   4.973   1.772
 2606SOL    HW2 8718   5.633   4.999   1.746
 2607SOL     OW 8719   1.085   1.593   1.931
 2607SOL    HW1 8720   1.070   1.623   2.025
 2607SOL    HW2 8721   1.175   1.551   1.922
 2608SOL     OW 8722   4.728   4.887   0.209
 2608SOL    HW1 8723   4.810   4.853   0.162
 2608SOL    HW2 8724   4.657   4.818   0.207
 2609SOL     OW 8725   6.481   0.941   1.592
 2609SOL    HW1 8726   6.512   0.850   1.566
 2609SOL    HW2 8727   6.450   0.940   1.687
 2610SOL     OW 8728   0.801   4.588   4.605
 2610SOL    HW1 8729   0.892   4.599   4.564
 2610SOL    HW2 8730   0.809   4.536   4.690
 2611SOL     OW 8731   4.144   6.201   1.087
 2611SOL    HW1 8732   4.225   6.161   1.132
 2611SOL    HW2 8733   4.156   6.198   0.988
 2612SOL     OW 8734   6.236   6.837   4.629
 2612SOL    HW1 8735   6.231   6.884   4.541
 2612SOL    HW2 8736   6.145   6.803   4.654
 2613SOL     OW 8737   2.348   5.529   6.516
 2613SOL    HW1 8738   2.342   5.537   6.616
 2613SOL    HW2 8739   2.266   5.571   6.475
 2614SOL     OW 8740   6.416   1.867   0.127
 2614SOL    HW1 8741   6.509   1.831   0.133
 2614SOL    HW2 8742   6.370   1.829   0.047
 2615SOL     OW 8743   0.808   2.961   2.628
 2615SOL    HW1 8744   0.893   2.909   2.620
 2615SOL    HW2 8745   0.828   3.053   2.660
 2616SOL     OW 8746   3.028   2.770   5.639
 2616SOL    HW1 8747   3.032   2.743   5.735
 2616SOL    HW2 8748   2.943   2.734   5.598
 2617SOL     OW 8749   4.292   0.012   0.745
 2617SOL    HW1 8750   4.331   0.104   0.743
 2617SOL    HW2 8751   4.360   6.969   0.712
 2618SOL     OW 8752   6.707   0.409   3.440
 2618SOL    HW1 8753   6.608   0.416   3.453
 2618SOL    HW2 8754   6.726   0.361   3.354
 2619SOL     OW 8755   4.606   2.001   1.849
 2619SOL    HW1 8756   4.547   2.071   1.890
 2619SOL    HW2 8757   4.698   2.037   1.838
 2620SOL     OW 8758   6.362   6.268   3.859
 2620SOL    HW1 8759   6.460   6.255   3.878
 2620SOL    HW2 8760   6.317   6.180   3.854
 2621SOL     OW 8761   0.991   5.354   1.921
 2621SOL    HW1 8762   1.001   5.444   1.962
 2621SOL    HW2 8763   1.040   5.286   1.977
 2622SOL     OW 8764   1.146   3.822   5.903
 2622SOL    HW1 8765   1.200   3.741   5.880
 2622SOL    HW2 8766   1.170   3.897   5.842
 2623SOL     OW 8767   0.109   0.727   5.439
 2623SOL    HW1 8768   0.087   0.724   5.536
 2623SOL    HW2 8769   0.047   0.667   5.389
 2624SOL     OW 8770   0.392   1.141   4.711
 2624SOL    HW1 8771   0.320   1.183   4.766
 2624SOL    HW2 8772   0.458   1.210   4.682
 2625SOL     OW 8773   2.467   3.734   5.352
 2625SOL    HW1 8774   2.566   3.727   5.364
 2625SOL    HW2 8775   2.444   3.822   5.309
 2626SOL     OW 8776   0.059   0.289   6.129
 2626SOL    HW1 8777   6.992   0.300   6.086
 2626SOL    HW2 8778   0.108   0.376   6.129
 2627SOL     OW 8779   1.101   1.372   6.307
 2627SOL    HW1 8780   1.033   1.399   6.240
 2627SOL    HW2 8781   1.185   1.346   6.260
 2628SOL     OW 8782   2.207   3.713   5.609
 2628SOL    HW1 8783   2.188   3.642   5.677
 2628SOL    HW2 8784   2.182   3.679   5.518
 2629SOL     OW 8785   3.949   3.193   2.400
 2629SOL    HW1 8786   3.990   3.167   2.312
 2629SOL    HW2 8787   3.958   3.292   2.412
 2630SOL     OW 8788   3.358   1.672   2.849
 2630SOL    HW1 8789   3.430   1.702   2.787
 2630SOL    HW2 8790   3.288   1.743   2.856
 2631SOL     OW 8791   5.222   0.660   6.074
 2631SOL    HW1 8792   5.156   0.684   6.146
 2631SOL    HW2 8793   5.299   0.724   6.077
 2632SOL     OW 8794   4.928   3.111   0.724
 2632SOL    HW1 8795   4.850   3.109   0.662
 2632SOL    HW2 8796   4.950   3.017   0.753
 2633SOL     OW 8797   0.459   1.499   4.304
 2633SOL    HW1 8798   0.451   1.423   4.239
 2633SOL    HW2 8799   0.500   1.578   4.258
 2634SOL     OW 8800   0.573   5.284   3.838
 2634SOL    HW1 8801   0.623   5.241   3.763
 2634SOL    HW2 8802   0.638   5.321   3.905
 2635SOL     OW 8803   0.212   6.143   4.450
 2635SOL    HW1 8804   0.306   6.129   4.481
 2635SOL    HW2 8805   0.199   6.239   4.426
 2636SOL     OW 8806   4.031   0.201   5.545
 2636SOL    HW1 8807   4.022   0.153   5.457
 2636SOL    HW2 8808   4.007   0.298   5.532
 2637SOL     OW 8809   6.424   2.224   3.458
 2637SOL    HW1 8810   6.520   2.209   3.484
 2637SOL    HW2 8811   6.415   2.214   3.359
 2638SOL     OW 8812   0.132   6.951   4.036
 2638SOL    HW1 8813   0.090   6.916   4.120
 2638SOL    HW2 8814   0.159   6.875   3.978
 2639SOL     OW 8815   0.507   6.043   0.559
 2639SOL    HW1 8816   0.457   5.957   0.548
 2639SOL    HW2 8817   0.485   6.105   0.484
 2640SOL     OW 8818   6.641   6.425   5.428
 2640SOL    HW1 8819   6.574   6.495   5.404
 2640SOL    HW2 8820   6.634   6.404   5.526
 2641SOL     OW 8821   5.756   2.952   2.050
 2641SOL    HW1 8822   5.825   2.880   2.045
 2641SOL    HW2 8823   5.758   3.006   1.966
 2642SOL     OW 8824   5.976   0.728   3.747
 2642SOL    HW1 8825   6.075   0.728   3.731
 2642SOL    HW2 8826   5.954   0.793   3.820
 2643SOL     OW 8827   1.368   3.656   3.348
 2643SOL    HW1 8828   1.297   3.605   3.397
 2643SOL    HW2 8829   1.456   3.640   3.393
 2644SOL     OW 8830   5.144   5.382   4.448
 2644SOL    HW1 8831   5.144   5.480   4.429
 2644SOL    HW2 8832   5.113   5.366   4.541
 2645SOL     OW 8833   4.186   5.988   3.397
 2645SOL    HW1 8834   4.224   5.910   3.348
 2645SOL    HW2 8835   4.197   6.071   3.343
 2646SOL     OW 8836   6.226   1.762   6.949
 2646SOL    HW1 8837   6.156   1.717   7.004
 2646SOL    HW2 8838   6.216   1.734   6.853
 2647SOL     OW 8839   6.169   0.205   1.461
 2647SOL    HW1 8840   6.136   0.290   1.420
 2647SOL    HW2 8841   6.267   0.196   1.445
 2648SOL     OW 8842   0.696   6.706   4.157
 2648SOL    HW1 8843   0.690   6.639   4.232
 2648SOL    HW2 8844   0.719   6.796   4.195
 2649SOL     OW 8845   6.787   3.483   0.853
 2649SOL    HW1 8846   6.746   3.442   0.771
 2649SOL    HW2 8847   6.812   3.578   0.833
 2650SOL     OW 8848   1.851   4.822   3.201
 2650SOL    HW1 8849   1.886   4.848   3.111
 2650SOL    HW2 8850   1.855   4.901   3.262
 2651SOL     OW 8851   2.511   1.773   1.272
 2651SOL    HW1 8852   2.450   1.808   1.342
 2651SOL    HW2 8853   2.493   1.675   1.258
 2652SOL     OW 8854   4.310   3.363   5.351
 2652SOL    HW1 8855   4.232   3.418   5.323
 2652SOL    HW2 8856   4.393   3.419   5.350
 2653SOL     OW 8857   4.765   6.772   5.912
 2653SOL    HW1 8858   4.680   6.730   5.944
 2653SOL    HW2 8859   4.768   6.867   5.940
 2654SOL     OW 8860   4.140   7.000   1.521
 2654SOL    HW1 8861   4.238   6.984   1.533
 2654SOL    HW2 8862   4.123   0.076   1.507
 2655SOL     OW 8863   5.578   5.797   3.705
 2655SOL    HW1 8864   5.629   5.873   3.745
 2655SOL    HW2 8865   5.519   5.832   3.631
 2656SOL     OW 8866   3.671   4.975   4.618
 2656SOL    HW1 8867   3.618   4.951   4.537
 2656SOL    HW2 8868   3.620   4.947   4.700
 2657SOL     OW 8869   1.566   4.269   6.693
 2657SOL    HW1 8870   1.482   4.305   6.733
 2657SOL    HW2 8871   1.621   4.345   6.656
 2658SOL     OW 8872   5.453   4.806   0.232
 2658SOL    HW1 8873   5.384   4.736   0.213
 2658SOL    HW2 8874   5.539   4.762   0.258
 2659SOL     OW 8875   5.030   3.232   4.986
 2659SOL    HW1 8876   5.023   3.157   5.053
 2659SOL    HW2 8877   5.112   3.285   5.005
 2660SOL     OW 8878   1.496   0.405   1.685
 2660SOL    HW1 8879   1.595   0.406   1.695
 2660SOL    HW2 8880   1.453   0.423   1.774
 2661SOL     OW 8881   2.218   6.905   1.286
 2661SOL    HW1 8882   2.197   6.960   1.366
 2661SOL    HW2 8883   2.156   6.827   1.282
 2662SOL     OW 8884   3.280   6.497   5.253
 2662SOL    HW1 8885   3.350   6.529   5.189
 2662SOL    HW2 8886   3.247   6.574   5.308
 2663SOL     OW 8887   3.789   4.361   6.590
 2663SOL    HW1 8888   3.768   4.306   6.670
 2663SOL    HW2 8889   3.875   4.331   6.550
 2664SOL     OW 8890   4.377   3.104   5.695
 2664SOL    HW1 8891   4.312   3.179   5.680
 2664SOL    HW2 8892   4.451   3.111   5.628
 2665SOL     OW 8893   2.943   3.322   5.055
 2665SOL    HW1 8894   2.915   3.409   5.014
 2665SOL    HW2 8895   2.869   3.288   5.114
 2666SOL     OW 8896   0.916   4.875   2.025
 2666SOL    HW1 8897   0.996   4.825   2.057
 2666SOL    HW2 8898   0.910   4.963   2.072
 2667SOL     OW 8899   1.586   5.467   3.938
 2667SOL    HW1 8900   1.621   5.442   4.028
 2667SOL    HW2 8901   1.514   5.536   3.948
 2668SOL     OW 8902   6.882   2.489   4.590
 2668SOL    HW1 8903   6.982   2.488   4.578
 2668SOL    HW2 8904   6.845   2.400   4.563
 2669SOL     OW 8905   3.084   5.348   5.885
 2669SOL    HW1 8906   3.058   5.274   5.823
 2669SOL    HW2 8907   3.184   5.350   5.894
 2670SOL     OW 8908   5.825   3.680   4.999
 2670SOL    HW1 8909   5.876   3.669   4.914
 2670SOL    HW2 8910   5.889   3.688   5.075
 2671SOL     OW 8911   4.207   5.493   0.372
 2671SOL    HW1 8912   4.290   5.454   0.330
 2671SOL    HW2 8913   4.173   5.568   0.316
 2672SOL     OW 8914   2.701   5.900   1.208
 2672SOL    HW1 8915   2.654   5.820   1.245
 2672SOL    HW2 8916   2.650   5.936   1.130
 2673SOL     OW 8917   6.497   1.778   1.866
 2673SOL    HW1 8918   6.515   1.739   1.775
 2673SOL    HW2 8919   6.538   1.870   1.871
 2674SOL     OW 8920   1.280   4.370   4.109
 2674SOL    HW1 8921   1.316   4.283   4.143
 2674SOL    HW2 8922   1.198   4.394   4.160
 2675SOL     OW 8923   6.590   5.976   4.070
 2675SOL    HW1 8924   6.526   5.918   4.121
 2675SOL    HW2 8925   6.683   5.960   4.105
 2676SOL     OW 8926   3.028   3.198   1.174
 2676SOL    HW1 8927   3.044   3.104   1.143
 2676SOL    HW2 8928   2.930   3.220   1.164
 2677SOL     OW 8929   3.126   4.313   0.115
 2677SOL    HW1 8930   3.108   4.351   0.206
 2677SOL    HW2 8931   3.225   4.302   0.103
 2678SOL     OW 8932   0.351   2.404   2.838
 2678SOL    HW1 8933   0.440   2.381   2.800
 2678SOL    HW2 8934   0.280   2.384   2.770
 2679SOL     OW 8935   2.047   4.851   2.450
 2679SOL    HW1 8936   1.982   4.877   2.521
 2679SOL    HW2 8937   2.032   4.906   2.368
 2680SOL     OW 8938   1.476   1.847   1.031
 2680SOL    HW1 8939   1.441   1.764   0.987
 2680SOL    HW2 8940   1.576   1.846   1.028
 2681SOL     OW 8941   1.288   2.243   4.972
 2681SOL    HW1 8942   1.322   2.192   4.893
 2681SOL    HW2 8943   1.227   2.186   5.026
 2682SOL     OW 8944   4.855   4.120   4.132
 2682SOL    HW1 8945   4.913   4.128   4.051
 2682SOL    HW2 8946   4.791   4.197   4.136
 2683SOL     OW 8947   2.511   4.663   2.038
 2683SOL    HW1 8948   2.429   4.719   2.035
 2683SOL    HW2 8949   2.587   4.712   1.996
 2684SOL     OW 8950   4.557   6.748   2.424
 2684SOL    HW1 8951   4.503   6.688   2.483
 2684SOL    HW2 8952   4.503   6.828   2.398
 2685SOL     OW 8953   6.072   5.746   5.646
 2685SOL    HW1 8954   6.122   5.832   5.640
 2685SOL    HW2 8955   6.089   5.704   5.736
 2686SOL     OW 8956   1.673   1.791   5.791
 2686SOL    HW1 8957   1.601   1.860   5.805
 2686SOL    HW2 8958   1.634   1.700   5.804
 2687SOL     OW 8959   4.368   5.693   1.015
 2687SOL    HW1 8960   4.308   5.740   0.950
 2687SOL    HW2 8961   4.340   5.716   1.109
 2688SOL     OW 8962   2.729   2.792   6.970
 2688SOL    HW1 8963   2.728   2.872   6.911
 2688SOL    HW2 8964   2.736   2.821   0.043
 2689SOL     OW 8965   0.034   3.339   2.208
 2689SOL    HW1 8966   0.128   3.358   2.235
 2689SOL    HW2 8967   0.033   3.293   2.119
 2690SOL     OW 8968   3.414   3.307   5.303
 2690SOL    HW1 8969   3.496   3.251   5.318
 2690SOL    HW2 8970   3.409   3.332   5.206
 2691SOL     OW 8971   0.842   5.466   3.608
 2691SOL    HW1 8972   0.746   5.446   3.626
 2691SOL    HW2 8973   0.857   5.469   3.509
 2692SOL     OW 8974   2.673   6.762   3.564
 2692SOL    HW1 8975   2.630   6.672   3.567
 2692SOL    HW2 8976   2.723   6.778   3.650
 2693SOL     OW 8977   2.491   4.472   4.031
 2693SOL    HW1 8978   2.545   4.542   3.983
 2693SOL    HW2 8979   2.394   4.495   4.025
 2694SOL     OW 8980   4.247   6.867   2.969
 2694SOL    HW1 8981   4.335   6.912   2.986
 2694SOL    HW2 8982   4.214   6.825   3.054
 2695SOL     OW 8983   5.943   0.695   2.703
 2695SOL    HW1 8984   5.906   0.772   2.755
 2695SOL    HW2 8985   5.916   0.703   2.607
 2696SOL     OW 8986   3.862   3.423   5.961
 2696SOL    HW1 8987   3.944   3.382   5.920
 2696SOL    HW2 8988   3.781   3.392   5.911
 2697SOL     OW 8989   3.274   1.893   3.245
 2697SOL    HW1 8990   3.232   1.825   3.185
 2697SOL    HW2 8991   3.258   1.867   3.341
 2698SOL     OW 8992   1.341   4.440   0.565
 2698SOL    HW1 8993   1.316   4.522   0.617
 2698SOL    HW2 8994   1.407   4.465   0.494
 2699SOL     OW 8995   2.506   5.904   1.455
 2699SOL    HW1 8996   2.568   5.981   1.469
 2699SOL    HW2 8997   2.543   5.823   1.499
 2700SOL     OW 8998   2.858   2.088   0.830
 2700SOL    HW1 8999   2.917   2.090   0.749
 2700SOL    HW2 9000   2.872   2.002   0.879
 2701SOL     OW 9001   4.905   2.059   6.151
 2701SOL    HW1 9002   4.960   1.979   6.174
 2701SOL    HW2 9003   4.902   2.121   6.229
 2702SOL     OW 9004   0.620   2.488   3.442
 2702SOL    HW1 9005   0.531   2.444   3.441
 2702SOL    HW2 9006   0.647   2.512   3.349
 2703SOL     OW 9007   1.034   6.132   0.736
 2703SOL    HW1 9008   0.997   6.152   0.645
 2703SOL    HW2 9009   1.104   6.199   0.759
 2704SOL     OW 9010   6.647   6.080   1.859
 2704SOL    HW1 9011   6.668   5.993   1.814
 2704SOL    HW2 9012   6.613   6.145   1.792
 2705SOL     OW 9013   6.042   0.204   4.919
 2705SOL    HW1 9014   5.988   0.202   4.835
 2705SOL    HW2 9015   6.128   0.155   4.904
 2706SOL     OW 9016   6.431   4.934   3.173
 2706SOL    HW1 9017   6.458   4.928   3.269
 2706SOL    HW2 9018   6.434   5.030   3.144
 2707SOL     OW 9019   3.574   0.065   4.349
 2707SOL    HW1 9020   3.585   0.164   4.341
 2707SOL    HW2 9021   3.657   0.024   4.385
 2708SOL     OW 9022   6.309   2.618   0.998
 2708SOL    HW1 9023   6.318   2.718   1.005
 2708SOL    HW2 9024   6.361   2.585   0.920
 2709SOL     OW 9025   5.041   6.974   0.223
 2709SOL    HW1 9026   5.128   6.965   0.271
 2709SOL    HW2 9027   5.041   6.916   0.142
 2710SOL     OW 9028   0.976   3.043   3.964
 2710SOL    HW1 9029   0.956   3.049   4.061
 2710SOL    HW2 9030   1.054   2.981   3.949
 2711SOL     OW 9031   2.599   0.739   3.546
 2711SOL    HW1 9032   2.666   0.806   3.575
 2711SOL    HW2 9033   2.590   0.743   3.446
 2712SOL     OW 9034   2.794   5.081   1.799
 2712SOL    HW1 9035   2.725   5.080   1.727
 2712SOL    HW2 9036   2.773   5.008   1.865
 2713SOL     OW 9037   2.600   3.628   5.941
 2713SOL    HW1 9038   2.694   3.598   5.961
 2713SOL    HW2 9039   2.603   3.713   5.889
 2714SOL     OW 9040   4.276   2.704   0.454
 2714SOL    HW1 9041   4.297   2.776   0.387
 2714SOL    HW2 9042   4.266   2.617   0.406
 2715SOL     OW 9043   5.502   2.296   0.980
 2715SOL    HW1 9044   5.500   2.383   0.930
 2715SOL    HW2 9045   5.455   2.307   1.067
 2716SOL     OW 9046   5.097   3.384   4.068
 2716SOL    HW1 9047   5.123   3.291   4.041
 2716SOL    HW2 9048   5.060   3.432   3.988
 2717SOL     OW 9049   0.844   0.104   1.969
 2717SOL    HW1 9050   0.804   0.193   1.993
 2717SOL    HW2 9051   0.796   0.032   2.019
 2718SOL     OW 9052   1.580   1.516   5.570
 2718SOL    HW1 9053   1.665   1.489   5.615
 2718SOL    HW2 9054   1.503   1.470   5.612
 2719SOL     OW 9055   0.871   4.974   1.781
 2719SOL    HW1 9056   0.812   4.905   1.740
 2719SOL    HW2 9057   0.908   4.939   1.867
 2720SOL     OW 9058   1.379   0.214   2.458
 2720SOL    HW1 9059   1.334   0.229   2.370
 2720SOL    HW2 9060   1.315   0.230   2.532
 2721SOL     OW 9061   2.851   6.269   3.197
 2721SOL    HW1 9062   2.946   6.243   3.216
 2721SOL    HW2 9063   2.798   6.265   3.282
 2722SOL     OW 9064   5.758   4.968   6.999
 2722SOL    HW1 9065   5.818   4.888   7.001
 2722SOL    HW2 9066   5.779   5.028   0.054
 2723SOL     OW 9067   1.294   5.413   6.714
 2723SOL    HW1 9068   1.279   5.511   6.729
 2723SOL    HW2 9069   1.232   5.381   6.642
 2724SOL     OW 9070   1.483   6.197   6.523
 2724SOL    HW1 9071   1.568   6.206   6.576
 2724SOL    HW2 9072   1.430   6.281   6.529
 2725SOL     OW 9073   5.328   4.727   4.661
 2725SOL    HW1 9074   5.345   4.666   4.738
 2725SOL    HW2 9075   5.278   4.808   4.692
 2726SOL     OW 9076   0.230   2.536   2.256
 2726SOL    HW1 9077   0.293   2.574   2.188
 2726SOL    HW2 9078   0.219   2.600   2.331
 2727SOL     OW 9079   0.838   4.510   4.204
 2727SOL    HW1 9080   0.796   4.475   4.288
 2727SOL    HW2 9081   0.787   4.590   4.172
 2728SOL     OW 9082   4.484   6.422   5.431
 2728SOL    HW1 9083   4.450   6.474   5.353
 2728SOL    HW2 9084   4.570   6.462   5.464
 2729SOL     OW 9085   0.169   6.367   0.572
 2729SOL    HW1 9086   0.132   6.276   0.589
 2729SOL    HW2 9087   0.243   6.386   0.636
 2730SOL     OW 9088   1.440   5.796   2.047
 2730SOL    HW1 9089   1.414   5.834   1.958
 2730SOL    HW2 9090   1.369   5.733   2.078
 2731SOL     OW 9091   3.049   3.484   3.439
 2731SOL    HW1 9092   3.078   3.409   3.498
 2731SOL    HW2 9093   3.096   3.478   3.351
 2732SOL     OW 9094   5.900   2.058   0.836
 2732SOL    HW1 9095   5.951   2.080   0.919
 2732SOL    HW2 9096   5.887   1.959   0.831
 2733SOL     OW 9097   6.497   1.655   5.150
 2733SOL    HW1 9098   6.466   1.591   5.079
 2733SOL    HW2 9099   6.419   1.680   5.208
 2734SOL     OW 9100   2.931   5.463   1.156
 2734SOL    HW1 9101   2.976   5.434   1.072
 2734SOL    HW2 9102   2.894   5.555   1.144
 2735SOL     OW 9103   1.791   2.428   1.906
 2735SOL    HW1 9104   1.700   2.406   1.871
 2735SOL    HW2 9105   1.795   2.408   2.004
 2736SOL     OW 9106   6.707   6.137   4.487
 2736SOL    HW1 9107   6.685   6.056   4.541
 2736SOL    HW2 9108   6.743   6.209   4.546
 2737SOL     OW 9109   2.902   3.939   5.429
 2737SOL    HW1 9110   2.812   3.960   5.392
 2737SOL    HW2 9111   2.972   3.957   5.361
 2738SOL     OW 9112   5.227   6.209   1.771
 2738SOL    HW1 9113   5.156   6.194   1.840
 2738SOL    HW2 9114   5.306   6.153   1.793
 2739SOL     OW 9115   1.000   5.291   0.576
 2739SOL    HW1 9116   0.923   5.354   0.566
 2739SOL    HW2 9117   1.019   5.276   0.673
 2740SOL     OW 9118   6.257   4.522   1.603
 2740SOL    HW1 9119   6.210   4.434   1.599
 2740SOL    HW2 9120   6.295   4.536   1.695
 2741SOL     OW 9121   6.526   0.625   4.239
 2741SOL    HW1 9122   6.619   0.598   4.215
 2741SOL    HW2 9123   6.461   0.579   4.180
 2742SOL     OW 9124   1.808   4.886   0.395
 2742SOL    HW1 9125   1.823   4.892   0.493
 2742SOL    HW2 9126   1.772   4.796   0.371
 2743SOL     OW 9127   0.147   4.092   2.523
 2743SOL    HW1 9128   0.203   4.167   2.487
 2743SOL    HW2 9129   0.129   4.107   2.620
 2744SOL     OW 9130   4.588   2.221   0.361
 2744SOL    HW1 9131   4.546   2.285   0.425
 2744SOL    HW2 9132   4.618   2.140   0.410
 2745SOL     OW 9133   6.910   1.169   4.808
 2745SOL    HW1 9134   6.934   1.087   4.756
 2745SOL    HW2 9135   6.842   1.145   4.877
 2746SOL     OW 9136   0.930   2.429   5.116
 2746SOL    HW1 9137   0.951   2.515   5.163
 2746SOL    HW2 9138   0.931   2.354   5.182
 2747SOL     OW 9139   4.916   5.198   0.134
 2747SOL    HW1 9140   4.870   5.191   0.223
 2747SOL    HW2 9141   5.013   5.222   0.149
 2748SOL     OW 9142   4.364   1.761   2.681
 2748SOL    HW1 9143   4.270   1.740   2.706
 2748SOL    HW2 9144   4.424   1.739   2.758
 2749SOL     OW 9145   6.516   4.496   0.795
 2749SOL    HW1 9146   6.530   4.556   0.875
 2749SOL    HW2 9147   6.556   4.406   0.814
 2750SOL     OW 9148   1.810   3.890   1.227
 2750SOL    HW1 9149   1.710   3.893   1.220
 2750SOL    HW2 9150   1.836   3.873   1.322
 2751SOL     OW 9151   1.195   2.884   1.491
 2751SOL    HW1 9152   1.266   2.955   1.489
 2751SOL    HW2 9153   1.237   2.795   1.510
 2752SOL     OW 9154   3.320   4.871   5.656
 2752SOL    HW1 9155   3.411   4.872   5.615
 2752SOL    HW2 9156   3.307   4.952   5.712
 2753SOL     OW 9157   6.827   6.525   4.826
 2753SOL    HW1 9158   6.919   6.523   4.867
 2753SOL    HW2 9159   6.807   6.436   4.786
 2754SOL     OW 9160   0.601   0.315   1.046
 2754SOL    HW1 9161   0.620   0.310   1.144
 2754SOL    HW2 9162   0.675   0.365   1.001
 2755SOL     OW 9163   3.492   6.641   2.438
 2755SOL    HW1 9164   3.452   6.731   2.453
 2755SOL    HW2 9165   3.433   6.571   2.479
 2756SOL     OW 9166   5.521   5.304   0.119
 2756SOL    HW1 9167   5.598   5.242   0.135
 2756SOL    HW2 9168   5.546   5.372   0.050
 2757SOL     OW 9169   2.381   6.451   6.951
 2757SOL    HW1 9170   2.361   6.452   0.026
 2757SOL    HW2 9171   2.305   6.494   6.901
 2758SOL     OW 9172   3.896   6.408   3.674
 2758SOL    HW1 9173   3.861   6.332   3.618
 2758SOL    HW2 9174   3.981   6.379   3.718
 2759SOL     OW 9175   5.289   6.597   5.924
 2759SOL    HW1 9176   5.286   6.503   5.890
 2759SOL    HW2 9177   5.270   6.598   6.022
 2760SOL     OW 9178   0.120   6.375   1.833
 2760SOL    HW1 9179   0.194   6.442   1.831
 2760SOL    HW2 9180   0.159   6.283   1.840
 2761SOL     OW 9181   1.776   5.031   4.443
 2761SOL    HW1 9182   1.834   4.997   4.517
 2761SOL    HW2 9183   1.769   4.962   4.371
 2762SOL     OW 9184   1.618   1.183   5.745
 2762SOL    HW1 9185   1.686   1.125   5.790
 2762SOL    HW2 9186   1.625   1.276   5.780
 2763SOL     OW 9187   5.259   1.640   3.997
 2763SOL    HW1 9188   5.358   1.646   3.990
 2763SOL    HW2 9189   5.232   1.546   4.017
 2764SOL     OW 9190   5.751   1.248   0.858
 2764SOL    HW1 9191   5.699   1.172   0.897
 2764SOL    HW2 9192   5.747   1.327   0.920
 2765SOL     OW 9193   5.642   6.867   1.182
 2765SOL    HW1 9194   5.588   6.927   1.124
 2765SOL    HW2 9195   5.740   6.882   1.166
 2766SOL     OW 9196   4.649   2.407   0.161
 2766SOL    HW1 9197   4.591   2.399   0.080
 2766SOL    HW2 9198   4.620   2.341   0.229
 2767SOL     OW 9199   0.356   5.670   0.365
 2767SOL    HW1 9200   0.276   5.620   0.400
 2767SOL    HW2 9201   0.343   5.689   0.268
 2768SOL     OW 9202   4.541   0.721   0.996
 2768SOL    HW1 9203   4.540   0.790   1.067
 2768SOL    HW2 9204   4.464   0.658   1.009
 2769SOL     OW 9205   0.592   4.081   4.310
 2769SOL    HW1 9206   0.637   4.068   4.398
 2769SOL    HW2 9207   0.497   4.049   4.315
 2770SOL     OW 9208   2.867   5.528   5.607
 2770SOL    HW1 9209   2.886   5.568   5.697
 2770SOL    HW2 9210   2.948   5.539   5.548
 2771SOL     OW 9211   6.848   0.939   3.187
 2771SOL    HW1 9212   6.883   0.854   3.147
 2771SOL    HW2 9213   6.772   0.974   3.132
 2772SOL     OW 9214   4.306   1.827   0.945
 2772SOL    HW1 9215   4.260   1.816   0.857
 2772SOL    HW2 9216   4.242   1.864   1.012
 2773SOL     OW 9217   5.928   2.182   5.573
 2773SOL    HW1 9218   5.996   2.238   5.526
 2773SOL    HW2 9219   5.963   2.157   5.663
 2774SOL     OW 9220   5.530   3.760   2.938
 2774SOL    HW1 9221   5.568   3.747   3.030
 2774SOL    HW2 9222   5.496   3.673   2.904
 2775SOL     OW 9223   6.653   5.934   6.680
 2775SOL    HW1 9224   6.620   5.964   6.769
 2775SOL    HW2 9225   6.708   6.006   6.638
 2776SOL     OW 9226   4.213   4.944   5.997
 2776SOL    HW1 9227   4.153   5.001   6.055
 2776SOL    HW2 9228   4.190   4.848   6.011
 2777SOL     OW 9229   2.825   1.261   2.290
 2777SOL    HW1 9230   2.825   1.299   2.382
 2777SOL    HW2 9231   2.767   1.317   2.231
 2778SOL     OW 9232   1.063   0.353   5.441
 2778SOL    HW1 9233   1.070   0.432   5.502
 2778SOL    HW2 9234   1.039   0.385   5.349
 2779SOL     OW 9235   4.824   6.318   1.031
 2779SOL    HW1 9236   4.784   6.390   1.088
 2779SOL    HW2 9237   4.767   6.236   1.035
 2780SOL     OW 9238   6.259   6.425   6.821
 2780SOL    HW1 9239   6.222   6.454   6.909
 2780SOL    HW2 9240   6.183   6.399   6.760
 2781SOL     OW 9241   5.002   6.496   1.689
 2781SOL    HW1 9242   5.101   6.510   1.692
 2781SOL    HW2 9243   4.967   6.524   1.600
 2782SOL     OW 9244   4.173   2.097   5.674
 2782SOL    HW1 9245   4.228   2.148   5.740
 2782SOL    HW2 9246   4.077   2.101   5.700
 2783SOL     OW 9247   4.969   4.221   3.887
 2783SOL    HW1 9248   4.962   4.305   3.834
 2783SOL    HW2 9249   5.057   4.219   3.934
 2784SOL     OW 9250   3.820   1.572   1.417
 2784SOL    HW1 9251   3.871   1.601   1.498
 2784SOL    HW2 9252   3.802   1.474   1.423
 2785SOL     OW 9253   4.867   1.229   0.693
 2785SOL    HW1 9254   4.955   1.229   0.645
 2785SOL    HW2 9255   4.797   1.189   0.634
 2786SOL     OW 9256   4.984   6.247   2.009
 2786SOL    HW1 9257   5.070   6.287   2.042
 2786SOL    HW2 9258   4.934   6.315   1.956
 2787SOL     OW 9259   3.553   1.826   6.774
 2787SOL    HW1 9260   3.590   1.854   6.862
 2787SOL    HW2 9261   3.619   1.768   6.726
 2788SOL     OW 9262   2.403   4.588   6.142
 2788SOL    HW1 9263   2.469   4.575   6.069
 2788SOL    HW2 9264   2.353   4.503   6.157
 2789SOL     OW 9265   2.252   2.318   3.421
 2789SOL    HW1 9266   2.239   2.321   3.322
 2789SOL    HW2 9267   2.297   2.402   3.451
 2790SOL     OW 9268   3.323   5.926   2.024
 2790SOL    HW1 9269   3.323   5.879   2.113
 2790SOL    HW2 9270   3.271   5.871   1.958
 2791SOL     OW 9271   1.128   3.764   3.262
 2791SOL    HW1 9272   1.064   3.692   3.235
 2791SOL    HW2 9273   1.207   3.722   3.306
 2792SOL     OW 9274   1.633   6.855   4.196
 2792SOL    HW1 9275   1.545   6.808   4.203
 2792SOL    HW2 9276   1.684   6.819   4.118
 2793SOL     OW 9277   5.198   3.398   2.999
 2793SOL    HW1 9278   5.171   3.494   2.990
 2793SOL    HW2 9279   5.116   3.341   3.006
 2794SOL     OW 9280   0.422   3.022   0.217
 2794SOL    HW1 9281   0.479   2.950   0.176
 2794SOL    HW2 9282   0.328   2.990   0.223
 2795SOL     OW 9283   2.004   2.661   0.595
 2795SOL    HW1 9284   2.090   2.662   0.646
 2795SOL    HW2 9285   1.966   2.568   0.596
 2796SOL     OW 9286   6.730   5.842   2.340
 2796SOL    HW1 9287   6.680   5.902   2.401
 2796SOL    HW2 9288   6.730   5.880   2.248
 2797SOL     OW 9289   5.805   5.132   4.561
 2797SOL    HW1 9290   5.790   5.093   4.652
 2797SOL    HW2 9291   5.900   5.162   4.553
 2798SOL     OW 9292   0.625   5.204   1.992
 2798SOL    HW1 9293   0.665   5.248   1.912
 2798SOL    HW2 9294   0.698   5.175   2.054
 2799SOL     OW 9295   6.524   6.866   6.823
 2799SOL    HW1 9296   6.426   6.882   6.810
 2799SOL    HW2 9297   6.543   6.767   6.818
 2800SOL     OW 9298   4.406   5.354   0.202
 2800SOL    HW1 9299   4.359   5.330   0.117
 2800SOL    HW2 9300   4.495   5.393   0.180
 2801SOL     OW 9301   5.924   5.442   5.632
 2801SOL    HW1 9302   5.920   5.536   5.663
 2801SOL    HW2 9303   6.017   5.420   5.602
 2802SOL     OW 9304   4.793   1.501   5.274
 2802SOL    HW1 9305   4.717   1.562   5.297
 2802SOL    HW2 9306   4.880   1.546   5.295
 2803SOL     OW 9307   3.857   5.984   6.445
 2803SOL    HW1 9308   3.868   5.990   6.346
 2803SOL    HW2 9309   3.772   6.029   6.472
 2804SOL     OW 9310   0.300   4.788   4.816
 2804SOL    HW1 9311   0.229   4.725   4.848
 2804SOL    HW2 9312   0.291   4.800   4.717
 2805SOL     OW 9313   5.252   3.375   1.684
 2805SOL    HW1 9314   5.181   3.381   1.754
 2805SOL    HW2 9315   5.215   3.406   1.596
 2806SOL     OW 9316   6.469   5.163   5.024
 2806SOL    HW1 9317   6.532   5.131   5.095
 2806SOL    HW2 9318   6.375   5.148   5.054
 2807SOL     OW 9319   4.914   5.393   3.465
 2807SOL    HW1 9320   4.982   5.466   3.452
 2807SOL    HW2 9321   4.866   5.377   3.379
 2808SOL     OW 9322   5.208   3.626   2.461
 2808SOL    HW1 9323   5.239   3.591   2.372
 2808SOL    HW2 9324   5.202   3.551   2.526
 2809SOL     OW 9325   6.057   3.042   0.912
 2809SOL    HW1 9326   6.104   2.988   0.842
 2809SOL    HW2 9327   5.961   3.013   0.917
 2810SOL     OW 9328   2.950   5.724   4.033
 2810SOL    HW1 9329   2.986   5.700   4.123
 2810SOL    HW2 9330   2.994   5.808   4.001
 2811SOL     OW 9331   1.115   1.525   3.513
 2811SOL    HW1 9332   1.087   1.455   3.447
 2811SOL    HW2 9333   1.212   1.513   3.534
 2812SOL     OW 9334   4.889   4.012   6.643
 2812SOL    HW1 9335   4.813   3.983   6.702
 2812SOL    HW2 9336   4.941   3.932   6.614
 2813SOL     OW 9337   6.411   6.863   5.798
 2813SOL    HW1 9338   6.352   6.940   5.823
 2813SOL    HW2 9339   6.500   6.899   5.768
 2814SOL     OW 9340   4.216   3.427   5.632
 2814SOL    HW1 9341   4.247   3.519   5.652
 2814SOL    HW2 9342   4.220   3.411   5.533
 2815SOL     OW 9343   6.075   0.409   5.693
 2815SOL    HW1 9344   6.136   0.475   5.737
 2815SOL    HW2 9345   5.980   0.441   5.702
 2816SOL     OW 9346   6.679   5.302   3.984
 2816SOL    HW1 9347   6.665   5.256   4.072
 2816SOL    HW2 9348   6.761   5.266   3.940
 2817SOL     OW 9349   2.467   6.850   1.387
 2817SOL    HW1 9350   2.464   6.925   1.453
 2817SOL    HW2 9351   2.391   6.859   1.323
 2818SOL     OW 9352   0.053   0.560   0.780
 2818SOL    HW1 9353   0.042   0.504   0.698
 2818SOL    HW2 9354   7.015   0.525   0.853
 2819SOL     OW 9355   0.411   1.242   1.512
 2819SOL    HW1 9356   0.507   1.215   1.517
 2819SOL    HW2 9357   0.358   1.187   1.576
 2820SOL     OW 9358   0.662   2.241   3.139
 2820SOL    HW1 9359   0.681   2.326   3.091
 2820SOL    HW2 9360   0.608   2.260   3.221
 2821SOL     OW 9361   4.046   3.455   0.254
 2821SOL    HW1 9362   4.049   3.517   0.332
 2821SOL    HW2 9363   4.136   3.452   0.211
 2822SOL     OW 9364   4.489   1.607   0.363
 2822SOL    HW1 9365   4.510   1.704   0.379
 2822SOL    HW2 9366   4.519   1.582   0.271
 2823SOL     OW 9367   4.654   6.143   0.257
 2823SOL    HW1 9368   4.608   6.208   0.317
 2823SOL    HW2 9369   4.614   6.149   0.165
 2824SOL     OW 9370   2.791   1.293   3.052
 2824SOL    HW1 9371   2.694   1.280   3.073
 2824SOL    HW2 9372   2.804   1.290   2.952
 2825SOL     OW 9373   6.505   0.061   6.462
 2825SOL    HW1 9374   6.422   0.014   6.434
 2825SOL    HW2 9375   6.508   0.067   6.562
 2826SOL     OW 9376   4.610   0.821   6.986
 2826SOL    HW1 9377   4.707   0.813   6.962
 2826SOL    HW2 9378   4.554   0.810   6.904
 2827SOL     OW 9379   6.774   0.299   5.141
 2827SOL    HW1 9380   6.706   0.296   5.069
 2827SOL    HW2 9381   6.763   0.220   5.201
 2828SOL     OW 9382   3.080   0.789   0.184
 2828SOL    HW1 9383   3.137   0.853   0.132
 2828SOL    HW2 9384   3.037   0.724   0.122
 2829SOL     OW 9385   3.517   3.681   5.291
 2829SOL    HW1 9386   3.496   3.773   5.324
 2829SOL    HW2 9387   3.440   3.647   5.237
 2830SOL     OW 9388   1.495   3.109   5.790
 2830SOL    HW1 9389   1.482   3.198   5.834
 2830SOL    HW2 9390   1.584   3.107   5.745
 2831SOL     OW 9391   0.549   5.659   3.837
 2831SOL    HW1 9392   0.639   5.666   3.881
 2831SOL    HW2 9393   0.499   5.745   3.849
 2832SOL     OW 9394   1.284   1.591   2.673
 2832SOL    HW1 9395   1.371   1.626   2.709
 2832SOL    HW2 9396   1.208   1.644   2.712
 2833SOL     OW 9397   3.896   1.911   2.272
 2833SOL    HW1 9398   3.896   1.868   2.182
 2833SOL    HW2 9399   3.918   2.008   2.263
 2834SOL     OW 9400   3.417   5.244   6.703
 2834SOL    HW1 9401   3.375   5.299   6.631
 2834SOL    HW2 9402   3.346   5.195   6.753
 2835SOL     OW 9403   0.107   0.451   1.510
 2835SOL    HW1 9404   0.098   0.463   1.609
 2835SOL    HW2 9405   0.088   0.538   1.464
 2836SOL     OW 9406   6.014   0.242   2.331
 2836SOL    HW1 9407   6.094   0.254   2.272
 2836SOL    HW2 9408   6.045   0.226   2.425
 2837SOL     OW 9409   5.788   4.194   2.735
 2837SOL    HW1 9410   5.838   4.155   2.657
 2837SOL    HW2 9411   5.853   4.221   2.805
 2838SOL     OW 9412   2.251   4.553   1.022
 2838SOL    HW1 9413   2.282   4.512   0.936
 2838SOL    HW2 9414   2.299   4.639   1.037
 2839SOL     OW 9415   6.848   1.495   1.810
 2839SOL    HW1 9416   6.776   1.442   1.766
 2839SOL    HW2 9417   6.867   1.577   1.757
 2840SOL     OW 9418   2.109   0.668   3.469
 2840SOL    HW1 9419   2.181   0.627   3.526
 2840SOL    HW2 9420   2.064   0.741   3.520
 2841SOL     OW 9421   0.273   1.102   6.266
 2841SOL    HW1 9422   0.325   1.017   6.273
 2841SOL    HW2 9423   0.336   1.178   6.254
 2842SOL     OW 9424   0.197   3.898   4.036
 2842SOL    HW1 9425   0.132   3.974   4.034
 2842SOL    HW2 9426   0.181   3.844   4.119
 2843SOL     OW 9427   2.648   1.509   2.900
 2843SOL    HW1 9428   2.626   1.583   2.837
 2843SOL    HW2 9429   2.744   1.482   2.887
 2844SOL     OW 9430   0.083   5.272   0.367
 2844SOL    HW1 9431   0.057   5.245   0.274
 2844SOL    HW2 9432   0.085   5.372   0.374
 2845SOL     OW 9433   6.243   2.643   1.309
 2845SOL    HW1 9434   6.263   2.635   1.211
 2845SOL    HW2 9435   6.146   2.663   1.321
 2846SOL     OW 9436   4.071   0.975   6.456
 2846SOL    HW1 9437   4.136   0.920   6.509
 2846SOL    HW2 9438   4.056   1.063   6.503
 2847SOL     OW 9439   4.884   3.675   3.648
 2847SOL    HW1 9440   4.870   3.619   3.566
 2847SOL    HW2 9441   4.816   3.748   3.651
 2848SOL     OW 9442   1.120   3.033   5.216
 2848SOL    HW1 9443   1.190   3.039   5.145
 2848SOL    HW2 9444   1.160   2.992   5.298
 2849SOL     OW 9445   4.062   6.192   0.777
 2849SOL    HW1 9446   3.995   6.233   0.839
 2849SOL    HW2 9447   4.019   6.116   0.727
 2850SOL     OW 9448   2.119   0.237   2.097
 2850SOL    HW1 9449   2.106   0.318   2.041
 2850SOL    HW2 9450   2.159   0.263   2.185
 2851SOL     OW 9451   6.501   1.649   5.817
 2851SOL    HW1 9452   6.566   1.636   5.742
 2851SOL    HW2 9453   6.425   1.584   5.807
 2852SOL     OW 9454   5.886   4.685   6.973
 2852SOL    HW1 9455   5.788   4.697   6.961
 2852SOL    HW2 9456   5.915   4.603   6.923
 2853SOL     OW 9457   1.494   2.821   6.717
 2853SOL    HW1 9458   1.592   2.799   6.722
 2853SOL    HW2 9459   1.465   2.821   6.622
 2854SOL     OW 9460   4.220   1.371   5.548
 2854SOL    HW1 9461   4.181   1.299   5.605
 2854SOL    HW2 9462   4.147   1.427   5.510
 2855SOL     OW 9463   2.855   1.712   6.837
 2855SOL    HW1 9464   2.864   1.796   6.784
 2855SOL    HW2 9465   2.770   1.715   6.889
 2856SOL     OW 9466   1.371   2.933   5.618
 2856SOL    HW1 9467   1.439   2.860   5.610
 2856SOL    HW2 9468   1.391   2.989   5.698
 2857SOL     OW 9469   2.930   1.802   2.340
 2857SOL    HW1 9470   2.908   1.869   2.411
 2857SOL    HW2 9471   2.898   1.835   2.252
 2858SOL     OW 9472   4.767   4.168   2.642
 2858SOL    HW1 9473   4.785   4.100   2.571
 2858SOL    HW2 9474   4.696   4.231   2.610
 2859SOL     OW 9475   4.893   1.654   6.583
 2859SOL    HW1 9476   4.948   1.611   6.655
 2859SOL    HW2 9477   4.906   1.753   6.586
 2860SOL     OW 9478   3.561   1.705   1.754
 2860SOL    HW1 9479   3.543   1.651   1.672
 2860SOL    HW2 9480   3.560   1.646   1.834
 2861SOL     OW 9481   3.903   3.857   5.245
 2861SOL    HW1 9482   3.917   3.758   5.254
 2861SOL    HW2 9483   3.852   3.890   5.324
 2862SOL     OW 9484   5.534   1.552   3.092
 2862SOL    HW1 9485   5.531   1.531   3.190
 2862SOL    HW2 9486   5.617   1.604   3.072
 2863SOL     OW 9487   5.180   1.070   6.565
 2863SOL    HW1 9488   5.141   0.981   6.541
 2863SOL    HW2 9489   5.264   1.086   6.513
 2864SOL     OW 9490   4.336   1.659   1.854
 2864SOL    HW1 9491   4.415   1.598   1.852
 2864SOL    HW2 9492   4.345   1.722   1.931
 2865SOL     OW 9493   4.261   4.221   6.505
 2865SOL    HW1 9494   4.304   4.217   6.596
 2865SOL    HW2 9495   4.314   4.166   6.441
 2866SOL     OW 9496   6.700   5.410   0.409
 2866SOL    HW1 9497   6.698   5.365   0.320
 2866SOL    HW2 9498   6.780   5.470   0.415
 2867SOL     OW 9499   6.097   4.539   2.658
 2867SOL    HW1 9500   6.164   4.483   2.609
 2867SOL    HW2 9501   6.117   4.636   2.642
 2868SOL     OW 9502   0.304   1.777   5.437
 2868SOL    HW1 9503   0.372   1.843   5.467
 2868SOL    HW2 9504   0.296   1.779   5.337
 2869SOL     OW 9505   6.328   0.889   2.998
 2869SOL    HW1 9506   6.258   0.915   3.064
 2869SOL    HW2 9507   6.330   0.956   2.924
 2870SOL     OW 9508   0.172   1.519   4.709
 2870SOL    HW1 9509   0.174   1.452   4.782
 2870SOL    HW2 9510   0.255   1.512   4.654
 2871SOL     OW 9511   0.269   1.797   0.187
 2871SOL    HW1 9512   0.353   1.825   0.232
 2871SOL    HW2 9513   0.281   1.801   0.088
 2872SOL     OW 9514   2.830   1.235   2.788
 2872SOL    HW1 9515   2.758   1.169   2.766
 2872SOL    HW2 9516   2.917   1.188   2.795
 2873SOL     OW 9517   0.104   5.194   3.140
 2873SOL    HW1 9518   0.013   5.193   3.099
 2873SOL    HW2 9519   0.114   5.117   3.202
 2874SOL     OW 9520   3.697   6.602   3.342
 2874SOL    HW1 9521   3.613   6.548   3.346
 2874SOL    HW2 9522   3.675   6.699   3.357
 2875SOL     OW 9523   4.913   6.919   0.494
 2875SOL    HW1 9524   4.879   6.881   0.580
 2875SOL    HW2 9525   4.948   6.845   0.437
 2876SOL     OW 9526   1.159   6.951   1.660
 2876SOL    HW1 9527   1.243   6.955   1.714
 2876SOL    HW2 9528   1.080   6.963   1.720
 2877SOL     OW 9529   3.324   2.548   5.339
 2877SOL    HW1 9530   3.268   2.508   5.265
 2877SOL    HW2 9531   3.323   2.487   5.418
 2878SOL     OW 9532   4.624   4.940   4.558
 2878SOL    HW1 9533   4.559   4.865   4.563
 2878SOL    HW2 9534   4.616   4.996   4.640
 2879SOL     OW 9535   5.191   4.964   0.699
 2879SOL    HW1 9536   5.115   4.962   0.635
 2879SOL    HW2 9537   5.183   4.889   0.764
 2880SOL     OW 9538   6.389   0.387   1.424
 2880SOL    HW1 9539   6.368   0.438   1.340
 2880SOL    HW2 9540   6.331   0.421   1.498
 2881SOL     OW 9541   5.619   5.726   6.962
 2881SOL    HW1 9542   5.549   5.790   6.931
 2881SOL    HW2 9543   5.583   5.633   6.956
 2882SOL     OW 9544   0.682   4.165   2.852
 2882SOL    HW1 9545   0.697   4.070   2.824
 2882SOL    HW2 9546   0.718   4.179   2.945
 2883SOL     OW 9547   5.969   0.053   3.807
 2883SOL    HW1 9548   5.871   0.033   3.812
 2883SOL    HW2 9549   6.006   0.012   3.724
 2884SOL     OW 9550   0.853   6.640   3.110
 2884SOL    HW1 9551   0.886   6.548   3.087
 2884SOL    HW2 9552   0.828   6.688   3.026
 2885SOL     OW 9553   0.684   2.698   2.639
 2885SOL    HW1 9554   0.671   2.622   2.702
 2885SOL    HW2 9555   0.728   2.774   2.686
 2886SOL     OW 9556   2.492   4.283   5.559
 2886SOL    HW1 9557   2.459   4.193   5.528
 2886SOL    HW2 9558   2.558   4.270   5.632
 2887SOL     OW 9559   0.612   0.643   4.481
 2887SOL    HW1 9560   0.516   0.663   4.461
 2887SOL    HW2 9561   0.646   0.706   4.551
 2888SOL     OW 9562   0.494   4.244   0.136
 2888SOL    HW1 9563   0.526   4.184   0.209
 2888SOL    HW2 9564   0.443   4.321   0.176
 2889SOL     OW 9565   1.640   0.156   1.789
 2889SOL    HW1 9566   1.644   0.147   1.690
 2889SOL    HW2 9567   1.713   0.102   1.831
 2890SOL     OW 9568   2.314   6.388   0.451
 2890SOL    HW1 9569   2.218   6.406   0.473
 2890SOL    HW2 9570   2.369   6.397   0.533
 2891SOL     OW 9571   1.205   4.408   3.623
 2891SOL    HW1 9572   1.165   4.319   3.641
 2891SOL    HW2 9573   1.204   4.463   3.707
 2892SOL     OW 9574   4.892   3.110   0.306
 2892SOL    HW1 9575   4.794   3.124   0.317
 2892SOL    HW2 9576   4.937   3.198   0.291
 2893SOL     OW 9577   0.792   6.461   4.474
 2893SOL    HW1 9578   0.714   6.401   4.464
 2893SOL    HW2 9579   0.863   6.436   4.408
 2894SOL     OW 9580   2.072   2.286   1.496
 2894SOL    HW1 9581   1.974   2.290   1.479
 2894SOL    HW2 9582   2.095   2.339   1.578
 2895SOL     OW 9583   4.584   2.343   5.986
 2895SOL    HW1 9584   4.549   2.310   6.074
 2895SOL    HW2 9585   4.532   2.424   5.958
 2896SOL     OW 9586   4.195   5.496   6.141
 2896SOL    HW1 9587   4.155   5.551   6.214
 2896SOL    HW2 9588   4.210   5.402   6.174
 2897SOL     OW 9589   3.173   5.050   3.222
 2897SOL    HW1 9590   3.216   4.961   3.208
 2897SOL    HW2 9591   3.229   5.121   3.177
 2898SOL     OW 9592   3.899   5.567   4.258
 2898SOL    HW1 9593   3.885   5.513   4.175
 2898SOL    HW2 9594   3.915   5.506   4.336
 2899SOL     OW 9595   0.769   1.840   0.573
 2899SOL    HW1 9596   0.718   1.873   0.494
 2899SOL    HW2 9597   0.793   1.744   0.560
 2900SOL     OW 9598   1.856   4.480   5.434
 2900SOL    HW1 9599   1.895   4.399   5.477
 2900SOL    HW2 9600   1.892   4.490   5.341
 2901SOL     OW 9601   2.655   5.975   3.734
 2901SOL    HW1 9602   2.579   5.911   3.729
 2901SOL    HW2 9603   2.623   6.067   3.710
 2902SOL     OW 9604   4.863   6.941   2.321
 2902SOL    HW1 9605   4.783   6.997   2.344
 2902SOL    HW2 9606   4.835   6.846   2.310
 2903SOL     OW 9607   4.101   0.840   0.344
 2903SOL    HW1 9608   4.094   0.899   0.263
 2903SOL    HW2 9609   4.092   0.745   0.316
 2904SOL     OW 9610   2.204   3.930   5.284
 2904SOL    HW1 9611   2.127   3.934   5.221
 2904SOL    HW2 9612   2.288   3.954   5.236
 2905SOL     OW 9613   1.586   2.739   3.867
 2905SOL    HW1 9614   1.564   2.784   3.781
 2905SOL    HW2 9615   1.546   2.647   3.868
 2906SOL     OW 9616   4.626   5.707   2.468
 2906SOL    HW1 9617   4.592   5.791   2.426
 2906SOL    HW2 9618   4.549   5.649   2.495
 2907SOL     OW 9619   0.885   1.917   3.740
 2907SOL    HW1 9620   0.814   1.924   3.670
 2907SOL    HW2 9621   0.960   1.861   3.705
 2908SOL     OW 9622   4.491   6.292   4.129
 2908SOL    HW1 9623   4.430   6.260   4.201
 2908SOL    HW2 9624   4.436   6.329   4.053
 2909SOL     OW 9625   1.463   6.509   3.324
 2909SOL    HW1 9626   1.386   6.491   3.385
 2909SOL    HW2 9627   1.431   6.511   3.229
 2910SOL     OW 9628   4.511   6.543   4.654
 2910SOL    HW1 9629   4.609   6.522   4.649
 2910SOL    HW2 9630   4.459   6.461   4.631
 2911SOL     OW 9631   1.425   5.390   3.309
 2911SOL    HW1 9632   1.393   5.344   3.392
 2911SOL    HW2 9633   1.404   5.488   3.315
 2912SOL     OW 9634   4.982   0.210   6.996
 2912SOL    HW1 9635   4.994   0.123   6.948
 2912SOL    HW2 9636   4.955   0.192   0.069
 2913SOL     OW 9637   2.666   4.681   3.028
 2913SOL    HW1 9638   2.622   4.680   3.118
 2913SOL    HW2 9639   2.734   4.755   3.026
 2914SOL     OW 9640   5.627   6.110   5.882
 2914SOL    HW1 9641   5.609   6.108   5.980
 2914SOL    HW2 9642   5.584   6.191   5.842
 2915SOL     OW 9643   5.729   1.730   4.432
 2915SOL    HW1 9644   5.817   1.771   4.455
 2915SOL    HW2 9645   5.667   1.800   4.398
 2916SOL     OW 9646   0.542   6.181   6.641
 2916SOL    HW1 9647   0.639   6.207   6.636
 2916SOL    HW2 9648   0.533   6.082   6.640
 2917SOL     OW 9649   3.160   6.808   2.848
 2917SOL    HW1 9650   3.200   6.887   2.802
 2917SOL    HW2 9651   3.126   6.743   2.780
 2918SOL     OW 9652   0.085   4.864   3.979
 2918SOL    HW1 9653   0.101   4.768   3.956
 2918SOL    HW2 9654   7.009   4.879   3.991
 2919SOL     OW 9655   6.662   1.241   0.977
 2919SOL    HW1 9656   6.599   1.264   0.903
 2919SOL    HW2 9657   6.756   1.257   0.948
 2920SOL     OW 9658   2.683   2.352   1.817
 2920SOL    HW1 9659   2.618   2.333   1.890
 2920SOL    HW2 9660   2.774   2.365   1.855
 2921SOL     OW 9661   1.256   0.856   3.201
 2921SOL    HW1 9662   1.237   0.947   3.165
 2921SOL    HW2 9663   1.355   0.841   3.204
 2922SOL     OW 9664   5.076   0.924   0.434
 2922SOL    HW1 9665   5.064   0.947   0.337
 2922SOL    HW2 9666   5.121   0.835   0.441
 2923SOL     OW 9667   6.960   5.334   2.098
 2923SOL    HW1 9668   0.002   5.310   2.170
 2923SOL    HW2 9669   6.954   5.433   2.089
 2924SOL     OW 9670   6.767   1.457   6.233
 2924SOL    HW1 9671   6.779   1.541   6.286
 2924SOL    HW2 9672   6.729   1.480   6.144
 2925SOL     OW 9673   4.442   1.389   2.639
 2925SOL    HW1 9674   4.368   1.358   2.698
 2925SOL    HW2 9675   4.491   1.463   2.685
 2926SOL     OW 9676   6.404   1.475   4.599
 2926SOL    HW1 9677   6.331   1.419   4.559
 2926SOL    HW2 9678   6.364   1.542   4.661
 2927SOL     OW 9679   0.902   2.082   2.276
 2927SOL    HW1 9680   0.857   2.172   2.275
 2927SOL    HW2 9681   0.919   2.055   2.370
 2928SOL     OW 9682   0.113   1.796   6.000
 2928SOL    HW1 9683   0.036   1.841   5.955
 2928SOL    HW2 9684   0.179   1.767   5.931
 2929SOL     OW 9685   0.779   1.729   6.899
 2929SOL    HW1 9686   0.872   1.724   6.936
 2929SOL    HW2 9687   0.773   1.671   6.817
 2930SOL     OW 9688   4.567   6.257   4.904
 2930SOL    HW1 9689   4.645   6.238   4.844
 2930SOL    HW2 9690   4.583   6.343   4.953
 2931SOL     OW 9691   5.480   4.428   0.198
 2931SOL    HW1 9692   5.406   4.475   0.246
 2931SOL    HW2 9693   5.547   4.394   0.263
 2932SOL     OW 9694   0.440   5.169   0.811
 2932SOL    HW1 9695   0.357   5.181   0.756
 2932SOL    HW2 9696   0.441   5.077   0.849
 2933SOL     OW 9697   5.858   4.499   3.325
 2933SOL    HW1 9698   5.936   4.557   3.301
 2933SOL    HW2 9699   5.780   4.557   3.347
 2934SOL     OW 9700   4.914   1.257   0.105
 2934SOL    HW1 9701   4.971   1.175   0.107
 2934SOL    HW2 9702   4.868   1.263   0.016
 2935SOL     OW 9703   6.445   2.926   0.696
 2935SOL    HW1 9704   6.520   2.874   0.736
 2935SOL    HW2 9705   6.426   2.894   0.604
 2936SOL     OW 9706   3.677   5.680   1.656
 2936SOL    HW1 9707   3.596   5.680   1.715
 2936SOL    HW2 9708   3.728   5.596   1.670
 2937SOL     OW 9709   4.570   4.583   0.263
 2937SOL    HW1 9710   4.494   4.622   0.316
 2937SOL    HW2 9711   4.623   4.522   0.321
 2938SOL     OW 9712   4.476   5.511   6.824
 2938SOL    HW1 9713   4.413   5.438   6.798
 2938SOL    HW2 9714   4.562   5.500   6.775
 2939SOL     OW 9715   1.258   1.102   3.412
 2939SOL    HW1 9716   1.348   1.102   3.367
 2939SOL    HW2 9717   1.197   1.164   3.363
 2940SOL     OW 9718   5.861   5.468   6.076
 2940SOL    HW1 9719   5.842   5.541   6.011
 2940SOL    HW2 9720   5.869   5.381   6.027
 2941SOL     OW 9721   1.822   2.930   4.380
 2941SOL    HW1 9722   1.727   2.951   4.358
 2941SOL    HW2 9723   1.826   2.892   4.473
 2942SOL     OW 9724   3.243   2.705   1.030
 2942SOL    HW1 9725   3.144   2.721   1.034
 2942SOL    HW2 9726   3.273   2.706   0.934
 2943SOL     OW 9727   4.891   4.564   3.032
 2943SOL    HW1 9728   4.889   4.465   3.045
 2943SOL    HW2 9729   4.823   4.608   3.091
 2944SOL     OW 9730   2.853   5.524   5.180
 2944SOL    HW1 9731   2.831   5.433   5.216
 2944SOL    HW2 9732   2.778   5.587   5.200
 2945SOL     OW 9733   3.672   4.081   3.771
 2945SOL    HW1 9734   3.729   4.037   3.702
 2945SOL    HW2 9735   3.582   4.036   3.773
 2946SOL     OW 9736   0.920   5.145   6.676
 2946SOL    HW1 9737   0.919   5.207   6.597
 2946SOL    HW2 9738   0.867   5.186   6.750
 2947SOL     OW 9739   0.360   3.521   0.190
 2947SOL    HW1 9740   0.343   3.582   0.113
 2947SOL    HW2 9741   0.421   3.447   0.161
 2948SOL     OW 9742   0.514   4.467   5.805
 2948SOL    HW1 9743   0.530   4.563   5.782
 2948SOL    HW2 9744   0.602   4.422   5.825
 2949SOL     OW 9745   2.851   5.089   1.040
 2949SOL    HW1 9746   2.760   5.127   1.022
 2949SOL    HW2 9747   2.852   5.048   1.131
 2950SOL     OW 9748   5.426   3.856   4.312
 2950SOL    HW1 9749   5.328   3.863   4.297
 2950SOL    HW2 9750   5.462   3.780   4.258
 2951SOL     OW 9751   5.938   1.773   0.908
 2951SOL    HW1 9752   5.890   1.685   0.904
 2951SOL    HW2 9753   6.025   1.765   0.860
 2952SOL     OW 9754   1.129   5.462   4.924
 2952SOL    HW1 9755   1.213   5.448   4.977
 2952SOL    HW2 9756   1.095   5.374   4.892
 2953SOL     OW 9757   5.075   3.844   3.174
 2953SOL    HW1 9758   5.147   3.906   3.144
 2953SOL    HW2 9759   5.075   3.840   3.274
 2954SOL     OW 9760   0.432   6.075   2.243
 2954SOL    HW1 9761   0.398   6.161   2.282
 2954SOL    HW2 9762   0.456   6.012   2.316
 2955SOL     OW 9763   0.945   3.716   1.700
 2955SOL    HW1 9764   1.015   3.750   1.762
 2955SOL    HW2 9765   0.897   3.793   1.658
 2956SOL     OW 9766   5.723   6.742   3.158
 2956SOL    HW1 9767   5.776   6.714   3.238
 2956SOL    HW2 9768   5.625   6.742   3.182
 2957SOL     OW 9769   6.100   3.180   2.281
 2957SOL    HW1 9770   6.199   3.173   2.294
 2957SOL    HW2 9771   6.072   3.275   2.290
 2958SOL     OW 9772   2.231   4.163   4.567
 2958SOL    HW1 9773   2.204   4.134   4.659
 2958SOL    HW2 9774   2.263   4.258   4.571
 2959SOL     OW 9775   4.934   4.436   0.559
 2959SOL    HW1 9776   4.909   4.413   0.653
 2959SOL    HW2 9777   4.998   4.367   0.524
 2960SOL     OW 9778   4.101   0.011   6.405
 2960SOL    HW1 9779   4.187   6.988   6.382
 2960SOL    HW2 9780   4.052   0.034   6.321
 2961SOL     OW 9781   4.945   3.302   3.076
 2961SOL    HW1 9782   4.926   3.272   3.170
 2961SOL    HW2 9783   4.912   3.395   3.063
 2962SOL     OW 9784   3.946   0.727   3.492
 2962SOL    HW1 9785   3.872   0.670   3.529
 2962SOL    HW2 9786   3.907   0.806   3.446
 2963SOL     OW 9787   2.530   0.366   6.762
 2963SOL    HW1 9788   2.431   0.372   6.751
 2963SOL    HW2 9789   2.572   0.450   6.731
 2964SOL     OW 9790   0.524   6.789   2.720
 2964SOL    HW1 9791   0.439   6.757   2.680
 2964SOL    HW2 9792   0.563   6.717   2.778
 2965SOL     OW 9793   6.335   1.037   4.710
 2965SOL    HW1 9794   6.429   1.007   4.689
 2965SOL    HW2 9795   6.312   1.115   4.654
 2966SOL     OW 9796   6.813   5.821   4.121
 2966SOL    HW1 9797   6.761   5.736   4.127
 2966SOL    HW2 9798   6.909   5.799   4.100
 2967SOL     OW 9799   5.798   1.515   4.621
 2967SOL    HW1 9800   5.893   1.525   4.651
 2967SOL    HW2 9801   5.794   1.510   4.521
 2968SOL     OW 9802   0.426   3.163   6.209
 2968SOL    HW1 9803   0.500   3.156   6.277
 2968SOL    HW2 9804   0.464   3.189   6.121
 2969SOL     OW 9805   5.576   1.073   4.339
 2969SOL    HW1 9806   5.652   1.012   4.359
 2969SOL    HW2 9807   5.516   1.079   4.418
 2970SOL     OW 9808   1.274   4.519   6.142
 2970SOL    HW1 9809   1.225   4.502   6.057
 2970SOL    HW2 9810   1.372   4.508   6.126
 2971SOL     OW 9811   5.745   4.353   6.426
 2971SOL    HW1 9812   5.717   4.279   6.366
 2971SOL    HW2 9813   5.665   4.407   6.452
 2972SOL     OW 9814   6.135   4.415   6.259
 2972SOL    HW1 9815   6.054   4.472   6.249
 2972SOL    HW2 9816   6.159   4.408   6.356
 2973SOL     OW 9817   5.865   0.878   3.965
 2973SOL    HW1 9818   5.881   0.819   4.044
 2973SOL    HW2 9819   5.778   0.926   3.976
 2974SOL     OW 9820   1.049   4.221   3.177
 2974SOL    HW1 9821   1.082   4.298   3.231
 2974SOL    HW2 9822   1.099   4.138   3.202
 2975SOL     OW 9823   6.483   2.685   5.017
 2975SOL    HW1 9824   6.462   2.636   5.102
 2975SOL    HW2 9825   6.514   2.777   5.038
 2976SOL     OW 9826   4.348   2.069   3.109
 2976SOL    HW1 9827   4.251   2.075   3.087
 2976SOL    HW2 9828   4.396   2.147   3.068
 2977SOL     OW 9829   2.282   6.983   3.520
 2977SOL    HW1 9830   2.331   0.007   3.593
 2977SOL    HW2 9831   2.235   0.028   3.463
 2978SOL     OW 9832   4.380   4.833   6.899
 2978SOL    HW1 9833   4.403   4.769   6.826
 2978SOL    HW2 9834   4.400   4.791   6.988
 2979SOL     OW 9835   4.674   0.987   4.240
 2979SOL    HW1 9836   4.681   1.078   4.282
 2979SOL    HW2 9837   4.749   0.975   4.175
 2980SOL     OW 9838   1.655   6.145   3.920
 2980SOL    HW1 9839   1.609   6.057   3.907
 2980SOL    HW2 9840   1.729   6.134   3.986
 2981SOL     OW 9841   1.893   1.111   6.099
 2981SOL    HW1 9842   1.918   1.046   6.171
 2981SOL    HW2 9843   1.930   1.201   6.121
 2982SOL     OW 9844   3.597   5.562   3.372
 2982SOL    HW1 9845   3.509   5.605   3.395
 2982SOL    HW2 9846   3.619   5.493   3.441
 2983SOL     OW 9847   1.128   1.763   3.664
 2983SOL    HW1 9848   1.091   1.681   3.620
 2983SOL    HW2 9849   1.200   1.737   3.728
 2984SOL     OW 9850   5.465   5.888   1.584
 2984SOL    HW1 9851   5.383   5.907   1.530
 2984SOL    HW2 9852   5.523   5.970   1.586
 2985SOL     OW 9853   1.263   2.522   5.684
 2985SOL    HW1 9854   1.324   2.560   5.754
 2985SOL    HW2 9855   1.299   2.435   5.652
 2986SOL     OW 9856   3.096   3.811   5.796
 2986SOL    HW1 9857   3.061   3.814   5.890
 2986SOL    HW2 9858   3.047   3.878   5.740
 2987SOL     OW 9859   6.074   1.397   4.263
 2987SOL    HW1 9860   5.982   1.434   4.277
 2987SOL    HW2 9861   6.067   1.308   4.217
 2988SOL     OW 9862   0.793   5.980   3.079
 2988SOL    HW1 9863   0.746   5.899   3.045
 2988SOL    HW2 9864   0.814   6.041   3.003
 2989SOL     OW 9865   6.724   6.291   6.579
 2989SOL    HW1 9866   6.814   6.246   6.577
 2989SOL    HW2 9867   6.673   6.266   6.496
 2990SOL     OW 9868   4.550   1.837   4.457
 2990SOL    HW1 9869   4.504   1.912   4.503
 2990SOL    HW2 9870   4.637   1.869   4.420
 2991SOL     OW 9871   6.166   4.105   5.839
 2991SOL    HW1 9872   6.247   4.164   5.832
 2991SOL    HW2 9873   6.106   4.140   5.911
 2992SOL     OW 9874   2.488   5.136   5.716
 2992SOL    HW1 9875   2.434   5.182   5.786
 2992SOL    HW2 9876   2.500   5.197   5.638
 2993SOL     OW 9877   0.562   5.107   1.184
 2993SOL    HW1 9878   0.609   5.184   1.226
 2993SOL    HW2 9879   0.481   5.141   1.136
 2994SOL     OW 9880   4.000   6.477   0.276
 2994SOL    HW1 9881   4.006   6.411   0.351
 2994SOL    HW2 9882   4.089   6.523   0.265
 2995SOL     OW 9883   1.900   2.776   6.975
 2995SOL    HW1 9884   1.806   2.741   6.976
 2995SOL    HW2 9885   1.959   2.711   6.927
 2996SOL     OW 9886   2.281   0.014   4.094
 2996SOL    HW1 9887   2.273   0.014   3.995
 2996SOL    HW2 9888   2.190   0.020   4.135
 2997SOL     OW 9889   5.792   1.093   2.460
 2997SOL    HW1 9890   5.788   1.083   2.361
 2997SOL    HW2 9891   5.885   1.072   2.491
 2998SOL     OW 9892   4.685   0.052   4.347
 2998SOL    HW1 9893   4.767   0.084   4.395
 2998SOL    HW2 9894   4.712   7.020   4.267
 2999SOL     OW 9895   3.007   4.907   4.629
 2999SOL    HW1 9896   2.960   4.991   4.652
 2999SOL    HW2 9897   2.981   4.835   4.693
 3000SOL     OW 9898   2.122   3.477   6.875
 3000SOL    HW1 9899   2.114   3.572   6.907
 3000SOL    HW2 9900   2.164   3.475   6.785
 3001SOL     OW 9901   5.227   6.135   6.182
 3001SOL    HW1 9902   5.285   6.207   6.144
 3001SOL    HW2 9903   5.159   6.108   6.114
 3002SOL     OW 9904   4.055   0.591   6.411
 3002SOL    HW1 9905   3.992   0.567   6.484
 3002SOL    HW2 9906   4.003   0.615   6.329
 3003SOL     OW 9907   2.387   6.783   6.882
 3003SOL    HW1 9908   2.359   6.866   6.834
 3003SOL    HW2 9909   2.318   6.712   6.871
 3004SOL     OW 9910   1.448   4.677   3.365
 3004SOL    HW1 9911   1.424   4.699   3.459
 3004SOL    HW2 9912   1.547   4.670   3.357
 3005SOL     OW 9913   3.255   2.685   6.755
 3005SOL    HW1 9914   3.247   2.640   6.844
 3005SOL    HW2 9915   3.185   2.755   6.746
 3006SOL     OW 9916   5.160   2.392   6.214
 3006SOL    HW1 9917   5.244   2.412   6.163
 3006SOL    HW2 9918   5.095   2.347   6.153
 3007SOL     OW 9919   5.774   5.764   0.953
 3007SOL    HW1 9920   5.794   5.856   0.988
 3007SOL    HW2 9921   5.700   5.769   0.886
 3008SOL     OW 9922   3.684   1.210   6.795
 3008SOL    HW1 9923   3.729   1.298   6.775
 3008SOL    HW2 9924   3.598   1.227   6.843
 3009SOL     OW 9925   1.076   0.968   2.958
 3009SOL    HW1 9926   0.983   0.943   2.986
 3009SOL    HW2 9927   1.094   0.933   2.866
 3010SOL     OW 9928   3.211   5.974   3.542
 3010SOL    HW1 9929   3.113   5.969   3.564
 3010SOL    HW2 9930   3.260   5.906   3.597
 3011SOL     OW 9931   4.880   1.205   1.363
 3011SOL    HW1 9932   4.877   1.139   1.439
 3011SOL    HW2 9933   4.860   1.158   1.277
 3012SOL     OW 9934   1.486   3.741   5.222
 3012SOL    HW1 9935   1.386   3.744   5.230
 3012SOL    HW2 9936   1.525   3.825   5.261
 3013SOL     OW 9937   5.313   5.813   4.759
 3013SOL    HW1 9938   5.258   5.841   4.837
 3013SOL    HW2 9939   5.277   5.855   4.676
 3014SOL     OW 9940   4.842   2.994   4.967
 3014SOL    HW1 9941   4.822   2.919   4.904
 3014SOL    HW2 9942   4.875   3.073   4.915
 3015SOL     OW 9943   3.092   2.429   6.928
 3015SOL    HW1 9944   3.001   2.469   6.919
 3015SOL    HW2 9945   3.156   2.498   6.961
 3016SOL     OW 9946   2.589   5.930   4.519
 3016SOL    HW1 9947   2.548   5.842   4.542
 3016SOL    HW2 9948   2.667   5.916   4.459
 3017SOL     OW 9949   0.381   5.385   2.019
 3017SOL    HW1 9950   0.369   5.434   1.932
 3017SOL    HW2 9951   0.466   5.333   2.016
 3018SOL     OW 9952   2.120   6.656   5.754
 3018SOL    HW1 9953   2.028   6.626   5.780
 3018SOL    HW2 9954   2.157   6.593   5.685
 3019SOL     OW 9955   1.087   0.027   6.957
 3019SOL    HW1 9956   1.157   0.097   6.950
 3019SOL    HW2 9957   1.021   0.037   6.883
 3020SOL     OW 9958   4.062   3.147   2.141
 3020SOL    HW1 9959   4.069   3.050   2.165
 3020SOL    HW2 9960   4.124   3.167   2.066
 3021SOL     OW 9961   3.310   0.094   6.796
 3021SOL    HW1 9962   3.293   0.182   6.840
 3021SOL    HW2 9963   3.289   0.020   6.860
 3022SOL     OW 9964   3.945   5.019   4.665
 3022SOL    HW1 9965   4.017   4.966   4.620
 3022SOL    HW2 9966   3.856   4.984   4.637
 3023SOL     OW 9967   4.242   0.291   2.845
 3023SOL    HW1 9968   4.223   0.214   2.906
 3023SOL    HW2 9969   4.279   0.367   2.899
 3024SOL     OW 9970   3.879   6.320   5.406
 3024SOL    HW1 9971   3.935   6.378   5.347
 3024SOL    HW2 9972   3.938   6.265   5.464
 3025SOL     OW 9973   3.563   1.100   0.536
 3025SOL    HW1 9974   3.485   1.147   0.496
 3025SOL    HW2 9975   3.583   1.017   0.484
 3026SOL     OW 9976   1.533   1.034   0.686
 3026SOL    HW1 9977   1.605   0.965   0.683
 3026SOL    HW2 9978   1.469   1.013   0.759
 3027SOL     OW 9979   4.023   0.803   3.109
 3027SOL    HW1 9980   4.082   0.758   3.175
 3027SOL    HW2 9981   3.930   0.809   3.146
 3028SOL     OW 9982   1.140   4.421   5.672
 3028SOL    HW1 9983   1.218   4.372   5.634
 3028SOL    HW2 9984   1.055   4.377   5.643
 3029SOL     OW 9985   7.020   2.918   5.040
 3029SOL    HW1 9986   0.071   2.850   5.049
 3029SOL    HW2 9987   6.950   2.883   4.978
 3030SOL     OW 9988   0.843   3.010   5.853
 3030SOL    HW1 9989   0.847   2.928   5.910
 3030SOL    HW2 9990   0.767   3.002   5.789
 3031SOL     OW 9991   0.704   3.010   0.589
 3031SOL    HW1 9992   0.748   3.053   0.510
 3031SOL    HW2 9993   0.737   3.053   0.673
 3032SOL     OW 9994   4.246   6.357   1.886
 3032SOL    HW1 9995   4.206   6.300   1.958
 3032SOL    HW2 9996   4.189   6.437   1.870
 3033SOL     OW 9997   6.774   2.128   1.598
 3033SOL    HW1 9998   6.767   2.227   1.613
 3033SOL    HW2 9999   6.685   2.093   1.568
 3034SOL     OW10000   1.650   5.615   3.435
 3034SOL    HW110001   1.663   5.559   3.517
 3034SOL    HW210002   1.555   5.610   3.405
 3035SOL     OW10003   6.916   3.198   0.228
 3035SOL    HW110004   7.013   3.177   0.232
 3035SOL    HW210005   6.894   3.270   0.294
 3036SOL     OW10006   1.462   2.504   6.745
 3036SOL    HW110007   1.500   2.507   6.652
 3036SOL    HW210008   1.439   2.596   6.774
 3037SOL     OW10009   0.007   6.379   5.282
 3037SOL    HW110010   6.937   6.349   5.258
 3037SOL    HW210011   0.073   6.330   5.225
 3038SOL     OW10012   5.923   5.979   5.556
 3038SOL    HW110013   5.908   5.881   5.570
 3038SOL    HW210014   5.935   5.998   5.459
 3039SOL     OW10015   6.609   3.978   1.409
 3039SOL    HW110016   6.595   3.971   1.508
 3039SOL    HW210017   6.644   3.891   1.374
 3040SOL     OW10018   3.902   3.404   6.241
 3040SOL    HW110019   3.900   3.421   6.143
 3040SOL    HW210020   3.847   3.323   6.262
 3041SOL     OW10021   2.081   2.787   4.761
 3041SOL    HW110022   2.127   2.802   4.674
 3041SOL    HW210023   2.130   2.719   4.815
 3042SOL     OW10024   4.724   6.702   2.200
 3042SOL    HW110025   4.747   6.605   2.203
 3042SOL    HW210026   4.682   6.728   2.287
 3043SOL     OW10027   1.086   5.454   1.676
 3043SOL    HW110028   1.092   5.391   1.600
 3043SOL    HW210029   1.062   5.404   1.760
 3044SOL     OW10030   3.393   3.388   5.905
 3044SOL    HW110031   3.318   3.324   5.889
 3044SOL    HW210032   3.434   3.413   5.817
 3045SOL     OW10033   4.859   1.184   2.795
 3045SOL    HW110034   4.833   1.248   2.867
 3045SOL    HW210035   4.781   1.171   2.733
 3046SOL     OW10036   2.511   1.312   6.499
 3046SOL    HW110037   2.602   1.287   6.531
 3046SOL    HW210038   2.514   1.330   6.401
 3047SOL     OW10039   5.450   0.264   2.555
 3047SOL    HW110040   5.449   0.164   2.547
 3047SOL    HW210041   5.373   0.302   2.505
 3048SOL     OW10042   4.037   2.778   1.464
 3048SOL    HW110043   4.034   2.827   1.551
 3048SOL    HW210044   3.961   2.714   1.458
 3049SOL     OW10045   0.927   6.933   1.797
 3049SOL    HW110046   0.846   6.890   1.757
 3049SOL    HW210047   0.900   7.004   1.862
 3050SOL     OW10048   3.227   0.685   2.394
 3050SOL    HW110049   3.197   0.682   2.299
 3050SOL    HW210050   3.150   0.665   2.454
 3051SOL     OW10051   2.054   4.360   0.211
 3051SOL    HW110052   1.959   4.332   0.225
 3051SOL    HW210053   2.104   4.355   0.297
 3052SOL     OW10054   5.349   0.020   2.454
 3052SOL    HW110055   5.412   0.043   2.381
 3052SOL    HW210056   5.265   7.005   2.415
 3053SOL     OW10057   0.113   1.893   6.962
 3053SOL    HW110058   0.205   1.854   6.959
 3053SOL    HW210059   0.058   1.855   6.888
 3054SOL     OW10060   6.655   1.946   1.027
 3054SOL    HW110061   6.715   1.908   0.957
 3054SOL    HW210062   6.704   1.954   1.114
 3055SOL     OW10063   5.065   6.841   3.836
 3055SOL    HW110064   5.010   6.886   3.765
 3055SOL    HW210065   5.113   6.764   3.796
 3056SOL     OW10066   6.015   1.157   5.378
 3056SOL    HW110067   5.986   1.112   5.463
 3056SOL    HW210068   5.935   1.200   5.335
 3057SOL     OW10069   3.605   6.139   3.707
 3057SOL    HW110070   3.582   6.114   3.801
 3057SOL    HW210071   3.702   6.123   3.691
 3058SOL     OW10072   6.981   5.585   0.894
 3058SOL    HW110073   6.898   5.531   0.888
 3058SOL    HW210074   0.038   5.526   0.877
 3059SOL     OW10075   2.628   2.046   4.297
 3059SOL    HW110076   2.609   2.080   4.205
 3059SOL    HW210077   2.636   1.946   4.295
 3060SOL     OW10078   0.434   5.480   0.092
 3060SOL    HW110079   0.451   5.520   0.001
 3060SOL    HW210080   0.337   5.485   0.114
 3061SOL     OW10081   6.290   0.097   5.540
 3061SOL    HW110082   6.225   0.115   5.614
 3061SOL    HW210083   6.278   0.003   5.508
 3062SOL     OW10084   1.486   6.368   6.885
 3062SOL    HW110085   1.392   6.377   6.853
 3062SOL    HW210086   1.523   6.459   6.904
 3063SOL     OW10087   2.759   5.484   1.487
 3063SOL    HW110088   2.779   5.434   1.572
 3063SOL    HW210089   2.779   5.424   1.409
 3064SOL     OW10090   5.824   4.088   3.101
 3064SOL    HW110091   5.914   4.044   3.104
 3064SOL    HW210092   5.760   4.030   3.051
 3065SOL     OW10093   2.526   1.111   0.183
 3065SOL    HW110094   2.516   1.023   0.230
 3065SOL    HW210095   2.452   1.122   0.117
 3066SOL     OW10096   5.089   4.706   0.973
 3066SOL    HW110097   5.090   4.637   1.046
 3066SOL    HW210098   5.183   4.720   0.940
 3067SOL     OW10099   3.822   1.794   5.457
 3067SOL    HW110100   3.770   1.823   5.376
 3067SOL    HW210101   3.918   1.817   5.445
 3068SOL     OW10102   6.546   6.411   1.837
 3068SOL    HW110103   6.626   6.445   1.887
 3068SOL    HW210104   6.576   6.357   1.758
 3069SOL     OW10105   6.643   6.745   1.983
 3069SOL    HW110106   6.653   6.658   1.935
 3069SOL    HW210107   6.576   6.735   2.057
 3070SOL     OW10108   1.397   1.245   1.817
 3070SOL    HW110109   1.471   1.226   1.881
 3070SOL    HW210110   1.364   1.160   1.777
 3071SOL     OW10111   6.300   6.035   3.106
 3071SOL    HW110112   6.311   6.133   3.118
 3071SOL    HW210113   6.289   5.991   3.195
 3072SOL     OW10114   1.526   6.964   6.871
 3072SOL    HW110115   1.500   6.961   6.968
 3072SOL    HW210116   1.542   0.036   6.843
 3073SOL     OW10117   6.210   2.837   4.729
 3073SOL    HW110118   6.217   2.764   4.796
 3073SOL    HW210119   6.300   2.861   4.695
 3074SOL     OW10120   5.962   3.271   1.099
 3074SOL    HW110121   6.007   3.188   1.067
 3074SOL    HW210122   5.932   3.258   1.194
 3075SOL     OW10123   2.412   5.823   1.889
 3075SOL    HW110124   2.320   5.833   1.926
 3075SOL    HW210125   2.413   5.854   1.794
 3076SOL     OW10126   6.821   0.557   4.413
 3076SOL    HW110127   6.916   0.533   4.431
 3076SOL    HW210128   6.805   0.557   4.315
 3077SOL     OW10129   4.830   6.217   2.400
 3077SOL    HW110130   4.877   6.180   2.480
 3077SOL    HW210131   4.785   6.142   2.351
 3078SOL     OW10132   1.302   3.111   2.219
 3078SOL    HW110133   1.349   3.026   2.196
 3078SOL    HW210134   1.243   3.138   2.143
 3079SOL     OW10135   2.178   1.895   4.312
 3079SOL    HW110136   2.184   1.990   4.341
 3079SOL    HW210137   2.093   1.881   4.260
 3080SOL     OW10138   4.857   4.018   3.454
 3080SOL    HW110139   4.955   4.008   3.472
 3080SOL    HW210140   4.816   3.927   3.443
 3081SOL     OW10141   0.595   2.521   6.116
 3081SOL    HW110142   0.603   2.450   6.046
 3081SOL    HW210143   0.543   2.598   6.081
 3082SOL     OW10144   2.609   6.751   4.052
 3082SOL    HW110145   2.579   6.695   4.130
 3082SOL    HW210146   2.678   6.700   4.000
 3083SOL     OW10147   3.920   6.083   3.351
 3083SOL    HW110148   3.994   6.018   3.367
 3083SOL    HW210149   3.833   6.042   3.379
 3084SOL     OW10150   5.408   4.465   4.779
 3084SOL    HW110151   5.421   4.405   4.859
 3084SOL    HW210152   5.473   4.541   4.784
 3085SOL     OW10153   6.587   4.628   1.912
 3085SOL    HW110154   6.643   4.578   1.978
 3085SOL    HW210155   6.646   4.684   1.854
 3086SOL     OW10156   3.862   1.993   1.976
 3086SOL    HW110157   3.825   2.074   2.023
 3086SOL    HW210158   3.918   2.023   1.899
 3087SOL     OW10159   0.397   5.137   4.283
 3087SOL    HW110160   0.435   5.228   4.271
 3087SOL    HW210161   0.452   5.070   4.232
 3088SOL     OW10162   2.367   4.445   5.779
 3088SOL    HW110163   2.317   4.532   5.776
 3088SOL    HW210164   2.411   4.428   5.690
 3089SOL     OW10165   1.210   3.610   0.240
 3089SOL    HW110166   1.176   3.694   0.197
 3089SOL    HW210167   1.252   3.633   0.328
 3090SOL     OW10168   1.943   2.122   2.140
 3090SOL    HW110169   1.965   2.169   2.225
 3090SOL    HW210170   1.892   2.039   2.161
 3091SOL     OW10171   1.727   0.700   1.156
 3091SOL    HW110172   1.711   0.613   1.109
 3091SOL    HW210173   1.694   0.693   1.250
 3092SOL     OW10174   5.201   6.678   0.610
 3092SOL    HW110175   5.180   6.603   0.674
 3092SOL    HW210176   5.246   6.752   0.660
 3093SOL     OW10177   5.135   6.133   5.749
 3093SOL    HW110178   5.201   6.180   5.692
 3093SOL    HW210179   5.075   6.078   5.691
 3094SOL     OW10180   2.451   6.363   4.293
 3094SOL    HW110181   2.521   6.317   4.347
 3094SOL    HW210182   2.363   6.318   4.306
 3095SOL     OW10183   2.090   5.686   5.858
 3095SOL    HW110184   2.031   5.605   5.858
 3095SOL    HW210185   2.169   5.669   5.917
 3096SOL     OW10186   1.916   6.137   4.989
 3096SOL    HW110187   1.853   6.063   5.015
 3096SOL    HW210188   1.867   6.224   4.990
 3097SOL     OW10189   6.449   2.552   0.760
 3097SOL    HW110190   6.445   2.458   0.727
 3097SOL    HW210191   6.380   2.607   0.712
 3098SOL     OW10192   2.836   3.270   0.784
 3098SOL    HW110193   2.804   3.190   0.836
 3098SOL    HW210194   2.765   3.340   0.783
 3099SOL     OW10195   0.819   6.825   3.322
 3099SOL    HW110196   0.806   6.753   3.254
 3099SOL    HW210197   0.777   6.910   3.289
 3100SOL     OW10198   6.401   6.516   4.753
 3100SOL    HW110199   6.466   6.460   4.702
 3100SOL    HW210200   6.319   6.531   4.697
 3101SOL     OW10201   4.942   6.642   6.097
 3101SOL    HW110202   4.860   6.681   6.056
 3101SOL    HW210203   4.964   6.555   6.052
 3102SOL     OW10204   0.339   4.271   2.467
 3102SOL    HW110205   0.393   4.290   2.549
 3102SOL    HW210206   0.399   4.242   2.392
 3103SOL     OW10207   3.927   0.656   2.619
 3103SOL    HW110208   3.884   0.568   2.601
 3103SOL    HW210209   3.964   0.657   2.712
 3104SOL     OW10210   5.299   6.360   5.200
 3104SOL    HW110211   5.304   6.453   5.236
 3104SOL    HW210212   5.258   6.361   5.109
 3105SOL     OW10213   6.003   4.543   2.020
 3105SOL    HW110214   5.949   4.518   2.100
 3105SOL    HW210215   5.993   4.472   1.950
 3106SOL     OW10216   5.964   1.750   2.711
 3106SOL    HW110217   5.945   1.669   2.656
 3106SOL    HW210218   5.935   1.832   2.661
 3107SOL     OW10219   4.000   1.160   4.321
 3107SOL    HW110220   3.914   1.133   4.365
 3107SOL    HW210221   4.064   1.195   4.390
 3108SOL     OW10222   0.461   6.993   4.260
 3108SOL    HW110223   0.435   0.038   4.329
 3108SOL    HW210224   0.479   0.017   4.173
 3109SOL     OW10225   5.303   6.723   2.392
 3109SOL    HW110226   5.236   6.696   2.461
 3109SOL    HW210227   5.263   6.713   2.300
 3110SOL     OW10228   1.886   1.995   3.401
 3110SOL    HW110229   1.845   2.086   3.411
 3110SOL    HW210230   1.977   1.994   3.442
 3111SOL     OW10231   5.933   5.836   3.786
 3111SOL    HW110232   5.855   5.877   3.833
 3111SOL    HW210233   5.902   5.793   3.701
 3112SOL     OW10234   4.826   2.441   6.362
 3112SOL    HW110235   4.738   2.460   6.405
 3112SOL    HW210236   4.815   2.444   6.263
 3113SOL     OW10237   1.875   5.987   3.759
 3113SOL    HW110238   1.793   5.950   3.803
 3113SOL    HW210239   1.941   5.913   3.743
 3114SOL     OW10240   4.382   2.132   0.641
 3114SOL    HW110241   4.481   2.136   0.631
 3114SOL    HW210242   4.346   2.225   0.653
 3115SOL     OW10243   4.353   3.015   6.422
 3115SOL    HW110244   4.308   3.009   6.511
 3115SOL    HW210245   4.291   3.060   6.357
 3116SOL     OW10246   0.179   2.910   0.301
 3116SOL    HW110247   0.204   2.816   0.277
 3116SOL    HW210248   0.113   2.907   0.376
 3117SOL     OW10249   4.376   3.872   5.290
 3117SOL    HW110250   4.357   3.798   5.226
 3117SOL    HW210251   4.293   3.927   5.303
 3118SOL     OW10252   0.473   4.626   1.341
 3118SOL    HW110253   0.405   4.556   1.318
 3118SOL    HW210254   0.435   4.717   1.324
 3119SOL     OW10255   1.573   3.541   5.721
 3119SOL    HW110256   1.591   3.470   5.789
 3119SOL    HW210257   1.610   3.628   5.753
 3120SOL     OW10258   3.312   0.022   4.615
 3120SOL    HW110259   3.289   0.010   4.519
 3120SOL    HW210260   3.301   6.958   4.664
 3121SOL     OW10261   6.809   1.649   3.494
 3121SOL    HW110262   6.884   1.656   3.560
 3121SOL    HW210263   6.763   1.561   3.505
 3122SOL     OW10264   3.260   6.640   5.827
 3122SOL    HW110265   3.274   6.541   5.832
 3122SOL    HW210266   3.335   6.680   5.774
 3123SOL     OW10267   4.445   1.691   4.214
 3123SOL    HW110268   4.412   1.597   4.227
 3123SOL    HW210269   4.497   1.719   4.294
 3124SOL     OW10270   4.252   6.395   4.584
 3124SOL    HW110271   4.213   6.472   4.635
 3124SOL    HW210272   4.180   6.328   4.565
 3125SOL     OW10273   6.249   2.073   5.261
 3125SOL    HW110274   6.187   1.997   5.240
 3125SOL    HW210275   6.248   2.091   5.359
 3126SOL     OW10276   4.336   4.872   6.462
 3126SOL    HW110277   4.270   4.831   6.398
 3126SOL    HW210278   4.304   4.859   6.555
 3127SOL     OW10279   1.019   3.302   3.853
 3127SOL    HW110280   1.032   3.212   3.893
 3127SOL    HW210281   0.947   3.299   3.784
 3128SOL     OW10282   2.185   0.696   6.945
 3128SOL    HW110283   2.224   0.612   6.908
 3128SOL    HW210284   2.252   0.771   6.935
 3129SOL     OW10285   0.813   3.945   6.462
 3129SOL    HW110286   0.715   3.963   6.471
 3129SOL    HW210287   0.859   3.969   6.547
 3130SOL     OW10288   1.819   4.451   1.346
 3130SOL    HW110289   1.893   4.458   1.278
 3130SOL    HW210290   1.769   4.366   1.332
 3131SOL     OW10291   6.822   2.751   1.261
 3131SOL    HW110292   6.918   2.725   1.271
 3131SOL    HW210293   6.767   2.707   1.332
 3132SOL     OW10294   4.585   5.516   5.534
 3132SOL    HW110295   4.634   5.491   5.618
 3132SOL    HW210296   4.527   5.440   5.506
 3133SOL     OW10297   3.736   2.067   4.079
 3133SOL    HW110298   3.649   2.086   4.033
 3133SOL    HW210299   3.737   1.973   4.111
 3134SOL     OW10300   4.840   4.873   1.357
 3134SOL    HW110301   4.912   4.942   1.362
 3134SOL    HW210302   4.864   4.806   1.286
 3135SOL     OW10303   5.164   0.513   5.589
 3135SOL    HW110304   5.184   0.608   5.565
 3135SOL    HW210305   5.126   0.509   5.681
 3136SOL     OW10306   5.389   0.570   0.766
 3136SOL    HW110307   5.374   0.492   0.826
 3136SOL    HW210308   5.482   0.604   0.778
 3137SOL     OW10309   5.822   0.674   3.084
 3137SOL    HW110310   5.904   0.639   3.128
 3137SOL    HW210311   5.784   0.749   3.138
 3138SOL     OW10312   5.964   3.114   3.842
 3138SOL    HW110313   5.934   3.198   3.888
 3138SOL    HW210314   6.005   3.053   3.910
 3139SOL     OW10315   4.990   6.679   0.406
 3139SOL    HW110316   4.919   6.609   0.399
 3139SOL    HW210317   5.052   6.657   0.481
 3140SOL     OW10318   5.971   0.061   6.554
 3140SOL    HW110319   6.067   0.035   6.539
 3140SOL    HW210320   5.913   0.011   6.490
 3141SOL     OW10321   6.753   6.466   6.301
 3141SOL    HW110322   6.852   6.454   6.289
 3141SOL    HW210323   6.736   6.507   6.391
 3142SOL     OW10324   3.864   6.694   1.829
 3142SOL    HW110325   3.895   6.776   1.876
 3142SOL    HW210326   3.942   6.635   1.810
 3143SOL     OW10327   6.828   2.147   6.648
 3143SOL    HW110328   6.926   2.148   6.670
 3143SOL    HW210329   6.776   2.182   6.726
 3144SOL     OW10330   4.251   4.506   1.489
 3144SOL    HW110331   4.239   4.594   1.442
 3144SOL    HW210332   4.243   4.432   1.422
 3145SOL     OW10333   1.385   5.349   1.975
 3145SOL    HW110334   1.442   5.316   2.050
 3145SOL    HW210335   1.441   5.401   1.910
 3146SOL     OW10336   1.662   0.551   2.665
 3146SOL    HW110337   1.567   0.554   2.698
 3146SOL    HW210338   1.671   0.476   2.600
 3147SOL     OW10339   2.825   4.974   0.407
 3147SOL    HW110340   2.845   4.938   0.316
 3147SOL    HW210341   2.841   5.073   0.408
 3148SOL     OW10342   4.880   6.141   4.540
 3148SOL    HW110343   4.813   6.069   4.556
 3148SOL    HW210344   4.855   6.193   4.459
 3149SOL     OW10345   2.455   0.992   5.673
 3149SOL    HW110346   2.507   1.074   5.650
 3149SOL    HW210347   2.416   0.953   5.589
 3150SOL     OW10348   6.835   6.091   4.254
 3150SOL    HW110349   6.797   6.105   4.346
 3150SOL    HW210350   6.883   6.003   4.252
 3151SOL     OW10351   4.291   1.556   6.683
 3151SOL    HW110352   4.332   1.464   6.683
 3151SOL    HW210353   4.363   1.625   6.678
 3152SOL     OW10354   1.665   5.771   0.863
 3152SOL    HW110355   1.623   5.802   0.778
 3152SOL    HW210356   1.615   5.693   0.899
 3153SOL     OW10357   7.005   4.445   2.439
 3153SOL    HW110358   0.044   4.434   2.517
 3153SOL    HW210359   6.928   4.502   2.466
 3154SOL     OW10360   6.854   1.138   6.990
 3154SOL    HW110361   6.859   1.162   6.893
 3154SOL    HW210362   6.911   1.058   7.009
 3155SOL     OW10363   6.565   4.503   1.226
 3155SOL    HW110364   6.542   4.415   1.185
 3155SOL    HW210365   6.560   4.496   1.326
 3156SOL     OW10366   3.320   3.630   3.309
 3156SOL    HW110367   3.416   3.624   3.336
 3156SOL    HW210368   3.312   3.609   3.211
 3157SOL     OW10369   2.305   2.795   4.961
 3157SOL    HW110370   2.346   2.862   5.023
 3157SOL    HW210371   2.376   2.742   4.916
 3158SOL     OW10372   4.306   6.795   2.284
 3158SOL    HW110373   4.231   6.784   2.349
 3158SOL    HW210374   4.337   6.704   2.254
 3159SOL     OW10375   5.601   1.652   0.186
 3159SOL    HW110376   5.539   1.620   0.258
 3159SOL    HW210377   5.687   1.601   0.191
 3160SOL     OW10378   0.575   6.278   5.155
 3160SOL    HW110379   0.508   6.266   5.228
 3160SOL    HW210380   0.666   6.286   5.195
 3161SOL     OW10381   1.996   2.084   4.035
 3161SOL    HW110382   2.095   2.099   4.041
 3161SOL    HW210383   1.964   2.040   4.119
 3162SOL     OW10384   1.173   6.453   1.686
 3162SOL    HW110385   1.153   6.538   1.636
 3162SOL    HW210386   1.268   6.454   1.716
 3163SOL     OW10387   3.606   1.892   6.333
 3163SOL    HW110388   3.640   1.937   6.415
 3163SOL    HW210389   3.592   1.960   6.261
 3164SOL     OW10390   4.553   4.593   1.429
 3164SOL    HW110391   4.594   4.672   1.475
 3164SOL    HW210392   4.500   4.540   1.495
 3165SOL     OW10393   0.965   5.752   0.971
 3165SOL    HW110394   0.910   5.756   1.055
 3165SOL    HW210395   0.905   5.759   0.892
 3166SOL     OW10396   4.786   0.894   5.613
 3166SOL    HW110397   4.737   0.838   5.546
 3166SOL    HW210398   4.795   0.843   5.699
 3167SOL     OW10399   6.812   4.246   1.421
 3167SOL    HW110400   6.728   4.199   1.449
 3167SOL    HW210401   6.822   4.239   1.322
 3168SOL     OW10402   4.895   2.945   6.466
 3168SOL    HW110403   4.851   2.938   6.376
 3168SOL    HW210404   4.958   2.868   6.478
 3169SOL     OW10405   1.912   3.294   4.639
 3169SOL    HW110406   1.941   3.318   4.732
 3169SOL    HW210407   1.990   3.303   4.577
 3170SOL     OW10408   4.231   0.514   1.584
 3170SOL    HW110409   4.226   0.594   1.644
 3170SOL    HW210410   4.147   0.461   1.593
 3171SOL     OW10411   0.735   6.515   1.348
 3171SOL    HW110412   0.777   6.524   1.258
 3171SOL    HW210413   0.693   6.601   1.375
 3172SOL     OW10414   0.613   5.014   6.134
 3172SOL    HW110415   0.534   5.055   6.088
 3172SOL    HW210416   0.606   4.914   6.128
 3173SOL     OW10417   3.181   2.108   1.109
 3173SOL    HW110418   3.168   2.185   1.047
 3173SOL    HW210419   3.217   2.029   1.059
 3174SOL     OW10420   2.783   2.790   6.159
 3174SOL    HW110421   2.709   2.834   6.108
 3174SOL    HW210422   2.781   2.820   6.254
 3175SOL     OW10423   0.226   6.680   0.257
 3175SOL    HW110424   0.315   6.641   0.234
 3175SOL    HW210425   0.239   6.757   0.319
 3176SOL     OW10426   2.069   5.035   5.085
 3176SOL    HW110427   2.144   4.979   5.051
 3176SOL    HW210428   2.104   5.123   5.117
 3177SOL     OW10429   4.964   4.742   4.914
 3177SOL    HW110430   4.910   4.715   4.834
 3177SOL    HW210431   5.051   4.691   4.914
 3178SOL     OW10432   6.789   2.011   0.466
 3178SOL    HW110433   6.778   2.051   0.557
 3178SOL    HW210434   6.886   2.002   0.444
 3179SOL     OW10435   1.787   2.668   2.191
 3179SOL    HW110436   1.794   2.572   2.217
 3179SOL    HW210437   1.871   2.696   2.144
 3180SOL     OW10438   4.724   0.968   0.192
 3180SOL    HW110439   4.661   0.890   0.189
 3180SOL    HW210440   4.724   1.014   0.103
 3181SOL     OW10441   1.387   0.977   2.887
 3181SOL    HW110442   1.395   1.011   2.794
 3181SOL    HW210443   1.291   0.979   2.916
 3182SOL     OW10444   2.073   1.478   5.420
 3182SOL    HW110445   2.114   1.553   5.367
 3182SOL    HW210446   2.007   1.516   5.485
 3183SOL     OW10447   4.640   3.928   1.427
 3183SOL    HW110448   4.627   3.914   1.525
 3183SOL    HW210449   4.707   4.001   1.413
 3184SOL     OW10450   1.340   2.424   3.235
 3184SOL    HW110451   1.352   2.518   3.268
 3184SOL    HW210452   1.244   2.398   3.246
 3185SOL     OW10453   5.515   6.998   6.475
 3185SOL    HW110454   5.431   6.944   6.465
 3185SOL    HW210455   5.514   0.024   6.562
 3186SOL     OW10456   4.022   1.858   2.850
 3186SOL    HW110457   3.945   1.875   2.788
 3186SOL    HW210458   4.076   1.780   2.816
 3187SOL     OW10459   4.677   4.462   0.489
 3187SOL    HW110460   4.631   4.456   0.578
 3187SOL    HW210461   4.774   4.441   0.501
 3188SOL     OW10462   3.518   6.497   4.986
 3188SOL    HW110463   3.534   6.586   4.944
 3188SOL    HW210464   3.571   6.490   5.070
 3189SOL     OW10465   1.932   1.085   1.812
 3189SOL    HW110466   1.903   1.158   1.874
 3189SOL    HW210467   2.013   1.114   1.761
 3190SOL     OW10468   0.705   5.858   1.427
 3190SOL    HW110469   0.732   5.767   1.459
 3190SOL    HW210470   0.634   5.895   1.487
 3191SOL     OW10471   4.521   6.304   0.424
 3191SOL    HW110472   4.493   6.229   0.483
 3191SOL    HW210473   4.450   6.323   0.356
 3192SOL     OW10474   0.128   2.358   1.120
 3192SOL    HW110475   0.169   2.295   1.186
 3192SOL    HW210476   0.188   2.366   1.040
 3193SOL     OW10477   4.414   1.396   6.101
 3193SOL    HW110478   4.383   1.323   6.163
 3193SOL    HW210479   4.388   1.372   6.007
 3194SOL     OW10480   1.108   3.487   5.865
 3194SOL    HW110481   1.175   3.535   5.809
 3194SOL    HW210482   1.153   3.413   5.916
 3195SOL     OW10483   2.065   2.825   2.815
 3195SOL    HW110484   1.984   2.878   2.793
 3195SOL    HW210485   2.137   2.843   2.748
 3196SOL     OW10486   6.887   0.524   5.036
 3196SOL    HW110487   6.842   0.582   5.103
 3196SOL    HW210488   6.887   0.429   5.068
 3197SOL     OW10489   1.869   6.259   3.326
 3197SOL    HW110490   1.869   6.178   3.385
 3197SOL    HW210491   1.842   6.233   3.233
 3198SOL     OW10492   6.631   2.073   5.782
 3198SOL    HW110493   6.622   2.001   5.713
 3198SOL    HW210494   6.705   2.049   5.845
 3199SOL     OW10495   4.599   2.921   1.639
 3199SOL    HW110496   4.617   2.999   1.579
 3199SOL    HW210497   4.604   2.950   1.734
 3200SOL     OW10498   0.103   2.342   2.432
 3200SOL    HW110499   0.175   2.357   2.365
 3200SOL    HW210500   0.019   2.313   2.385
 3201SOL     OW10501   5.295   4.635   4.383
 3201SOL    HW110502   5.299   4.634   4.483
 3201SOL    HW210503   5.302   4.729   4.350
 3202SOL     OW10504   1.126   4.703   2.066
 3202SOL    HW110505   1.145   4.621   2.120
 3202SOL    HW210506   1.104   4.676   1.972
 3203SOL     OW10507   5.707   1.930   0.113
 3203SOL    HW110508   5.776   1.957   0.181
 3203SOL    HW210509   5.699   1.830   0.112
 3204SOL     OW10510   5.305   6.221   1.508
 3204SOL    HW110511   5.287   6.218   1.607
 3204SOL    HW210512   5.364   6.300   1.488
 3205SOL     OW10513   0.626   3.531   6.311
 3205SOL    HW110514   0.713   3.563   6.274
 3205SOL    HW210515   0.560   3.607   6.310
 3206SOL     OW10516   6.804   6.366   6.013
 3206SOL    HW110517   6.710   6.352   6.045
 3206SOL    HW210518   6.829   6.462   6.025
 3207SOL     OW10519   0.174   1.238   5.872
 3207SOL    HW110520   0.242   1.303   5.905
 3207SOL    HW210521   0.096   1.235   5.935
 3208SOL     OW10522   4.805   6.318   5.580
 3208SOL    HW110523   4.794   6.247   5.510
 3208SOL    HW210524   4.760   6.402   5.550
 3209SOL     OW10525   3.358   5.331   3.408
 3209SOL    HW110526   3.452   5.322   3.439
 3209SOL    HW210527   3.304   5.254   3.443
 3210SOL     OW10528   0.540   3.863   2.231
 3210SOL    HW110529   0.440   3.855   2.235
 3210SOL    HW210530   0.579   3.829   2.317
 3211SOL     OW10531   2.638   3.320   1.099
 3211SOL    HW110532   2.636   3.375   1.015
 3211SOL    HW210533   2.699   3.364   1.165
 3212SOL     OW10534   3.464   1.285   6.931
 3212SOL    HW110535   3.401   1.350   6.889
 3212SOL    HW210536   3.414   1.230   6.999
 3213SOL     OW10537   6.163   6.023   2.513
 3213SOL    HW110538   6.251   6.066   2.537
 3213SOL    HW210539   6.095   6.046   2.582
 3214SOL     OW10540   5.152   5.237   0.224
 3214SOL    HW110541   5.199   5.239   0.136
 3214SOL    HW210542   5.183   5.157   0.276
 3215SOL     OW10543   6.984   3.042   1.193
 3215SOL    HW110544   6.989   3.007   1.099
 3215SOL    HW210545   7.009   2.970   1.257
 3216SOL     OW10546   5.455   5.803   1.833
 3216SOL    HW110547   5.469   5.822   1.736
 3216SOL    HW210548   5.511   5.725   1.860
 3217SOL     OW10549   0.805   5.664   2.399
 3217SOL    HW110550   0.761   5.588   2.351
 3217SOL    HW210551   0.791   5.748   2.347
 3218SOL     OW10552   3.718   6.326   3.397
 3218SOL    HW110553   3.775   6.255   3.356
 3218SOL    HW210554   3.743   6.415   3.359
 3219SOL     OW10555   0.026   1.943   3.260
 3219SOL    HW110556   6.957   1.901   3.253
 3219SOL    HW210557   0.077   1.897   3.333
 3220SOL     OW10558   6.787   5.965   5.949
 3220SOL    HW110559   6.813   5.879   5.905
 3220SOL    HW210560   6.698   5.954   5.993
 3221SOL     OW10561   3.453   0.249   2.085
 3221SOL    HW110562   3.385   0.263   2.157
 3221SOL    HW210563   3.542   0.227   2.126
 3222SOL     OW10564   4.426   1.726   3.738
 3222SOL    HW110565   4.506   1.757   3.687
 3222SOL    HW210566   4.427   1.765   3.830
 3223SOL     OW10567   1.562   4.974   6.732
 3223SOL    HW110568   1.551   4.915   6.652
 3223SOL    HW210569   1.565   4.919   6.815
 3224SOL     OW10570   3.842   4.875   6.312
 3224SOL    HW110571   3.801   4.898   6.224
 3224SOL    HW210572   3.925   4.821   6.297
 3225SOL     OW10573   4.383   2.657   5.299
 3225SOL    HW110574   4.283   2.663   5.292
 3225SOL    HW210575   4.425   2.719   5.232
 3226SOL     OW10576   1.520   1.891   4.870
 3226SOL    HW110577   1.544   1.879   4.966
 3226SOL    HW210578   1.437   1.838   4.849
 3227SOL     OW10579   3.239   2.153   6.291
 3227SOL    HW110580   3.213   2.098   6.370
 3227SOL    HW210581   3.279   2.094   6.221
 3228SOL     OW10582   5.718   3.480   3.796
 3228SOL    HW110583   5.650   3.410   3.819
 3228SOL    HW210584   5.671   3.564   3.768
 3229SOL     OW10585   3.471   1.858   5.608
 3229SOL    HW110586   3.508   1.821   5.523
 3229SOL    HW210587   3.453   1.783   5.672
 3230SOL     OW10588   0.986   2.727   4.274
 3230SOL    HW110589   0.913   2.710   4.207
 3230SOL    HW210590   0.962   2.685   4.361
 3231SOL     OW10591   3.374   6.322   2.451
 3231SOL    HW110592   3.332   6.280   2.371
 3231SOL    HW210593   3.303   6.352   2.514
 3232SOL     OW10594   4.276   5.088   4.025
 3232SOL    HW110595   4.236   5.004   3.988
 3232SOL    HW210596   4.293   5.076   4.123
 3233SOL     OW10597   2.201   3.255   1.240
 3233SOL    HW110598   2.269   3.194   1.199
 3233SOL    HW210599   2.199   3.341   1.190
 3234SOL     OW10600   0.221   2.642   0.229
 3234SOL    HW110601   0.153   2.572   0.254
 3234SOL    HW210602   0.312   2.600   0.226
 3235SOL     OW10603   4.492   6.684   1.192
 3235SOL    HW110604   4.557   6.706   1.119
 3235SOL    HW210605   4.414   6.635   1.153
 3236SOL     OW10606   1.265   3.694   1.214
 3236SOL    HW110607   1.187   3.649   1.256
 3236SOL    HW210608   1.317   3.628   1.160
 3237SOL     OW10609   5.499   1.769   3.752
 3237SOL    HW110610   5.530   1.847   3.806
 3237SOL    HW210611   5.462   1.802   3.665
 3238SOL     OW10612   0.009   4.852   0.284
 3238SOL    HW110613   0.082   4.899   0.233
 3238SOL    HW210614   6.963   4.818   0.220
 3239SOL     OW10615   6.102   1.483   0.347
 3239SOL    HW110616   6.086   1.527   0.436
 3239SOL    HW210617   6.196   1.451   0.342
 3240SOL     OW10618   0.919   6.648   4.760
 3240SOL    HW110619   0.831   6.645   4.807
 3240SOL    HW210620   0.905   6.638   4.662
 3241SOL     OW10621   5.456   1.380   4.489
 3241SOL    HW110622   5.410   1.365   4.402
 3241SOL    HW210623   5.450   1.296   4.544
 3242SOL     OW10624   3.351   4.798   1.184
 3242SOL    HW110625   3.269   4.820   1.131
 3242SOL    HW210626   3.395   4.882   1.215
 3243SOL     OW10627   6.065   5.470   0.142
 3243SOL    HW110628   6.024   5.397   0.197
 3243SOL    HW210629   6.165   5.457   0.139
 3244SOL     OW10630   4.840   5.581   6.811
 3244SOL    HW110631   4.863   5.569   6.908
 3244SOL    HW210632   4.922   5.568   6.755
 3245SOL     OW10633   5.030   2.402   5.981
 3245SOL    HW110634   5.008   2.470   5.911
 3245SOL    HW210635   5.048   2.314   5.936
 3246SOL     OW10636   6.387   0.631   3.085
 3246SOL    HW110637   6.324   0.632   3.163
 3246SOL    HW210638   6.367   0.708   3.025
 3247SOL     OW10639   6.869   5.169   3.422
 3247SOL    HW110640   6.831   5.087   3.464
 3247SOL    HW210641   6.869   5.243   3.489
 3248SOL     OW10642   6.034   3.243   1.552
 3248SOL    HW110643   6.007   3.323   1.605
 3248SOL    HW210644   6.002   3.160   1.597
 3249SOL     OW10645   3.737   3.909   5.474
 3249SOL    HW110646   3.708   3.832   5.531
 3249SOL    HW210647   3.800   3.966   5.526
 3250SOL     OW10648   5.702   0.364   2.630
 3250SOL    HW110649   5.609   0.372   2.595
 3250SOL    HW210650   5.708   0.407   2.720
 3251SOL     OW10651   4.253   1.300   2.787
 3251SOL    HW110652   4.298   1.271   2.871
 3251SOL    HW210653   4.158   1.326   2.807
 3252SOL     OW10654   2.975   0.830   2.226
 3252SOL    HW110655   2.966   0.890   2.147
 3252SOL    HW210656   3.005   0.883   2.305
 3253SOL     OW10657   4.910   3.445   2.492
 3253SOL    HW110658   4.893   3.349   2.512
 3253SOL    HW210659   4.916   3.458   2.393
 3254SOL     OW10660   3.973   5.009   5.223
 3254SOL    HW110661   4.071   5.000   5.238
 3254SOL    HW210662   3.954   5.006   5.124
 3255SOL     OW10663   4.516   6.105   1.767
 3255SOL    HW110664   4.604   6.148   1.785
 3255SOL    HW210665   4.448   6.140   1.830
 3256SOL     OW10666   5.232   0.552   6.540
 3256SOL    HW110667   5.330   0.563   6.529
 3256SOL    HW210668   5.201   0.472   6.489
 3257SOL     OW10669   1.459   1.634   1.350
 3257SOL    HW110670   1.511   1.661   1.268
 3257SOL    HW210671   1.385   1.573   1.323
 3258SOL     OW10672   4.420   5.571   2.532
 3258SOL    HW110673   4.332   5.588   2.575
 3258SOL    HW210674   4.439   5.472   2.533
 3259SOL     OW10675   4.497   5.898   4.199
 3259SOL    HW110676   4.590   5.917   4.230
 3259SOL    HW210677   4.440   5.871   4.276
 3260SOL     OW10678   2.194   1.801   1.816
 3260SOL    HW110679   2.136   1.751   1.880
 3260SOL    HW210680   2.221   1.739   1.741
 3261SOL     OW10681   4.408   5.729   0.201
 3261SOL    HW110682   4.398   5.735   0.102
 3261SOL    HW210683   4.475   5.659   0.224
 3262SOL     OW10684   3.575   1.920   2.428
 3262SOL    HW110685   3.566   1.980   2.349
 3262SOL    HW210686   3.488   1.918   2.478
 3263SOL     OW10687   5.127   0.537   3.715
 3263SOL    HW110688   5.056   0.536   3.645
 3263SOL    HW210689   5.215   0.514   3.674
 3264SOL     OW10690   1.092   4.982   0.634
 3264SOL    HW110691   1.066   5.077   0.655
 3264SOL    HW210692   1.021   4.920   0.665
 3265SOL     OW10693   4.292   2.023   6.071
 3265SOL    HW110694   4.238   1.957   6.124
 3265SOL    HW210695   4.389   2.012   6.095
 3266SOL     OW10696   1.182   2.526   0.620
 3266SOL    HW110697   1.241   2.447   0.636
 3266SOL    HW210698   1.234   2.598   0.574
 3267SOL     OW10699   3.520   2.243   0.622
 3267SOL    HW110700   3.489   2.177   0.690
 3267SOL    HW210701   3.460   2.238   0.541
 3268SOL     OW10702   1.043   3.538   6.336
 3268SOL    HW110703   0.955   3.582   6.318
 3268SOL    HW210704   1.117   3.595   6.302
 3269SOL     OW10705   4.368   5.261   1.837
 3269SOL    HW110706   4.394   5.357   1.853
 3269SOL    HW210707   4.435   5.219   1.776
 3270SOL     OW10708   1.529   5.236   5.049
 3270SOL    HW110709   1.461   5.306   5.073
 3270SOL    HW210710   1.535   5.169   5.124
 3271SOL     OW10711   5.819   3.554   2.415
 3271SOL    HW110712   5.883   3.539   2.340
 3271SOL    HW210713   5.815   3.472   2.472
 3272SOL     OW10714   3.265   4.745   0.560
 3272SOL    HW110715   3.169   4.772   0.556
 3272SOL    HW210716   3.323   4.824   0.544
 3273SOL     OW10717   0.949   6.589   2.080
 3273SOL    HW110718   0.960   6.609   1.983
 3273SOL    HW210719   0.953   6.674   2.132
 3274SOL     OW10720   3.989   2.072   0.020
 3274SOL    HW110721   3.981   2.081   0.119
 3274SOL    HW210722   4.015   1.979   7.018
 3275SOL     OW10723   1.597   0.489   6.892
 3275SOL    HW110724   1.523   0.520   6.952
 3275SOL    HW210725   1.656   0.426   6.941
 3276SOL     OW10726   3.046   5.067   6.467
 3276SOL    HW110727   3.128   5.028   6.510
 3276SOL    HW210728   3.052   5.054   6.368
 3277SOL     OW10729   5.508   6.405   6.247
 3277SOL    HW110730   5.439   6.438   6.313
 3277SOL    HW210731   5.599   6.418   6.286
 3278SOL     OW10732   6.583   1.348   5.643
 3278SOL    HW110733   6.634   1.269   5.609
 3278SOL    HW210734   6.586   1.348   5.743
 3279SOL     OW10735   0.189   1.035   1.060
 3279SOL    HW110736   0.203   0.936   1.054
 3279SOL    HW210737   0.224   1.068   1.148
 3280SOL     OW10738   3.363   5.360   5.902
 3280SOL    HW110739   3.424   5.419   5.849
 3280SOL    HW210740   3.350   5.400   5.993
 3281SOL     OW10741   1.738   5.574   1.090
 3281SOL    HW110742   1.671   5.544   1.021
 3281SOL    HW210743   1.810   5.626   1.045
 3282SOL     OW10744   2.437   4.936   4.332
 3282SOL    HW110745   2.437   4.878   4.250
 3282SOL    HW210746   2.488   5.020   4.313
 3283SOL     OW10747   3.089   1.204   1.793
 3283SOL    HW110748   3.161   1.195   1.723
 3283SOL    HW210749   3.114   1.276   1.857
 3284SOL     OW10750   5.976   6.779   6.473
 3284SOL    HW110751   5.913   6.835   6.419
 3284SOL    HW210752   6.069   6.814   6.462
 3285SOL     OW10753   6.184   2.814   3.558
 3285SOL    HW110754   6.214   2.851   3.470
 3285SOL    HW210755   6.122   2.878   3.603
 3286SOL     OW10756   4.065   3.681   3.815
 3286SOL    HW110757   4.078   3.748   3.742
 3286SOL    HW210758   4.011   3.604   3.781
 3287SOL     OW10759   1.187   5.702   0.568
 3287SOL    HW110760   1.246   5.782   0.564
 3287SOL    HW210761   1.096   5.726   0.536
 3288SOL     OW10762   0.791   4.811   6.955
 3288SOL    HW110763   0.831   4.797   6.864
 3288SOL    HW210764   0.744   4.728   6.985
 3289SOL     OW10765   1.954   7.019   5.829
 3289SOL    HW110766   1.883   0.066   5.820
 3289SOL    HW210767   1.933   6.942   5.768
 3290SOL     OW10768   0.608   6.718   2.157
 3290SOL    HW110769   0.513   6.749   2.148
 3290SOL    HW210770   0.610   6.624   2.189
 3291SOL     OW10771   1.258   6.749   6.504
 3291SOL    HW110772   1.159   6.739   6.489
 3291SOL    HW210773   1.278   6.736   6.601
 3292SOL     OW10774   0.417   1.258   6.878
 3292SOL    HW110775   0.319   1.245   6.865
 3292SOL    HW210776   0.467   1.191   6.823
 3293SOL     OW10777   6.153   3.093   2.874
 3293SOL    HW110778   6.171   3.029   2.799
 3293SOL    HW210779   6.171   3.049   2.961
 3294SOL     OW10780   0.144   0.545   6.113
 3294SOL    HW110781   0.168   0.618   6.049
 3294SOL    HW210782   0.072   0.577   6.175
 3295SOL     OW10783   2.283   2.376   1.214
 3295SOL    HW110784   2.202   2.420   1.175
 3295SOL    HW210785   2.264   2.280   1.234
 3296SOL     OW10786   2.272   6.496   1.549
 3296SOL    HW110787   2.223   6.429   1.492
 3296SOL    HW210788   2.370   6.486   1.536
 3297SOL     OW10789   2.563   0.595   4.563
 3297SOL    HW110790   2.505   0.516   4.579
 3297SOL    HW210791   2.658   0.572   4.586
 3298SOL     OW10792   6.084   2.577   3.666
 3298SOL    HW110793   6.119   2.668   3.641
 3298SOL    HW210794   6.024   2.585   3.745
 3299SOL     OW10795   1.929   6.792   3.612
 3299SOL    HW110796   1.902   6.696   3.606
 3299SOL    HW210797   1.863   6.841   3.669
 3300SOL     OW10798   6.880   0.279   5.946
 3300SOL    HW110799   6.893   0.193   5.897
 3300SOL    HW210800   6.904   0.355   5.885
 3301SOL     OW10801   2.176   3.846   3.236
 3301SOL    HW110802   2.271   3.825   3.259
 3301SOL    HW210803   2.174   3.923   3.172
 3302SOL     OW10804   1.453   5.793   4.447
 3302SOL    HW110805   1.534   5.830   4.492
 3302SOL    HW210806   1.406   5.867   4.397
 3303SOL     OW10807   3.657   3.159   1.599
 3303SOL    HW110808   3.567   3.178   1.558
 3303SOL    HW210809   3.698   3.081   1.554
 3304SOL     OW10810   1.467   5.071   3.315
 3304SOL    HW110811   1.563   5.101   3.316
 3304SOL    HW210812   1.431   5.073   3.408
 3305SOL     OW10813   2.715   1.934   2.920
 3305SOL    HW110814   2.720   2.032   2.943
 3305SOL    HW210815   2.620   1.908   2.906
 3306SOL     OW10816   2.583   4.920   3.834
 3306SOL    HW110817   2.681   4.904   3.833
 3306SOL    HW210818   2.564   5.013   3.865
 3307SOL     OW10819   0.555   5.471   6.402
 3307SOL    HW110820   0.543   5.378   6.367
 3307SOL    HW210821   0.477   5.527   6.374
 3308SOL     OW10822   4.698   5.798   6.718
 3308SOL    HW110823   4.730   5.719   6.770
 3308SOL    HW210824   4.763   5.818   6.644
 3309SOL     OW10825   0.538   5.272   2.412
 3309SOL    HW110826   0.580   5.347   2.362
 3309SOL    HW210827   0.480   5.308   2.485
 3310SOL     OW10828   0.016   4.122   4.031
 3310SOL    HW110829   0.061   4.180   3.963
 3310SOL    HW210830   6.987   4.179   4.095
 3311SOL     OW10831   2.838   4.612   1.662
 3311SOL    HW110832   2.848   4.606   1.762
 3311SOL    HW210833   2.905   4.552   1.618
 3312SOL     OW10834   2.776   4.252   6.023
 3312SOL    HW110835   2.860   4.241   5.970
 3312SOL    HW210836   2.767   4.348   6.050
 3313SOL     OW10837   0.152   5.248   2.645
 3313SOL    HW110838   0.058   5.278   2.661
 3313SOL    HW210839   0.174   5.173   2.708
 3314SOL     OW10840   1.926   2.446   5.210
 3314SOL    HW110841   1.888   2.531   5.172
 3314SOL    HW210842   1.871   2.369   5.179
 3315SOL     OW10843   6.408   3.002   4.221
 3315SOL    HW110844   6.435   3.031   4.129
 3315SOL    HW210845   6.411   2.902   4.227
 3316SOL     OW10846   3.577   1.535   6.205
 3316SOL    HW110847   3.504   1.604   6.204
 3316SOL    HW210848   3.619   1.532   6.296
 3317SOL     OW10849   4.938   2.899   1.845
 3317SOL    HW110850   4.863   2.946   1.890
 3317SOL    HW210851   4.965   2.819   1.899
 3318SOL     OW10852   3.121   6.959   0.171
 3318SOL    HW110853   3.178   0.010   0.209
 3318SOL    HW210854   3.138   6.874   0.220
 3319SOL     OW10855   6.127   6.721   3.639
 3319SOL    HW110856   6.099   6.647   3.578
 3319SOL    HW210857   6.076   6.715   3.724
 3320SOL     OW10858   5.486   1.255   5.769
 3320SOL    HW110859   5.422   1.327   5.744
 3320SOL    HW210860   5.437   1.179   5.812
 3321SOL     OW10861   3.433   2.374   1.711
 3321SOL    HW110862   3.514   2.367   1.769
 3321SOL    HW210863   3.417   2.287   1.665
 3322SOL     OW10864   5.230   2.826   1.778
 3322SOL    HW110865   5.268   2.843   1.687
 3322SOL    HW210866   5.149   2.883   1.791
 3323SOL     OW10867   2.133   3.835   6.629
 3323SOL    HW110868   2.117   3.933   6.634
 3323SOL    HW210869   2.049   3.788   6.603
 3324SOL     OW10870   0.843   3.715   6.725
 3324SOL    HW110871   0.868   3.664   6.643
 3324SOL    HW210872   0.834   3.652   6.802
 3325SOL     OW10873   2.187   3.198   6.642
 3325SOL    HW110874   2.143   3.136   6.707
 3325SOL    HW210875   2.142   3.190   6.552
 3326SOL     OW10876   5.063   1.853   1.692
 3326SOL    HW110877   5.041   1.761   1.725
 3326SOL    HW210878   5.071   1.915   1.770
 3327SOL     OW10879   2.836   6.123   1.340
 3327SOL    HW110880   2.786   6.038   1.323
 3327SOL    HW210881   2.925   6.102   1.379
 3328SOL     OW10882   4.465   1.577   3.055
 3328SOL    HW110883   4.497   1.592   3.149
 3328SOL    HW210884   4.371   1.541   3.057
 3329SOL     OW10885   4.337   6.982   5.497
 3329SOL    HW110886   4.327   0.037   5.559
 3329SOL    HW210887   4.360   6.900   5.549
 3330SOL     OW10888   5.193   6.400   2.119
 3330SOL    HW110889   5.276   6.389   2.174
 3330SOL    HW210890   5.143   6.480   2.150
 3331SOL     OW10891   1.492   3.034   2.612
 3331SOL    HW110892   1.484   3.119   2.560
 3331SOL    HW210893   1.578   2.988   2.589
 3332SOL     OW10894   6.898   4.373   7.001
 3332SOL    HW110895   6.915   4.275   7.013
 3332SOL    HW210896   6.838   4.387   6.923
 3333SOL     OW10897   2.652   3.544   6.929
 3333SOL    HW110898   2.671   3.446   6.938
 3333SOL    HW210899   2.733   3.597   6.955
 3334SOL     OW10900   2.112   3.245   1.993
 3334SOL    HW110901   2.140   3.341   1.987
 3334SOL    HW210902   2.128   3.200   1.905
 3335SOL     OW10903   4.826   5.769   5.793
 3335SOL    HW110904   4.795   5.863   5.779
 3335SOL    HW210905   4.777   5.730   5.871
 3336SOL     OW10906   2.182   0.176   4.497
 3336SOL    HW110907   2.085   0.157   4.482
 3336SOL    HW210908   2.195   0.214   4.589
 3337SOL     OW10909   2.897   3.684   1.343
 3337SOL    HW110910   2.990   3.690   1.309
 3337SOL    HW210911   2.895   3.705   1.441
 3338SOL     OW10912   0.359   2.363   1.822
 3338SOL    HW110913   0.270   2.358   1.869
 3338SOL    HW210914   0.373   2.455   1.787
 3339SOL     OW10915   1.764   0.145   6.514
 3339SOL    HW110916   1.761   0.059   6.463
 3339SOL    HW210917   1.695   0.208   6.478
 3340SOL     OW10918   4.065   1.033   4.103
 3340SOL    HW110919   4.025   1.086   4.178
 3340SOL    HW210920   4.003   0.959   4.078
 3341SOL     OW10921   1.997   4.201   3.696
 3341SOL    HW110922   1.926   4.271   3.701
 3341SOL    HW210923   2.055   4.219   3.617
 3342SOL     OW10924   0.710   0.350   2.449
 3342SOL    HW110925   0.679   0.443   2.433
 3342SOL    HW210926   0.796   0.334   2.401
 3343SOL     OW10927   5.495   4.976   6.381
 3343SOL    HW110928   5.560   5.026   6.325
 3343SOL    HW210929   5.430   4.928   6.321
 3344SOL     OW10930   6.014   2.964   4.076
 3344SOL    HW110931   6.063   2.882   4.106
 3344SOL    HW210932   5.989   3.019   4.156
 3345SOL     OW10933   0.823   3.703   6.260
 3345SOL    HW110934   0.822   3.724   6.162
 3345SOL    HW210935   0.818   3.787   6.313
 3346SOL     OW10936   1.750   0.903   6.753
 3346SOL    HW110937   1.736   0.891   6.852
 3346SOL    HW210938   1.843   0.877   6.729
 3347SOL     OW10939   1.759   2.736   6.387
 3347SOL    HW110940   1.836   2.688   6.346
 3347SOL    HW210941   1.724   2.805   6.323
 3348SOL     OW10942   4.283   3.638   5.127
 3348SOL    HW110943   4.216   3.594   5.187
 3348SOL    HW210944   4.335   3.567   5.079
 3349SOL     OW10945   2.265   4.593   2.989
 3349SOL    HW110946   2.273   4.686   2.955
 3349SOL    HW210947   2.330   4.534   2.940
 3350SOL     OW10948   0.609   2.703   5.896
 3350SOL    HW110949   0.687   2.706   5.958
 3350SOL    HW210950   0.544   2.775   5.922
 3351SOL     OW10951   4.818   1.356   1.770
 3351SOL    HW110952   4.762   1.422   1.819
 3351SOL    HW210953   4.850   1.286   1.834
 3352SOL     OW10954   5.429   2.573   1.240
 3352SOL    HW110955   5.514   2.550   1.192
 3352SOL    HW210956   5.426   2.523   1.327
 3353SOL     OW10957   2.216   6.155   0.778
 3353SOL    HW110958   2.307   6.149   0.819
 3353SOL    HW210959   2.161   6.222   0.828
 3354SOL     OW10960   3.981   2.763   5.306
 3354SOL    HW110961   4.006   2.700   5.233
 3354SOL    HW210962   4.045   2.752   5.383
 3355SOL     OW10963   2.254   1.199   5.983
 3355SOL    HW110964   2.353   1.194   5.996
 3355SOL    HW210965   2.221   1.112   5.946
 3356SOL     OW10966   1.267   6.145   6.124
 3356SOL    HW110967   1.259   6.244   6.109
 3356SOL    HW210968   1.361   6.122   6.147
 3357SOL     OW10969   3.391   3.164   1.507
 3357SOL    HW110970   3.334   3.221   1.566
 3357SOL    HW210971   3.362   3.175   1.412
 3358SOL     OW10972   4.994   1.142   3.328
 3358SOL    HW110973   4.953   1.051   3.337
 3358SOL    HW210974   5.065   1.140   3.259
 3359SOL     OW10975   7.007   5.834   3.338
 3359SOL    HW110976   6.930   5.837   3.275
 3359SOL    HW210977   7.018   5.924   3.381
 3360SOL     OW10978   0.978   1.997   6.230
 3360SOL    HW110979   1.061   1.947   6.205
 3360SOL    HW210980   0.975   2.007   6.330
 3361SOL     OW10981   0.904   0.278   4.558
 3361SOL    HW110982   0.977   0.277   4.489
 3361SOL    HW210983   0.886   0.185   4.590
 3362SOL     OW10984   3.638   1.506   2.677
 3362SOL    HW110985   3.670   1.550   2.593
 3362SOL    HW210986   3.680   1.551   2.756
 3363SOL     OW10987   0.121   2.688   1.766
 3363SOL    HW110988   0.180   2.613   1.736
 3363SOL    HW210989   0.052   2.652   1.830
 3364SOL     OW10990   2.226   4.632   2.688
 3364SOL    HW110991   2.220   4.596   2.595
 3364SOL    HW210992   2.267   4.563   2.748
 3365SOL     OW10993   0.606   2.662   4.718
 3365SOL    HW110994   0.643   2.754   4.724
 3365SOL    HW210995   0.509   2.666   4.694
 3366SOL     OW10996   6.536   4.950   3.814
 3366SOL    HW110997   6.487   5.027   3.855
 3366SOL    HW210998   6.474   4.898   3.756
 3367SOL     OW10999   3.004   3.162   2.424
 3367SOL    HW111000   2.904   3.164   2.424
 3367SOL    HW211001   3.040   3.248   2.460
 3368SOL     OW11002   0.682   5.465   6.659
 3368SOL    HW111003   0.780   5.469   6.640
 3368SOL    HW211004   0.631   5.459   6.573
 3369SOL     OW11005   4.349   1.987   1.719
 3369SOL    HW111006   4.433   1.969   1.770
 3369SOL    HW211007   4.344   1.927   1.640
 3370SOL     OW11008   6.022   6.430   1.810
 3370SOL    HW111009   6.119   6.455   1.814
 3370SOL    HW211010   5.973   6.495   1.753
 3371SOL     OW11011   2.294   3.687   1.691
 3371SOL    HW111012   2.296   3.611   1.756
 3371SOL    HW211013   2.372   3.680   1.629
 3372SOL     OW11014   0.374   2.070   6.947
 3372SOL    HW111015   0.367   2.170   6.945
 3372SOL    HW211016   0.289   2.030   6.915
 3373SOL     OW11017   6.934   1.939   4.002
 3373SOL    HW111018   6.932   1.874   4.077
 3373SOL    HW211019   6.872   1.909   3.930
 3374SOL     OW11020   1.279   0.596   3.742
 3374SOL    HW111021   1.258   0.684   3.783
 3374SOL    HW211022   1.196   0.556   3.703
 3375SOL     OW11023   0.014   4.294   0.901
 3375SOL    HW111024   6.983   4.377   0.918
 3375SOL    HW211025   6.981   4.229   0.849
 3376SOL     OW11026   3.359   3.137   4.835
 3376SOL    HW111027   3.334   3.075   4.761
 3376SOL    HW211028   3.294   3.214   4.838
 3377SOL     OW11029   6.558   5.118   5.319
 3377SOL    HW111030   6.568   5.208   5.276
 3377SOL    HW211031   6.648   5.080   5.339
 3378SOL     OW11032   0.970   6.750   6.487
 3378SOL    HW111033   0.956   6.707   6.398
 3378SOL    HW211034   0.888   6.802   6.512
 3379SOL     OW11035   0.611   2.657   5.004
 3379SOL    HW111036   0.604   2.643   4.905
 3379SOL    HW211037   0.615   2.754   5.024
 3380SOL     OW11038   4.363   5.415   5.363
 3380SOL    HW111039   4.341   5.482   5.292
 3380SOL    HW211040   4.303   5.427   5.441
 3381SOL     OW11041   6.621   2.778   1.637
 3381SOL    HW111042   6.635   2.777   1.736
 3381SOL    HW211043   6.658   2.863   1.599
 3382SOL     OW11044   0.348   3.057   0.776
 3382SOL    HW111045   0.379   3.075   0.682
 3382SOL    HW211046   0.347   2.959   0.792
 3383SOL     OW11047   3.434   5.007   0.553
 3383SOL    HW111048   3.444   5.094   0.506
 3383SOL    HW211049   3.344   5.003   0.597
 3384SOL     OW11050   2.348   3.812   0.435
 3384SOL    HW111051   2.371   3.828   0.531
 3384SOL    HW211052   2.424   3.765   0.390
 3385SOL     OW11053   6.441   3.422   4.277
 3385SOL    HW111054   6.452   3.366   4.195
 3385SOL    HW211055   6.392   3.506   4.254
 3386SOL     OW11056   6.221   4.615   6.919
 3386SOL    HW111057   6.151   4.608   6.990
 3386SOL    HW211058   6.274   4.530   6.916
 3387SOL     OW11059   4.712   0.413   3.146
 3387SOL    HW111060   4.617   0.442   3.143
 3387SOL    HW211061   4.720   0.321   3.106
 3388SOL     OW11062   5.459   4.049   2.546
 3388SOL    HW111063   5.515   4.036   2.464
 3388SOL    HW211064   5.498   4.122   2.602
 3389SOL     OW11065   6.372   5.721   6.447
 3389SOL    HW111066   6.358   5.769   6.534
 3389SOL    HW211067   6.300   5.653   6.434
 3390SOL     OW11068   4.267   6.646   6.466
 3390SOL    HW111069   4.304   6.554   6.452
 3390SOL    HW211070   4.248   6.659   6.563
 3391SOL     OW11071   5.181   2.054   2.991
 3391SOL    HW111072   5.245   2.121   2.954
 3391SOL    HW211073   5.157   1.988   2.921
 3392SOL     OW11074   3.125   0.234   4.255
 3392SOL    HW111075   3.051   0.167   4.263
 3392SOL    HW211076   3.113   0.286   4.171
 3393SOL     OW11077   5.670   6.365   0.431
 3393SOL    HW111078   5.671   6.275   0.474
 3393SOL    HW211079   5.601   6.422   0.476
 3394SOL     OW11080   4.260   4.180   0.624
 3394SOL    HW111081   4.162   4.169   0.640
 3394SOL    HW211082   4.277   4.268   0.581
 3395SOL     OW11083   5.005   1.507   3.114
 3395SOL    HW111084   5.020   1.602   3.089
 3395SOL    HW211085   5.067   1.449   3.061
 3396SOL     OW11086   5.959   1.786   3.516
 3396SOL    HW111087   5.975   1.787   3.615
 3396SOL    HW211088   5.993   1.872   3.476
 3397SOL     OW11089   3.283   5.508   6.130
 3397SOL    HW111090   3.235   5.594   6.114
 3397SOL    HW211091   3.355   5.522   6.197
 3398SOL     OW11092   0.516   0.124   5.017
 3398SOL    HW111093   0.604   0.169   5.036
 3398SOL    HW211094   0.508   0.043   5.075
 3399SOL     OW11095   6.256   4.825   2.983
 3399SOL    HW111096   6.297   4.852   3.070
 3399SOL    HW211097   6.217   4.906   2.938
 3400SOL     OW11098   6.230   3.282   0.181
 3400SOL    HW111099   6.328   3.264   0.188
 3400SOL    HW211100   6.210   3.328   0.095
 3401SOL     OW11101   6.412   4.156   6.612
 3401SOL    HW111102   6.490   4.092   6.615
 3401SOL    HW211103   6.333   4.109   6.574
 3402SOL     OW11104   6.265   5.680   0.614
 3402SOL    HW111105   6.351   5.677   0.665
 3402SOL    HW211106   6.195   5.629   0.664
 3403SOL     OW11107   5.095   5.541   6.152
 3403SOL    HW111108   5.028   5.468   6.136
 3403SOL    HW211109   5.096   5.602   6.073
 3404SOL     OW11110   4.943   3.170   6.795
 3404SOL    HW111111   4.921   3.158   6.891
 3404SOL    HW211112   4.869   3.222   6.750
 3405SOL     OW11113   5.881   4.499   6.209
 3405SOL    HW111114   5.828   4.512   6.125
 3405SOL    HW211115   5.821   4.464   6.281
 3406SOL     OW11116   1.489   3.620   2.243
 3406SOL    HW111117   1.469   3.704   2.192
 3406SOL    HW211118   1.464   3.633   2.339
 3407SOL     OW11119   2.677   4.646   0.240
 3407SOL    HW111120   2.582   4.613   0.240
 3407SOL    HW211121   2.724   4.614   0.322
 3408SOL     OW11122   5.314   3.520   4.910
 3408SOL    HW111123   5.331   3.461   4.989
 3408SOL    HW211124   5.274   3.465   4.836
 3409SOL     OW11125   3.820   6.019   0.726
 3409SOL    HW111126   3.768   6.003   0.810
 3409SOL    HW211127   3.797   5.949   0.659
 3410SOL     OW11128   5.643   6.244   2.509
 3410SOL    HW111129   5.594   6.183   2.571
 3410SOL    HW211130   5.611   6.231   2.415
 3411SOL     OW11131   0.627   2.696   0.396
 3411SOL    HW111132   0.566   2.639   0.341
 3411SOL    HW211133   0.612   2.678   0.493
 3412SOL     OW11134   5.067   3.957   1.103
 3412SOL    HW111135   5.015   3.898   1.041
 3412SOL    HW211136   5.165   3.949   1.082
 3413SOL     OW11137   6.036   2.253   6.817
 3413SOL    HW111138   6.000   2.196   6.744
 3413SOL    HW211139   5.962   2.278   6.880
 3414SOL     OW11140   3.161   1.812   5.546
 3414SOL    HW111141   3.110   1.726   5.555
 3414SOL    HW211142   3.098   1.888   5.535
 3415SOL     OW11143   2.574   2.496   4.069
 3415SOL    HW111144   2.643   2.427   4.091
 3415SOL    HW211145   2.570   2.509   3.970
 3416SOL     OW11146   5.694   0.604   6.726
 3416SOL    HW111147   5.770   0.611   6.790
 3416SOL    HW211148   5.730   0.585   6.634
 3417SOL     OW11149   0.048   6.889   3.047
 3417SOL    HW111150   6.978   6.851   3.048
 3417SOL    HW211151   0.076   6.910   3.141
 3418SOL     OW11152   3.591   5.822   3.776
 3418SOL    HW111153   3.658   5.847   3.706
 3418SOL    HW211154   3.585   5.895   3.844
 3419SOL     OW11155   3.912   5.706   5.963
 3419SOL    HW111156   3.823   5.662   5.973
 3419SOL    HW211157   3.909   5.768   5.884
 3420SOL     OW11158   5.167   3.525   4.328
 3420SOL    HW111159   5.168   3.457   4.254
 3420SOL    HW211160   5.175   3.617   4.289
 3421SOL     OW11161   5.982   1.977   3.105
 3421SOL    HW111162   6.067   2.007   3.062
 3421SOL    HW211163   5.986   1.879   3.124
 3422SOL     OW11164   2.617   0.679   0.853
 3422SOL    HW111165   2.542   0.651   0.792
 3422SOL    HW211166   2.638   0.604   0.916
 3423SOL     OW11167   0.310   4.099   5.851
 3423SOL    HW111168   0.306   4.191   5.889
 3423SOL    HW211169   0.404   4.065   5.856
 3424SOL     OW11170   3.300   0.540   1.344
 3424SOL    HW111171   3.276   0.445   1.325
 3424SOL    HW211172   3.380   0.543   1.404
 3425SOL     OW11173   4.821   4.585   1.711
 3425SOL    HW111174   4.765   4.504   1.698
 3425SOL    HW211175   4.891   4.567   1.780
 3426SOL     OW11176   4.918   2.695   0.487
 3426SOL    HW111177   4.967   2.611   0.510
 3426SOL    HW211178   4.984   2.769   0.471
 3427SOL     OW11179   0.563   2.523   2.204
 3427SOL    HW111180   0.634   2.486   2.144
 3427SOL    HW211181   0.508   2.590   2.153
 3428SOL     OW11182   4.396   4.573   6.500
 3428SOL    HW111183   4.415   4.651   6.440
 3428SOL    HW211184   4.370   4.494   6.443
 3429SOL     OW11185   0.470   1.223   1.010
 3429SOL    HW111186   0.395   1.166   1.043
 3429SOL    HW211187   0.538   1.166   0.964
 3430SOL     OW11188   2.257   5.617   6.061
 3430SOL    HW111189   2.356   5.606   6.071
 3430SOL    HW211190   2.211   5.534   6.091
 3431SOL     OW11191   1.430   6.490   1.735
 3431SOL    HW111192   1.514   6.463   1.781
 3431SOL    HW211193   1.400   6.579   1.771
 3432SOL     OW11194   2.424   5.054   6.450
 3432SOL    HW111195   2.400   5.151   6.442
 3432SOL    HW211196   2.522   5.042   6.434
 3433SOL     OW11197   1.848   1.481   6.147
 3433SOL    HW111198   1.858   1.580   6.158
 3433SOL    HW211199   1.939   1.439   6.142
 3434SOL     OW11200   3.748   1.972   1.299
 3434SOL    HW111201   3.703   2.057   1.272
 3434SOL    HW211202   3.678   1.902   1.318
 3435SOL     OW11203   2.922   0.844   0.424
 3435SOL    HW111204   2.894   0.752   0.450
 3435SOL    HW211205   2.994   0.840   0.356
 3436SOL     OW11206   3.472   5.846   0.510
 3436SOL    HW111207   3.530   5.768   0.535
 3436SOL    HW211208   3.517   5.900   0.439
 3437SOL     OW11209   2.186   6.805   6.171
 3437SOL    HW111210   2.131   6.881   6.138
 3437SOL    HW211211   2.169   6.724   6.114
 3438SOL     OW11212   0.556   3.850   1.128
 3438SOL    HW111213   0.562   3.768   1.071
 3438SOL    HW211214   0.591   3.830   1.219
 3439SOL     OW11215   2.927   6.068   4.168
 3439SOL    HW111216   3.020   6.099   4.185
 3439SOL    HW211217   2.912   6.059   4.069
 3440SOL     OW11218   4.003   3.503   2.980
 3440SOL    HW111219   3.917   3.474   3.023
 3440SOL    HW211220   4.031   3.591   3.017
 3441SOL     OW11221   0.543   5.903   6.674
 3441SOL    HW111222   0.576   5.881   6.765
 3441SOL    HW211223   0.555   5.824   6.614
 3442SOL     OW11224   2.671   3.719   0.780
 3442SOL    HW111225   2.730   3.741   0.702
 3442SOL    HW211226   2.575   3.724   0.751
 3443SOL     OW11227   3.275   6.169   2.268
 3443SOL    HW111228   3.260   6.234   2.193
 3443SOL    HW211229   3.219   6.087   2.253
 3444SOL     OW11230   5.106   5.478   1.278
 3444SOL    HW111231   5.100   5.576   1.259
 3444SOL    HW211232   5.175   5.437   1.217
 3445SOL     OW11233   6.942   5.166   3.938
 3445SOL    HW111234   6.978   5.125   4.021
 3445SOL    HW211235   7.016   5.183   3.873
 3446SOL     OW11236   5.592   0.742   1.174
 3446SOL    HW111237   5.541   0.697   1.247
 3446SOL    HW211238   5.687   0.756   1.203
 3447SOL     OW11239   4.869   0.677   0.298
 3447SOL    HW111240   4.961   0.668   0.337
 3447SOL    HW211241   4.829   0.586   0.284
 3448SOL     OW11242   3.117   6.427   6.164
 3448SOL    HW111243   3.033   6.476   6.190
 3448SOL    HW211244   3.095   6.358   6.095
 3449SOL     OW11245   6.133   5.182   4.663
 3449SOL    HW111246   6.145   5.266   4.715
 3449SOL    HW211247   6.097   5.110   4.723
 3450SOL     OW11248   1.538   0.898   6.590
 3450SOL    HW111249   1.456   0.886   6.645
 3450SOL    HW211250   1.619   0.888   6.647
 3451SOL     OW11251   1.476   5.871   0.267
 3451SOL    HW111252   1.564   5.830   0.291
 3451SOL    HW211253   1.463   5.867   0.168
 3452SOL     OW11254   5.963   0.386   6.039
 3452SOL    HW111255   5.934   0.354   6.129
 3452SOL    HW211256   5.900   0.351   5.969
 3453SOL     OW11257   5.964   5.839   6.030
 3453SOL    HW111258   5.897   5.798   5.968
 3453SOL    HW211259   5.994   5.927   5.995
 3454SOL     OW11260   1.289   3.920   4.803
 3454SOL    HW111261   1.284   3.891   4.898
 3454SOL    HW211262   1.375   3.887   4.763
 3455SOL     OW11263   2.748   1.273   4.905
 3455SOL    HW111264   2.701   1.301   4.988
 3455SOL    HW211265   2.803   1.191   4.924
 3456SOL     OW11266   4.286   4.786   1.856
 3456SOL    HW111267   4.338   4.717   1.905
 3456SOL    HW211268   4.322   4.795   1.763
 3457SOL     OW11269   4.015   5.273   4.811
 3457SOL    HW111270   4.018   5.367   4.775
 3457SOL    HW211271   3.932   5.228   4.777
 3458SOL     OW11272   4.740   1.861   2.223
 3458SOL    HW111273   4.752   1.935   2.289
 3458SOL    HW211274   4.687   1.788   2.265
 3459SOL     OW11275   5.458   1.851   3.173
 3459SOL    HW111276   5.466   1.769   3.117
 3459SOL    HW211277   5.422   1.927   3.119
 3460SOL     OW11278   3.203   1.957   5.992
 3460SOL    HW111279   3.187   2.054   5.973
 3460SOL    HW211280   3.156   1.902   5.923
 3461SOL     OW11281   5.839   4.418   6.895
 3461SOL    HW111282   5.767   4.484   6.915
 3461SOL    HW211283   5.804   4.351   6.829
 3462SOL     OW11284   0.878   3.843   5.282
 3462SOL    HW111285   0.890   3.802   5.373
 3462SOL    HW211286   0.785   3.824   5.250
 3463SOL     OW11287   0.890   4.255   0.771
 3463SOL    HW111288   0.900   4.303   0.684
 3463SOL    HW211289   0.796   4.266   0.805
 3464SOL     OW11290   0.503   4.599   6.336
 3464SOL    HW111291   0.597   4.621   6.362
 3464SOL    HW211292   0.496   4.501   6.318
 3465SOL     OW11293   2.422   2.543   2.029
 3465SOL    HW111294   2.420   2.451   1.991
 3465SOL    HW211295   2.453   2.607   1.959
 3466SOL     OW11296   0.202   5.518   5.924
 3466SOL    HW111297   0.302   5.523   5.931
 3466SOL    HW211298   0.171   5.430   5.959
 3467SOL     OW11299   1.591   2.090   6.542
 3467SOL    HW111300   1.526   2.153   6.499
 3467SOL    HW211301   1.647   2.139   6.609
 3468SOL     OW11302   3.707   5.341   3.129
 3468SOL    HW111303   3.614   5.309   3.145
 3468SOL    HW211304   3.766   5.314   3.205
 3469SOL     OW11305   6.155   1.800   3.758
 3469SOL    HW111306   6.191   1.879   3.708
 3469SOL    HW211307   6.080   1.830   3.817
 3470SOL     OW11308   6.608   4.926   0.938
 3470SOL    HW111309   6.540   4.955   1.005
 3470SOL    HW211310   6.692   4.978   0.950
 3471SOL     OW11311   4.247   5.177   4.945
 3471SOL    HW111312   4.155   5.210   4.920
 3471SOL    HW211313   4.294   5.146   4.862
 3472SOL     OW11314   2.409   0.685   3.846
 3472SOL    HW111315   2.490   0.647   3.892
 3472SOL    HW211316   2.437   0.736   3.765
 3473SOL     OW11317   5.487   1.459   6.077
 3473SOL    HW111318   5.585   1.467   6.060
 3473SOL    HW211319   5.450   1.550   6.099
 3474SOL     OW11320   3.058   5.080   1.652
 3474SOL    HW111321   2.968   5.071   1.693
 3474SOL    HW211322   3.072   5.006   1.585
 3475SOL     OW11323   1.231   6.627   4.719
 3475SOL    HW111324   1.153   6.688   4.732
 3475SOL    HW211325   1.240   6.605   4.622
 3476SOL     OW11326   3.236   0.969   4.362
 3476SOL    HW111327   3.335   0.959   4.354
 3476SOL    HW211328   3.210   0.960   4.458
 3477SOL     OW11329   2.999   5.832   2.093
 3477SOL    HW111330   2.986   5.740   2.058
 3477SOL    HW211331   2.933   5.894   2.050
 3478SOL     OW11332   2.770   6.360   5.804
 3478SOL    HW111333   2.690   6.408   5.839
 3478SOL    HW211334   2.823   6.422   5.745
 3479SOL     OW11335   0.498   6.833   3.150
 3479SOL    HW111336   0.440   6.840   3.232
 3479SOL    HW211337   0.576   6.894   3.159
 3480SOL     OW11338   6.605   1.298   4.487
 3480SOL    HW111339   6.582   1.205   4.517
 3480SOL    HW211340   6.529   1.360   4.509
 3481SOL     OW11341   4.777   6.661   6.350
 3481SOL    HW111342   4.838   6.682   6.427
 3481SOL    HW211343   4.829   6.669   6.265
 3482SOL     OW11344   5.253   1.100   1.150
 3482SOL    HW111345   5.177   1.037   1.135
 3482SOL    HW211346   5.217   1.191   1.172
 3483SOL     OW11347   3.075   0.144   1.160
 3483SOL    HW111348   3.048   0.071   1.223
 3483SOL    HW211349   2.994   0.179   1.112
 3484SOL     OW11350   2.797   3.466   1.846
 3484SOL    HW111351   2.831   3.372   1.837
 3484SOL    HW211352   2.701   3.463   1.875
 3485SOL     OW11353   1.917   1.017   4.949
 3485SOL    HW111354   1.862   1.099   4.960
 3485SOL    HW211355   1.908   0.960   5.031
 3486SOL     OW11356   3.440   1.711   2.144
 3486SOL    HW111357   3.413   1.800   2.107
 3486SOL    HW211358   3.365   1.673   2.197
 3487SOL     OW11359   5.585   1.779   6.405
 3487SOL    HW111360   5.587   1.763   6.503
 3487SOL    HW211361   5.587   1.877   6.387
 3488SOL     OW11362   5.783   3.280   3.995
 3488SOL    HW111363   5.689   3.299   4.024
 3488SOL    HW211364   5.838   3.256   4.075
 3489SOL     OW11365   3.503   0.138   0.495
 3489SOL    HW111366   3.550   0.063   0.541
 3489SOL    HW211367   3.409   0.144   0.529
 3490SOL     OW11368   4.435   4.419   6.982
 3490SOL    HW111369   4.358   4.379   0.009
 3490SOL    HW211370   4.474   4.494   0.014
 3491SOL     OW11371   6.723   3.096   5.898
 3491SOL    HW111372   6.728   3.011   5.847
 3491SOL    HW211373   6.629   3.131   5.896
 3492SOL     OW11374   0.571   5.678   0.694
 3492SOL    HW111375   0.604   5.604   0.753
 3492SOL    HW211376   0.534   5.751   0.751
 3493SOL     OW11377   6.589   5.109   6.736
 3493SOL    HW111378   6.631   5.153   6.657
 3493SOL    HW211379   6.491   5.132   6.739
 3494SOL     OW11380   4.494   0.373   0.514
 3494SOL    HW111381   4.588   0.407   0.511
 3494SOL    HW211382   4.479   0.322   0.599
 3495SOL     OW11383   4.320   4.718   2.489
 3495SOL    HW111384   4.311   4.667   2.403
 3495SOL    HW211385   4.416   4.736   2.507
 3496SOL     OW11386   1.181   3.126   1.053
 3496SOL    HW111387   1.121   3.150   1.130
 3496SOL    HW211388   1.245   3.054   1.080
 3497SOL     OW11389   3.795   0.450   2.833
 3497SOL    HW111390   3.821   0.476   2.926
 3497SOL    HW211391   3.872   0.402   2.789
 3498SOL     OW11392   3.172   2.278   0.887
 3498SOL    HW111393   3.247   2.342   0.871
 3498SOL    HW211394   3.086   2.322   0.861
 3499SOL     OW11395   5.381   3.094   4.422
 3499SOL    HW111396   5.332   3.013   4.452
 3499SOL    HW211397   5.433   3.131   4.499
 3500SOL     OW11398   6.735   4.220   5.849
 3500SOL    HW111399   6.804   4.148   5.861
 3500SOL    HW211400   6.665   4.210   5.920
 3501SOL     OW11401   0.467   5.083   4.775
 3501SOL    HW111402   0.441   5.073   4.679
 3501SOL    HW211403   0.479   5.180   4.796
 3502SOL     OW11404   0.110   2.440   1.993
 3502SOL    HW111405   0.021   2.487   1.997
 3502SOL    HW211406   0.166   2.467   2.071
 3503SOL     OW11407   5.346   5.711   5.063
 3503SOL    HW111408   5.426   5.707   5.002
 3503SOL    HW211409   5.374   5.685   5.155
 3504SOL     OW11410   2.737   2.831   1.121
 3504SOL    HW111411   2.787   2.748   1.100
 3504SOL    HW211412   2.699   2.825   1.214
 3505SOL     OW11413   5.543   5.298   5.217
 3505SOL    HW111414   5.493   5.229   5.166
 3505SOL    HW211415   5.579   5.259   5.302
 3506SOL     OW11416   3.988   5.558   4.737
 3506SOL    HW111417   3.989   5.632   4.804
 3506SOL    HW211418   3.981   5.597   4.645
 3507SOL     OW11419   2.027   0.812   6.764
 3507SOL    HW111420   2.083   0.768   6.834
 3507SOL    HW211421   2.070   0.898   6.736
 3508SOL     OW11422   4.335   2.293   6.654
 3508SOL    HW111423   4.354   2.201   6.689
 3508SOL    HW211424   4.291   2.286   6.564
 3509SOL     OW11425   5.512   5.816   6.452
 3509SOL    HW111426   5.515   5.882   6.377
 3509SOL    HW211427   5.579   5.842   6.521
 3510SOL     OW11428   1.988   2.197   1.779
 3510SOL    HW111429   1.991   2.293   1.751
 3510SOL    HW211430   1.910   2.183   1.840
 3511SOL     OW11431   1.765   3.720   6.862
 3511SOL    HW111432   1.674   3.752   6.890
 3511SOL    HW211433   1.781   3.628   6.899
 3512SOL     OW11434   0.821   4.895   0.641
 3512SOL    HW111435   0.889   4.916   0.570
 3512SOL    HW211436   0.760   4.823   0.609
 3513SOL     OW11437   6.130   4.152   0.344
 3513SOL    HW111438   6.121   4.192   0.435
 3513SOL    HW211439   6.221   4.170   0.308
 3514SOL     OW11440   0.886   0.809   2.059
 3514SOL    HW111441   0.857   0.726   2.106
 3514SOL    HW211442   0.925   0.873   2.125
 3515SOL     OW11443   3.625   5.812   2.549
 3515SOL    HW111444   3.643   5.760   2.466
 3515SOL    HW211445   3.558   5.884   2.530
 3516SOL     OW11446   3.813   1.401   1.108
 3516SOL    HW111447   3.894   1.451   1.078
 3516SOL    HW211448   3.814   1.393   1.208
 3517SOL     OW11449   0.631   1.254   0.293
 3517SOL    HW111450   0.626   1.352   0.273
 3517SOL    HW211451   0.575   1.204   0.227
 3518SOL     OW11452   4.555   4.196   5.623
 3518SOL    HW111453   4.554   4.278   5.679
 3518SOL    HW211454   4.607   4.124   5.669
 3519SOL     OW11455   1.315   0.508   6.312
 3519SOL    HW111456   1.316   0.589   6.371
 3519SOL    HW211457   1.261   0.436   6.356
 3520SOL     OW11458   3.538   4.333   1.474
 3520SOL    HW111459   3.551   4.412   1.414
 3520SOL    HW211460   3.619   4.321   1.531
 3521SOL     OW11461   5.777   2.995   1.347
 3521SOL    HW111462   5.767   3.091   1.373
 3521SOL    HW211463   5.836   2.949   1.412
 3522SOL     OW11464   3.214   5.424   1.856
 3522SOL    HW111465   3.226   5.521   1.877
 3522SOL    HW211466   3.176   5.415   1.764
 3523SOL     OW11467   3.214   4.383   5.630
 3523SOL    HW111468   3.260   4.415   5.547
 3523SOL    HW211469   3.134   4.329   5.605
 3524SOL     OW11470   3.036   0.634   1.322
 3524SOL    HW111471   3.114   0.574   1.303
 3524SOL    HW211472   3.050   0.680   1.409
 3525SOL     OW11473   0.823   3.260   2.157
 3525SOL    HW111474   0.785   3.254   2.065
 3525SOL    HW211475   0.753   3.235   2.223
 3526SOL     OW11476   1.222   0.580   4.387
 3526SOL    HW111477   1.214   0.493   4.339
 3526SOL    HW211478   1.205   0.655   4.324
 3527SOL     OW11479   5.105   2.755   5.558
 3527SOL    HW111480   5.154   2.669   5.545
 3527SOL    HW211481   5.133   2.797   5.645
 3528SOL     OW11482   1.058   6.817   3.824
 3528SOL    HW111483   1.018   6.777   3.742
 3528SOL    HW211484   1.064   6.916   3.813
 3529SOL     OW11485   3.637   0.234   5.443
 3529SOL    HW111486   3.589   0.314   5.408
 3529SOL    HW211487   3.598   0.208   5.531
 3530SOL     OW11488   2.133   5.600   2.686
 3530SOL    HW111489   2.079   5.659   2.625
 3530SOL    HW211490   2.080   5.518   2.707
 3531SOL     OW11491   5.574   3.773   0.292
 3531SOL    HW111492   5.571   3.817   0.381
 3531SOL    HW211493   5.581   3.674   0.303
 3532SOL     OW11494   3.177   0.408   0.135
 3532SOL    HW111495   3.167   0.347   0.214
 3532SOL    HW211496   3.090   0.455   0.118
 3533SOL     OW11497   1.451   1.891   3.677
 3533SOL    HW111498   1.433   1.829   3.601
 3533SOL    HW211499   1.545   1.924   3.672
 3534SOL     OW11500   5.536   1.654   5.487
 3534SOL    HW111501   5.509   1.686   5.578
 3534SOL    HW211502   5.471   1.687   5.419
 3535SOL     OW11503   0.059   5.797   0.690
 3535SOL    HW111504   0.014   5.714   0.722
 3535SOL    HW211505   7.018   5.874   0.695
 3536SOL     OW11506   1.742   3.619   3.337
 3536SOL    HW111507   1.713   3.528   3.308
 3536SOL    HW211508   1.737   3.626   3.436
 3537SOL     OW11509   2.095   4.688   0.523
 3537SOL    HW111510   2.096   4.785   0.498
 3537SOL    HW211511   2.176   4.643   0.485
 3538SOL     OW11512   3.274   1.000   3.829
 3538SOL    HW111513   3.262   1.048   3.916
 3538SOL    HW211514   3.207   0.926   3.821
 3539SOL     OW11515   6.199   3.339   5.347
 3539SOL    HW111516   6.280   3.367   5.398
 3539SOL    HW211517   6.124   3.404   5.364
 3540SOL     OW11518   2.182   2.935   6.262
 3540SOL    HW111519   2.249   2.862   6.247
 3540SOL    HW211520   2.182   2.997   6.183
 3541SOL     OW11521   2.537   2.943   0.337
 3541SOL    HW111522   2.488   2.860   0.363
 3541SOL    HW211523   2.507   3.020   0.393
 3542SOL     OW11524   5.373   2.242   0.235
 3542SOL    HW111525   5.368   2.341   0.244
 3542SOL    HW211526   5.452   2.217   0.179
 3543SOL     OW11527   1.387   3.646   3.078
 3543SOL    HW111528   1.364   3.674   3.171
 3543SOL    HW211529   1.344   3.558   3.058
 3544SOL     OW11530   2.755   4.438   0.021
 3544SOL    HW111531   2.713   4.348   0.036
 3544SOL    HW211532   2.753   4.490   0.106
 3545SOL     OW11533   3.811   4.872   0.464
 3545SOL    HW111534   3.910   4.867   0.475
 3545SOL    HW211535   3.787   4.958   0.417
 3546SOL     OW11536   6.230   4.622   3.362
 3546SOL    HW111537   6.160   4.664   3.304
 3546SOL    HW211538   6.320   4.642   3.326
 3547SOL     OW11539   6.907   3.428   4.696
 3547SOL    HW111540   6.830   3.365   4.685
 3547SOL    HW211541   6.874   3.513   4.738
 3548SOL     OW11542   5.278   0.790   5.703
 3548SOL    HW111543   5.296   0.851   5.780
 3548SOL    HW211544   5.353   0.797   5.637
 3549SOL     OW11545   2.087   5.007   6.662
 3549SOL    HW111546   2.035   5.005   6.747
 3549SOL    HW211547   2.026   4.987   6.585
 3550SOL     OW11548   5.820   2.718   5.150
 3550SOL    HW111549   5.845   2.681   5.239
 3550SOL    HW211550   5.720   2.716   5.141
 3551SOL     OW11551   3.552   1.795   5.010
 3551SOL    HW111552   3.506   1.733   4.946
 3551SOL    HW211553   3.494   1.874   5.028
 3552SOL     OW11554   6.281   5.425   2.248
 3552SOL    HW111555   6.226   5.342   2.239
 3552SOL    HW211556   6.226   5.497   2.291
 3553SOL     OW11557   3.438   5.606   6.523
 3553SOL    HW111558   3.354   5.659   6.528
 3553SOL    HW211559   3.499   5.646   6.455
 3554SOL     OW11560   3.647   4.026   0.860
 3554SOL    HW111561   3.598   4.095   0.805
 3554SOL    HW211562   3.627   4.040   0.957
 3555SOL     OW11563   2.161   2.377   4.471
 3555SOL    HW111564   2.095   2.306   4.494
 3555SOL    HW211565   2.203   2.356   4.383
 3556SOL     OW11566   3.902   1.492   4.391
 3556SOL    HW111567   3.822   1.528   4.438
 3556SOL    HW211568   3.948   1.566   4.341
 3557SOL     OW11569   0.504   0.379   2.919
 3557SOL    HW111570   0.564   0.348   2.846
 3557SOL    HW211571   0.415   0.403   2.881
 3558SOL     OW11572   2.645   5.429   0.890
 3558SOL    HW111573   2.730   5.476   0.869
 3558SOL    HW211574   2.664   5.337   0.926
 3559SOL     OW11575   2.412   0.059   5.119
 3559SOL    HW111576   2.507   0.075   5.144
 3559SOL    HW211577   2.352   0.101   5.188
 3560SOL     OW11578   1.916   4.567   3.806
 3560SOL    HW111579   1.913   4.513   3.890
 3560SOL    HW211580   1.865   4.520   3.734
 3561SOL     OW11581   5.502   4.421   5.628
 3561SOL    HW111582   5.457   4.355   5.688
 3561SOL    HW211583   5.552   4.372   5.556
 3562SOL     OW11584   3.592   1.856   4.358
 3562SOL    HW111585   3.581   1.837   4.455
 3562SOL    HW211586   3.591   1.955   4.342
 3563SOL     OW11587   5.793   2.401   6.529
 3563SOL    HW111588   5.847   2.318   6.539
 3563SOL    HW211589   5.728   2.409   6.604
 3564SOL     OW11590   0.584   5.074   2.747
 3564SOL    HW111591   0.520   5.034   2.681
 3564SOL    HW211592   0.622   5.158   2.710
 3565SOL     OW11593   3.755   4.867   2.515
 3565SOL    HW111594   3.783   4.867   2.611
 3565SOL    HW211595   3.835   4.852   2.457
 3566SOL     OW11596   6.774   1.068   5.874
 3566SOL    HW111597   6.740   1.162   5.870
 3566SOL    HW211598   6.698   1.005   5.892
 3567SOL     OW11599   0.135   2.867   6.266
 3567SOL    HW111600   0.174   2.799   6.202
 3567SOL    HW211601   0.074   2.927   6.216
 3568SOL     OW11602   6.462   4.008   5.450
 3568SOL    HW111603   6.377   3.988   5.500
 3568SOL    HW211604   6.525   3.931   5.460
 3569SOL     OW11605   2.857   1.856   5.158
 3569SOL    HW111606   2.817   1.856   5.066
 3569SOL    HW211607   2.930   1.924   5.162
 3570SOL     OW11608   4.911   0.469   6.071
 3570SOL    HW111609   4.893   0.502   5.978
 3570SOL    HW211610   4.833   0.491   6.130
 3571SOL     OW11611   0.227   5.779   6.907
 3571SOL    HW111612   0.248   5.682   6.915
 3571SOL    HW211613   0.309   5.833   6.927
 3572SOL     OW11614   5.287   3.968   3.802
 3572SOL    HW111615   5.337   4.009   3.726
 3572SOL    HW211616   5.350   3.951   3.878
 3573SOL     OW11617   0.561   4.527   3.910
 3573SOL    HW111618   0.551   4.515   4.009
 3573SOL    HW211619   0.604   4.616   3.892
 3574SOL     OW11620   0.181   4.942   0.100
 3574SOL    HW111621   0.224   5.026   0.133
 3574SOL    HW211622   0.249   4.869   0.097
 3575SOL     OW11623   5.484   5.002   3.107
 3575SOL    HW111624   5.504   4.989   3.010
 3575SOL    HW211625   5.414   4.936   3.135
 3576SOL     OW11626   2.217   1.475   5.902
 3576SOL    HW111627   2.231   1.378   5.917
 3576SOL    HW211628   2.266   1.504   5.819
 3577SOL     OW11629   1.586   2.554   6.497
 3577SOL    HW111630   1.632   2.639   6.473
 3577SOL    HW211631   1.654   2.481   6.510
 3578SOL     OW11632   3.878   3.152   0.149
 3578SOL    HW111633   3.898   3.114   0.239
 3578SOL    HW211634   3.848   3.078   0.088
 3579SOL     OW11635   0.109   3.872   4.568
 3579SOL    HW111636   0.038   3.899   4.503
 3579SOL    HW211637   0.199   3.886   4.526
 3580SOL     OW11638   5.764   1.438   1.379
 3580SOL    HW111639   5.773   1.384   1.462
 3580SOL    HW211640   5.777   1.535   1.401
 3581SOL     OW11641   6.291   0.306   4.202
 3581SOL    HW111642   6.191   0.312   4.202
 3581SOL    HW211643   6.327   0.359   4.124
 3582SOL     OW11644   0.464   2.106   6.267
 3582SOL    HW111645   0.561   2.133   6.264
 3582SOL    HW211646   0.448   2.033   6.201
 3583SOL     OW11647   0.628   3.907   6.698
 3583SOL    HW111648   0.616   3.925   6.795
 3583SOL    HW211649   0.715   3.861   6.683
 3584SOL     OW11650   6.027   5.918   6.305
 3584SOL    HW111651   6.001   5.855   6.378
 3584SOL    HW211652   5.990   5.885   6.218
 3585SOL     OW11653   3.568   5.281   5.173
 3585SOL    HW111654   3.658   5.325   5.172
 3585SOL    HW211655   3.579   5.185   5.198
 3586SOL     OW11656   6.715   2.045   5.446
 3586SOL    HW111657   6.645   2.074   5.380
 3586SOL    HW211658   6.675   1.979   5.510
 3587SOL     OW11659   2.573   5.217   0.284
 3587SOL    HW111660   2.653   5.167   0.254
 3587SOL    HW211661   2.507   5.223   0.209
 3588SOL     OW11662   0.835   3.072   5.328
 3588SOL    HW111663   0.837   3.137   5.404
 3588SOL    HW211664   0.924   3.072   5.283
 3589SOL     OW11665   3.762   1.508   4.165
 3589SOL    HW111666   3.823   1.479   4.238
 3589SOL    HW211667   3.808   1.495   4.077
 3590SOL     OW11668   6.978   4.096   6.117
 3590SOL    HW111669   0.035   4.156   6.107
 3590SOL    HW211670   6.960   4.081   6.214
 3591SOL     OW11671   4.564   3.563   6.260
 3591SOL    HW111672   4.514   3.648   6.277
 3591SOL    HW211673   4.582   3.517   6.346
 3592SOL     OW11674   5.568   4.031   2.953
 3592SOL    HW111675   5.564   4.080   2.867
 3592SOL    HW211676   5.551   3.933   2.937
 3593SOL     OW11677   2.406   5.794   4.908
 3593SOL    HW111678   2.314   5.758   4.921
 3593SOL    HW211679   2.459   5.781   4.993
 3594SOL     OW11680   3.488   0.394   2.740
 3594SOL    HW111681   3.587   0.405   2.748
 3594SOL    HW211682   3.462   0.301   2.768
 3595SOL     OW11683   2.239   5.928   6.394
 3595SOL    HW111684   2.233   5.830   6.417
 3595SOL    HW211685   2.195   5.981   6.467
 3596SOL     OW11686   6.395   2.171   2.872
 3596SOL    HW111687   6.468   2.159   2.940
 3596SOL    HW211688   6.306   2.166   2.918
 3597SOL     OW11689   2.664   6.565   4.878
 3597SOL    HW111690   2.571   6.542   4.849
 3597SOL    HW211691   2.729   6.529   4.812
 3598SOL     OW11692   1.400   0.143   5.823
 3598SOL    HW111693   1.311   0.139   5.778
 3598SOL    HW211694   1.472   0.123   5.757
 3599SOL     OW11695   0.800   2.253   5.373
 3599SOL    HW111696   0.751   2.311   5.308
 3599SOL    HW211697   0.737   2.223   5.445
 3600SOL     OW11698   0.783   3.475   0.759
 3600SOL    HW111699   0.817   3.528   0.837
 3600SOL    HW211700   0.705   3.521   0.718
 3601SOL     OW11701   6.890   4.267   0.314
 3601SOL    HW111702   6.815   4.209   0.282
 3601SOL    HW211703   6.973   4.247   0.261
 3602SOL     OW11704   1.255   1.057   0.697
 3602SOL    HW111705   1.255   1.143   0.749
 3602SOL    HW211706   1.327   1.059   0.629
 3603SOL     OW11707   3.237   6.184   3.750
 3603SOL    HW111708   3.233   6.141   3.840
 3603SOL    HW211709   3.255   6.115   3.680
 3604SOL     OW11710   6.495   4.821   4.102
 3604SOL    HW111711   6.435   4.749   4.137
 3604SOL    HW211712   6.499   4.815   4.002
 3605SOL     OW11713   5.655   4.291   5.895
 3605SOL    HW111714   5.685   4.197   5.881
 3605SOL    HW211715   5.561   4.302   5.862
 3606SOL     OW11716   6.785   5.431   5.413
 3606SOL    HW111717   6.799   5.528   5.392
 3606SOL    HW211718   6.739   5.386   5.336
 3607SOL     OW11719   5.151   6.505   0.819
 3607SOL    HW111720   5.246   6.507   0.848
 3607SOL    HW211721   5.116   6.412   0.828
 3608SOL     OW11722   6.688   2.012   1.840
 3608SOL    HW111723   6.747   2.054   1.771
 3608SOL    HW211724   6.736   1.936   1.884
 3609SOL     OW11725   0.201   0.499   4.064
 3609SOL    HW111726   0.119   0.533   4.018
 3609SOL    HW211727   0.209   0.400   4.050
 3610SOL     OW11728   0.471   0.641   5.678
 3610SOL    HW111729   0.480   0.541   5.676
 3610SOL    HW211730   0.453   0.675   5.586
 3611SOL     OW11731   3.725   5.614   5.687
 3611SOL    HW111732   3.750   5.548   5.616
 3611SOL    HW211733   3.674   5.567   5.760
 3612SOL     OW11734   6.232   0.430   5.938
 3612SOL    HW111735   6.146   0.434   5.988
 3612SOL    HW211736   6.287   0.352   5.970
 3613SOL     OW11737   5.513   5.512   1.246
 3613SOL    HW111738   5.488   5.416   1.228
 3613SOL    HW211739   5.466   5.543   1.329
 3614SOL     OW11740   3.449   3.325   3.179
 3614SOL    HW111741   3.486   3.341   3.088
 3614SOL    HW211742   3.457   3.228   3.202
 3615SOL     OW11743   5.635   5.957   6.683
 3615SOL    HW111744   5.656   6.037   6.627
 3615SOL    HW211745   5.584   5.985   6.764
 3616SOL     OW11746   6.864   1.649   6.423
 3616SOL    HW111747   6.940   1.667   6.361
 3616SOL    HW211748   6.832   1.735   6.462
 3617SOL     OW11749   5.330   1.102   6.774
 3617SOL    HW111750   5.261   1.065   6.713
 3617SOL    HW211751   5.334   1.202   6.764
 3618SOL     OW11752   2.184   1.888   5.025
 3618SOL    HW111753   2.119   1.824   4.985
 3618SOL    HW211754   2.136   1.968   5.060
 3619SOL     OW11755   5.796   2.844   3.895
 3619SOL    HW111756   5.822   2.919   3.957
 3619SOL    HW211757   5.867   2.774   3.898
 3620SOL     OW11758   6.109   5.625   5.901
 3620SOL    HW111759   6.139   5.542   5.949
 3620SOL    HW211760   6.070   5.689   5.967
 3621SOL     OW11761   3.148   2.222   5.975
 3621SOL    HW111762   3.168   2.316   6.002
 3621SOL    HW211763   3.070   2.220   5.914
 3622SOL     OW11764   2.120   2.299   3.694
 3622SOL    HW111765   2.180   2.282   3.616
 3622SOL    HW211766   2.136   2.391   3.729
 3623SOL     OW11767   5.718   5.975   3.884
 3623SOL    HW111768   5.692   5.896   3.939
 3623SOL    HW211769   5.717   6.057   3.941
 3624SOL     OW11770   1.798   0.262   2.239
 3624SOL    HW111771   1.818   0.253   2.336
 3624SOL    HW211772   1.824   0.177   2.192
 3625SOL     OW11773   6.012   3.079   6.989
 3625SOL    HW111774   6.091   3.036   0.010
 3625SOL    HW211775   5.930   3.062   0.022
 3626SOL     OW11776   1.971   3.551   5.507
 3626SOL    HW111777   2.046   3.576   5.445
 3626SOL    HW211778   1.947   3.455   5.494
 3627SOL     OW11779   3.789   3.030   3.272
 3627SOL    HW111780   3.885   3.031   3.301
 3627SOL    HW211781   3.737   3.097   3.325
 3628SOL     OW11782   1.754   6.984   1.315
 3628SOL    HW111783   1.762   6.960   1.412
 3628SOL    HW211784   1.832   6.945   1.265
 3629SOL     OW11785   6.083   2.085   4.162
 3629SOL    HW111786   5.985   2.067   4.154
 3629SOL    HW211787   6.118   2.045   4.247
 3630SOL     OW11788   5.237   2.616   3.375
 3630SOL    HW111789   5.231   2.649   3.469
 3630SOL    HW211790   5.333   2.597   3.352
 3631SOL     OW11791   1.973   6.666   4.140
 3631SOL    HW111792   1.925   6.743   4.096
 3631SOL    HW211793   2.029   6.620   4.072
 3632SOL     OW11794   5.173   0.180   0.446
 3632SOL    HW111795   5.109   0.104   0.443
 3632SOL    HW211796   5.127   0.264   0.415
 3633SOL     OW11797   3.284   1.655   5.750
 3633SOL    HW111798   3.252   1.726   5.687
 3633SOL    HW211799   3.279   1.566   5.706
 3634SOL     OW11800   0.758   5.521   5.338
 3634SOL    HW111801   0.726   5.528   5.243
 3634SOL    HW211802   0.704   5.581   5.396
 3635SOL     OW11803   2.366   0.181   6.388
 3635SOL    HW111804   2.455   0.211   6.353
 3635SOL    HW211805   2.306   0.157   6.311
 3636SOL     OW11806   0.642   5.721   6.472
 3636SOL    HW111807   0.727   5.773   6.460
 3636SOL    HW211808   0.647   5.638   6.417
 3637SOL     OW11809   6.441   2.076   1.081
 3637SOL    HW111810   6.411   2.042   1.170
 3637SOL    HW211811   6.518   2.022   1.049
 3638SOL     OW11812   6.894   4.509   4.428
 3638SOL    HW111813   6.967   4.563   4.385
 3638SOL    HW211814   6.926   4.415   4.442
 3639SOL     OW11815   3.990   4.084   1.083
 3639SOL    HW111816   4.087   4.086   1.105
 3639SOL    HW211817   3.936   4.091   1.167
 3640SOL     OW11818   3.792   0.364   6.912
 3640SOL    HW111819   3.858   0.307   6.863
 3640SOL    HW211820   3.709   0.311   6.929
 3641SOL     OW11821   4.846   2.825   3.758
 3641SOL    HW111822   4.816   2.857   3.668
 3641SOL    HW211823   4.882   2.733   3.751
 3642SOL     OW11824   5.260   1.089   0.307
 3642SOL    HW111825   5.330   1.136   0.253
 3642SOL    HW211826   5.304   1.022   0.367
 3643SOL     OW11827   3.354   5.727   4.630
 3643SOL    HW111828   3.293   5.807   4.630
 3643SOL    HW211829   3.424   5.740   4.700
 3644SOL     OW11830   6.839   1.076   1.621
 3644SOL    HW111831   6.915   1.042   1.565
 3644SOL    HW211832   6.758   1.089   1.564
 3645SOL     OW11833   6.569   1.646   3.983
 3645SOL    HW111834   6.607   1.718   4.042
 3645SOL    HW211835   6.626   1.564   3.990
 3646SOL     OW11836   6.602   3.945   6.503
 3646SOL    HW111837   6.698   3.951   6.476
 3646SOL    HW211838   6.558   3.869   6.453
 3647SOL     OW11839   2.209   3.412   0.149
 3647SOL    HW111840   2.159   3.414   0.063
 3647SOL    HW211841   2.198   3.322   0.192
 3648SOL     OW11842   2.851   4.835   2.790
 3648SOL    HW111843   2.837   4.791   2.700
 3648SOL    HW211844   2.931   4.894   2.786
 3649SOL     OW11845   4.947   2.951   1.518
 3649SOL    HW111846   4.948   2.929   1.615
 3649SOL    HW211847   4.982   3.044   1.504
 3650SOL     OW11848   0.227   4.794   0.554
 3650SOL    HW111849   0.144   4.818   0.504
 3650SOL    HW211850   0.293   4.870   0.549
 3651SOL     OW11851   0.237   6.521   3.832
 3651SOL    HW111852   0.235   6.465   3.749
 3651SOL    HW211853   0.330   6.526   3.866
 3652SOL     OW11854   5.977   6.497   3.071
 3652SOL    HW111855   5.931   6.483   3.159
 3652SOL    HW211856   6.067   6.538   3.086
 3653SOL     OW11857   0.060   1.110   3.729
 3653SOL    HW111858   0.062   1.184   3.796
 3653SOL    HW211859   6.993   1.108   3.685
 3654SOL     OW11860   2.333   5.733   0.304
 3654SOL    HW111861   2.356   5.796   0.379
 3654SOL    HW211862   2.417   5.702   0.260
 3655SOL     OW11863   2.134   0.249   3.477
 3655SOL    HW111864   2.143   0.229   3.575
 3655SOL    HW211865   2.072   0.326   3.464
 3656SOL     OW11866   0.787   3.584   2.208
 3656SOL    HW111867   0.793   3.565   2.306
 3656SOL    HW211868   0.695   3.562   2.176
 3657SOL     OW11869   4.979   5.159   6.320
 3657SOL    HW111870   5.049   5.112   6.264
 3657SOL    HW211871   4.904   5.096   6.338
 3658SOL     OW11872   1.887   6.072   4.100
 3658SOL    HW111873   1.902   5.980   4.064
 3658SOL    HW211874   1.935   6.081   4.187
 3659SOL     OW11875   2.706   3.389   5.687
 3659SOL    HW111876   2.652   3.317   5.731
 3659SOL    HW211877   2.798   3.354   5.668
 3660SOL     OW11878   4.671   0.160   3.025
 3660SOL    HW111879   4.621   0.099   3.086
 3660SOL    HW211880   4.720   0.106   2.957
 3661SOL     OW11881   4.705   1.683   5.969
 3661SOL    HW111882   4.700   1.618   6.044
 3661SOL    HW211883   4.649   1.763   5.990
 3662SOL     OW11884   4.390   0.608   3.468
 3662SOL    HW111885   4.354   0.646   3.554
 3662SOL    HW211886   4.489   0.595   3.476
 3663SOL     OW11887   1.893   1.837   0.266
 3663SOL    HW111888   1.804   1.865   0.231
 3663SOL    HW211889   1.965   1.882   0.214
 3664SOL     OW11890   4.620   1.721   1.636
 3664SOL    HW111891   4.607   1.751   1.731
 3664SOL    HW211892   4.665   1.632   1.635
 3665SOL     OW11893   1.634   6.357   5.548
 3665SOL    HW111894   1.639   6.283   5.481
 3665SOL    HW211895   1.601   6.321   5.635
 3666SOL     OW11896   1.759   3.897   2.913
 3666SOL    HW111897   1.813   3.962   2.967
 3666SOL    HW211898   1.707   3.837   2.974
 3667SOL     OW11899   6.880   0.410   0.922
 3667SOL    HW111900   6.851   0.344   0.853
 3667SOL    HW211901   6.806   0.475   0.939
 3668SOL     OW11902   1.485   1.368   2.194
 3668SOL    HW111903   1.519   1.319   2.114
 3668SOL    HW211904   1.550   1.439   2.220
 3669SOL     OW11905   5.710   1.721   3.413
 3669SOL    HW111906   5.655   1.804   3.408
 3669SOL    HW211907   5.798   1.743   3.457
 3670SOL     OW11908   1.997   4.630   0.172
 3670SOL    HW111909   2.016   4.532   0.183
 3670SOL    HW211910   2.083   4.680   0.164
 3671SOL     OW11911   6.040   0.303   3.906
 3671SOL    HW111912   6.030   0.278   4.002
 3671SOL    HW211913   6.011   0.227   3.848
 3672SOL     OW11914   5.476   2.519   1.767
 3672SOL    HW111915   5.379   2.522   1.744
 3672SOL    HW211916   5.500   2.429   1.801
 3673SOL     OW11917   3.956   0.223   6.523
 3673SOL    HW111918   3.860   0.208   6.500
 3673SOL    HW211919   4.009   0.141   6.502
 3674SOL     OW11920   0.402   6.909   5.138
 3674SOL    HW111921   0.313   6.910   5.182
 3674SOL    HW211922   0.432   6.814   5.126
 3675SOL     OW11923   1.678   3.110   5.033
 3675SOL    HW111924   1.719   3.089   4.945
 3675SOL    HW211925   1.694   3.206   5.056
 3676SOL     OW11926   5.026   4.609   4.479
 3676SOL    HW111927   4.958   4.607   4.552
 3676SOL    HW211928   5.117   4.605   4.518
 3677SOL     OW11929   2.273   6.515   2.930
 3677SOL    HW111930   2.264   6.507   2.830
 3677SOL    HW211931   2.279   6.612   2.954
 3678SOL     OW11932   0.396   3.418   4.292
 3678SOL    HW111933   0.485   3.454   4.318
 3678SOL    HW211934   0.371   3.343   4.353
 3679SOL     OW11935   1.629   0.524   3.135
 3679SOL    HW111936   1.715   0.541   3.087
 3679SOL    HW211937   1.598   0.431   3.115
 3680SOL     OW11938   5.751   2.424   2.895
 3680SOL    HW111939   5.757   2.523   2.887
 3680SOL    HW211940   5.821   2.392   2.959
 3681SOL     OW11941   0.596   0.839   5.272
 3681SOL    HW111942   0.646   0.826   5.186
 3681SOL    HW211943   0.643   0.791   5.346
 3682SOL     OW11944   5.112   2.379   6.884
 3682SOL    HW111945   5.039   2.382   6.815
 3682SOL    HW211946   5.185   2.320   6.850
 3683SOL     OW11947   6.785   6.492   3.472
 3683SOL    HW111948   6.732   6.431   3.413
 3683SOL    HW211949   6.823   6.567   3.418
 3684SOL     OW11950   1.369   4.815   0.095
 3684SOL    HW111951   1.272   4.832   0.078
 3684SOL    HW211952   1.390   4.829   0.192
 3685SOL     OW11953   6.220   6.539   6.156
 3685SOL    HW111954   6.196   6.634   6.132
 3685SOL    HW211955   6.309   6.516   6.118
 3686SOL     OW11956   6.273   6.584   3.049
 3686SOL    HW111957   6.371   6.597   3.033
 3686SOL    HW211958   6.221   6.625   2.974
 3687SOL     OW11959   3.928   5.846   5.432
 3687SOL    HW111960   3.925   5.818   5.529
 3687SOL    HW211961   4.018   5.884   5.411
 3688SOL     OW11962   0.126   3.291   6.436
 3688SOL    HW111963   0.184   3.210   6.424
 3688SOL    HW211964   0.032   3.267   6.411
 3689SOL     OW11965   2.014   1.003   0.116
 3689SOL    HW111966   1.961   0.930   0.072
 3689SOL    HW211967   2.072   0.964   0.187
 3690SOL     OW11968   4.525   6.496   6.806
 3690SOL    HW111969   4.559   6.404   6.790
 3690SOL    HW211970   4.541   6.522   6.901
 3691SOL     OW11971   2.856   2.574   6.826
 3691SOL    HW111972   2.819   2.658   6.867
 3691SOL    HW211973   2.886   2.593   6.733
 3692SOL     OW11974   0.885   5.817   5.354
 3692SOL    HW111975   0.876   5.837   5.256
 3692SOL    HW211976   0.900   5.718   5.366
 3693SOL     OW11977   1.857   3.075   2.859
 3693SOL    HW111978   1.786   3.025   2.907
 3693SOL    HW211979   1.823   3.167   2.835
 3694SOL     OW11980   1.498   5.453   2.586
 3694SOL    HW111981   1.479   5.376   2.647
 3694SOL    HW211982   1.461   5.537   2.625
 3695SOL     OW11983   6.485   2.897   2.273
 3695SOL    HW111984   6.572   2.934   2.306
 3695SOL    HW211985   6.459   2.818   2.328
 3696SOL     OW11986   2.991   5.833   5.221
 3696SOL    HW111987   2.942   5.855   5.306
 3696SOL    HW211988   2.931   5.852   5.143
 3697SOL     OW11989   0.020   6.066   3.485
 3697SOL    HW111990   0.028   6.160   3.520
 3697SOL    HW211991   0.090   6.009   3.527
 3698SOL     OW11992   2.233   6.974   4.929
 3698SOL    HW111993   2.305   7.019   4.981
 3698SOL    HW211994   2.273   6.910   4.864
 3699SOL     OW11995   0.105   3.367   3.438
 3699SOL    HW111996   0.059   3.456   3.426
 3699SOL    HW211997   0.091   3.312   3.355
 3700SOL     OW11998   0.041   0.491   4.517
 3700SOL    HW111999   0.055   0.576   4.568
 3700SOL    HW212000   0.020   0.417   4.581
 3701SOL     OW12001   1.079   0.476   3.581
 3701SOL    HW112002   1.092   0.549   3.514
 3701SOL    HW212003   1.002   0.419   3.553
 3702SOL     OW12004   6.046   6.272   2.376
 3702SOL    HW112005   6.141   6.250   2.353
 3702SOL    HW212006   6.017   6.216   2.453
 3703SOL     OW12007   4.149   2.213   6.454
 3703SOL    HW112008   4.127   2.116   6.444
 3703SOL    HW212009   4.080   2.268   6.408
 3704SOL     OW12010   3.469   1.664   1.056
 3704SOL    HW112011   3.566   1.675   1.076
 3704SOL    HW212012   3.453   1.573   1.016
 3705SOL     OW12013   5.125   5.808   3.619
 3705SOL    HW112014   5.148   5.757   3.702
 3705SOL    HW212015   5.205   5.860   3.588
 3706SOL     OW12016   1.743   3.624   5.286
 3706SOL    HW112017   1.648   3.657   5.287
 3706SOL    HW212018   1.801   3.686   5.339
 3707SOL     OW12019   5.532   4.075   5.474
 3707SOL    HW112020   5.581   4.001   5.522
 3707SOL    HW212021   5.434   4.066   5.492
 3708SOL     OW12022   6.841   0.966   6.489
 3708SOL    HW112023   6.748   0.998   6.471
 3708SOL    HW212024   6.904   1.009   6.425
 3709SOL     OW12025   3.568   0.744   0.941
 3709SOL    HW112026   3.603   0.722   1.032
 3709SOL    HW212027   3.639   0.727   0.873
 3710SOL     OW12028   6.948   5.571   6.821
 3710SOL    HW112029   0.006   5.532   6.776
 3710SOL    HW212030   6.883   5.497   6.841
 3711SOL     OW12031   0.108   6.626   2.533
 3711SOL    HW112032   0.195   6.623   2.484
 3711SOL    HW212033   0.118   6.682   2.615
 3712SOL     OW12034   0.093   6.489   6.852
 3712SOL    HW112035   0.084   6.585   6.879
 3712SOL    HW212036   0.100   6.483   6.753
 3713SOL     OW12037   1.706   5.935   4.622
 3713SOL    HW112038   1.776   5.993   4.663
 3713SOL    HW212039   1.739   5.901   4.533
 3714SOL     OW12040   4.646   5.192   5.001
 3714SOL    HW112041   4.560   5.181   5.050
 3714SOL    HW212042   4.714   5.233   5.062
 3715SOL     OW12043   5.940   3.863   2.718
 3715SOL    HW112044   5.949   3.962   2.718
 3715SOL    HW212045   5.846   3.838   2.695
 3716SOL     OW12046   5.950   6.521   5.047
 3716SOL    HW112047   5.877   6.554   4.987
 3716SOL    HW212048   5.944   6.567   5.135
 3717SOL     OW12049   5.752   5.629   5.877
 3717SOL    HW112050   5.729   5.719   5.839
 3717SOL    HW212051   5.668   5.582   5.904
 3718SOL     OW12052   1.988   0.528   0.062
 3718SOL    HW112053   1.962   0.594   0.132
 3718SOL    HW212054   2.053   0.570   7.021
 3719SOL     OW12055   5.549   4.578   0.806
 3719SOL    HW112056   5.621   4.510   0.798
 3719SOL    HW212057   5.550   4.638   0.726
 3720SOL     OW12058   6.583   1.876   5.601
 3720SOL    HW112059   6.487   1.870   5.571
 3720SOL    HW212060   6.622   1.785   5.608
 3721SOL     OW12061   5.348   4.708   1.226
 3721SOL    HW112062   5.356   4.802   1.193
 3721SOL    HW212063   5.255   4.675   1.209
 3722SOL     OW12064   6.399   6.595   1.413
 3722SOL    HW112065   6.418   6.675   1.470
 3722SOL    HW212066   6.485   6.546   1.397
 3723SOL     OW12067   6.431   5.952   1.953
 3723SOL    HW112068   6.503   6.022   1.948
 3723SOL    HW212069   6.411   5.931   2.049
 3724SOL     OW12070   1.758   4.964   6.245
 3724SOL    HW112071   1.790   4.899   6.314
 3724SOL    HW212072   1.760   4.920   6.155
 3725SOL     OW12073   5.780   5.275   0.752
 3725SOL    HW112074   5.872   5.307   0.730
 3725SOL    HW212075   5.713   5.340   0.717
 3726SOL     OW12076   6.468   5.179   0.402
 3726SOL    HW112077   6.485   5.276   0.419
 3726SOL    HW212078   6.369   5.163   0.402
 3727SOL     OW12079   6.871   1.823   5.891
 3727SOL    HW112080   6.846   1.913   5.928
 3727SOL    HW212081   6.895   1.832   5.795
 3728SOL     OW12082   0.825   4.117   0.129
 3728SOL    HW112083   0.808   4.028   0.086
 3728SOL    HW212084   0.900   4.163   0.083
 3729SOL     OW12085   1.133   1.936   3.440
 3729SOL    HW112086   1.119   1.879   3.521
 3729SOL    HW212087   1.147   1.878   3.360
 3730SOL     OW12088   2.536   5.348   6.420
 3730SOL    HW112089   2.619   5.358   6.474
 3730SOL    HW212090   2.471   5.420   6.444
 3731SOL     OW12091   4.955   0.412   0.987
 3731SOL    HW112092   5.007   0.490   1.019
 3731SOL    HW212093   4.866   0.409   1.034
 3732SOL     OW12094   1.837   2.126   6.251
 3732SOL    HW112095   1.867   2.066   6.325
 3732SOL    HW212096   1.888   2.212   6.255
 3733SOL     OW12097   1.634   3.531   1.923
 3733SOL    HW112098   1.584   3.557   2.006
 3733SOL    HW212099   1.573   3.537   1.844
 3734SOL     OW12100   4.877   1.173   1.993
 3734SOL    HW112101   4.929   1.228   2.058
 3734SOL    HW212102   4.807   1.121   2.041
 3735SOL     OW12103   2.278   0.550   3.638
 3735SOL    HW112104   2.342   0.473   3.639
 3735SOL    HW212105   2.304   0.615   3.709
 3736SOL     OW12106   6.322   2.154   0.408
 3736SOL    HW112107   6.406   2.122   0.363
 3736SOL    HW212108   6.278   2.076   0.454
 3737SOL     OW12109   4.957   0.527   3.508
 3737SOL    HW112110   4.930   0.432   3.521
 3737SOL    HW212111   4.896   0.571   3.443
 3738SOL     OW12112   6.948   5.613   2.122
 3738SOL    HW112113   7.022   5.630   2.058
 3738SOL    HW212114   6.974   5.644   2.213
 3739SOL     OW12115   2.500   4.785   1.753
 3739SOL    HW112116   2.504   4.766   1.655
 3739SOL    HW212117   2.408   4.766   1.786
 3740SOL     OW12118   5.493   6.985   0.546
 3740SOL    HW112119   5.423   6.947   0.606
 3740SOL    HW212120   5.476   0.060   0.532
 3741SOL     OW12121   4.748   3.310   1.339
 3741SOL    HW112122   4.701   3.398   1.348
 3741SOL    HW212123   4.772   3.294   1.243
 3742SOL     OW12124   2.617   1.883   6.516
 3742SOL    HW112125   2.618   1.881   6.416
 3742SOL    HW212126   2.708   1.904   6.550
 3743SOL     OW12127   5.110   3.599   1.111
 3743SOL    HW112128   5.171   3.534   1.064
 3743SOL    HW212129   5.015   3.578   1.088
 3744SOL     OW12130   0.657   6.345   2.918
 3744SOL    HW112131   0.569   6.315   2.954
 3744SOL    HW212132   0.719   6.267   2.913
 3745SOL     OW12133   3.870   5.229   1.992
 3745SOL    HW112134   3.949   5.285   2.020
 3745SOL    HW212135   3.887   5.191   1.901
 3746SOL     OW12136   5.367   1.530   2.870
 3746SOL    HW112137   5.430   1.521   2.948
 3746SOL    HW212138   5.340   1.626   2.860
 3747SOL     OW12139   2.804   0.270   5.537
 3747SOL    HW112140   2.708   0.266   5.565
 3747SOL    HW212141   2.848   0.351   5.577
 3748SOL     OW12142   5.584   0.208   1.884
 3748SOL    HW112143   5.524   0.149   1.938
 3748SOL    HW212144   5.540   0.297   1.869
 3749SOL     OW12145   1.814   6.449   4.151
 3749SOL    HW112146   1.885   6.381   4.171
 3749SOL    HW212147   1.857   6.538   4.136
 3750SOL     OW12148   1.290   3.663   0.738
 3750SOL    HW112149   1.378   3.676   0.784
 3750SOL    HW212150   1.217   3.703   0.793
 3751SOL     OW12151   6.899   3.713   1.950
 3751SOL    HW112152   6.908   3.791   1.888
 3751SOL    HW212153   6.829   3.650   1.914
 3752SOL     OW12154   5.265   0.554   6.805
 3752SOL    HW112155   5.249   0.520   6.713
 3752SOL    HW212156   5.325   0.634   6.802
 3753SOL     OW12157   5.879   0.780   5.507
 3753SOL    HW112158   5.807   0.721   5.471
 3753SOL    HW212159   5.923   0.736   5.585
 3754SOL     OW12160   2.315   0.470   1.587
 3754SOL    HW112161   2.328   0.563   1.622
 3754SOL    HW212162   2.249   0.471   1.512
 3755SOL     OW12163   4.792   5.579   4.954
 3755SOL    HW112164   4.770   5.498   5.008
 3755SOL    HW212165   4.879   5.618   4.985
 3756SOL     OW12166   2.840   5.785   6.496
 3756SOL    HW112167   2.751   5.742   6.484
 3756SOL    HW212168   2.852   5.812   6.591
 3757SOL     OW12169   5.906   5.271   2.114
 3757SOL    HW112170   5.834   5.335   2.089
 3757SOL    HW212171   5.931   5.216   2.035
 3758SOL     OW12172   2.270   1.217   4.218
 3758SOL    HW112173   2.253   1.119   4.222
 3758SOL    HW212174   2.248   1.252   4.127
 3759SOL     OW12175   3.957   7.007   5.684
 3759SOL    HW112176   4.043   6.971   5.721
 3759SOL    HW212177   3.974   0.071   5.638
 3760SOL     OW12178   0.564   1.744   4.209
 3760SOL    HW112179   0.644   1.754   4.149
 3760SOL    HW212180   0.508   1.826   4.204
 3761SOL     OW12181   6.555   0.774   5.504
 3761SOL    HW112182   6.518   0.864   5.479
 3761SOL    HW212183   6.654   0.776   5.495
 3762SOL     OW12184   1.361   4.339   1.339
 3762SOL    HW112185   1.442   4.398   1.336
 3762SOL    HW212186   1.314   4.351   1.427
 3763SOL     OW12187   0.181   3.713   0.435
 3763SOL    HW112188   0.193   3.742   0.341
 3763SOL    HW212189   0.208   3.617   0.444
 3764SOL     OW12190   1.481   7.015   2.279
 3764SOL    HW112191   1.543   6.989   2.353
 3764SOL    HW212192   1.390   6.977   2.295
 3765SOL     OW12193   5.840   1.367   1.123
 3765SOL    HW112194   5.911   1.427   1.086
 3765SOL    HW212195   5.821   1.391   1.218
 3766SOL     OW12196   1.871   1.990   4.289
 3766SOL    HW112197   1.859   1.913   4.351
 3766SOL    HW212198   1.895   2.072   4.341
 3767SOL     OW12199   2.964   4.483   6.283
 3767SOL    HW112200   2.891   4.449   6.342
 3767SOL    HW212201   2.950   4.580   6.265
 3768SOL     OW12202   0.474   6.952   4.668
 3768SOL    HW112203   0.558   6.901   4.652
 3768SOL    HW212204   0.497   0.021   4.703
 3769SOL     OW12205   6.124   5.299   4.989
 3769SOL    HW112206   6.057   5.347   5.045
 3769SOL    HW212207   6.157   5.361   4.917
 3770SOL     OW12208   1.124   0.677   6.667
 3770SOL    HW112209   1.145   0.633   6.580
 3770SOL    HW212210   1.051   0.626   6.713
 3771SOL     OW12211   5.509   4.447   6.498
 3771SOL    HW112212   5.486   4.514   6.427
 3771SOL    HW212213   5.426   4.411   6.538
 3772SOL     OW12214   0.788   0.497   0.525
 3772SOL    HW112215   0.848   0.531   0.598
 3772SOL    HW212216   0.758   0.405   0.549
 3773SOL     OW12217   6.325   3.407   5.110
 3773SOL    HW112218   6.274   3.366   5.035
 3773SOL    HW212219   6.290   3.371   5.197
 3774SOL     OW12220   5.748   5.812   1.703
 3774SOL    HW112221   5.768   5.736   1.641
 3774SOL    HW212222   5.702   5.777   1.785
 3775SOL     OW12223   4.193   5.275   3.416
 3775SOL    HW112224   4.245   5.190   3.401
 3775SOL    HW212225   4.228   5.346   3.355
 3776SOL     OW12226   3.764   2.488   6.595
 3776SOL    HW112227   3.760   2.484   6.495
 3776SOL    HW212228   3.681   2.448   6.633
 3777SOL     OW12229   2.378   5.008   3.622
 3777SOL    HW112230   2.329   4.962   3.548
 3777SOL    HW212231   2.447   4.946   3.659
 3778SOL     OW12232   2.301   5.797   3.415
 3778SOL    HW112233   2.260   5.888   3.428
 3778SOL    HW212234   2.317   5.783   3.317
 3779SOL     OW12235   0.694   5.176   0.742
 3779SOL    HW112236   0.720   5.085   0.711
 3779SOL    HW212237   0.596   5.178   0.762
 3780SOL     OW12238   6.502   3.987   4.541
 3780SOL    HW112239   6.485   4.038   4.625
 3780SOL    HW212240   6.417   3.979   4.489
 3781SOL     OW12241   0.344   0.256   3.862
 3781SOL    HW112242   0.297   0.253   3.950
 3781SOL    HW212243   0.284   0.222   3.790
 3782SOL     OW12244   3.691   7.018   2.878
 3782SOL    HW112245   3.771   6.968   2.912
 3782SOL    HW212246   3.645   6.963   2.808
 3783SOL     OW12247   6.171   5.344   3.835
 3783SOL    HW112248   6.201   5.428   3.880
 3783SOL    HW212249   6.085   5.361   3.786
 3784SOL     OW12250   5.366   3.086   2.618
 3784SOL    HW112251   5.408   3.165   2.662
 3784SOL    HW212252   5.431   3.009   2.618
 3785SOL     OW12253   1.470   3.022   4.680
 3785SOL    HW112254   1.567   3.037   4.659
 3785SOL    HW212255   1.428   3.108   4.708
 3786SOL     OW12256   2.210   4.028   3.040
 3786SOL    HW112257   2.196   3.967   2.962
 3786SOL    HW212258   2.244   4.116   3.008
 3787SOL     OW12259   5.661   0.845   2.307
 3787SOL    HW112260   5.604   0.789   2.366
 3787SOL    HW212261   5.635   0.941   2.315
 3788SOL     OW12262   6.534   4.306   4.710
 3788SOL    HW112263   6.600   4.380   4.726
 3788SOL    HW212264   6.456   4.341   4.659
 3789SOL     OW12265   0.225   3.700   3.574
 3789SOL    HW112266   0.319   3.700   3.606
 3789SOL    HW212267   0.163   3.711   3.652
 3790SOL     OW12268   0.805   4.656   6.026
 3790SOL    HW112269   0.801   4.561   5.995
 3790SOL    HW212270   0.873   4.665   6.099
 3791SOL     OW12271   4.841   1.871   6.361
 3791SOL    HW112272   4.828   1.970   6.370
 3791SOL    HW212273   4.760   1.824   6.396
 3792SOL     OW12274   1.459   1.833   4.040
 3792SOL    HW112275   1.458   1.775   4.122
 3792SOL    HW212276   1.532   1.901   4.048
 3793SOL     OW12277   4.493   6.638   1.705
 3793SOL    HW112278   4.489   6.595   1.795
 3793SOL    HW212279   4.491   6.737   1.715
 3794SOL     OW12280   2.835   3.000   1.588
 3794SOL    HW112281   2.857   2.920   1.643
 3794SOL    HW212282   2.740   3.027   1.605
 3795SOL     OW12283   4.308   5.869   1.254
 3795SOL    HW112284   4.394   5.866   1.305
 3795SOL    HW212285   4.233   5.891   1.316
 3796SOL     OW12286   4.473   2.042   2.235
 3796SOL    HW112287   4.374   2.037   2.247
 3796SOL    HW212288   4.494   2.075   2.143
 3797SOL     OW12289   0.639   3.401   3.274
 3797SOL    HW112290   0.625   3.303   3.290
 3797SOL    HW212291   0.564   3.452   3.315
 3798SOL     OW12292   2.524   6.336   2.709
 3798SOL    HW112293   2.567   6.403   2.770
 3798SOL    HW212294   2.425   6.346   2.712
 3799SOL     OW12295   6.676   2.826   3.852
 3799SOL    HW112296   6.588   2.811   3.899
 3799SOL    HW212297   6.730   2.742   3.855
 3800SOL     OW12298   5.592   1.979   3.387
 3800SOL    HW112299   5.537   1.934   3.316
 3800SOL    HW212300   5.664   2.034   3.344
 3801SOL     OW12301   5.871   6.665   2.088
 3801SOL    HW112302   5.878   6.566   2.072
 3801SOL    HW212303   5.790   6.684   2.143
 3802SOL     OW12304   0.794   1.449   1.922
 3802SOL    HW112305   0.878   1.496   1.950
 3802SOL    HW212306   0.791   1.444   1.822
 3803SOL     OW12307   4.081   3.740   3.120
 3803SOL    HW112308   4.034   3.778   3.200
 3803SOL    HW212309   4.100   3.813   3.054
 3804SOL     OW12310   4.315   1.426   3.967
 3804SOL    HW112311   4.395   1.425   3.908
 3804SOL    HW212312   4.277   1.334   3.974
 3805SOL     OW12313   1.890   2.629   1.752
 3805SOL    HW112314   1.982   2.590   1.744
 3805SOL    HW212315   1.833   2.568   1.808
 3806SOL     OW12316   3.487   3.479   5.673
 3806SOL    HW112317   3.436   3.426   5.605
 3806SOL    HW212318   3.438   3.565   5.692
 3807SOL     OW12319   2.370   5.265   3.080
 3807SOL    HW112320   2.347   5.362   3.074
 3807SOL    HW212321   2.300   5.218   3.134
 3808SOL     OW12322   4.035   0.932   0.056
 3808SOL    HW112323   4.135   0.925   0.054
 3808SOL    HW212324   4.009   1.000   0.125
 3809SOL     OW12325   5.503   2.941   1.304
 3809SOL    HW112326   5.496   3.038   1.327
 3809SOL    HW212327   5.595   2.908   1.326
 3810SOL     OW12328   5.937   2.601   3.910
 3810SOL    HW112329   5.858   2.586   3.850
 3810SOL    HW212330   5.932   2.540   3.989
 3811SOL     OW12331   0.160   6.648   4.533
 3811SOL    HW112332   0.179   6.746   4.527
 3811SOL    HW212333   0.205   6.601   4.457
 3812SOL     OW12334   3.403   4.590   5.803
 3812SOL    HW112335   3.353   4.670   5.769
 3812SOL    HW212336   3.338   4.523   5.839
 3813SOL     OW12337   6.010   3.724   0.186
 3813SOL    HW112338   6.020   3.700   0.089
 3813SOL    HW212339   6.045   3.650   0.243
 3814SOL     OW12340   6.516   0.055   4.731
 3814SOL    HW112341   6.554   0.083   4.819
 3814SOL    HW212342   6.587   0.058   4.661
 3815SOL     OW12343   3.984   2.463   0.643
 3815SOL    HW112344   3.990   2.364   0.655
 3815SOL    HW212345   3.917   2.501   0.707
 3816SOL     OW12346   1.151   5.047   6.479
 3816SOL    HW112347   1.148   5.139   6.520
 3816SOL    HW212348   1.062   5.002   6.491
 3817SOL     OW12349   4.987   3.623   2.041
 3817SOL    HW112350   5.086   3.627   2.041
 3817SOL    HW212351   4.950   3.710   2.074
 3818SOL     OW12352   6.827   1.408   6.935
 3818SOL    HW112353   6.856   1.496   6.971
 3818SOL    HW212354   6.871   1.334   6.986
 3819SOL     OW12355   6.094   4.804   2.644
 3819SOL    HW112356   6.015   4.829   2.587
 3819SOL    HW212357   6.110   4.875   2.712
 3820SOL     OW12358   5.380   6.686   4.388
 3820SOL    HW112359   5.390   6.781   4.418
 3820SOL    HW212360   5.470   6.646   4.372
 3821SOL     OW12361   1.244   0.998   1.763
 3821SOL    HW112362   1.207   0.928   1.702
 3821SOL    HW212363   1.210   0.983   1.855
 3822SOL     OW12364   1.791   6.466   0.282
 3822SOL    HW112365   1.837   6.379   0.297
 3822SOL    HW212366   1.711   6.452   0.223
 3823SOL     OW12367   3.734   3.692   6.779
 3823SOL    HW112368   3.764   3.767   6.720
 3823SOL    HW212369   3.639   3.708   6.808
 3824SOL     OW12370   0.735   2.489   0.675
 3824SOL    HW112371   0.734   2.589   0.678
 3824SOL    HW212372   0.784   2.454   0.756
 3825SOL     OW12373   0.362   4.598   6.930
 3825SOL    HW112374   0.369   4.670   6.999
 3825SOL    HW212375   0.434   4.530   6.946
 3826SOL     OW12376   0.313   3.473   1.175
 3826SOL    HW112377   0.271   3.382   1.167
 3826SOL    HW212378   0.412   3.463   1.184
 3827SOL     OW12379   1.189   0.948   1.389
 3827SOL    HW112380   1.154   0.909   1.474
 3827SOL    HW212381   1.112   0.971   1.328
 3828SOL     OW12382   3.258   3.617   3.675
 3828SOL    HW112383   3.319   3.686   3.715
 3828SOL    HW212384   3.303   3.528   3.675
 3829SOL     OW12385   0.471   4.177   2.237
 3829SOL    HW112386   0.426   4.112   2.176
 3829SOL    HW212387   0.543   4.224   2.187
 3830SOL     OW12388   0.830   1.386   5.583
 3830SOL    HW112389   0.924   1.363   5.606
 3830SOL    HW212390   0.767   1.339   5.646
 3831SOL     OW12391   4.551   2.302   2.407
 3831SOL    HW112392   4.539   2.392   2.364
 3831SOL    HW212393   4.557   2.232   2.336
 3832SOL     OW12394   6.663   0.647   2.812
 3832SOL    HW112395   6.609   0.571   2.850
 3832SOL    HW212396   6.756   0.643   2.848
 3833SOL     OW12397   0.165   6.073   6.647
 3833SOL    HW112398   0.139   5.984   6.683
 3833SOL    HW212399   0.169   6.069   6.547
 3834SOL     OW12400   3.524   4.224   0.716
 3834SOL    HW112401   3.579   4.307   0.711
 3834SOL    HW212402   3.428   4.248   0.734
 3835SOL     OW12403   4.090   6.174   4.871
 3835SOL    HW112404   4.087   6.121   4.956
 3835SOL    HW212405   4.168   6.144   4.816
 3836SOL     OW12406   0.066   5.118   5.675
 3836SOL    HW112407   6.996   5.144   5.647
 3836SOL    HW212408   0.123   5.199   5.679
 3837SOL     OW12409   4.534   4.619   5.873
 3837SOL    HW112410   4.488   4.652   5.955
 3837SOL    HW212411   4.632   4.615   5.889
 3838SOL     OW12412   0.672   2.804   3.853
 3838SOL    HW112413   0.707   2.759   3.770
 3838SOL    HW212414   0.713   2.895   3.862
 3839SOL     OW12415   5.732   1.932   2.905
 3839SOL    HW112416   5.819   1.967   2.940
 3839SOL    HW212417   5.716   1.840   2.941
 3840SOL     OW12418   3.113   1.285   6.618
 3840SOL    HW112419   3.173   1.338   6.559
 3840SOL    HW212420   3.096   1.195   6.576
 3841SOL     OW12421   0.281   2.909   4.496
 3841SOL    HW112422   0.251   2.994   4.452
 3841SOL    HW212423   0.206   2.842   4.493
 3842SOL     OW12424   1.637   2.350   2.599
 3842SOL    HW112425   1.629   2.448   2.578
 3842SOL    HW212426   1.731   2.329   2.625
 3843SOL     OW12427   5.566   3.936   2.309
 3843SOL    HW112428   5.507   3.860   2.282
 3843SOL    HW212429   5.555   4.011   2.244
 3844SOL     OW12430   0.905   2.953   5.042
 3844SOL    HW112431   0.926   2.896   4.963
 3844SOL    HW212432   0.984   2.954   5.104
 3845SOL     OW12433   3.010   4.202   5.845
 3845SOL    HW112434   3.058   4.268   5.786
 3845SOL    HW212435   3.077   4.156   5.903
 3846SOL     OW12436   0.665   4.683   3.604
 3846SOL    HW112437   0.672   4.740   3.522
 3846SOL    HW212438   0.729   4.607   3.596
 3847SOL     OW12439   5.456   3.169   4.689
 3847SOL    HW112440   5.551   3.163   4.719
 3847SOL    HW212441   5.395   3.154   4.767
 3848SOL     OW12442   4.510   4.786   2.773
 3848SOL    HW112443   4.534   4.875   2.733
 3848SOL    HW212444   4.451   4.800   2.852
 3849SOL     OW12445   0.875   1.600   6.232
 3849SOL    HW112446   0.903   1.667   6.301
 3849SOL    HW212447   0.957   1.556   6.194
 3850SOL     OW12448   2.981   3.633   1.723
 3850SOL    HW112449   2.899   3.593   1.765
 3850SOL    HW212450   3.027   3.692   1.789
 3851SOL     OW12451   0.915   3.930   3.251
 3851SOL    HW112452   0.893   3.905   3.156
 3851SOL    HW212453   1.004   3.892   3.276
 3852SOL     OW12454   3.847   6.637   3.838
 3852SOL    HW112455   3.859   6.576   3.760
 3852SOL    HW212456   3.758   6.682   3.832
 3853SOL     OW12457   0.837   4.026   3.836
 3853SOL    HW112458   0.845   4.123   3.858
 3853SOL    HW212459   0.810   3.975   3.918
 3854SOL     OW12460   1.391   2.421   2.954
 3854SOL    HW112461   1.348   2.394   3.039
 3854SOL    HW212462   1.490   2.411   2.962
 3855SOL     OW12463   4.909   6.140   6.483
 3855SOL    HW112464   4.860   6.107   6.402
 3855SOL    HW212465   4.976   6.072   6.511
 3856SOL     OW12466   6.510   0.640   6.139
 3856SOL    HW112467   6.590   0.613   6.193
 3856SOL    HW212468   6.505   0.583   6.057
 3857SOL     OW12469   0.775   6.048   6.357
 3857SOL    HW112470   0.677   6.039   6.339
 3857SOL    HW212471   0.789   6.098   6.443
 3858SOL     OW12472   2.280   0.816   5.503
 3858SOL    HW112473   2.303   0.722   5.478
 3858SOL    HW212474   2.183   0.822   5.526
 3859SOL     OW12475   5.367   1.032   1.419
 3859SOL    HW112476   5.352   1.017   1.321
 3859SOL    HW212477   5.291   1.086   1.456
 3860SOL     OW12478   2.022   1.736   3.568
 3860SOL    HW112479   2.044   1.808   3.634
 3860SOL    HW212480   2.000   1.651   3.617
 3861SOL     OW12481   4.313   5.525   3.622
 3861SOL    HW112482   4.351   5.486   3.537
 3861SOL    HW212483   4.316   5.456   3.694
 3862SOL     OW12484   0.143   0.534   4.893
 3862SOL    HW112485   0.196   0.568   4.971
 3862SOL    HW212486   0.141   0.434   4.895
 3863SOL     OW12487   5.775   2.414   0.017
 3863SOL    HW112488   5.762   2.439   6.943
 3863SOL    HW212489   5.738   2.486   0.075
 3864SOL     OW12490   2.218   0.969   5.825
 3864SOL    HW112491   2.148   0.999   5.760
 3864SOL    HW212492   2.307   0.968   5.780
 3865SOL     OW12493   4.134   1.076   1.003
 3865SOL    HW112494   4.118   1.019   1.083
 3865SOL    HW212495   4.227   1.114   1.006
 3866SOL     OW12496   4.378   0.166   0.346
 3866SOL    HW112497   4.283   0.174   0.376
 3866SOL    HW212498   4.438   0.205   0.416
 3867SOL     OW12499   0.501   5.800   4.329
 3867SOL    HW112500   0.488   5.898   4.344
 3867SOL    HW212501   0.470   5.750   4.410
 3868SOL     OW12502   2.630   6.680   0.866
 3868SOL    HW112503   2.554   6.668   0.801
 3868SOL    HW212504   2.673   6.592   0.884
 3869SOL     OW12505   6.410   3.728   4.511
 3869SOL    HW112506   6.477   3.800   4.529
 3869SOL    HW212507   6.413   3.661   4.585
 3870SOL     OW12508   6.025   6.827   6.744
 3870SOL    HW112509   5.944   6.848   6.799
 3870SOL    HW212510   5.996   6.790   6.656
 3871SOL     OW12511   4.106   1.254   3.104
 3871SOL    HW112512   4.100   1.156   3.082
 3871SOL    HW212513   4.045   1.275   3.180
 3872SOL     OW12514   3.650   2.922   4.203
 3872SOL    HW112515   3.673   3.017   4.224
 3872SOL    HW212516   3.566   2.919   4.148
 3873SOL     OW12517   6.585   3.174   0.826
 3873SOL    HW112518   6.649   3.222   0.767
 3873SOL    HW212519   6.554   3.090   0.780
 3874SOL     OW12520   4.678   6.266   6.817
 3874SOL    HW112521   4.773   6.248   6.843
 3874SOL    HW212522   4.617   6.211   6.874
 3875SOL     OW12523   2.200   3.079   2.550
 3875SOL    HW112524   2.118   3.131   2.575
 3875SOL    HW212525   2.188   3.041   2.458
 3876SOL     OW12526   3.976   5.962   1.325
 3876SOL    HW112527   4.025   5.934   1.243
 3876SOL    HW212528   3.907   5.893   1.348
 3877SOL     OW12529   5.433   2.890   0.517
 3877SOL    HW112530   5.377   2.943   0.582
 3877SOL    HW212531   5.419   2.793   0.533
 3878SOL     OW12532   3.445   0.231   4.647
 3878SOL    HW112533   3.418   0.283   4.566
 3878SOL    HW212534   3.405   0.140   4.642
 3879SOL     OW12535   5.551   5.094   0.816
 3879SOL    HW112536   5.606   5.174   0.790
 3879SOL    HW212537   5.503   5.059   0.736
 3880SOL     OW12538   5.889   4.808   4.049
 3880SOL    HW112539   5.818   4.744   4.019
 3880SOL    HW212540   5.903   4.799   4.147
 3881SOL     OW12541   1.136   3.294   1.720
 3881SOL    HW112542   1.130   3.386   1.758
 3881SOL    HW212543   1.135   3.227   1.794
 3882SOL     OW12544   1.454   0.975   5.634
 3882SOL    HW112545   1.521   0.930   5.575
 3882SOL    HW212546   1.497   1.054   5.679
 3883SOL     OW12547   4.372   0.887   3.200
 3883SOL    HW112548   4.362   0.984   3.180
 3883SOL    HW212549   4.301   0.858   3.263
 3884SOL     OW12550   0.217   5.772   2.867
 3884SOL    HW112551   0.302   5.824   2.865
 3884SOL    HW212552   0.238   5.674   2.863
 3885SOL     OW12553   6.164   6.706   2.800
 3885SOL    HW112554   6.092   6.774   2.783
 3885SOL    HW212555   6.245   6.751   2.837
 3886SOL     OW12556   5.720   5.374   4.815
 3886SOL    HW112557   5.769   5.395   4.730
 3886SOL    HW212558   5.636   5.427   4.818
 3887SOL     OW12559   0.824   0.362   0.249
 3887SOL    HW112560   0.882   0.398   0.176
 3887SOL    HW212561   0.812   0.432   0.320
 3888SOL     OW12562   6.509   0.617   4.923
 3888SOL    HW112563   6.479   0.585   4.833
 3888SOL    HW212564   6.493   0.545   4.991
 3889SOL     OW12565   0.286   3.806   0.750
 3889SOL    HW112566   0.333   3.851   0.826
 3889SOL    HW212567   0.270   3.872   0.677
 3890SOL     OW12568   5.537   5.897   3.246
 3890SOL    HW112569   5.576   5.892   3.154
 3890SOL    HW212570   5.609   5.921   3.312
 3891SOL     OW12571   5.942   4.551   4.428
 3891SOL    HW112572   5.962   4.470   4.373
 3891SOL    HW212573   5.907   4.523   4.518
 3892SOL     OW12574   0.017   2.328   1.713
 3892SOL    HW112575   0.032   2.357   1.807
 3892SOL    HW212576   0.060   2.239   1.698
 3893SOL     OW12577   4.497   4.731   0.814
 3893SOL    HW112578   4.570   4.755   0.879
 3893SOL    HW212579   4.459   4.815   0.775
 3894SOL     OW12580   3.718   1.656   1.143
 3894SOL    HW112581   3.756   1.563   1.136
 3894SOL    HW212582   3.739   1.693   1.234
 3895SOL     OW12583   1.302   0.570   5.230
 3895SOL    HW112584   1.221   0.511   5.233
 3895SOL    HW212585   1.274   0.665   5.219
 3896SOL     OW12586   6.987   0.634   6.274
 3896SOL    HW112587   6.891   0.611   6.292
 3896SOL    HW212588   0.015   0.636   6.360
 3897SOL     OW12589   3.318   5.342   2.907
 3897SOL    HW112590   3.315   5.265   2.844
 3897SOL    HW212591   3.232   5.392   2.903
 3898SOL     OW12592   2.882   3.546   4.901
 3898SOL    HW112593   2.945   3.619   4.876
 3898SOL    HW212594   2.788   3.573   4.879
 3899SOL     OW12595   5.776   0.134   4.741
 3899SOL    HW112596   5.683   0.099   4.732
 3899SOL    HW212597   5.800   0.185   4.658
 3900SOL     OW12598   4.942   3.492   3.840
 3900SOL    HW112599   4.913   3.561   3.773
 3900SOL    HW212600   4.967   3.408   3.793
 3901SOL     OW12601   2.948   0.255   6.322
 3901SOL    HW112602   2.953   0.161   6.288
 3901SOL    HW212603   3.023   0.271   6.386
 3902SOL     OW12604   5.315   3.929   2.027
 3902SOL    HW112605   5.386   3.997   2.045
 3902SOL    HW212606   5.252   3.964   1.958
 3903SOL     OW12607   3.855   6.106   6.895
 3903SOL    HW112608   3.893   6.153   6.975
 3903SOL    HW212609   3.764   6.072   6.917
 3904SOL     OW12610   2.413   0.682   4.810
 3904SOL    HW112611   2.326   0.718   4.777
 3904SOL    HW212612   2.480   0.683   4.736
 3905SOL     OW12613   6.902   6.873   6.117
 3905SOL    HW112614   6.982   6.842   6.067
 3905SOL    HW212615   6.823   6.877   6.056
 3906SOL     OW12616   3.856   4.954   5.475
 3906SOL    HW112617   3.877   4.867   5.520
 3906SOL    HW212618   3.902   4.958   5.387
 3907SOL     OW12619   5.472   0.364   4.902
 3907SOL    HW112620   5.404   0.428   4.867
 3907SOL    HW212621   5.459   0.274   4.859
 3908SOL     OW12622   1.056   1.122   0.426
 3908SOL    HW112623   1.075   1.214   0.460
 3908SOL    HW212624   0.998   1.128   0.345
 3909SOL     OW12625   0.091   5.485   5.289
 3909SOL    HW112626   0.016   5.420   5.273
 3909SOL    HW212627   0.178   5.438   5.284
 3910SOL     OW12628   3.564   3.807   2.110
 3910SOL    HW112629   3.494   3.879   2.115
 3910SOL    HW212630   3.521   3.718   2.125
 3911SOL     OW12631   4.560   1.358   0.197
 3911SOL    HW112632   4.605   1.288   0.252
 3911SOL    HW212633   4.610   1.444   0.207
 3912SOL     OW12634   3.895   0.048   6.194
 3912SOL    HW112635   3.890   0.017   6.099
 3912SOL    HW212636   3.819   0.008   6.245
 3913SOL     OW12637   2.533   6.508   5.878
 3913SOL    HW112638   2.458   6.495   5.813
 3913SOL    HW212639   2.529   6.437   5.948
 3914SOL     OW12640   4.402   1.155   0.984
 3914SOL    HW112641   4.438   1.188   1.072
 3914SOL    HW212642   4.474   1.106   0.936
 3915SOL     OW12643   3.685   5.983   2.223
 3915SOL    HW112644   3.760   5.982   2.289
 3915SOL    HW212645   3.602   5.947   2.266
 3916SOL     OW12646   1.627   5.833   3.600
 3916SOL    HW112647   1.661   5.781   3.522
 3916SOL    HW212648   1.625   5.930   3.578
 3917SOL     OW12649   1.063   5.081   6.893
 3917SOL    HW112650   1.162   5.096   6.897
 3917SOL    HW212651   1.034   5.080   6.797
 3918SOL     OW12652   4.791   0.401   2.495
 3918SOL    HW112653   4.806   0.366   2.588
 3918SOL    HW212654   4.778   0.500   2.499
 3919SOL     OW12655   2.691   5.853   6.751
 3919SOL    HW112656   2.595   5.877   6.743
 3919SOL    HW212657   2.746   5.935   6.766
 3920SOL     OW12658   2.296   2.845   7.000
 3920SOL    HW112659   2.275   2.820   6.905
 3920SOL    HW212660   2.375   2.793   0.009
 3921SOL     OW12661   6.593   2.975   1.141
 3921SOL    HW112662   6.657   2.898   1.133
 3921SOL    HW212663   6.642   3.060   1.126
 3922SOL     OW12664   5.977   4.317   0.846
 3922SOL    HW112665   6.077   4.315   0.842
 3922SOL    HW212666   5.946   4.258   0.920
 3923SOL     OW12667   6.489   2.237   0.017
 3923SOL    HW112668   6.417   2.170   7.022
 3923SOL    HW212669   6.451   2.314   0.069
 3924SOL     OW12670   0.200   5.418   3.248
 3924SOL    HW112671   0.122   5.438   3.306
 3924SOL    HW212672   0.174   5.350   3.179
 3925SOL     OW12673   3.926   4.574   1.324
 3925SOL    HW112674   3.826   4.566   1.329
 3925SOL    HW212675   3.956   4.653   1.378
 3926SOL     OW12676   6.708   5.561   2.755
 3926SOL    HW112677   6.741   5.494   2.821
 3926SOL    HW212678   6.674   5.642   2.803
 3927SOL     OW12679   0.027   3.635   3.386
 3927SOL    HW112680   0.097   3.628   3.457
 3927SOL    HW212681   6.958   3.629   3.427
 3928SOL     OW12682   2.530   5.280   5.483
 3928SOL    HW112683   2.505   5.353   5.547
 3928SOL    HW212684   2.606   5.311   5.426
 3929SOL     OW12685   0.682   1.996   5.603
 3929SOL    HW112686   0.652   2.039   5.688
 3929SOL    HW212687   0.678   1.896   5.613
 3930SOL     OW12688   2.279   1.479   4.083
 3930SOL    HW112689   2.211   1.518   4.020
 3930SOL    HW212690   2.260   1.511   4.175
 3931SOL     OW12691   1.501   1.933   2.851
 3931SOL    HW112692   1.562   2.007   2.820
 3931SOL    HW212693   1.468   1.953   2.943
 3932SOL     OW12694   1.853   3.868   2.443
 3932SOL    HW112695   1.839   3.771   2.421
 3932SOL    HW212696   1.818   3.886   2.535
 3933SOL     OW12697   2.295   0.003   6.754
 3933SOL    HW112698   2.207   0.004   6.705
 3933SOL    HW212699   2.292   0.069   6.829
 3934SOL     OW12700   6.945   0.837   1.148
 3934SOL    HW112701   6.942   0.917   1.208
 3934SOL    HW212702   6.910   0.862   1.057
 3935SOL     OW12703   2.048   6.810   6.849
 3935SOL    HW112704   2.010   6.874   6.782
 3935SOL    HW212705   2.020   6.837   6.941
 3936SOL     OW12706   0.350   5.319   5.648
 3936SOL    HW112707   0.397   5.272   5.574
 3936SOL    HW212708   0.261   5.352   5.616
 3937SOL     OW12709   0.053   0.588   2.120
 3937SOL    HW112710   0.075   0.651   2.194
 3937SOL    HW212711   0.131   0.578   2.059
 3938SOL     OW12712   6.710   1.830   3.767
 3938SOL    HW112713   6.646   1.781   3.826
 3938SOL    HW212714   6.669   1.916   3.738
 3939SOL     OW12715   3.073   1.771   2.006
 3939SOL    HW112716   2.987   1.724   2.026
 3939SOL    HW212717   3.060   1.869   2.021
 3940SOL     OW12718   4.441   5.623   2.195
 3940SOL    HW112719   4.385   5.565   2.253
 3940SOL    HW212720   4.441   5.716   2.230
 3941SOL     OW12721   5.143   1.283   6.281
 3941SOL    HW112722   5.155   1.288   6.181
 3941SOL    HW212723   5.055   1.241   6.302
 3942SOL     OW12724   0.037   0.069   5.991
 3942SOL    HW112725   0.052   0.154   6.041
 3942SOL    HW212726   0.015   7.018   6.056
 3943SOL     OW12727   1.324   3.853   2.918
 3943SOL    HW112728   1.286   3.912   2.990
 3943SOL    HW212729   1.352   3.766   2.958
 3944SOL     OW12730   5.908   3.776   5.602
 3944SOL    HW112731   5.926   3.865   5.643
 3944SOL    HW212732   5.946   3.774   5.509
 3945SOL     OW12733   0.740   2.332   1.971
 3945SOL    HW112734   0.826   2.300   2.011
 3945SOL    HW212735   0.667   2.267   1.992
 3946SOL     OW12736   5.909   5.209   5.908
 3946SOL    HW112737   5.894   5.280   5.839
 3946SOL    HW212738   5.997   5.164   5.891
 3947SOL     OW12739   6.062   5.185   1.251
 3947SOL    HW112740   6.153   5.200   1.214
 3947SOL    HW212741   5.996   5.181   1.175
 3948SOL     OW12742   0.797   5.230   1.776
 3948SOL    HW112743   0.825   5.134   1.779
 3948SOL    HW212744   0.863   5.286   1.826
 3949SOL     OW12745   5.692   0.539   2.873
 3949SOL    HW112746   5.746   0.588   2.942
 3949SOL    HW212747   5.638   0.604   2.820
 3950SOL     OW12748   3.010   4.153   1.752
 3950SOL    HW112749   3.110   4.163   1.746
 3950SOL    HW212750   2.971   4.236   1.792
 3951SOL     OW12751   0.478   0.128   0.646
 3951SOL    HW112752   0.446   0.178   0.727
 3951SOL    HW212753   0.416   0.051   0.628
 3952SOL     OW12754   6.791   4.068   3.691
 3952SOL    HW112755   6.856   4.007   3.736
 3952SOL    HW212756   6.728   4.014   3.635
 3953SOL     OW12757   3.668   4.659   0.811
 3953SOL    HW112758   3.569   4.671   0.811
 3953SOL    HW212759   3.708   4.716   0.883
 3954SOL     OW12760   5.670   5.527   5.140
 3954SOL    HW112761   5.705   5.547   5.232
 3954SOL    HW212762   5.623   5.438   5.141
 3955SOL     OW12763   3.407   6.130   5.958
 3955SOL    HW112764   3.448   6.161   6.043
 3955SOL    HW212765   3.322   6.081   5.978
 3956SOL     OW12766   0.580   1.215   2.694
 3956SOL    HW112767   0.582   1.312   2.719
 3956SOL    HW212768   0.651   1.166   2.745
 3957SOL     OW12769   5.087   6.665   3.431
 3957SOL    HW112770   5.079   6.742   3.366
 3957SOL    HW212771   5.099   6.701   3.523
 3958SOL     OW12772   5.579   0.528   6.021
 3958SOL    HW112773   5.536   0.484   5.942
 3958SOL    HW212774   5.582   0.626   6.007
 3959SOL     OW12775   3.884   6.377   1.400
 3959SOL    HW112776   3.927   6.462   1.370
 3959SOL    HW212777   3.955   6.307   1.413
 3960SOL     OW12778   4.684   1.571   6.899
 3960SOL    HW112779   4.724   1.662   6.895
 3960SOL    HW212780   4.585   1.578   6.911
 3961SOL     OW12781   5.699   2.678   1.826
 3961SOL    HW112782   5.683   2.674   1.925
 3961SOL    HW212783   5.629   2.624   1.780
 3962SOL     OW12784   1.928   4.700   6.917
 3962SOL    HW112785   1.881   4.622   6.875
 3962SOL    HW212786   1.932   4.687   7.016
 3963SOL     OW12787   5.069   4.111   4.350
 3963SOL    HW112788   4.988   4.101   4.292
 3963SOL    HW212789   5.052   4.071   4.440
 3964SOL     OW12790   4.544   4.832   3.651
 3964SOL    HW112791   4.510   4.738   3.663
 3964SOL    HW212792   4.636   4.839   3.688
 3965SOL     OW12793   4.311   3.277   6.158
 3965SOL    HW112794   4.296   3.290   6.061
 3965SOL    HW212795   4.384   3.210   6.172
 3966SOL     OW12796   5.412   5.755   0.350
 3966SOL    HW112797   5.320   5.794   0.343
 3966SOL    HW212798   5.463   5.801   0.423
 3967SOL     OW12799   1.257   4.251   2.506
 3967SOL    HW112800   1.236   4.282   2.599
 3967SOL    HW212801   1.356   4.256   2.491
 3968SOL     OW12802   5.936   6.902   1.099
 3968SOL    HW112803   6.009   6.969   1.112
 3968SOL    HW212804   5.976   6.814   1.073
 3969SOL     OW12805   1.710   3.637   2.750
 3969SOL    HW112806   1.707   3.737   2.744
 3969SOL    HW212807   1.764   3.610   2.829
 3970SOL     OW12808   5.938   5.560   3.964
 3970SOL    HW112809   5.878   5.497   4.013
 3970SOL    HW212810   5.955   5.524   3.872
 3971SOL     OW12811   2.782   5.366   1.727
 3971SOL    HW112812   2.753   5.414   1.810
 3971SOL    HW212813   2.844   5.292   1.752
 3972SOL     OW12814   1.152   5.512   1.016
 3972SOL    HW112815   1.189   5.503   0.923
 3972SOL    HW212816   1.099   5.597   1.022
 3973SOL     OW12817   0.771   4.365   6.032
 3973SOL    HW112818   0.793   4.297   5.962
 3973SOL    HW212819   0.846   4.371   6.098
 3974SOL     OW12820   1.271   0.673   4.726
 3974SOL    HW112821   1.297   0.610   4.798
 3974SOL    HW212822   1.315   0.646   4.640
 3975SOL     OW12823   5.232   0.061   5.936
 3975SOL    HW112824   5.236   0.073   6.036
 3975SOL    HW212825   5.264   6.991   5.913
 3976SOL     OW12826   1.560   5.481   1.794
 3976SOL    HW112827   1.576   5.557   1.731
 3976SOL    HW212828   1.647   5.434   1.811
 3977SOL     OW12829   2.693   4.296   5.738
 3977SOL    HW112830   2.702   4.260   5.830
 3977SOL    HW212831   2.771   4.356   5.718
 3978SOL     OW12832   5.308   6.941   4.832
 3978SOL    HW112833   5.369   6.863   4.839
 3978SOL    HW212834   5.283   6.972   4.924
 3979SOL     OW12835   2.830   5.965   1.661
 3979SOL    HW112836   2.908   5.995   1.606
 3979SOL    HW212837   2.778   5.896   1.610
 3980SOL     OW12838   0.178   6.087   6.379
 3980SOL    HW112839   0.122   6.040   6.310
 3980SOL    HW212840   0.155   6.184   6.381
 3981SOL     OW12841   2.157   1.740   6.957
 3981SOL    HW112842   2.152   1.810   0.006
 3981SOL    HW212843   2.088   1.669   6.975
 3982SOL     OW12844   2.265   0.290   4.147
 3982SOL    HW112845   2.279   0.193   4.126
 3982SOL    HW212846   2.319   0.346   4.084
 3983SOL     OW12847   4.680   5.235   4.008
 3983SOL    HW112848   4.663   5.333   3.999
 3983SOL    HW212849   4.777   5.217   3.993
 3984SOL     OW12850   0.484   0.532   2.666
 3984SOL    HW112851   0.409   0.534   2.732
 3984SOL    HW212852   0.524   0.440   2.662
 3985SOL     OW12853   3.809   4.646   6.052
 3985SOL    HW112854   3.724   4.597   6.033
 3985SOL    HW212855   3.792   4.745   6.052
 3986SOL     OW12856   6.379   1.947   2.679
 3986SOL    HW112857   6.373   2.029   2.736
 3986SOL    HW212858   6.475   1.927   2.660
 3987SOL     OW12859   3.037   5.162   4.278
 3987SOL    HW112860   3.045   5.067   4.246
 3987SOL    HW212861   3.121   5.187   4.326
 3988SOL     OW12862   3.971   3.645   6.891
 3988SOL    HW112863   3.878   3.655   6.857
 3988SOL    HW212864   3.979   3.690   6.980
 3989SOL     OW12865   6.992   2.119   0.019
 3989SOL    HW112866   7.008   2.023   7.017
 3989SOL    HW212867   6.904   2.148   7.004
 3990SOL     OW12868   5.507   2.478   2.627
 3990SOL    HW112869   5.513   2.380   2.647
 3990SOL    HW212870   5.591   2.523   2.657
 3991SOL     OW12871   5.667   1.654   1.851
 3991SOL    HW112872   5.756   1.696   1.865
 3991SOL    HW212873   5.598   1.725   1.839
 3992SOL     OW12874   3.453   2.163   6.758
 3992SOL    HW112875   3.457   2.129   6.852
 3992SOL    HW212876   3.361   2.194   6.737
 3993SOL     OW12877   0.394   2.364   3.392
 3993SOL    HW112878   0.323   2.382   3.324
 3993SOL    HW212879   0.422   2.269   3.387
 3994SOL     OW12880   0.467   1.302   6.365
 3994SOL    HW112881   0.525   1.382   6.347
 3994SOL    HW212882   0.491   1.263   6.454
 3995SOL     OW12883   1.617   4.131   4.600
 3995SOL    HW112884   1.714   4.114   4.582
 3995SOL    HW212885   1.575   4.172   4.519
 3996SOL     OW12886   1.063   1.291   4.379
 3996SOL    HW112887   1.082   1.193   4.389
 3996SOL    HW212888   1.149   1.341   4.375
 3997SOL     OW12889   5.237   1.845   3.355
 3997SOL    HW112890   5.213   1.940   3.337
 3997SOL    HW212891   5.321   1.822   3.306
 3998SOL     OW12892   4.032   1.012   2.932
 3998SOL    HW112893   4.051   0.923   2.974
 3998SOL    HW212894   3.946   1.048   2.969
 3999SOL     OW12895   5.496   3.325   3.759
 3999SOL    HW112896   5.460   3.234   3.776
 3999SOL    HW212897   5.478   3.351   3.664
 4000SOL     OW12898   3.230   5.536   3.140
 4000SOL    HW112899   3.178   5.525   3.056
 4000SOL    HW212900   3.168   5.563   3.214
 4001SOL     OW12901   2.556   1.776   4.239
 4001SOL    HW112902   2.528   1.693   4.287
 4001SOL    HW212903   2.484   1.804   4.177
 4002SOL     OW12904   2.845   2.414   0.414
 4002SOL    HW112905   2.877   2.485   0.351
 4002SOL    HW212906   2.921   2.352   0.436
 4003SOL     OW12907   3.008   6.115   4.936
 4003SOL    HW112908   2.934   6.067   4.981
 4003SOL    HW212909   3.085   6.124   4.999
 4004SOL     OW12910   5.738   2.561   3.743
 4004SOL    HW112911   5.714   2.558   3.646
 4004SOL    HW212912   5.661   2.529   3.797
 4005SOL     OW12913   5.292   5.885   0.965
 4005SOL    HW112914   5.291   5.984   0.948
 4005SOL    HW212915   5.373   5.862   1.020
 4006SOL     OW12916   3.742   5.120   2.844
 4006SOL    HW112917   3.767   5.210   2.881
 4006SOL    HW212918   3.690   5.131   2.760
 4007SOL     OW12919   1.305   2.667   1.622
 4007SOL    HW112920   1.396   2.651   1.659
 4007SOL    HW212921   1.262   2.580   1.599
 4008SOL     OW12922   3.447   2.032   4.068
 4008SOL    HW112923   3.367   2.082   4.033
 4008SOL    HW212924   3.425   1.935   4.074
 4009SOL     OW12925   5.503   3.297   0.448
 4009SOL    HW112926   5.504   3.294   0.548
 4009SOL    HW212927   5.422   3.248   0.415
 4010SOL     OW12928   2.217   2.946   1.887
 4010SOL    HW112929   2.225   2.998   1.972
 4010SOL    HW212930   2.172   3.002   1.818
 4011SOL     OW12931   0.387   0.768   2.015
 4011SOL    HW112932   0.363   0.820   2.097
 4011SOL    HW212933   0.435   0.827   1.951
 4012SOL     OW12934   4.110   5.671   1.665
 4012SOL    HW112935   4.025   5.723   1.659
 4012SOL    HW212936   4.109   5.615   1.748
 4013SOL     OW12937   3.334   6.608   0.111
 4013SOL    HW112938   3.396   6.633   0.185
 4013SOL    HW212939   3.385   6.566   0.036
 4014SOL     OW12940   3.650   6.031   3.396
 4014SOL    HW112941   3.643   6.086   3.479
 4014SOL    HW212942   3.573   5.968   3.392
 4015SOL     OW12943   4.665   5.507   6.334
 4015SOL    HW112944   4.640   5.493   6.239
 4015SOL    HW212945   4.631   5.430   6.389
 4016SOL     OW12946   1.986   6.109   6.859
 4016SOL    HW112947   1.914   6.040   6.848
 4016SOL    HW212948   2.036   6.091   6.944
 4017SOL     OW12949   0.329   6.364   1.256
 4017SOL    HW112950   0.282   6.337   1.340
 4017SOL    HW212951   0.302   6.303   1.182
 4018SOL     OW12952   4.958   6.136   3.196
 4018SOL    HW112953   4.895   6.096   3.129
 4018SOL    HW212954   4.951   6.235   3.193
 4019SOL     OW12955   5.698   3.776   2.707
 4019SOL    HW112956   5.639   3.746   2.782
 4019SOL    HW212957   5.642   3.805   2.630
 4020SOL     OW12958   5.385   2.404   6.072
 4020SOL    HW112959   5.420   2.480   6.017
 4020SOL    HW212960   5.368   2.326   6.012
 4021SOL     OW12961   3.599   3.246   6.030
 4021SOL    HW112962   3.540   3.323   6.004
 4021SOL    HW212963   3.561   3.161   5.994
 4022SOL     OW12964   4.334   0.458   0.325
 4022SOL    HW112965   4.390   0.463   0.408
 4022SOL    HW212966   4.336   0.365   0.289
 4023SOL     OW12967   6.708   1.550   5.323
 4023SOL    HW112968   6.628   1.565   5.266
 4023SOL    HW212969   6.743   1.458   5.308
 4024SOL     OW12970   3.208   6.087   4.181
 4024SOL    HW112971   3.251   6.169   4.143
 4024SOL    HW212972   3.272   6.041   4.242
 4025SOL     OW12973   0.974   6.378   4.332
 4025SOL    HW112974   0.918   6.315   4.279
 4025SOL    HW212975   1.061   6.335   4.355
 4026SOL     OW12976   6.360   6.061   4.398
 4026SOL    HW112977   6.286   6.037   4.335
 4026SOL    HW212978   6.405   5.977   4.429
 4027SOL     OW12979   3.803   3.962   2.090
 4027SOL    HW112980   3.730   3.894   2.092
 4027SOL    HW212981   3.775   4.040   2.034
 4028SOL     OW12982   1.521   2.481   3.995
 4028SOL    HW112983   1.571   2.564   4.020
 4028SOL    HW212984   1.423   2.494   4.012
 4029SOL     OW12985   2.047   4.094   6.662
 4029SOL    HW112986   1.960   4.082   6.709
 4029SOL    HW212987   2.105   4.156   6.715
 4030SOL     OW12988   1.486   2.007   5.839
 4030SOL    HW112989   1.485   2.082   5.905
 4030SOL    HW212990   1.443   1.926   5.879
 4031SOL     OW12991   4.612   5.821   3.103
 4031SOL    HW112992   4.704   5.829   3.064
 4031SOL    HW212993   4.607   5.872   3.189
 4032SOL     OW12994   5.808   0.317   2.987
 4032SOL    HW112995   5.870   0.262   2.930
 4032SOL    HW212996   5.779   0.398   2.935
 4033SOL     OW12997   2.965   3.371   3.005
 4033SOL    HW112998   2.974   3.357   2.906
 4033SOL    HW212999   2.879   3.416   3.025
 4034SOL     OW13000   5.850   1.786   5.066
 4034SOL    HW113001   5.771   1.838   5.032
 4034SOL    HW213002   5.841   1.690   5.041
 4035SOL     OW13003   6.381   3.348   0.868
 4035SOL    HW113004   6.318   3.329   0.793
 4035SOL    HW213005   6.450   3.275   0.873
 4036SOL     OW13006   5.447   6.584   3.044
 4036SOL    HW113007   5.441   6.646   3.123
 4036SOL    HW213008   5.543   6.558   3.030
 4037SOL     OW13009   1.723   1.917   0.939
 4037SOL    HW113010   1.791   1.874   0.999
 4037SOL    HW213011   1.755   1.913   0.844
 4038SOL     OW13012   5.111   4.920   1.681
 4038SOL    HW113013   5.123   4.831   1.638
 4038SOL    HW213014   5.021   4.957   1.657
 4039SOL     OW13015   5.220   5.138   1.117
 4039SOL    HW113016   5.191   5.146   1.021
 4039SOL    HW213017   5.300   5.196   1.132
 4040SOL     OW13018   2.860   6.627   0.116
 4040SOL    HW113019   2.947   6.644   0.163
 4040SOL    HW213020   2.836   6.530   0.124
 4041SOL     OW13021   1.789   5.659   1.775
 4041SOL    HW113022   1.833   5.570   1.781
 4041SOL    HW213023   1.746   5.681   1.863
 4042SOL     OW13024   6.651   4.445   3.169
 4042SOL    HW113025   6.589   4.370   3.146
 4042SOL    HW213026   6.685   4.487   3.085
 4043SOL     OW13027   5.282   2.625   4.563
 4043SOL    HW113028   5.306   2.660   4.654
 4043SOL    HW213029   5.274   2.525   4.567
 4044SOL     OW13030   4.970   0.851   4.721
 4044SOL    HW113031   4.980   0.850   4.621
 4044SOL    HW213032   4.893   0.910   4.746
 4045SOL     OW13033   2.684   4.458   6.389
 4045SOL    HW113034   2.637   4.547   6.389
 4045SOL    HW213035   2.617   4.385   6.398
 4046SOL     OW13036   0.701   2.194   3.664
 4046SOL    HW113037   0.746   2.206   3.752
 4046SOL    HW213038   0.671   2.283   3.629
 4047SOL     OW13039   2.962   2.390   0.729
 4047SOL    HW113040   2.914   2.477   0.722
 4047SOL    HW213041   3.024   2.379   0.651
 4048SOL     OW13042   5.667   1.163   1.435
 4048SOL    HW113043   5.583   1.123   1.472
 4048SOL    HW213044   5.643   1.232   1.367
 4049SOL     OW13045   5.978   6.503   6.459
 4049SOL    HW113046   5.971   6.601   6.479
 4049SOL    HW213047   6.074   6.475   6.462
 4050SOL     OW13048   1.583   6.480   0.610
 4050SOL    HW113049   1.576   6.574   0.643
 4050SOL    HW213050   1.650   6.430   0.665
 4051SOL     OW13051   3.536   3.254   0.008
 4051SOL    HW113052   3.480   3.254   0.090
 4051SOL    HW213053   3.600   3.331   0.011
 4052SOL     OW13054   1.129   0.283   1.349
 4052SOL    HW113055   1.109   0.379   1.331
 4052SOL    HW213056   1.182   0.276   1.434
 4053SOL     OW13057   3.273   5.157   4.465
 4053SOL    HW113058   3.371   5.170   4.483
 4053SOL    HW213059   3.262   5.093   4.389
 4054SOL     OW13060   2.069   2.521   1.107
 4054SOL    HW113061   2.016   2.542   1.189
 4054SOL    HW213062   2.097   2.606   1.062
 4055SOL     OW13063   2.902   3.015   5.327
 4055SOL    HW113064   2.849   3.072   5.265
 4055SOL    HW213065   2.963   3.072   5.382
 4056SOL     OW13066   4.207   3.036   6.665
 4056SOL    HW113067   4.284   3.013   6.725
 4056SOL    HW213068   4.133   2.972   6.682
 4057SOL     OW13069   5.075   2.893   0.388
 4057SOL    HW113070   5.022   2.978   0.385
 4057SOL    HW213071   5.173   2.915   0.390
 4058SOL     OW13072   1.297   1.463   4.106
 4058SOL    HW113073   1.333   1.381   4.150
 4058SOL    HW213074   1.198   1.455   4.097
 4059SOL     OW13075   2.245   2.252   2.806
 4059SOL    HW113076   2.199   2.168   2.834
 4059SOL    HW213077   2.237   2.321   2.879
 4060SOL     OW13078   4.179   4.785   5.341
 4060SOL    HW113079   4.110   4.715   5.324
 4060SOL    HW213080   4.257   4.771   5.279
 4061SOL     OW13081   3.442   4.466   1.707
 4061SOL    HW113082   3.483   4.535   1.766
 4061SOL    HW213083   3.513   4.425   1.650
 4062SOL     OW13084   4.038   1.612   3.214
 4062SOL    HW113085   4.088   1.582   3.133
 4062SOL    HW213086   4.103   1.644   3.283
 4063SOL     OW13087   4.404   6.601   5.235
 4063SOL    HW113088   4.387   6.576   5.140
 4063SOL    HW213089   4.432   6.696   5.240
 4064SOL     OW13090   2.504   6.710   2.628
 4064SOL    HW113091   2.524   6.804   2.656
 4064SOL    HW213092   2.537   6.647   2.698
 4065SOL     OW13093   1.210   6.726   0.402
 4065SOL    HW113094   1.258   6.814   0.407
 4065SOL    HW213095   1.278   6.652   0.403
 4066SOL     OW13096   5.584   4.774   2.365
 4066SOL    HW113097   5.673   4.780   2.321
 4066SOL    HW213098   5.578   4.689   2.418
 4067SOL     OW13099   6.071   2.631   2.517
 4067SOL    HW113100   6.051   2.544   2.471
 4067SOL    HW213101   6.042   2.707   2.458
 4068SOL     OW13102   4.538   0.326   4.626
 4068SOL    HW113103   4.567   0.337   4.721
 4068SOL    HW213104   4.470   0.253   4.621
 4069SOL     OW13105   4.557   3.539   6.798
 4069SOL    HW113106   4.498   3.616   6.771
 4069SOL    HW213107   4.512   3.453   6.776
 4070SOL     OW13108   1.861   3.550   2.980
 4070SOL    HW113109   1.830   3.605   3.058
 4070SOL    HW213110   1.953   3.516   2.997
 4071SOL     OW13111   1.456   0.974   5.034
 4071SOL    HW113112   1.414   1.063   5.019
 4071SOL    HW213113   1.514   0.978   5.115
 4072SOL     OW13114   1.808   6.670   4.415
 4072SOL    HW113115   1.904   6.681   4.387
 4072SOL    HW213116   1.751   6.661   4.333
 4073SOL     OW13117   2.528   5.655   6.194
 4073SOL    HW113118   2.582   5.739   6.191
 4073SOL    HW213119   2.558   5.594   6.120
 4074SOL     OW13120   1.309   2.748   1.891
 4074SOL    HW113121   1.262   2.726   1.806
 4074SOL    HW213122   1.407   2.756   1.875
 4075SOL     OW13123   5.052   2.381   2.877
 4075SOL    HW113124   4.985   2.440   2.834
 4075SOL    HW213125   5.124   2.438   2.919
 4076SOL     OW13126   2.472   3.837   5.606
 4076SOL    HW113127   2.530   3.770   5.559
 4076SOL    HW213128   2.381   3.798   5.620
 4077SOL     OW13129   2.923   6.224   1.070
 4077SOL    HW113130   2.903   6.196   1.164
 4077SOL    HW213131   2.984   6.304   1.071
 4078SOL     OW13132   6.542   5.470   1.682
 4078SOL    HW113133   6.528   5.530   1.760
 4078SOL    HW213134   6.482   5.498   1.607
 4079SOL     OW13135   1.531   0.800   3.157
 4079SOL    HW113136   1.557   0.896   3.142
 4079SOL    HW213137   1.614   0.744   3.162
 4080SOL     OW13138   2.475   3.304   6.689
 4080SOL    HW113139   2.513   3.309   6.597
 4080SOL    HW213140   2.375   3.293   6.683
 4081SOL     OW13141   1.545   1.096   4.651
 4081SOL    HW113142   1.557   1.070   4.556
 4081SOL    HW213143   1.484   1.031   4.696
 4082SOL     OW13144   1.682   1.868   0.131
 4082SOL    HW113145   1.605   1.918   0.171
 4082SOL    HW213146   1.661   1.846   0.036
 4083SOL     OW13147   5.676   4.034   3.480
 4083SOL    HW113148   5.765   3.989   3.477
 4083SOL    HW213149   5.622   4.003   3.401
 4084SOL     OW13150   4.915   3.086   2.903
 4084SOL    HW113151   4.899   3.169   2.957
 4084SOL    HW213152   5.013   3.067   2.898
 4085SOL     OW13153   2.782   5.007   1.438
 4085SOL    HW113154   2.715   5.032   1.508
 4085SOL    HW213155   2.863   4.968   1.482
 4086SOL     OW13156   0.086   4.836   0.880
 4086SOL    HW113157   0.127   4.759   0.928
 4086SOL    HW213158   0.060   4.809   0.787
 4087SOL     OW13159   2.557   1.289   2.602
 4087SOL    HW113160   2.507   1.337   2.675
 4087SOL    HW213161   2.652   1.320   2.601
 4088SOL     OW13162   6.202   1.014   5.751
 4088SOL    HW113163   6.112   1.014   5.706
 4088SOL    HW213164   6.234   0.920   5.760
 4089SOL     OW13165   0.253   5.518   4.295
 4089SOL    HW113166   0.261   5.444   4.361
 4089SOL    HW213167   0.159   5.552   4.293
 4090SOL     OW13168   1.762   5.926   5.424
 4090SOL    HW113169   1.861   5.939   5.430
 4090SOL    HW213170   1.743   5.841   5.375
 4091SOL     OW13171   0.904   5.465   0.203
 4091SOL    HW113172   0.812   5.426   0.205
 4091SOL    HW213173   0.971   5.395   0.227
 4092SOL     OW13174   4.999   2.933   3.971
 4092SOL    HW113175   4.934   2.982   4.029
 4092SOL    HW213176   4.956   2.912   3.883
 4093SOL     OW13177   5.658   6.061   1.643
 4093SOL    HW113178   5.677   6.129   1.713
 4093SOL    HW213179   5.700   5.974   1.669
 4094SOL     OW13180   0.949   4.654   0.171
 4094SOL    HW113181   0.989   4.744   0.150
 4094SOL    HW213182   0.852   4.654   0.146
 4095SOL     OW13183   0.767   3.361   0.193
 4095SOL    HW113184   0.784   3.452   0.230
 4095SOL    HW213185   0.798   3.357   0.098
 4096SOL     OW13186   2.093   0.747   6.458
 4096SOL    HW113187   2.127   0.822   6.515
 4096SOL    HW213188   2.167   0.715   6.399
 4097SOL     OW13189   5.703   4.376   5.417
 4097SOL    HW113190   5.735   4.283   5.399
 4097SOL    HW213191   5.731   4.404   5.509
 4098SOL     OW13192   2.182   2.741   1.442
 4098SOL    HW113193   2.102   2.693   1.406
 4098SOL    HW213194   2.265   2.694   1.413
 4099SOL     OW13195   3.632   5.061   0.078
 4099SOL    HW113196   3.563   5.131   0.058
 4099SOL    HW213197   3.587   4.981   0.118
 4100SOL     OW13198   1.345   0.865   3.854
 4100SOL    HW113199   1.444   0.877   3.860
 4100SOL    HW213200   1.299   0.953   3.866
 4101SOL     OW13201   7.018   1.104   6.279
 4101SOL    HW113202   6.992   1.032   6.216
 4101SOL    HW213203   0.095   1.111   6.283
 4102SOL     OW13204   2.186   0.754   0.862
 4102SOL    HW113205   2.112   0.710   0.912
 4102SOL    HW213206   2.255   0.787   0.927
 4103SOL     OW13207   0.365   6.975   1.998
 4103SOL    HW113208   0.286   0.011   2.014
 4103SOL    HW213209   0.345   6.882   2.029
 4104SOL     OW13210   0.130   5.037   3.365
 4104SOL    HW113211   0.190   4.967   3.403
 4104SOL    HW213212   0.090   5.091   3.440
 4105SOL     OW13213   4.847   1.548   2.011
 4105SOL    HW113214   4.782   1.501   2.070
 4105SOL    HW213215   4.871   1.637   2.051
 4106SOL     OW13216   0.324   2.083   3.860
 4106SOL    HW113217   0.327   2.169   3.808
 4106SOL    HW213218   0.264   2.094   3.939
 4107SOL     OW13219   0.216   6.235   6.867
 4107SOL    HW113220   0.202   6.194   6.777
 4107SOL    HW213221   0.139   6.296   6.888
 4108SOL     OW13222   0.357   5.730   4.537
 4108SOL    HW113223   0.364   5.819   4.582
 4108SOL    HW213224   0.269   5.688   4.557
 4109SOL     OW13225   5.258   6.340   3.726
 4109SOL    HW113226   5.194   6.392   3.783
 4109SOL    HW213227   5.254   6.374   3.632
 4110SOL     OW13228   3.983   3.266   6.549
 4110SOL    HW113229   4.050   3.299   6.616
 4110SOL    HW213230   4.017   3.181   6.508
 4111SOL     OW13231   5.839   5.245   6.295
 4111SOL    HW113232   5.841   5.332   6.246
 4111SOL    HW213233   5.765   5.188   6.259
 4112SOL     OW13234   5.058   6.925   4.751
 4112SOL    HW113235   5.154   6.925   4.779
 4112SOL    HW213236   5.051   6.892   4.657
 4113SOL     OW13237   4.530   5.654   4.437
 4113SOL    HW113238   4.554   5.622   4.529
 4113SOL    HW213239   4.560   5.586   4.370
 4114SOL     OW13240   6.284   1.293   3.138
 4114SOL    HW113241   6.261   1.196   3.149
 4114SOL    HW213242   6.331   1.306   3.051
 4115SOL     OW13243   2.547   4.719   3.678
 4115SOL    HW113244   2.551   4.776   3.760
 4115SOL    HW213245   2.480   4.646   3.692
 4116SOL     OW13246   4.901   2.598   3.558
 4116SOL    HW113247   4.915   2.501   3.578
 4116SOL    HW213248   4.807   2.612   3.526
 4117SOL     OW13249   1.538   2.018   3.126
 4117SOL    HW113250   1.565   2.098   3.072
 4117SOL    HW213251   1.527   2.044   3.222
 4118SOL     OW13252   6.187   6.650   5.726
 4118SOL    HW113253   6.218   6.568   5.678
 4118SOL    HW213254   6.259   6.720   5.722
 4119SOL     OW13255   2.993   1.176   3.176
 4119SOL    HW113256   3.071   1.178   3.114
 4119SOL    HW213257   2.917   1.228   3.136
 4120SOL     OW13258   3.711   1.129   6.465
 4120SOL    HW113259   3.771   1.185   6.522
 4120SOL    HW213260   3.766   1.079   6.398
 4121SOL     OW13261   6.737   6.940   2.671
 4121SOL    HW113262   6.738   6.995   2.587
 4121SOL    HW213263   6.687   6.855   2.655
 4122SOL     OW13264   1.326   0.086   4.846
 4122SOL    HW113265   1.412   0.124   4.881
 4122SOL    HW213266   1.250   0.140   4.880
 4123SOL     OW13267   4.050   4.932   4.103
 4123SOL    HW113268   4.072   4.844   4.145
 4123SOL    HW213269   3.986   4.982   4.162
 4124SOL     OW13270   6.957   6.526   0.922
 4124SOL    HW113271   0.017   6.572   0.956
 4124SOL    HW213272   6.969   6.427   0.929
 4125SOL     OW13273   4.544   2.443   2.737
 4125SOL    HW113274   4.623   2.477   2.685
 4125SOL    HW213275   4.515   2.355   2.698
 4126SOL     OW13276   1.969   3.244   2.574
 4126SOL    HW113277   1.900   3.203   2.514
 4126SOL    HW213278   1.923   3.302   2.642
 4127SOL     OW13279   4.925   2.593   5.221
 4127SOL    HW113280   4.981   2.511   5.237
 4127SOL    HW213281   4.973   2.654   5.158
 4128SOL     OW13282   0.885   2.896   1.506
 4128SOL    HW113283   0.984   2.897   1.498
 4128SOL    HW213284   0.845   2.907   1.415
 4129SOL     OW13285   3.367   1.263   0.410
 4129SOL    HW113286   3.434   1.336   0.397
 4129SOL    HW213287   3.292   1.297   0.467
 4130SOL     OW13288   6.162   2.130   0.162
 4130SOL    HW113289   6.180   2.035   0.187
 4130SOL    HW213290   6.178   2.189   0.242
 4131SOL     OW13291   6.851   1.128   2.791
 4131SOL    HW113292   6.840   1.191   2.868
 4131SOL    HW213293   6.945   1.096   2.786
 4132SOL     OW13294   5.414   4.147   4.353
 4132SOL    HW113295   5.421   4.219   4.422
 4132SOL    HW213296   5.379   4.063   4.395
 4133SOL     OW13297   4.059   6.508   1.733
 4133SOL    HW113298   4.088   6.421   1.694
 4133SOL    HW213299   4.077   6.581   1.667
 4134SOL     OW13300   2.383   3.069   0.833
 4134SOL    HW113301   2.372   3.166   0.855
 4134SOL    HW213302   2.481   3.049   0.820
 4135SOL     OW13303   0.080   2.531   2.631
 4135SOL    HW113304   0.095   2.471   2.552
 4135SOL    HW213305   0.003   2.496   2.684
 4136SOL     OW13306   1.438   3.815   2.059
 4136SOL    HW113307   1.496   3.829   1.979
 4136SOL    HW213308   1.433   3.901   2.111
 4137SOL     OW13309   1.084   3.065   6.715
 4137SOL    HW113310   1.080   3.114   6.628
 4137SOL    HW213311   1.180   3.051   6.740
 4138SOL     OW13312   3.711   5.332   1.621
 4138SOL    HW113313   3.662   5.247   1.639
 4138SOL    HW213314   3.702   5.356   1.524
 4139SOL     OW13315   1.372   1.546   3.624
 4139SOL    HW113316   1.360   1.609   3.701
 4139SOL    HW213317   1.422   1.465   3.654
 4140SOL     OW13318   3.131   1.894   4.039
 4140SOL    HW113319   3.194   1.851   4.104
 4140SOL    HW213320   3.165   1.985   4.016
 4141SOL     OW13321   5.317   6.899   0.720
 4141SOL    HW113322   5.349   6.842   0.796
 4141SOL    HW213323   5.248   6.962   0.754
 4142SOL     OW13324   6.557   4.001   1.715
 4142SOL    HW113325   6.536   4.099   1.719
 4142SOL    HW213326   6.536   3.959   1.803
 4143SOL     OW13327   5.278   3.201   0.342
 4143SOL    HW113328   5.195   3.256   0.328
 4143SOL    HW213329   5.293   3.143   0.263
 4144SOL     OW13330   5.160   1.317   6.926
 4144SOL    HW113331   5.209   1.374   6.993
 4144SOL    HW213332   5.172   1.221   6.949
 4145SOL     OW13333   0.809   6.450   0.444
 4145SOL    HW113334   0.829   6.534   0.395
 4145SOL    HW213335   0.887   6.425   0.502
 4146SOL     OW13336   6.645   0.764   3.412
 4146SOL    HW113337   6.690   0.849   3.387
 4146SOL    HW213338   6.679   0.689   3.355
 4147SOL     OW13339   4.804   4.520   6.012
 4147SOL    HW113340   4.822   4.447   6.078
 4147SOL    HW213341   4.817   4.486   5.919
 4148SOL     OW13342   2.998   0.591   5.636
 4148SOL    HW113343   2.931   0.551   5.699
 4148SOL    HW213344   3.024   0.682   5.667
 4149SOL     OW13345   0.519   3.670   1.788
 4149SOL    HW113346   0.552   3.576   1.788
 4149SOL    HW213347   0.432   3.676   1.836
 4150SOL     OW13348   7.021   1.918   5.274
 4150SOL    HW113349   0.003   1.823   5.305
 4150SOL    HW213350   0.076   1.936   5.213
 4151SOL     OW13351   1.876   6.978   6.301
 4151SOL    HW113352   1.930   6.978   6.216
 4151SOL    HW213353   1.932   6.943   6.376
 4152SOL     OW13354   4.048   5.555   1.885
 4152SOL    HW113355   4.093   5.490   1.946
 4152SOL    HW213356   3.963   5.515   1.850
 4153SOL     OW13357   6.416   5.123   1.579
 4153SOL    HW113358   6.392   5.184   1.504
 4153SOL    HW213359   6.465   5.174   1.649
 4154SOL     OW13360   0.378   5.918   3.941
 4154SOL    HW113361   0.449   5.972   3.985
 4154SOL    HW213362   0.354   5.840   3.999
 4155SOL     OW13363   0.174   1.528   1.347
 4155SOL    HW113364   0.230   1.588   1.404
 4155SOL    HW213365   0.233   1.460   1.303
 4156SOL     OW13366   6.604   5.608   5.010
 4156SOL    HW113367   6.513   5.649   4.996
 4156SOL    HW213368   6.671   5.680   5.024
 4157SOL     OW13369   5.472   6.185   3.572
 4157SOL    HW113370   5.545   6.250   3.592
 4157SOL    HW213371   5.385   6.220   3.608
 4158SOL     OW13372   1.945   2.720   2.549
 4158SOL    HW113373   2.038   2.704   2.583
 4158SOL    HW213374   1.947   2.733   2.450
 4159SOL     OW13375   2.567   2.491   3.792
 4159SOL    HW113376   2.509   2.529   3.720
 4159SOL    HW213377   2.580   2.393   3.776
 4160SOL     OW13378   5.530   0.100   6.753
 4160SOL    HW113379   5.619   0.144   6.753
 4160SOL    HW213380   5.529   0.024   6.818
 4161SOL     OW13381   1.995   1.718   1.981
 4161SOL    HW113382   1.901   1.721   2.016
 4161SOL    HW213383   2.059   1.710   2.057
 4162SOL     OW13384   5.987   5.735   0.750
 4162SOL    HW113385   6.067   5.752   0.807
 4162SOL    HW213386   5.910   5.791   0.784
 4163SOL     OW13387   5.952   1.377   2.973
 4163SOL    HW113388   5.871   1.343   3.022
 4163SOL    HW213389   6.011   1.426   3.037
 4164SOL     OW13390   0.744   6.912   5.481
 4164SOL    HW113391   0.696   6.931   5.567
 4164SOL    HW213392   0.795   6.993   5.453
 4165SOL     OW13393   4.855   0.610   5.415
 4165SOL    HW113394   4.918   0.666   5.469
 4165SOL    HW213395   4.765   0.653   5.414
 4166SOL     OW13396   5.144   1.173   1.563
 4166SOL    HW113397   5.093   1.259   1.561
 4166SOL    HW213398   5.105   1.113   1.633
 4167SOL     OW13399   3.347   5.070   6.334
 4167SOL    HW113400   3.328   5.050   6.430
 4167SOL    HW213401   3.276   5.131   6.298
 4168SOL     OW13402   0.297   4.424   1.195
 4168SOL    HW113403   0.263   4.410   1.102
 4168SOL    HW213404   0.297   4.338   1.245
 4169SOL     OW13405   5.835   4.253   5.015
 4169SOL    HW113406   5.928   4.269   5.049
 4169SOL    HW213407   5.811   4.157   5.029
 4170SOL     OW13408   5.277   3.333   5.120
 4170SOL    HW113409   5.262   3.374   5.210
 4170SOL    HW213410   5.301   3.237   5.130
 4171SOL     OW13411   0.236   5.106   1.080
 4171SOL    HW113412   0.140   5.134   1.071
 4171SOL    HW213413   0.267   5.066   0.994
 4172SOL     OW13414   2.598   2.503   0.289
 4172SOL    HW113415   2.673   2.484   0.225
 4172SOL    HW213416   2.636   2.522   0.380
 4173SOL     OW13417   5.421   3.638   5.166
 4173SOL    HW113418   5.474   3.721   5.150
 4173SOL    HW213419   5.323   3.658   5.153
 4174SOL     OW13420   5.225   1.615   2.233
 4174SOL    HW113421   5.146   1.636   2.290
 4174SOL    HW213422   5.305   1.601   2.292
 4175SOL     OW13423   1.414   4.444   4.657
 4175SOL    HW113424   1.444   4.492   4.739
 4175SOL    HW213425   1.489   4.442   4.590
 4176SOL     OW13426   4.143   6.760   1.270
 4176SOL    HW113427   4.052   6.729   1.243
 4176SOL    HW213428   4.155   6.748   1.368
 4177SOL     OW13429   5.539   4.760   5.217
 4177SOL    HW113430   5.569   4.806   5.300
 4177SOL    HW213431   5.529   4.662   5.235
 4178SOL     OW13432   4.153   0.272   3.683
 4178SOL    HW113433   4.209   0.274   3.765
 4178SOL    HW213434   4.206   0.236   3.606
 4179SOL     OW13435   5.204   4.212   3.154
 4179SOL    HW113436   5.285   4.262   3.183
 4179SOL    HW213437   5.228   4.147   3.082
 4180SOL     OW13438   4.581   2.856   0.903
 4180SOL    HW113439   4.635   2.883   0.824
 4180SOL    HW213440   4.618   2.771   0.941
 4181SOL     OW13441   4.520   0.629   0.211
 4181SOL    HW113442   4.477   0.544   0.239
 4181SOL    HW213443   4.501   0.646   0.114
 4182SOL     OW13444   0.493   5.281   3.030
 4182SOL    HW113445   0.568   5.315   2.973
 4182SOL    HW213446   0.508   5.184   3.051
 4183SOL     OW13447   3.253   1.184   0.763
 4183SOL    HW113448   3.238   1.248   0.687
 4183SOL    HW213449   3.279   1.235   0.845
 4184SOL     OW13450   3.764   6.868   2.489
 4184SOL    HW113451   3.756   6.811   2.407
 4184SOL    HW213452   3.858   6.868   2.521
 4185SOL     OW13453   0.986   4.114   3.449
 4185SOL    HW113454   0.975   4.206   3.411
 4185SOL    HW213455   0.964   4.046   3.378
 4186SOL     OW13456   2.390   5.320   6.798
 4186SOL    HW113457   2.429   5.411   6.799
 4186SOL    HW213458   2.446   5.260   6.741
 4187SOL     OW13459   2.652   2.865   5.809
 4187SOL    HW113460   2.598   2.897   5.887
 4187SOL    HW213461   2.699   2.943   5.767
 4188SOL     OW13462   5.190   0.570   5.270
 4188SOL    HW113463   5.141   0.588   5.185
 4188SOL    HW213464   5.135   0.510   5.329
 4189SOL     OW13465   3.518   4.932   4.388
 4189SOL    HW113466   3.604   4.955   4.344
 4189SOL    HW213467   3.442   4.946   4.325
 4190SOL     OW13468   0.947   0.566   1.295
 4190SOL    HW113469   0.889   0.531   1.221
 4190SOL    HW213470   0.941   0.665   1.298
 4191SOL     OW13471   5.493   4.696   4.948
 4191SOL    HW113472   5.482   4.780   4.896
 4191SOL    HW213473   5.544   4.715   5.032
 4192SOL     OW13474   0.821   1.539   2.909
 4192SOL    HW113475   0.905   1.585   2.879
 4192SOL    HW213476   0.843   1.461   2.966
 4193SOL     OW13477   5.611   0.313   1.128
 4193SOL    HW113478   5.519   0.348   1.147
 4193SOL    HW213479   5.674   0.389   1.115
 4194SOL     OW13480   4.759   0.405   4.446
 4194SOL    HW113481   4.703   0.409   4.363
 4194SOL    HW213482   4.699   0.393   4.525
 4195SOL     OW13483   4.003   5.232   1.465
 4195SOL    HW113484   3.923   5.213   1.522
 4195SOL    HW213485   4.084   5.242   1.523
 4196SOL     OW13486   6.280   2.748   2.839
 4196SOL    HW113487   6.362   2.692   2.849
 4196SOL    HW213488   6.290   2.831   2.894
 4197SOL     OW13489   4.876   5.275   5.389
 4197SOL    HW113490   4.920   5.193   5.352
 4197SOL    HW213491   4.808   5.247   5.457
 4198SOL     OW13492   6.351   1.841   0.761
 4198SOL    HW113493   6.309   1.752   0.782
 4198SOL    HW213494   6.356   1.896   0.844
 4199SOL     OW13495   0.999   2.478   5.610
 4199SOL    HW113496   1.092   2.501   5.641
 4199SOL    HW213497   0.973   2.538   5.534
 4200SOL     OW13498   2.981   0.022   6.527
 4200SOL    HW113499   2.916   6.986   6.478
 4200SOL    HW213500   2.934   0.103   6.562
 4201SOL     OW13501   5.700   6.936   3.801
 4201SOL    HW113502   5.707   6.839   3.823
 4201SOL    HW213503   5.641   6.981   3.868
 4202SOL     OW13504   3.072   5.745   6.181
 4202SOL    HW113505   3.015   5.664   6.195
 4202SOL    HW213506   3.023   5.826   6.213
 4203SOL     OW13507   4.759   4.251   0.316
 4203SOL    HW113508   4.795   4.343   0.297
 4203SOL    HW213509   4.662   4.258   0.341
 4204SOL     OW13510   4.139   3.595   4.059
 4204SOL    HW113511   4.089   3.627   3.978
 4204SOL    HW213512   4.237   3.615   4.047
 4205SOL     OW13513   4.331   6.140   4.773
 4205SOL    HW113514   4.392   6.175   4.845
 4205SOL    HW213515   4.384   6.123   4.690
 4206SOL     OW13516   6.302   1.178   5.208
 4206SOL    HW113517   6.263   1.132   5.129
 4206SOL    HW213518   6.229   1.217   5.264
 4207SOL     OW13519   2.105   2.365   2.018
 4207SOL    HW113520   2.055   2.279   2.024
 4207SOL    HW213521   2.180   2.365   2.085
 4208SOL     OW13522   6.896   3.797   5.237
 4208SOL    HW113523   6.990   3.775   5.262
 4208SOL    HW213524   6.877   3.893   5.256
 4209SOL     OW13525   6.821   6.277   4.061
 4209SOL    HW113526   6.833   6.210   4.134
 4209SOL    HW213527   6.833   6.369   4.097
 4210SOL     OW13528   3.692   3.421   2.610
 4210SOL    HW113529   3.646   3.374   2.686
 4210SOL    HW213530   3.712   3.515   2.636
 4211SOL     OW13531   3.581   0.983   5.871
 4211SOL    HW113532   3.499   0.970   5.928
 4211SOL    HW213533   3.624   1.070   5.895
 4212SOL     OW13534   6.032   2.378   2.426
 4212SOL    HW113535   6.118   2.350   2.468
 4212SOL    HW213536   5.999   2.307   2.365
 4213SOL     OW13537   2.628   0.751   2.459
 4213SOL    HW113538   2.633   0.669   2.402
 4213SOL    HW213539   2.612   0.831   2.402
 4214SOL     OW13540   0.589   5.770   5.609
 4214SOL    HW113541   0.671   5.826   5.602
 4214SOL    HW213542   0.525   5.813   5.672
 4215SOL     OW13543   4.251   6.595   5.957
 4215SOL    HW113544   4.159   6.622   5.985
 4215SOL    HW213545   4.264   6.497   5.974
 4216SOL     OW13546   1.890   0.716   3.220
 4216SOL    HW113547   1.887   0.653   3.143
 4216SOL    HW213548   1.982   0.716   3.260
 4217SOL     OW13549   1.025   0.621   2.955
 4217SOL    HW113550   1.008   0.601   2.858
 4217SOL    HW213551   1.124   0.618   2.972
 4218SOL     OW13552   3.347   0.924   1.509
 4218SOL    HW113553   3.333   0.992   1.581
 4218SOL    HW213554   3.441   0.891   1.512
 4219SOL     OW13555   4.337   5.853   4.417
 4219SOL    HW113556   4.411   5.789   4.439
 4219SOL    HW213557   4.270   5.808   4.359
 4220SOL     OW13558   6.401   3.226   3.150
 4220SOL    HW113559   6.338   3.302   3.164
 4220SOL    HW213560   6.495   3.261   3.147
 4221SOL     OW13561   6.122   4.864   6.245
 4221SOL    HW113562   6.025   4.882   6.254
 4221SOL    HW213563   6.136   4.774   6.203
 4222SOL     OW13564   0.116   1.723   2.075
 4222SOL    HW113565   0.065   1.638   2.083
 4222SOL    HW213566   0.171   1.738   2.157
 4223SOL     OW13567   3.216   3.837   0.502
 4223SOL    HW113568   3.209   3.816   0.599
 4223SOL    HW213569   3.141   3.898   0.475
 4224SOL     OW13570   5.379   5.182   3.786
 4224SOL    HW113571   5.424   5.258   3.738
 4224SOL    HW213572   5.412   5.178   3.880
 4225SOL     OW13573   2.544   2.858   5.383
 4225SOL    HW113574   2.543   2.938   5.323
 4225SOL    HW213575   2.638   2.828   5.398
 4226SOL     OW13576   0.750   6.637   2.833
 4226SOL    HW113577   0.712   6.547   2.856
 4226SOL    HW213578   0.791   6.633   2.742
 4227SOL     OW13579   3.414   5.513   1.595
 4227SOL    HW113580   3.427   5.545   1.688
 4227SOL    HW213581   3.423   5.590   1.532
 4228SOL     OW13582   0.974   5.478   5.620
 4228SOL    HW113583   1.042   5.436   5.561
 4228SOL    HW213584   0.940   5.411   5.686
 4229SOL     OW13585   4.546   5.887   5.812
 4229SOL    HW113586   4.552   5.980   5.775
 4229SOL    HW213587   4.535   5.822   5.737
 4230SOL     OW13588   1.009   5.462   2.483
 4230SOL    HW113589   1.046   5.419   2.401
 4230SOL    HW213590   0.928   5.515   2.460
 4231SOL     OW13591   5.357   6.757   5.686
 4231SOL    HW113592   5.448   6.788   5.716
 4231SOL    HW213593   5.316   6.700   5.758
 4232SOL     OW13594   0.713   4.912   2.909
 4232SOL    HW113595   0.670   4.823   2.893
 4232SOL    HW213596   0.664   4.983   2.858
 4233SOL     OW13597   5.897   0.460   5.430
 4233SOL    HW113598   5.808   0.430   5.464
 4233SOL    HW213599   5.957   0.481   5.508
 4234SOL     OW13600   2.286   5.272   5.076
 4234SOL    HW113601   2.260   5.251   4.982
 4234SOL    HW213602   2.374   5.321   5.076
 4235SOL     OW13603   5.321   4.009   6.099
 4235SOL    HW113604   5.321   4.105   6.128
 4235SOL    HW213605   5.367   3.953   6.167
 4236SOL     OW13606   6.486   3.866   1.941
 4236SOL    HW113607   6.475   3.884   2.039
 4236SOL    HW213608   6.547   3.788   1.928
 4237SOL     OW13609   5.669   5.253   3.144
 4237SOL    HW113610   5.642   5.159   3.167
 4237SOL    HW213611   5.766   5.265   3.163
 4238SOL     OW13612   2.076   6.678   2.545
 4238SOL    HW113613   1.996   6.689   2.486
 4238SOL    HW213614   2.120   6.767   2.557
 4239SOL     OW13615   5.051   1.326   2.662
 4239SOL    HW113616   5.111   1.277   2.598
 4239SOL    HW213617   4.992   1.261   2.708
 4240SOL     OW13618   2.104   6.087   0.523
 4240SOL    HW113619   2.170   6.093   0.448
 4240SOL    HW213620   2.150   6.112   0.609
 4241SOL     OW13621   5.887   0.795   0.629
 4241SOL    HW113622   5.964   0.733   0.611
 4241SOL    HW213623   5.868   0.797   0.727
 4242SOL     OW13624   3.314   1.812   4.283
 4242SOL    HW113625   3.402   1.785   4.322
 4242SOL    HW213626   3.257   1.854   4.354
 4243SOL     OW13627   6.355   3.163   2.338
 4243SOL    HW113628   6.398   3.082   2.298
 4243SOL    HW213629   6.421   3.211   2.396
 4244SOL     OW13630   4.154   4.542   1.747
 4244SOL    HW113631   4.207   4.520   1.665
 4244SOL    HW213632   4.203   4.611   1.801
 4245SOL     OW13633   6.609   1.325   6.390
 4245SOL    HW113634   6.622   1.353   6.485
 4245SOL    HW213635   6.679   1.369   6.332
 4246SOL     OW13636   0.234   4.135   3.278
 4246SOL    HW113637   0.185   4.106   3.196
 4246SOL    HW213638   0.264   4.055   3.329
 4247SOL     OW13639   2.615   6.176   3.383
 4247SOL    HW113640   2.663   6.090   3.401
 4247SOL    HW213641   2.606   6.227   3.469
 4248SOL     OW13642   3.896   1.474   3.945
 4248SOL    HW113643   3.900   1.463   3.846
 4248SOL    HW213644   3.981   1.517   3.977
 4249SOL     OW13645   5.817   3.246   4.530
 4249SOL    HW113646   5.801   3.180   4.603
 4249SOL    HW213647   5.750   3.320   4.536
 4250SOL     OW13648   6.738   4.547   2.944
 4250SOL    HW113649   6.822   4.494   2.942
 4250SOL    HW213650   6.760   4.645   2.942
 4251SOL     OW13651   5.623   4.626   1.062
 4251SOL    HW113652   5.524   4.618   1.074
 4251SOL    HW213653   5.642   4.674   0.976
 4252SOL     OW13654   5.536   6.339   5.797
 4252SOL    HW113655   5.634   6.360   5.800
 4252SOL    HW213656   5.496   6.376   5.713
 4253SOL     OW13657   3.783   6.495   0.629
 4253SOL    HW113658   3.858   6.562   0.628
 4253SOL    HW213659   3.696   6.543   0.624
 4254SOL     OW13660   0.447   2.641   2.451
 4254SOL    HW113661   0.486   2.609   2.365
 4254SOL    HW213662   0.519   2.653   2.519
 4255SOL     OW13663   6.202   3.879   3.374
 4255SOL    HW113664   6.174   3.913   3.463
 4255SOL    HW213665   6.143   3.919   3.303
 4256SOL     OW13666   1.974   6.680   0.284
 4256SOL    HW113667   1.976   6.729   0.196
 4256SOL    HW213668   1.913   6.601   0.276
 4257SOL     OW13669   2.852   0.440   4.123
 4257SOL    HW113670   2.863   0.430   4.222
 4257SOL    HW213671   2.937   0.412   4.077
 4258SOL     OW13672   5.028   6.271   0.851
 4258SOL    HW113673   5.000   6.212   0.775
 4258SOL    HW213674   4.949   6.290   0.909
 4259SOL     OW13675   2.984   0.706   0.733
 4259SOL    HW113676   3.017   0.800   0.731
 4259SOL    HW213677   3.040   0.649   0.673
 4260SOL     OW13678   5.321   6.854   0.078
 4260SOL    HW113679   5.274   6.924   0.025
 4260SOL    HW213680   5.341   6.776   0.018
 4261SOL     OW13681   1.795   6.924   1.584
 4261SOL    HW113682   1.701   6.899   1.606
 4261SOL    HW213683   1.850   6.922   1.667
 4262SOL     OW13684   0.655   4.735   5.269
 4262SOL    HW113685   0.643   4.834   5.259
 4262SOL    HW213686   0.701   4.698   5.188
 4263SOL     OW13687   2.417   6.809   3.323
 4263SOL    HW113688   2.377   6.753   3.396
 4263SOL    HW213689   2.405   6.905   3.346
 4264SOL     OW13690   6.992   2.905   2.830
 4264SOL    HW113691   6.967   2.881   2.924
 4264SOL    HW213692   6.936   2.853   2.766
 4265SOL     OW13693   5.557   1.225   0.600
 4265SOL    HW113694   5.611   1.268   0.672
 4265SOL    HW213695   5.537   1.130   0.625
 4266SOL     OW13696   1.892   5.067   0.210
 4266SOL    HW113697   1.881   4.999   0.282
 4266SOL    HW213698   1.984   5.059   0.171
 4267SOL     OW13699   2.169   3.356   4.527
 4267SOL    HW113700   2.173   3.383   4.431
 4267SOL    HW213701   2.221   3.421   4.582
 4268SOL     OW13702   0.896   5.823   6.439
 4268SOL    HW113703   0.969   5.769   6.396
 4268SOL    HW213704   0.866   5.894   6.375
 4269SOL     OW13705   2.286   1.159   1.911
 4269SOL    HW113706   2.223   1.160   1.988
 4269SOL    HW213707   2.368   1.108   1.935
 4270SOL     OW13708   3.886   3.609   3.376
 4270SOL    HW113709   3.980   3.583   3.353
 4270SOL    HW213710   3.869   3.702   3.343
 4271SOL     OW13711   0.228   0.850   6.755
 4271SOL    HW113712   0.232   0.940   6.712
 4271SOL    HW213713   0.228   0.861   6.855
 4272SOL     OW13714   6.094   3.192   4.582
 4272SOL    HW113715   6.016   3.252   4.564
 4272SOL    HW213716   6.177   3.235   4.547
 4273SOL     OW13717   4.267   6.250   5.170
 4273SOL    HW113718   4.361   6.220   5.153
 4273SOL    HW213719   4.232   6.202   5.251
 4274SOL     OW13720   1.320   6.651   1.943
 4274SOL    HW113721   1.340   6.561   1.981
 4274SOL    HW213722   1.378   6.719   1.988
 4275SOL     OW13723   6.428   0.831   4.390
 4275SOL    HW113724   6.436   0.807   4.487
 4275SOL    HW213725   6.464   0.756   4.334
 4276SOL     OW13726   2.213   5.171   3.283
 4276SOL    HW113727   2.222   5.071   3.281
 4276SOL    HW213728   2.134   5.196   3.339
 4277SOL     OW13729   6.196   4.909   4.030
 4277SOL    HW113730   6.293   4.932   4.036
 4277SOL    HW213731   6.186   4.818   3.990
 4278SOL     OW13732   0.345   0.685   4.503
 4278SOL    HW113733   0.309   0.625   4.431
 4278SOL    HW213734   0.280   0.689   4.578
 4279SOL     OW13735   3.480   0.873   4.481
 4279SOL    HW113736   3.554   0.825   4.435
 4279SOL    HW213737   3.412   0.807   4.513
 4280SOL     OW13738   5.053   0.062   6.190
 4280SOL    HW113739   4.979   0.129   6.202
 4280SOL    HW213740   5.051   0.027   6.096
 4281SOL     OW13741   0.752   5.086   3.534
 4281SOL    HW113742   0.812   5.024   3.585
 4281SOL    HW213743   0.726   5.044   3.448
 4282SOL     OW13744   3.436   4.032   6.724
 4282SOL    HW113745   3.432   4.028   6.624
 4282SOL    HW213746   3.475   4.119   6.753
 4283SOL     OW13747   1.734   0.850   3.441
 4283SOL    HW113748   1.637   0.826   3.445
 4283SOL    HW213749   1.781   0.790   3.376
 4284SOL     OW13750   4.424   4.800   1.307
 4284SOL    HW113751   4.447   4.711   1.346
 4284SOL    HW213752   4.505   4.839   1.262
 4285SOL     OW13753   0.513   0.676   6.060
 4285SOL    HW113754   0.458   0.657   6.142
 4285SOL    HW213755   0.462   0.734   5.998
 4286SOL     OW13756   4.761   5.646   6.036
 4286SOL    HW113757   4.687   5.703   6.074
 4286SOL    HW213758   4.727   5.553   6.021
 4287SOL     OW13759   5.549   2.066   6.639
 4287SOL    HW113760   5.563   2.048   6.541
 4287SOL    HW213761   5.490   2.146   6.650
 4288SOL     OW13762   0.977   6.012   3.825
 4288SOL    HW113763   0.972   6.099   3.875
 4288SOL    HW213764   1.069   5.999   3.790
 4289SOL     OW13765   7.007   3.128   0.697
 4289SOL    HW113766   0.002   3.122   0.795
 4289SOL    HW213767   6.950   3.208   0.677
 4290SOL     OW13768   1.977   0.046   2.528
 4290SOL    HW113769   2.009   0.131   2.570
 4290SOL    HW213770   1.999   6.992   2.588
 4291SOL     OW13771   4.100   3.679   1.329
 4291SOL    HW113772   4.161   3.624   1.385
 4291SOL    HW213773   4.147   3.763   1.300
 4292SOL     OW13774   6.717   4.473   6.814
 4292SOL    HW113775   6.666   4.534   6.753
 4292SOL    HW213776   6.673   4.383   6.816
 4293SOL     OW13777   1.451   3.151   0.355
 4293SOL    HW113778   1.475   3.056   0.332
 4293SOL    HW213779   1.371   3.179   0.302
 4294SOL     OW13780   2.843   2.742   6.477
 4294SOL    HW113781   2.787   2.824   6.489
 4294SOL    HW213782   2.935   2.769   6.447
 4295SOL     OW13783   4.067   5.706   4.039
 4295SOL    HW113784   4.073   5.660   4.128
 4295SOL    HW213785   4.088   5.641   3.966
 4296SOL     OW13786   4.187   0.937   0.743
 4296SOL    HW113787   4.179   1.009   0.674
 4296SOL    HW213788   4.193   0.979   0.834
 4297SOL     OW13789   5.145   0.874   6.860
 4297SOL    HW113790   5.110   0.812   6.931
 4297SOL    HW213791   5.165   0.963   6.902
 4298SOL     OW13792   3.278   5.446   0.205
 4298SOL    HW113793   3.257   5.352   0.229
 4298SOL    HW213794   3.328   5.490   0.280
 4299SOL     OW13795   1.388   2.583   7.021
 4299SOL    HW113796   1.393   2.490   0.033
 4299SOL    HW213797   1.303   2.626   0.031
 4300SOL     OW13798   4.458   0.221   0.103
 4300SOL    HW113799   4.386   0.200   0.037
 4300SOL    HW213800   4.424   0.205   0.196
 4301SOL     OW13801   3.680   1.906   1.014
 4301SOL    HW113802   3.621   1.968   1.066
 4301SOL    HW213803   3.689   1.819   1.063
 4302SOL     OW13804   1.516   6.646   5.723
 4302SOL    HW113805   1.510   6.668   5.821
 4302SOL    HW213806   1.593   6.694   5.682
 4303SOL     OW13807   6.288   4.671   4.188
 4303SOL    HW113808   6.356   4.600   4.209
 4303SOL    HW213809   6.199   4.628   4.173
 4304SOL     OW13810   3.344   4.110   2.909
 4304SOL    HW113811   3.383   4.031   2.956
 4304SOL    HW213812   3.249   4.090   2.884
 4305SOL     OW13813   6.437   0.769   4.660
 4305SOL    HW113814   6.414   0.671   4.660
 4305SOL    HW213815   6.534   0.780   4.681
 4306SOL     OW13816   6.419   3.806   6.939
 4306SOL    HW113817   6.479   3.742   6.891
 4306SOL    HW213818   6.324   3.775   6.931
 4307SOL     OW13819   4.212   3.879   6.360
 4307SOL    HW113820   4.143   3.811   6.340
 4307SOL    HW213821   4.176   3.946   6.424
 4308SOL     OW13822   6.106   5.310   6.542
 4308SOL    HW113823   6.017   5.319   6.587
 4308SOL    HW213824   6.107   5.227   6.486
 4309SOL     OW13825   1.148   1.392   0.491
 4309SOL    HW113826   1.230   1.368   0.543
 4309SOL    HW213827   1.112   1.479   0.524
 4310SOL     OW13828   1.723   2.684   2.855
 4310SOL    HW113829   1.675   2.627   2.923
 4310SOL    HW213830   1.705   2.780   2.873
 4311SOL     OW13831   1.888   6.023   3.493
 4311SOL    HW113832   1.858   6.010   3.587
 4311SOL    HW213833   1.853   5.949   3.436
 4312SOL     OW13834   1.238   5.095   1.023
 4312SOL    HW113835   1.331   5.074   0.992
 4312SOL    HW213836   1.201   5.016   1.071
 4313SOL     OW13837   4.727   1.857   1.416
 4313SOL    HW113838   4.753   1.781   1.357
 4313SOL    HW213839   4.695   1.822   1.504
 4314SOL     OW13840   5.706   1.414   3.972
 4314SOL    HW113841   5.714   1.338   4.036
 4314SOL    HW213842   5.793   1.464   3.969
 4315SOL     OW13843   3.090   6.950   2.240
 4315SOL    HW113844   2.995   6.921   2.253
 4315SOL    HW213845   3.152   6.879   2.275
 4316SOL     OW13846   5.468   6.947   1.691
 4316SOL    HW113847   5.397   7.006   1.655
 4316SOL    HW213848   5.552   6.958   1.638
 4317SOL     OW13849   4.444   1.385   5.183
 4317SOL    HW113850   4.535   1.355   5.157
 4317SOL    HW213851   4.388   1.306   5.209
 4318SOL     OW13852   0.655   3.513   4.346
 4318SOL    HW113853   0.751   3.523   4.319
 4318SOL    HW213854   0.649   3.511   4.446
 4319SOL     OW13855   2.235   2.567   0.781
 4319SOL    HW113856   2.313   2.627   0.799
 4319SOL    HW213857   2.261   2.495   0.717
 4320SOL     OW13858   6.340   6.231   1.494
 4320SOL    HW113859   6.257   6.278   1.523
 4320SOL    HW213860   6.348   6.144   1.542
 4321SOL     OW13861   6.698   6.732   5.288
 4321SOL    HW113862   6.703   6.823   5.247
 4321SOL    HW213863   6.695   6.663   5.215
 4322SOL     OW13864   6.558   2.387   6.631
 4322SOL    HW113865   6.635   2.443   6.660
 4322SOL    HW213866   6.474   2.423   6.671
 4323SOL     OW13867   4.788   4.096   1.090
 4323SOL    HW113868   4.723   4.020   1.098
 4323SOL    HW213869   4.881   4.061   1.092
 4324SOL     OW13870   5.267   4.191   6.281
 4324SOL    HW113871   5.200   4.143   6.338
 4324SOL    HW213872   5.245   4.288   6.279
 4325SOL     OW13873   2.827   1.166   1.388
 4325SOL    HW113874   2.919   1.159   1.351
 4325SOL    HW213875   2.829   1.147   1.487
 4326SOL     OW13876   4.901   4.648   5.195
 4326SOL    HW113877   4.944   4.582   5.256
 4326SOL    HW213878   4.952   4.653   5.109
 4327SOL     OW13879   5.874   5.574   2.014
 4327SOL    HW113880   5.962   5.614   2.037
 4327SOL    HW213881   5.806   5.600   2.083
 4328SOL     OW13882   4.305   3.730   5.606
 4328SOL    HW113883   4.208   3.753   5.612
 4328SOL    HW213884   4.346   3.777   5.528
 4329SOL     OW13885   4.217   1.203   6.260
 4329SOL    HW113886   4.155   1.125   6.272
 4329SOL    HW213887   4.163   1.284   6.238
 4330SOL     OW13888   2.642   0.250   5.274
 4330SOL    HW113889   2.604   0.337   5.243
 4330SOL    HW213890   2.611   0.230   5.366
 4331SOL     OW13891   5.114   2.599   0.707
 4331SOL    HW113892   5.117   2.499   0.700
 4331SOL    HW213893   5.108   2.625   0.803
 4332SOL     OW13894   4.871   4.852   1.990
 4332SOL    HW113895   4.892   4.853   1.892
 4332SOL    HW213896   4.956   4.863   2.042
 4333SOL     OW13897   3.922   0.495   5.281
 4333SOL    HW113898   3.931   0.395   5.279
 4333SOL    HW213899   3.868   0.522   5.361
 4334SOL     OW13900   2.215   2.568   2.633
 4334SOL    HW113901   2.207   2.470   2.615
 4334SOL    HW213902   2.288   2.584   2.699
 4335SOL     OW13903   3.557   3.700   2.806
 4335SOL    HW113904   3.518   3.773   2.751
 4335SOL    HW213905   3.654   3.689   2.785
 4336SOL     OW13906   1.755   6.591   6.978
 4336SOL    HW113907   1.757   6.671   6.917
 4336SOL    HW213908   1.793   6.512   6.930
 4337SOL     OW13909   0.207   4.647   1.027
 4337SOL    HW113910   0.194   4.575   1.096
 4337SOL    HW213911   0.304   4.652   1.002
 4338SOL     OW13912   5.544   5.833   4.556
 4338SOL    HW113913   5.492   5.818   4.640
 4338SOL    HW213914   5.549   5.931   4.537
 4339SOL     OW13915   5.625   3.210   5.223
 4339SOL    HW113916   5.582   3.243   5.307
 4339SOL    HW213917   5.648   3.288   5.164
 4340SOL     OW13918   6.694   3.533   1.220
 4340SOL    HW113919   6.746   3.513   1.303
 4340SOL    HW213920   6.604   3.488   1.226
 4341SOL     OW13921   0.275   5.862   1.876
 4341SOL    HW113922   0.304   5.850   1.971
 4341SOL    HW213923   0.216   5.786   1.850
 4342SOL     OW13924   5.774   4.013   4.171
 4342SOL    HW113925   5.864   4.051   4.147
 4342SOL    HW213926   5.771   3.917   4.144
 4343SOL     OW13927   2.245   6.158   5.673
 4343SOL    HW113928   2.283   6.085   5.616
 4343SOL    HW213929   2.145   6.151   5.673
 4344SOL     OW13930   1.406   5.277   2.796
 4344SOL    HW113931   1.323   5.229   2.821
 4344SOL    HW213932   1.426   5.348   2.864
 4345SOL     OW13933   2.760   3.249   5.270
 4345SOL    HW113934   2.689   3.179   5.262
 4345SOL    HW213935   2.722   3.332   5.309
 4346SOL     OW13936   1.866   3.204   2.084
 4346SOL    HW113937   1.959   3.206   2.047
 4346SOL    HW213938   1.815   3.130   2.041
 4347SOL     OW13939   6.343   0.167   3.040
 4347SOL    HW113940   6.299   0.090   2.995
 4347SOL    HW213941   6.422   0.196   2.987
 4348SOL     OW13942   0.208   4.391   2.951
 4348SOL    HW113943   0.226   4.475   3.002
 4348SOL    HW213944   0.277   4.322   2.973
 4349SOL     OW13945   0.193   1.356   2.820
 4349SOL    HW113946   0.104   1.394   2.796
 4349SOL    HW213947   0.228   1.301   2.745
 4350SOL     OW13948   5.199   1.903   4.146
 4350SOL    HW113949   5.180   1.833   4.078
 4350SOL    HW213950   5.281   1.954   4.120
 4351SOL     OW13951   2.401   6.191   1.442
 4351SOL    HW113952   2.341   6.253   1.392
 4351SOL    HW213953   2.353   6.156   1.523
 4352SOL     OW13954   0.709   3.119   2.396
 4352SOL    HW113955   0.644   3.181   2.440
 4352SOL    HW213956   0.756   3.064   2.465
 4353SOL     OW13957   3.297   3.468   0.080
 4353SOL    HW113958   3.334   3.551   0.120
 4353SOL    HW213959   3.281   3.482   7.004
 4354SOL     OW13960   2.235   0.078   5.835
 4354SOL    HW113961   2.287   0.163   5.833
 4354SOL    HW213962   2.137   0.099   5.841
 4355SOL     OW13963   3.149   0.223   2.255
 4355SOL    HW113964   3.135   0.124   2.250
 4355SOL    HW213965   3.147   0.252   2.351
 4356SOL     OW13966   5.041   4.190   0.573
 4356SOL    HW113967   5.134   4.172   0.540
 4356SOL    HW213968   4.982   4.113   0.551
 4357SOL     OW13969   6.364   0.553   0.264
 4357SOL    HW113970   6.381   0.602   0.179
 4357SOL    HW213971   6.315   0.613   0.328
 4358SOL     OW13972   0.564   6.373   0.038
 4358SOL    HW113973   0.588   6.278   0.055
 4358SOL    HW213974   0.520   6.381   6.971
 4359SOL     OW13975   2.481   2.151   6.455
 4359SOL    HW113976   2.540   2.180   6.380
 4359SOL    HW213977   2.533   2.093   6.518
 4360SOL     OW13978   1.146   2.202   4.331
 4360SOL    HW113979   1.176   2.185   4.237
 4360SOL    HW213980   1.153   2.300   4.351
 4361SOL     OW13981   2.450   3.106   1.138
 4361SOL    HW113982   2.502   3.192   1.135
 4361SOL    HW213983   2.430   3.076   1.045
 4362SOL     OW13984   6.167   5.275   2.974
 4362SOL    HW113985   6.225   5.346   3.016
 4362SOL    HW213986   6.222   5.222   2.909
 4363SOL     OW13987   4.990   2.827   0.132
 4363SOL    HW113988   4.941   2.740   0.132
 4363SOL    HW213989   4.987   2.867   0.224
 4364SOL     OW13990   3.298   3.930   4.968
 4364SOL    HW113991   3.380   3.976   4.936
 4364SOL    HW213992   3.217   3.973   4.927
 4365SOL     OW13993   2.390   1.584   1.552
 4365SOL    HW113994   2.482   1.623   1.549
 4365SOL    HW213995   2.395   1.489   1.585
 4366SOL     OW13996   6.595   6.796   0.206
 4366SOL    HW113997   6.538   6.863   0.158
 4366SOL    HW213998   6.535   6.729   0.250
 4367SOL     OW13999   2.291   4.559   4.938
 4367SOL    HW114000   2.387   4.575   4.913
 4367SOL    HW214001   2.282   4.562   5.038
 4368SOL     OW14002   4.000   4.324   1.243
 4368SOL    HW114003   3.990   4.411   1.290
 4368SOL    HW214004   3.927   4.262   1.271
 4369SOL     OW14005   3.857   5.211   3.307
 4369SOL    HW114006   3.939   5.267   3.320
 4369SOL    HW214007   3.883   5.114   3.304
 4370SOL     OW14008   4.816   5.189   2.431
 4370SOL    HW114009   4.839   5.286   2.440
 4370SOL    HW214010   4.815   5.164   2.334
 4371SOL     OW14011   1.353   2.032   1.859
 4371SOL    HW114012   1.321   2.003   1.769
 4371SOL    HW214013   1.327   2.127   1.874
 4372SOL     OW14014   3.505   1.584   3.068
 4372SOL    HW114015   3.574   1.534   3.016
 4372SOL    HW214016   3.451   1.640   3.006
 4373SOL     OW14017   6.805   2.337   6.440
 4373SOL    HW114018   6.794   2.278   6.521
 4373SOL    HW214019   6.863   2.415   6.463
 4374SOL     OW14020   1.458   1.902   2.589
 4374SOL    HW114021   1.498   1.985   2.549
 4374SOL    HW214022   1.473   1.903   2.688
 4375SOL     OW14023   3.717   0.326   3.292
 4375SOL    HW114024   3.806   0.303   3.330
 4375SOL    HW214025   3.722   0.415   3.246
 4376SOL     OW14026   6.823   6.627   1.533
 4376SOL    HW114027   6.760   6.570   1.480
 4376SOL    HW214028   6.859   6.574   1.610
 4377SOL     OW14029   5.446   4.318   1.010
 4377SOL    HW114030   5.359   4.354   1.045
 4377SOL    HW214031   5.451   4.334   0.911
 4378SOL     OW14032   2.245   1.892   2.656
 4378SOL    HW114033   2.236   1.953   2.734
 4378SOL    HW214034   2.204   1.934   2.575
 4379SOL     OW14035   2.160   1.097   2.602
 4379SOL    HW114036   2.072   1.136   2.576
 4379SOL    HW214037   2.156   0.997   2.592
 4380SOL     OW14038   1.393   0.227   2.161
 4380SOL    HW114039   1.439   0.141   2.183
 4380SOL    HW214040   1.297   0.210   2.141
 4381SOL     OW14041   0.393   5.223   5.395
 4381SOL    HW114042   0.328   5.157   5.358
 4381SOL    HW214043   0.414   5.292   5.326
 4382SOL     OW14044   0.690   3.443   5.284
 4382SOL    HW114045   0.691   3.420   5.187
 4382SOL    HW214046   0.599   3.474   5.311
 4383SOL     OW14047   1.039   2.784   6.742
 4383SOL    HW114048   1.061   2.879   6.768
 4383SOL    HW214049   0.954   2.783   6.689
 4384SOL     OW14050   5.691   0.933   4.639
 4384SOL    HW114051   5.767   0.939   4.704
 4384SOL    HW214052   5.726   0.915   4.548
 4385SOL     OW14053   5.558   2.635   5.177
 4385SOL    HW114054   5.575   2.565   5.247
 4385SOL    HW214055   5.463   2.631   5.148
 4386SOL     OW14056   1.690   3.784   5.786
 4386SOL    HW114057   1.783   3.794   5.820
 4386SOL    HW214058   1.631   3.853   5.828
 4387SOL     OW14059   6.878   2.362   1.465
 4387SOL    HW114060   6.958   2.363   1.525
 4387SOL    HW214061   6.811   2.429   1.498
 4388SOL     OW14062   4.336   2.826   5.698
 4388SOL    HW114063   4.341   2.925   5.715
 4388SOL    HW214064   4.299   2.781   5.780
 4389SOL     OW14065   6.014   2.761   1.316
 4389SOL    HW114066   5.960   2.702   1.256
 4389SOL    HW214067   6.036   2.846   1.268
 4390SOL     OW14068   3.849   0.051   1.742
 4390SOL    HW114069   3.936   0.075   1.786
 4390SOL    HW214070   3.865   0.035   1.644
 4391SOL     OW14071   2.133   5.913   0.001
 4391SOL    HW114072   2.115   5.827   6.977
 4391SOL    HW214073   2.228   5.914   0.033
 4392SOL     OW14074   6.858   3.190   5.554
 4392SOL    HW114075   6.948   3.150   5.571
 4392SOL    HW214076   6.860   3.239   5.466
 4393SOL     OW14077   6.352   0.767   1.812
 4393SOL    HW114078   6.363   0.681   1.863
 4393SOL    HW214079   6.260   0.772   1.774
 4394SOL     OW14080   6.610   5.595   2.368
 4394SOL    HW114081   6.660   5.681   2.364
 4394SOL    HW214082   6.609   5.553   2.277
 4395SOL     OW14083   2.250   0.338   1.828
 4395SOL    HW114084   2.176   0.399   1.856
 4395SOL    HW214085   2.289   0.371   1.742
 4396SOL     OW14086   1.958   1.448   4.227
 4396SOL    HW114087   1.912   1.519   4.175
 4396SOL    HW214088   2.032   1.489   4.280
 4397SOL     OW14089   1.663   2.380   4.287
 4397SOL    HW114090   1.607   2.297   4.296
 4397SOL    HW214091   1.604   2.459   4.273
 4398SOL     OW14092   1.000   3.734   5.519
 4398SOL    HW114093   0.974   3.743   5.615
 4398SOL    HW214094   1.049   3.648   5.505
 4399SOL     OW14095   3.427   6.568   2.727
 4399SOL    HW114096   3.340   6.615   2.737
 4399SOL    HW214097   3.433   6.494   2.795
 4400SOL     OW14098   2.448   6.617   5.512
 4400SOL    HW114099   2.531   6.660   5.548
 4400SOL    HW214100   2.407   6.677   5.442
 4401SOL     OW14101   2.870   6.965   5.774
 4401SOL    HW114102   2.775   6.964   5.805
 4401SOL    HW214103   2.905   6.871   5.772
 4402SOL     OW14104   1.644   0.945   2.466
 4402SOL    HW114105   1.648   0.961   2.565
 4402SOL    HW214106   1.721   0.991   2.422
 4403SOL     OW14107   1.051   0.447   0.723
 4403SOL    HW114108   1.062   0.542   0.693
 4403SOL    HW214109   1.096   0.387   0.657
 4404SOL     OW14110   1.885   6.255   5.976
 4404SOL    HW114111   1.912   6.163   5.948
 4404SOL    HW214112   1.949   6.321   5.939
 4405SOL     OW14113   1.658   4.282   1.894
 4405SOL    HW114114   1.634   4.376   1.872
 4405SOL    HW214115   1.754   4.276   1.921
 4406SOL     OW14116   0.740   2.762   0.681
 4406SOL    HW114117   0.818   2.762   0.743
 4406SOL    HW214118   0.728   2.854   0.642
 4407SOL     OW14119   6.508   5.661   0.778
 4407SOL    HW114120   6.517   5.684   0.875
 4407SOL    HW214121   6.583   5.704   0.727
 4408SOL     OW14122   2.405   0.011   1.127
 4408SOL    HW114123   2.452   6.957   1.081
 4408SOL    HW214124   2.331   6.997   1.184
 4409SOL     OW14125   4.388   1.226   2.403
 4409SOL    HW114126   4.403   1.312   2.452
 4409SOL    HW214127   4.290   1.212   2.389
 4410SOL     OW14128   0.859   4.677   0.457
 4410SOL    HW114129   0.884   4.723   0.371
 4410SOL    HW214130   0.933   4.615   0.484
 4411SOL     OW14131   3.645   4.045   5.238
 4411SOL    HW114132   3.664   4.000   5.325
 4411SOL    HW214133   3.719   4.027   5.174
 4412SOL     OW14134   4.512   6.051   3.989
 4412SOL    HW114135   4.503   6.000   4.074
 4412SOL    HW214136   4.477   6.144   4.002
 4413SOL     OW14137   5.672   4.619   4.012
 4413SOL    HW114138   5.717   4.531   4.002
 4413SOL    HW214139   5.598   4.612   4.080
 4414SOL     OW14140   3.627   5.925   1.303
 4414SOL    HW114141   3.704   5.873   1.340
 4414SOL    HW214142   3.655   6.020   1.287
 4415SOL     OW14143   5.070   2.476   0.142
 4415SOL    HW114144   5.040   2.488   0.048
 4415SOL    HW214145   5.170   2.483   0.147
 4416SOL     OW14146   4.137   1.948   3.983
 4416SOL    HW114147   4.100   1.858   3.962
 4416SOL    HW214148   4.070   2.019   3.962
 4417SOL     OW14149   5.443   3.915   4.024
 4417SOL    HW114150   5.486   3.828   4.049
 4417SOL    HW214151   5.498   3.991   4.059
 4418SOL     OW14152   6.580   2.030   2.220
 4418SOL    HW114153   6.510   2.009   2.288
 4418SOL    HW214154   6.543   2.014   2.128
 4419SOL     OW14155   6.059   0.131   5.700
 4419SOL    HW114156   6.067   0.231   5.698
 4419SOL    HW214157   5.976   0.104   5.650
 4420SOL     OW14158   4.063   1.418   2.255
 4420SOL    HW114159   4.073   1.323   2.282
 4420SOL    HW214160   3.969   1.448   2.270
 4421SOL     OW14161   1.749   1.600   4.985
 4421SOL    HW114162   1.728   1.675   5.048
 4421SOL    HW214163   1.669   1.540   4.978
 4422SOL     OW14164   1.032   4.241   0.032
 4422SOL    HW114165   1.106   4.195   7.005
 4422SOL    HW214166   1.065   4.269   0.122
 4423SOL     OW14167   0.054   3.532   5.363
 4423SOL    HW114168   0.080   3.536   5.460
 4423SOL    HW214169   0.082   3.617   5.318
 4424SOL     OW14170   5.280   0.778   4.284
 4424SOL    HW114171   5.259   0.798   4.380
 4424SOL    HW214172   5.364   0.724   4.279
 4425SOL     OW14173   2.988   4.798   0.532
 4425SOL    HW114174   2.900   4.842   0.552
 4425SOL    HW214175   2.975   4.723   0.468
 4426SOL     OW14176   1.019   0.956   4.068
 4426SOL    HW114177   0.972   1.007   3.996
 4426SOL    HW214178   1.002   0.858   4.058
 4427SOL     OW14179   6.349   6.224   2.293
 4427SOL    HW114180   6.381   6.314   2.264
 4427SOL    HW214181   6.381   6.205   2.386
 4428SOL     OW14182   4.063   0.892   3.688
 4428SOL    HW114183   4.016   0.852   3.609
 4428SOL    HW214184   4.071   0.991   3.675
 4429SOL     OW14185   3.398   0.015   2.269
 4429SOL    HW114186   3.449   7.017   2.185
 4429SOL    HW214187   3.427   0.103   2.305
 4430SOL     OW14188   5.037   4.982   5.056
 4430SOL    HW114189   5.002   4.910   4.995
 4430SOL    HW214190   5.093   4.941   5.127
 4431SOL     OW14191   2.667   0.959   2.991
 4431SOL    HW114192   2.617   1.034   3.035
 4431SOL    HW214193   2.666   0.972   2.892
 4432SOL     OW14194   3.019   3.036   5.883
 4432SOL    HW114195   2.933   3.076   5.914
 4432SOL    HW214196   3.046   3.078   5.797
 4433SOL     OW14197   5.776   2.133   4.158
 4433SOL    HW114198   5.705   2.132   4.229
 4433SOL    HW214199   5.733   2.125   4.068
 4434SOL     OW14200   5.804   1.533   2.762
 4434SOL    HW114201   5.827   1.628   2.786
 4434SOL    HW214202   5.873   1.472   2.799
 4435SOL     OW14203   4.512   4.120   1.220
 4435SOL    HW114204   4.528   4.174   1.303
 4435SOL    HW214205   4.550   4.028   1.233
 4436SOL     OW14206   4.470   0.782   1.604
 4436SOL    HW114207   4.528   0.772   1.684
 4436SOL    HW214208   4.375   0.760   1.629
 4437SOL     OW14209   1.222   3.146   2.494
 4437SOL    HW114210   1.134   3.188   2.470
 4437SOL    HW214211   1.255   3.093   2.416
 4438SOL     OW14212   4.589   0.230   6.569
 4438SOL    HW114213   4.517   0.216   6.501
 4438SOL    HW214214   4.577   0.164   6.643
 4439SOL     OW14215   7.005   4.324   1.606
 4439SOL    HW114216   6.941   4.298   1.534
 4439SOL    HW214217   0.067   4.358   1.565
 4440SOL     OW14218   2.794   4.681   1.076
 4440SOL    HW114219   2.787   4.601   1.135
 4440SOL    HW214220   2.799   4.651   0.980
 4441SOL     OW14221   0.563   1.589   1.926
 4441SOL    HW114222   0.642   1.530   1.906
 4441SOL    HW214223   0.593   1.685   1.927
 4442SOL     OW14224   1.762   4.804   4.305
 4442SOL    HW114225   1.675   4.797   4.257
 4442SOL    HW214226   1.770   4.729   4.371
 4443SOL     OW14227   1.604   3.461   5.475
 4443SOL    HW114228   1.613   3.506   5.564
 4443SOL    HW214229   1.676   3.495   5.414
 4444SOL     OW14230   3.464   3.748   6.851
 4444SOL    HW114231   3.424   3.839   6.861
 4444SOL    HW214232   3.392   3.680   6.844
 4445SOL     OW14233   1.425   6.572   0.391
 4445SOL    HW114234   1.459   6.539   0.479
 4445SOL    HW214235   1.424   6.497   0.325
 4446SOL     OW14236   5.092   2.349   1.228
 4446SOL    HW114237   5.088   2.250   1.241
 4446SOL    HW214238   5.184   2.375   1.199
 4447SOL     OW14239   5.399   4.231   5.805
 4447SOL    HW114240   5.322   4.225   5.869
 4447SOL    HW214241   5.436   4.140   5.789
 4448SOL     OW14242   2.582   5.066   1.637
 4448SOL    HW114243   2.514   5.131   1.604
 4448SOL    HW214244   2.541   4.975   1.645
 4449SOL     OW14245   5.307   0.825   6.346
 4449SOL    HW114246   5.342   0.750   6.402
 4449SOL    HW214247   5.209   0.811   6.331
 4450SOL     OW14248   3.908   2.334   5.856
 4450SOL    HW114249   3.921   2.402   5.784
 4450SOL    HW214250   3.966   2.357   5.934
 4451SOL     OW14251   5.173   4.460   3.822
 4451SOL    HW114252   5.250   4.453   3.885
 4451SOL    HW214253   5.127   4.548   3.836
 4452SOL     OW14254   5.786   5.697   4.431
 4452SOL    HW114255   5.781   5.613   4.378
 4452SOL    HW214256   5.698   5.712   4.477
 4453SOL     OW14257   1.790   2.366   1.482
 4453SOL    HW114258   1.760   2.310   1.559
 4453SOL    HW214259   1.710   2.403   1.434
 4454SOL     OW14260   1.458   1.518   0.159
 4454SOL    HW114261   1.370   1.471   0.167
 4454SOL    HW214262   1.477   1.538   0.063
 4455SOL     OW14263   5.540   5.206   5.572
 4455SOL    HW114264   5.468   5.275   5.570
 4455SOL    HW214265   5.522   5.141   5.646
 4456SOL     OW14266   2.424   6.479   3.187
 4456SOL    HW114267   2.349   6.486   3.121
 4456SOL    HW214268   2.503   6.437   3.143
 4457SOL     OW14269   3.830   1.449   3.320
 4457SOL    HW114270   3.853   1.491   3.408
 4457SOL    HW214271   3.875   1.499   3.246
 4458SOL     OW14272   2.001   3.033   0.581
 4458SOL    HW114273   2.060   3.113   0.570
 4458SOL    HW214274   1.952   3.017   0.496
 4459SOL     OW14275   4.297   1.990   4.465
 4459SOL    HW114276   4.220   2.051   4.485
 4459SOL    HW214277   4.325   2.002   4.369
 4460SOL     OW14278   1.224   3.197   0.107
 4460SOL    HW114279   1.319   3.229   0.098
 4460SOL    HW214280   1.196   3.204   0.202
 4461SOL     OW14281   1.960   0.618   1.008
 4461SOL    HW114282   1.919   0.531   0.978
 4461SOL    HW214283   1.912   0.652   1.088
 4462SOL     OW14284   6.717   4.736   2.217
 4462SOL    HW114285   6.690   4.643   2.242
 4462SOL    HW214286   6.787   4.732   2.146
 4463SOL     OW14287   5.109   0.940   0.759
 4463SOL    HW114288   5.166   0.858   0.752
 4463SOL    HW214289   5.031   0.932   0.697
 4464SOL     OW14290   7.000   5.731   0.217
 4464SOL    HW114291   6.968   5.821   0.246
 4464SOL    HW214292   6.926   5.683   0.170
 4465SOL     OW14293   3.883   5.233   1.010
 4465SOL    HW114294   3.951   5.226   1.083
 4465SOL    HW214295   3.922   5.199   0.924
 4466SOL     OW14296   1.213   1.964   3.107
 4466SOL    HW114297   1.281   2.027   3.069
 4466SOL    HW214298   1.259   1.884   3.145
 4467SOL     OW14299   1.827   5.452   3.296
 4467SOL    HW114300   1.794   5.532   3.346
 4467SOL    HW214301   1.749   5.402   3.257
 4468SOL     OW14302   1.654   4.159   0.632
 4468SOL    HW114303   1.564   4.123   0.656
 4468SOL    HW214304   1.716   4.151   0.710
 4469SOL     OW14305   3.624   0.859   1.477
 4469SOL    HW114306   3.692   0.885   1.408
 4469SOL    HW214307   3.642   0.910   1.561
 4470SOL     OW14308   0.580   1.920   2.211
 4470SOL    HW114309   0.672   1.885   2.189
 4470SOL    HW214310   0.588   1.990   2.282
 4471SOL     OW14311   0.835   2.350   6.477
 4471SOL    HW114312   0.839   2.276   6.410
 4471SOL    HW214313   0.801   2.433   6.433
 4472SOL     OW14314   0.431   2.608   1.753
 4472SOL    HW114315   0.511   2.549   1.754
 4472SOL    HW214316   0.454   2.695   1.709
 4473SOL     OW14317   5.499   3.295   4.144
 4473SOL    HW114318   5.451   3.208   4.134
 4473SOL    HW214319   5.461   3.362   4.081
 4474SOL     OW14320   2.567   6.929   2.328
 4474SOL    HW114321   2.521   6.983   2.257
 4474SOL    HW214322   2.541   6.963   2.418
 4475SOL     OW14323   1.139   4.142   2.029
 4475SOL    HW114324   1.208   4.101   1.970
 4475SOL    HW214325   1.052   4.147   1.981
 4476SOL     OW14326   6.175   1.032   3.448
 4476SOL    HW114327   6.253   1.078   3.491
 4476SOL    HW214328   6.092   1.085   3.465
 4477SOL     OW14329   1.532   0.744   5.402
 4477SOL    HW114330   1.489   0.724   5.489
 4477SOL    HW214331   1.509   0.673   5.336
 4478SOL     OW14332   3.165   0.318   2.528
 4478SOL    HW114333   3.250   0.266   2.531
 4478SOL    HW214334   3.125   0.322   2.619
 4479SOL     OW14335   0.307   2.159   1.554
 4479SOL    HW114336   0.377   2.219   1.594
 4479SOL    HW214337   0.311   2.070   1.599
 4480SOL     OW14338   0.277   3.881   5.080
 4480SOL    HW114339   0.369   3.846   5.062
 4480SOL    HW214340   0.222   3.875   4.997
 4481SOL     OW14341   2.633   5.352   4.920
 4481SOL    HW114342   2.683   5.275   4.961
 4481SOL    HW214343   2.670   5.372   4.830
 4482SOL     OW14344   2.076   2.714   5.082
 4482SOL    HW114345   2.161   2.740   5.037
 4482SOL    HW214346   2.025   2.797   5.107
 4483SOL     OW14347   6.839   2.417   2.231
 4483SOL    HW114348   6.870   2.333   2.186
 4483SOL    HW214349   6.824   2.488   2.162
 4484SOL     OW14350   3.201   2.262   6.753
 4484SOL    HW114351   3.244   2.335   6.701
 4484SOL    HW214352   3.156   2.300   6.833
 4485SOL     OW14353   5.920   2.570   4.337
 4485SOL    HW114354   5.974   2.496   4.377
 4485SOL    HW214355   5.969   2.657   4.349
 4486SOL     OW14356   6.026   5.638   5.179
 4486SOL    HW114357   6.115   5.597   5.197
 4486SOL    HW214358   6.031   5.698   5.100
 4487SOL     OW14359   2.977   2.380   6.576
 4487SOL    HW114360   3.036   2.389   6.496
 4487SOL    HW214361   3.033   2.361   6.657
 4488SOL     OW14362   1.148   3.495   5.507
 4488SOL    HW114363   1.241   3.476   5.477
 4488SOL    HW214364   1.115   3.419   5.563
 4489SOL     OW14365   5.503   5.495   4.501
 4489SOL    HW114366   5.413   5.496   4.458
 4489SOL    HW214367   5.555   5.416   4.469
 4490SOL     OW14368   5.362   1.884   1.568
 4490SOL    HW114369   5.437   1.853   1.510
 4490SOL    HW214370   5.282   1.827   1.554
 4491SOL     OW14371   6.788   3.341   3.538
 4491SOL    HW114372   6.772   3.433   3.503
 4491SOL    HW214373   6.868   3.341   3.598
 4492SOL     OW14374   5.950   4.419   2.374
 4492SOL    HW114375   6.027   4.419   2.437
 4492SOL    HW214376   5.963   4.348   2.305
 4493SOL     OW14377   5.115   5.912   4.575
 4493SOL    HW114378   5.065   5.949   4.496
 4493SOL    HW214379   5.076   5.951   4.659
 4494SOL     OW14380   0.346   0.864   6.344
 4494SOL    HW114381   0.359   0.769   6.315
 4494SOL    HW214382   0.423   0.892   6.401
 4495SOL     OW14383   4.556   0.413   3.955
 4495SOL    HW114384   4.494   0.490   3.942
 4495SOL    HW214385   4.569   0.365   3.869
 4496SOL     OW14386   5.604   6.174   0.694
 4496SOL    HW114387   5.655   6.248   0.737
 4496SOL    HW214388   5.664   6.126   0.629
 4497SOL     OW14389   4.071   1.601   6.868
 4497SOL    HW114390   4.129   1.532   6.825
 4497SOL    HW214391   4.073   1.589   6.967
 4498SOL     OW14392   0.183   3.928   6.902
 4498SOL    HW114393   0.227   4.017   6.894
 4498SOL    HW214394   0.250   3.856   6.887
 4499SOL     OW14395   5.844   3.285   3.662
 4499SOL    HW114396   5.809   3.363   3.714
 4499SOL    HW214397   5.899   3.227   3.723
 4500SOL     OW14398   3.274   3.544   5.437
 4500SOL    HW114399   3.316   3.467   5.390
 4500SOL    HW214400   3.343   3.614   5.456
 4501SOL     OW14401   6.825   3.653   2.859
 4501SOL    HW114402   6.735   3.637   2.899
 4501SOL    HW214403   6.815   3.682   2.763
 4502SOL     OW14404   0.621   2.851   0.139
 4502SOL    HW114405   0.614   2.778   0.207
 4502SOL    HW214406   0.714   2.887   0.138
 4503SOL     OW14407   3.761   6.988   1.228
 4503SOL    HW114408   3.698   6.924   1.272
 4503SOL    HW214409   3.709   0.043   1.191
 4504SOL     OW14410   0.591   1.118   4.461
 4504SOL    HW114411   0.644   1.127   4.377
 4504SOL    HW214412   0.518   1.051   4.448
 4505SOL     OW14413   6.186   5.206   1.693
 4505SOL    HW114414   6.263   5.152   1.660
 4505SOL    HW214415   6.220   5.290   1.735
 4506SOL     OW14416   4.752   2.821   3.177
 4506SOL    HW114417   4.749   2.821   3.077
 4506SOL    HW214418   4.703   2.741   3.211
 4507SOL     OW14419   6.862   3.875   3.344
 4507SOL    HW114420   6.918   3.933   3.405
 4507SOL    HW214421   6.901   3.783   3.341
 4508SOL     OW14422   1.351   4.683   6.397
 4508SOL    HW114423   1.347   4.676   6.297
 4508SOL    HW214424   1.447   4.675   6.427
 4509SOL     OW14425   4.935   2.539   3.155
 4509SOL    HW114426   4.852   2.595   3.158
 4509SOL    HW214427   4.996   2.575   3.084
 4510SOL     OW14428   4.470   2.424   4.109
 4510SOL    HW114429   4.373   2.445   4.114
 4510SOL    HW214430   4.484   2.336   4.064
 4511SOL     OW14431   6.096   3.618   6.614
 4511SOL    HW114432   6.066   3.713   6.606
 4511SOL    HW214433   6.022   3.557   6.587
 4512SOL     OW14434   3.116   0.611   6.101
 4512SOL    HW114435   3.044   0.625   6.168
 4512SOL    HW214436   3.196   0.665   6.127
 4513SOL     OW14437   0.819   4.873   5.849
 4513SOL    HW114438   0.805   4.787   5.899
 4513SOL    HW214439   0.800   4.950   5.910
 4514SOL     OW14440   3.437   2.598   6.047
 4514SOL    HW114441   3.485   2.620   5.962
 4514SOL    HW214442   3.447   2.500   6.067
 4515SOL     OW14443   5.968   1.762   5.327
 4515SOL    HW114444   5.928   1.777   5.237
 4515SOL    HW214445   5.906   1.706   5.382
 4516SOL     OW14446   2.423   0.014   0.400
 4516SOL    HW114447   2.512   0.013   0.446
 4516SOL    HW214448   2.422   6.966   0.329
 4517SOL     OW14449   4.575   6.743   6.692
 4517SOL    HW114450   4.490   6.705   6.728
 4517SOL    HW214451   4.652   6.685   6.721
 4518SOL     OW14452   0.253   6.859   2.412
 4518SOL    HW114453   0.302   6.772   2.404
 4518SOL    HW214454   0.159   6.842   2.439
 4519SOL     OW14455   5.386   6.726   0.894
 4519SOL    HW114456   5.478   6.766   0.899
 4519SOL    HW214457   5.387   6.636   0.938
 4520SOL     OW14458   4.057   6.138   6.265
 4520SOL    HW114459   4.001   6.209   6.308
 4520SOL    HW214460   3.999   6.079   6.208
 4521SOL     OW14461   5.936   1.891   5.583
 4521SOL    HW114462   5.929   1.988   5.560
 4521SOL    HW214463   5.964   1.840   5.502
 4522SOL     OW14464   5.475   5.427   3.108
 4522SOL    HW114465   5.551   5.372   3.142
 4522SOL    HW214466   5.442   5.488   3.181
 4523SOL     OW14467   1.073   4.398   0.255
 4523SOL    HW114468   1.061   4.497   0.257
 4523SOL    HW214469   1.135   4.370   0.328
 4524SOL     OW14470   6.142   3.532   2.027
 4524SOL    HW114471   6.234   3.514   2.063
 4524SOL    HW214472   6.124   3.472   1.949
 4525SOL     OW14473   4.175   2.718   5.519
 4525SOL    HW114474   4.153   2.629   5.559
 4525SOL    HW214475   4.217   2.777   5.588
 4526SOL     OW14476   6.980   0.325   6.667
 4526SOL    HW114477   6.919   0.403   6.650
 4526SOL    HW214478   0.052   0.353   6.652
 4527SOL     OW14479   6.668   0.302   2.683
 4527SOL    HW114480   6.624   0.258   2.605
 4527SOL    HW214481   6.597   0.336   2.746
 4528SOL     OW14482   4.871   0.261   6.254
 4528SOL    HW114483   4.868   0.329   6.180
 4528SOL    HW214484   4.779   0.223   6.266
 4529SOL     OW14485   1.828   0.586   4.892
 4529SOL    HW114486   1.785   0.668   4.854
 4529SOL    HW214487   1.910   0.611   4.942
 4530SOL     OW14488   2.219   5.506   3.493
 4530SOL    HW114489   2.235   5.577   3.424
 4530SOL    HW214490   2.282   5.429   3.477
 4531SOL     OW14491   0.545   3.185   5.973
 4531SOL    HW114492   0.624   3.145   5.927
 4531SOL    HW214493   0.525   3.275   5.935
 4532SOL     OW14494   6.819   1.557   2.597
 4532SOL    HW114495   6.812   1.604   2.508
 4532SOL    HW214496   6.815   1.458   2.582
 4533SOL     OW14497   2.132   1.083   3.047
 4533SOL    HW114498   2.161   1.138   2.968
 4533SOL    HW214499   2.207   1.077   3.113
 4534SOL     OW14500   5.121   4.258   5.611
 4534SOL    HW114501   5.123   4.158   5.623
 4534SOL    HW214502   5.189   4.300   5.670
 4535SOL     OW14503   3.560   0.756   2.158
 4535SOL    HW114504   3.461   0.746   2.156
 4535SOL    HW214505   3.588   0.797   2.245
 4536SOL     OW14506   3.869   1.798   4.810
 4536SOL    HW114507   3.903   1.735   4.880
 4536SOL    HW214508   3.926   1.789   4.728
 4537SOL     OW14509   3.994   3.532   1.116
 4537SOL    HW114510   4.021   3.584   1.196
 4537SOL    HW214511   3.934   3.588   1.058
 4538SOL     OW14512   2.678   0.567   2.028
 4538SOL    HW114513   2.655   0.663   2.045
 4538SOL    HW214514   2.613   0.529   1.962
 4539SOL     OW14515   3.583   5.723   5.164
 4539SOL    HW114516   3.618   5.808   5.204
 4539SOL    HW214517   3.539   5.669   5.235
 4540SOL     OW14518   2.320   1.998   0.388
 4540SOL    HW114519   2.381   1.953   0.323
 4540SOL    HW214520   2.260   2.061   0.339
 4541SOL     OW14521   5.186   1.635   6.309
 4541SOL    HW114522   5.229   1.630   6.399
 4541SOL    HW214523   5.126   1.556   6.296
 4542SOL     OW14524   0.195   2.478   1.554
 4542SOL    HW114525   0.254   2.402   1.532
 4542SOL    HW214526   0.123   2.447   1.617
 4543SOL     OW14527   5.267   1.965   1.076
 4543SOL    HW114528   5.227   2.023   1.005
 4543SOL    HW214529   5.203   1.957   1.152
 4544SOL     OW14530   3.222   5.565   6.952
 4544SOL    HW114531   3.298   5.554   6.888
 4544SOL    HW214532   3.244   5.520   0.016
 4545SOL     OW14533   5.956   3.568   4.741
 4545SOL    HW114534   6.009   3.585   4.658
 4545SOL    HW214535   5.860   3.595   4.725
 4546SOL     OW14536   2.574   6.893   4.577
 4546SOL    HW114537   2.626   6.846   4.506
 4546SOL    HW214538   2.486   6.922   4.539
 4547SOL     OW14539   6.524   1.384   0.430
 4547SOL    HW114540   6.574   1.402   0.345
 4547SOL    HW214541   6.444   1.328   0.410
 4548SOL     OW14542   2.227   2.267   3.980
 4548SOL    HW114543   2.133   2.294   3.962
 4548SOL    HW214544   2.285   2.295   3.903
 4549SOL     OW14545   5.440   3.766   2.549
 4549SOL    HW114546   5.452   3.864   2.536
 4549SOL    HW214547   5.370   3.732   2.486
 4550SOL     OW14548   1.251   4.552   2.950
 4550SOL    HW114549   1.255   4.550   2.850
 4550SOL    HW214550   1.307   4.479   2.987
 4551SOL     OW14551   0.631   3.542   4.659
 4551SOL    HW114552   0.722   3.502   4.657
 4551SOL    HW214553   0.595   3.537   4.752
 4552SOL     OW14554   5.579   2.045   1.072
 4552SOL    HW114555   5.598   1.969   1.009
 4552SOL    HW214556   5.585   2.132   1.023
 4553SOL     OW14557   4.894   4.058   0.173
 4553SOL    HW114558   4.866   4.092   0.083
 4553SOL    HW214559   4.838   4.100   0.244
 4554SOL     OW14560   6.782   0.224   2.001
 4554SOL    HW114561   6.683   0.216   1.994
 4554SOL    HW214562   6.811   0.313   1.967
 4555SOL     OW14563   1.772   1.438   5.748
 4555SOL    HW114564   1.808   1.517   5.798
 4555SOL    HW214565   1.848   1.379   5.721
 4556SOL     OW14566   5.472   4.109   4.678
 4556SOL    HW114567   5.461   4.124   4.776
 4556SOL    HW214568   5.566   4.081   4.658
 4557SOL     OW14569   4.635   5.493   4.257
 4557SOL    HW114570   4.604   5.474   4.164
 4557SOL    HW214571   4.703   5.425   4.285
 4558SOL     OW14572   0.282   4.141   4.886
 4558SOL    HW114573   0.362   4.113   4.833
 4558SOL    HW214574   0.213   4.068   4.884
 4559SOL     OW14575   6.897   3.436   2.586
 4559SOL    HW114576   6.910   3.510   2.520
 4559SOL    HW214577   6.978   3.429   2.644
 4560SOL     OW14578   5.721   3.471   1.079
 4560SOL    HW114579   5.776   3.533   1.135
 4560SOL    HW214580   5.780   3.405   1.033
 4561SOL     OW14581   3.493   2.058   3.478
 4561SOL    HW114582   3.473   2.115   3.398
 4561SOL    HW214583   3.426   1.984   3.483
 4562SOL     OW14584   1.551   6.910   0.526
 4562SOL    HW114585   1.455   6.925   0.504
 4562SOL    HW214586   1.559   6.840   0.596
 4563SOL     OW14587   7.008   2.897   1.629
 4563SOL    HW114588   0.054   2.838   1.672
 4563SOL    HW214589   0.001   2.897   1.530
 4564SOL     OW14590   6.963   6.114   1.914
 4564SOL    HW114591   6.873   6.156   1.926
 4564SOL    HW214592   0.011   6.177   1.945
 4565SOL     OW14593   1.515   0.578   4.434
 4565SOL    HW114594   1.556   0.533   4.355
 4565SOL    HW214595   1.418   0.596   4.415
 4566SOL     OW14596   0.154   3.237   1.214
 4566SOL    HW114597   0.118   3.304   1.279
 4566SOL    HW214598   0.080   3.180   1.180
 4567SOL     OW14599   6.749   1.474   6.637
 4567SOL    HW114600   6.818   1.525   6.585
 4567SOL    HW214601   6.719   1.529   6.715
 4568SOL     OW14602   1.977   3.757   5.827
 4568SOL    HW114603   1.975   3.699   5.746
 4568SOL    HW214604   2.060   3.813   5.825
 4569SOL     OW14605   2.366   0.238   3.329
 4569SOL    HW114606   2.313   0.264   3.409
 4569SOL    HW214607   2.460   0.218   3.356
 4570SOL     OW14608   6.424   6.525   2.458
 4570SOL    HW114609   6.324   6.536   2.462
 4570SOL    HW214610   6.462   6.588   2.391
 4571SOL     OW14611   4.822   3.545   6.142
 4571SOL    HW114612   4.740   3.530   6.198
 4571SOL    HW214613   4.802   3.612   6.071
 4572SOL     OW14614   2.199   1.197   6.417
 4572SOL    HW114615   2.283   1.167   6.371
 4572SOL    HW214616   2.188   1.148   6.503
 4573SOL     OW14617   6.934   7.003   0.586
 4573SOL    HW114618   6.862   0.045   0.611
 4573SOL    HW214619   7.014   0.031   0.553
 4574SOL     OW14620   5.945   3.982   0.154
 4574SOL    HW114621   5.980   4.024   0.238
 4574SOL    HW214622   5.946   3.883   0.163
 4575SOL     OW14623   5.419   0.422   5.174
 4575SOL    HW114624   5.326   0.456   5.189
 4575SOL    HW214625   5.428   0.387   5.081
 4576SOL     OW14626   3.701   5.428   5.502
 4576SOL    HW114627   3.618   5.375   5.489
 4576SOL    HW214628   3.779   5.379   5.463
 4577SOL     OW14629   0.892   2.630   4.509
 4577SOL    HW114630   0.953   2.551   4.521
 4577SOL    HW214631   0.909   2.696   4.582
 4578SOL     OW14632   1.054   2.108   5.393
 4578SOL    HW114633   1.072   2.108   5.492
 4578SOL    HW214634   0.972   2.161   5.374
 4579SOL     OW14635   4.445   0.513   3.174
 4579SOL    HW114636   4.375   0.546   3.110
 4579SOL    HW214637   4.418   0.535   3.268
 4580SOL     OW14638   5.550   3.513   0.303
 4580SOL    HW114639   5.588   3.482   0.216
 4580SOL    HW214640   5.509   3.436   0.351
 4581SOL     OW14641   2.340   5.946   2.742
 4581SOL    HW114642   2.373   5.927   2.649
 4581SOL    HW214643   2.398   6.017   2.783
 4582SOL     OW14644   4.626   0.693   4.264
 4582SOL    HW114645   4.685   0.742   4.329
 4582SOL    HW214646   4.570   0.759   4.214
 4583SOL     OW14647   3.126   1.714   6.891
 4583SOL    HW114648   3.031   1.724   6.860
 4583SOL    HW214649   3.188   1.723   6.812
 4584SOL     OW14650   1.759   5.094   5.291
 4584SOL    HW114651   1.669   5.087   5.335
 4584SOL    HW214652   1.762   5.030   5.214
 4585SOL     OW14653   1.672   5.307   3.077
 4585SOL    HW114654   1.595   5.280   3.134
 4585SOL    HW214655   1.717   5.225   3.041
 4586SOL     OW14656   3.866   4.227   0.873
 4586SOL    HW114657   3.904   4.184   0.954
 4586SOL    HW214658   3.767   4.213   0.871
 4587SOL     OW14659   3.140   3.984   3.176
 4587SOL    HW114660   3.120   4.001   3.080
 4587SOL    HW214661   3.083   3.909   3.209
 4588SOL     OW14662   3.048   2.791   5.997
 4588SOL    HW114663   3.030   2.882   5.959
 4588SOL    HW214664   2.964   2.755   6.039
 4589SOL     OW14665   5.864   0.728   2.166
 4589SOL    HW114666   5.908   0.683   2.243
 4589SOL    HW214667   5.780   0.773   2.196
 4590SOL     OW14668   4.405   5.389   1.440
 4590SOL    HW114669   4.409   5.344   1.351
 4590SOL    HW214670   4.375   5.324   1.509
 4591SOL     OW14671   1.261   0.389   4.857
 4591SOL    HW114672   1.265   0.465   4.921
 4591SOL    HW214673   1.342   0.392   4.797
 4592SOL     OW14674   2.953   1.517   3.189
 4592SOL    HW114675   2.880   1.532   3.122
 4592SOL    HW214676   2.969   1.418   3.198
 4593SOL     OW14677   5.832   6.373   2.006
 4593SOL    HW114678   5.873   6.403   1.920
 4593SOL    HW214679   5.882   6.294   2.042
 4594SOL     OW14680   2.858   0.707   3.174
 4594SOL    HW114681   2.933   0.685   3.111
 4594SOL    HW214682   2.895   0.718   3.267
 4595SOL     OW14683   4.860   3.043   5.714
 4595SOL    HW114684   4.766   3.023   5.741
 4595SOL    HW214685   4.915   3.066   5.795
 4596SOL     OW14686   6.492   0.418   2.897
 4596SOL    HW114687   6.422   0.444   2.831
 4596SOL    HW214688   6.455   0.426   2.990
 4597SOL     OW14689   2.703   5.578   6.769
 4597SOL    HW114690   2.679   5.663   6.721
 4597SOL    HW214691   2.785   5.592   6.823
 4598SOL     OW14692   1.393   5.687   1.162
 4598SOL    HW114693   1.305   5.670   1.207
 4598SOL    HW214694   1.466   5.685   1.230
 4599SOL     OW14695   1.184   5.317   1.188
 4599SOL    HW114696   1.214   5.241   1.131
 4599SOL    HW214697   1.167   5.397   1.130
 4600SOL     OW14698   0.375   6.161   5.651
 4600SOL    HW114699   0.277   6.148   5.636
 4600SOL    HW214700   0.390   6.201   5.742
 4601SOL     OW14701   1.229   1.709   5.103
 4601SOL    HW114702   1.278   1.778   5.156
 4601SOL    HW214703   1.242   1.726   5.006
 4602SOL     OW14704   3.343   6.480   0.496
 4602SOL    HW114705   3.326   6.426   0.579
 4602SOL    HW214706   3.277   6.456   0.426
 4603SOL     OW14707   3.784   6.132   1.024
 4603SOL    HW114708   3.802   6.208   0.961
 4603SOL    HW214709   3.723   6.163   1.097
 4604SOL     OW14710   4.591   6.582   0.059
 4604SOL    HW114711   4.657   6.613   0.127
 4604SOL    HW214712   4.522   6.525   0.104
 4605SOL     OW14713   1.357   6.352   2.065
 4605SOL    HW114714   1.363   6.319   2.159
 4605SOL    HW214715   1.261   6.361   2.039
 4606SOL     OW14716   0.835   6.537   2.535
 4606SOL    HW114717   0.918   6.552   2.481
 4606SOL    HW214718   0.824   6.440   2.554
 4607SOL     OW14719   2.095   3.361   3.252
 4607SOL    HW114720   2.085   3.285   3.316
 4607SOL    HW214721   2.134   3.440   3.299
 4608SOL     OW14722   0.210   5.001   3.786
 4608SOL    HW114723   0.193   5.100   3.786
 4608SOL    HW214724   0.139   4.955   3.840
 4609SOL     OW14725   5.198   5.037   6.801
 4609SOL    HW114726   5.278   5.055   6.744
 4609SOL    HW214727   5.135   5.114   6.796
 4610SOL     OW14728   4.827   1.565   0.524
 4610SOL    HW114729   4.828   1.485   0.464
 4610SOL    HW214730   4.748   1.560   0.585
 4611SOL     OW14731   1.066   6.850   5.925
 4611SOL    HW114732   1.036   6.942   5.900
 4611SOL    HW214733   1.123   6.855   6.007
 4612SOL     OW14734   2.204   6.705   0.947
 4612SOL    HW114735   2.211   6.799   0.913
 4612SOL    HW214736   2.118   6.665   0.915
 4613SOL     OW14737   1.715   5.726   2.042
 4613SOL    HW114738   1.627   5.772   2.050
 4613SOL    HW214739   1.787   5.787   2.074
 4614SOL     OW14740   5.671   3.154   3.505
 4614SOL    HW114741   5.732   3.213   3.559
 4614SOL    HW214742   5.583   3.199   3.493
 4615SOL     OW14743   0.772   1.581   0.519
 4615SOL    HW114744   0.720   1.559   0.436
 4615SOL    HW214745   0.811   1.497   0.556
 4616SOL     OW14746   6.162   1.316   4.527
 4616SOL    HW114747   6.190   1.234   4.476
 4616SOL    HW214748   6.093   1.366   4.475
 4617SOL     OW14749   1.185   1.663   3.017
 4617SOL    HW114750   1.170   1.687   3.113
 4617SOL    HW214751   1.254   1.724   2.978
 4618SOL     OW14752   2.479   3.214   5.450
 4618SOL    HW114753   2.460   3.310   5.427
 4618SOL    HW214754   2.490   3.161   5.366
 4619SOL     OW14755   2.761   5.991   3.465
 4619SOL    HW114756   2.852   6.033   3.466
 4619SOL    HW214757   2.739   5.957   3.556
 4620SOL     OW14758   0.832   5.208   0.983
 4620SOL    HW114759   0.783   5.226   0.897
 4620SOL    HW214760   0.767   5.182   1.054
 4621SOL     OW14761   4.900   1.022   2.268
 4621SOL    HW114762   4.856   1.109   2.292
 4621SOL    HW214763   4.839   0.946   2.290
 4622SOL     OW14764   3.975   4.680   0.660
 4622SOL    HW114765   3.914   4.752   0.693
 4622SOL    HW214766   4.026   4.643   0.738
 4623SOL     OW14767   5.047   5.821   1.681
 4623SOL    HW114768   4.983   5.748   1.657
 4623SOL    HW214769   5.101   5.845   1.600
 4624SOL     OW14770   3.466   0.157   2.868
 4624SOL    HW114771   3.557   0.116   2.857
 4624SOL    HW214772   3.450   0.177   2.965
 4625SOL     OW14773   1.705   5.139   1.973
 4625SOL    HW114774   1.702   5.057   1.917
 4625SOL    HW214775   1.636   5.133   2.046
 4626SOL     OW14776   4.625   3.903   1.693
 4626SOL    HW114777   4.572   3.987   1.708
 4626SOL    HW214778   4.686   3.887   1.770
 4627SOL     OW14779   1.756   4.657   5.002
 4627SOL    HW114780   1.820   4.681   4.929
 4627SOL    HW214781   1.757   4.729   5.072
 4628SOL     OW14782   4.560   4.461   4.800
 4628SOL    HW114783   4.586   4.546   4.755
 4628SOL    HW214784   4.491   4.480   4.870
 4629SOL     OW14785   2.475   5.469   5.666
 4629SOL    HW114786   2.428   5.558   5.670
 4629SOL    HW214787   2.457   5.418   5.750
 4630SOL     OW14788   2.326   5.572   2.326
 4630SOL    HW114789   2.301   5.592   2.232
 4630SOL    HW214790   2.253   5.518   2.369
 4631SOL     OW14791   1.081   6.364   3.346
 4631SOL    HW114792   1.084   6.446   3.288
 4631SOL    HW214793   1.170   6.318   3.342
 4632SOL     OW14794   2.376   4.353   2.247
 4632SOL    HW114795   2.447   4.358   2.177
 4632SOL    HW214796   2.289   4.385   2.210
 4633SOL     OW14797   5.764   0.867   4.387
 4633SOL    HW114798   5.859   0.838   4.397
 4633SOL    HW214799   5.708   0.790   4.356
 4634SOL     OW14800   2.692   3.993   5.256
 4634SOL    HW114801   2.754   3.939   5.199
 4634SOL    HW214802   2.603   3.999   5.211
 4635SOL     OW14803   4.487   4.427   1.673
 4635SOL    HW114804   4.529   4.384   1.753
 4635SOL    HW214805   4.388   4.414   1.675
 4636SOL     OW14806   2.074   4.143   0.531
 4636SOL    HW114807   2.090   4.065   0.592
 4636SOL    HW214808   2.155   4.157   0.473
 4637SOL     OW14809   0.863   6.735   1.055
 4637SOL    HW114810   0.862   6.635   1.065
 4637SOL    HW214811   0.897   6.777   1.139
 4638SOL     OW14812   4.134   5.647   0.160
 4638SOL    HW114813   4.212   5.692   0.116
 4638SOL    HW214814   4.053   5.656   0.102
 4639SOL     OW14815   3.312   2.654   6.285
 4639SOL    HW114816   3.324   2.627   6.190
 4639SOL    HW214817   3.358   2.742   6.301
 4640SOL     OW14818   5.256   3.953   4.569
 4640SOL    HW114819   5.332   4.012   4.595
 4640SOL    HW214820   5.287   3.888   4.499
 4641SOL     OW14821   2.492   0.374   4.323
 4641SOL    HW114822   2.560   0.301   4.334
 4641SOL    HW214823   2.538   0.462   4.312
 4642SOL     OW14824   1.435   7.018   2.864
 4642SOL    HW114825   1.337   0.000   2.880
 4642SOL    HW214826   1.470   6.930   2.896
 4643SOL     OW14827   6.672   1.439   0.226
 4643SOL    HW114828   6.642   1.406   0.136
 4643SOL    HW214829   6.693   1.537   0.220
 4644SOL     OW14830   0.583   0.491   5.429
 4644SOL    HW114831   0.586   0.481   5.330
 4644SOL    HW214832   0.525   0.420   5.468
 4645SOL     OW14833   1.693   0.735   4.604
 4645SOL    HW114834   1.627   0.757   4.675
 4645SOL    HW214835   1.645   0.708   4.521
 4646SOL     OW14836   2.452   5.766   3.688
 4646SOL    HW114837   2.381   5.730   3.748
 4646SOL    HW214838   2.424   5.753   3.593
 4647SOL     OW14839   1.634   0.883   2.727
 4647SOL    HW114840   1.618   0.788   2.700
 4647SOL    HW214841   1.575   0.906   2.805
 4648SOL     OW14842   3.829   0.967   3.430
 4648SOL    HW114843   3.885   1.043   3.398
 4648SOL    HW214844   3.766   0.999   3.501
 4649SOL     OW14845   5.855   0.784   0.896
 4649SOL    HW114846   5.819   0.842   0.969
 4649SOL    HW214847   5.950   0.759   0.918
 4650SOL     OW14848   4.701   5.602   2.115
 4650SOL    HW114849   4.607   5.611   2.147
 4650SOL    HW214850   4.733   5.691   2.081
 4651SOL     OW14851   6.889   3.547   6.294
 4651SOL    HW114852   6.853   3.625   6.243
 4651SOL    HW214853   6.960   3.501   6.241
 4652SOL     OW14854   6.727   5.911   4.641
 4652SOL    HW114855   6.689   5.820   4.624
 4652SOL    HW214856   6.825   5.904   4.657
 4653SOL     OW14857   5.347   6.237   1.183
 4653SOL    HW114858   5.443   6.258   1.167
 4653SOL    HW214859   5.339   6.180   1.265
 4654SOL     OW14860   0.591   5.974   6.141
 4654SOL    HW114861   0.537   5.962   6.224
 4654SOL    HW214862   0.676   5.921   6.149
 4655SOL     OW14863   6.178   3.504   1.233
 4655SOL    HW114864   6.218   3.418   1.267
 4655SOL    HW214865   6.117   3.485   1.157
 4656SOL     OW14866   1.228   1.364   1.563
 4656SOL    HW114867   1.291   1.304   1.514
 4656SOL    HW214868   1.260   1.376   1.657
 4657SOL     OW14869   4.657   5.885   1.717
 4657SOL    HW114870   4.712   5.884   1.633
 4657SOL    HW214871   4.613   5.974   1.727
 4658SOL     OW14872   2.842   0.625   4.410
 4658SOL    HW114873   2.935   0.661   4.403
 4658SOL    HW214874   2.845   0.525   4.416
 4659SOL     OW14875   2.536   4.184   6.372
 4659SOL    HW114876   2.562   4.168   6.277
 4659SOL    HW214877   2.609   4.151   6.432
 4660SOL     OW14878   1.083   6.121   4.625
 4660SOL    HW114879   1.142   6.138   4.546
 4660SOL    HW214880   1.140   6.107   4.706
 4661SOL     OW14881   2.974   4.758   6.250
 4661SOL    HW114882   3.072   4.742   6.241
 4661SOL    HW214883   2.938   4.800   6.166
 4662SOL     OW14884   2.780   0.546   5.781
 4662SOL    HW114885   2.778   0.612   5.856
 4662SOL    HW214886   2.782   0.453   5.819
 4663SOL     OW14887   0.218   0.801   1.404
 4663SOL    HW114888   0.198   0.742   1.326
 4663SOL    HW214889   0.267   0.748   1.474
 4664SOL     OW14890   1.198   0.661   0.331
 4664SOL    HW114891   1.192   0.745   0.385
 4664SOL    HW214892   1.215   0.583   0.391
 4665SOL     OW14893   3.054   6.794   6.239
 4665SOL    HW114894   3.152   6.813   6.232
 4665SOL    HW214895   3.034   6.756   6.329
 4666SOL     OW14896   2.195   2.751   0.240
 4666SOL    HW114897   2.098   2.729   0.250
 4666SOL    HW214898   2.211   2.787   0.148
 4667SOL     OW14899   6.416   3.780   1.565
 4667SOL    HW114900   6.329   3.797   1.611
 4667SOL    HW214901   6.490   3.824   1.616
 4668SOL     OW14902   4.630   1.314   4.259
 4668SOL    HW114903   4.545   1.269   4.285
 4668SOL    HW214904   4.624   1.412   4.280
 4669SOL     OW14905   5.017   5.954   6.673
 4669SOL    HW114906   4.936   5.900   6.652
 4669SOL    HW214907   5.020   5.973   6.772
 4670SOL     OW14908   1.146   2.426   6.338
 4670SOL    HW114909   1.241   2.454   6.323
 4670SOL    HW214910   1.127   2.425   6.437
 4671SOL     OW14911   0.444   3.167   6.708
 4671SOL    HW114912   0.432   3.250   6.653
 4671SOL    HW214913   0.413   3.184   6.802
 4672SOL     OW14914   2.915   4.757   6.540
 4672SOL    HW114915   2.917   4.762   6.440
 4672SOL    HW214916   2.980   4.688   6.571
 4673SOL     OW14917   4.857   0.279   1.309
 4673SOL    HW114918   4.794   0.355   1.323
 4673SOL    HW214919   4.936   0.310   1.255
 4674SOL     OW14920   5.569   1.249   6.919
 4674SOL    HW114921   5.562   1.239   6.820
 4674SOL    HW214922   5.665   1.243   6.947
 4675SOL     OW14923   3.558   0.807   0.494
 4675SOL    HW114924   3.495   0.783   0.420
 4675SOL    HW214925   3.506   0.844   0.572
 4676SOL     OW14926   0.090   6.382   4.332
 4676SOL    HW114927   0.094   6.373   4.232
 4676SOL    HW214928   0.001   6.419   4.359
 4677SOL     OW14929   2.888   1.052   0.620
 4677SOL    HW114930   2.906   0.994   0.541
 4677SOL    HW214931   2.971   1.058   0.675
 4678SOL     OW14932   1.505   4.384   2.498
 4678SOL    HW114933   1.541   4.352   2.585
 4678SOL    HW214934   1.559   4.461   2.466
 4679SOL     OW14935   3.386   1.143   0.141
 4679SOL    HW114936   3.335   1.170   0.222
 4679SOL    HW214937   3.484   1.147   0.160
 4680SOL     OW14938   1.780   0.408   1.978
 4680SOL    HW114939   1.782   0.355   2.062
 4680SOL    HW214940   1.697   0.387   1.926
 4681SOL     OW14941   6.108   5.094   5.572
 4681SOL    HW114942   6.135   5.080   5.667
 4681SOL    HW214943   6.128   5.188   5.545
 4682SOL     OW14944   4.199   4.244   0.065
 4682SOL    HW114945   4.196   4.311   0.140
 4682SOL    HW214946   4.176   4.154   0.101
 4683SOL     OW14947   4.601   4.734   2.492
 4683SOL    HW114948   4.619   4.831   2.506
 4683SOL    HW214949   4.686   4.688   2.466
 4684SOL     OW14950   6.949   1.569   4.401
 4684SOL    HW114951   0.012   1.517   4.396
 4684SOL    HW214952   6.874   1.513   4.367
 4685SOL     OW14953   0.340   6.507   5.283
 4685SOL    HW114954   0.344   6.417   5.325
 4685SOL    HW214955   0.298   6.572   5.346
 4686SOL     OW14956   5.354   5.498   0.239
 4686SOL    HW114957   5.425   5.428   0.236
 4686SOL    HW214958   5.388   5.578   0.288
 4687SOL     OW14959   0.230   5.015   5.268
 4687SOL    HW114960   0.286   4.981   5.193
 4687SOL    HW214961   0.238   4.954   5.347
 4688SOL     OW14962   6.896   3.467   5.665
 4688SOL    HW114963   6.978   3.517   5.693
 4688SOL    HW214964   6.906   3.370   5.689
 4689SOL     OW14965   5.914   0.557   6.950
 4689SOL    HW114966   5.964   0.628   7.000
 4689SOL    HW214967   5.861   0.502   7.015
 4690SOL     OW14968   1.485   0.919   0.009
 4690SOL    HW114969   1.472   1.005   6.982
 4690SOL    HW214970   1.400   0.894   0.055
 4691SOL     OW14971   3.110   4.729   1.839
 4691SOL    HW114972   3.032   4.682   1.880
 4691SOL    HW214973   3.173   4.758   1.911
 4692SOL     OW14974   6.705   6.012   2.579
 4692SOL    HW114975   6.684   6.104   2.544
 4692SOL    HW214976   6.619   5.965   2.601
 4693SOL     OW14977   0.487   0.682   3.731
 4693SOL    HW114978   0.524   0.619   3.798
 4693SOL    HW214979   0.392   0.657   3.710
 4694SOL     OW14980   3.099   0.270   0.364
 4694SOL    HW114981   2.999   0.269   0.364
 4694SOL    HW214982   3.132   0.341   0.426
 4695SOL     OW14983   2.419   3.359   1.609
 4695SOL    HW114984   2.408   3.376   1.707
 4695SOL    HW214985   2.466   3.272   1.595
 4696SOL     OW14986   0.433   4.434   5.435
 4696SOL    HW114987   0.425   4.356   5.497
 4696SOL    HW214988   0.529   4.446   5.410
 4697SOL     OW14989   1.805   2.868   1.061
 4697SOL    HW114990   1.764   2.902   0.976
 4697SOL    HW214991   1.804   2.768   1.061
 4698SOL     OW14992   3.708   5.571   2.989
 4698SOL    HW114993   3.725   5.510   3.067
 4698SOL    HW214994   3.748   5.661   3.007
 4699SOL     OW14995   1.146   6.352   2.373
 4699SOL    HW114996   1.233   6.304   2.361
 4699SOL    HW214997   1.071   6.291   2.349
 4700SOL     OW14998   6.276   1.330   2.647
 4700SOL    HW114999   6.359   1.360   2.600
 4700SOL    HW215000   6.210   1.406   2.650
 4701SOL     OW15001   1.853   1.819   1.180
 4701SOL    HW115002   1.867   1.855   1.272
 4701SOL    HW215003   1.858   1.719   1.181
 4702SOL     OW15004   5.961   4.710   6.533
 4702SOL    HW115005   6.020   4.729   6.454
 4702SOL    HW215006   5.934   4.797   6.575
 4703SOL     OW15007   1.569   2.539   1.771
 4703SOL    HW115008   1.629   2.608   1.728
 4703SOL    HW215009   1.585   2.450   1.728
 4704SOL     OW15010   1.104   6.610   6.863
 4704SOL    HW115011   1.008   6.592   6.886
 4704SOL    HW215012   1.162   6.540   6.905
 4705SOL     OW15013   3.509   3.422   2.904
 4705SOL    HW115014   3.596   3.374   2.898
 4705SOL    HW215015   3.520   3.515   2.869
 4706SOL     OW15016   3.492   6.275   6.209
 4706SOL    HW115017   3.537   6.241   6.291
 4706SOL    HW215018   3.422   6.342   6.234
 4707SOL     OW15019   2.273   5.507   0.744
 4707SOL    HW115020   2.253   5.514   0.646
 4707SOL    HW215021   2.294   5.412   0.767
 4708SOL     OW15022   1.640   2.277   6.737
 4708SOL    HW115023   1.716   2.264   6.802
 4708SOL    HW215024   1.576   2.344   6.775
 4709SOL     OW15025   3.765   5.439   5.105
 4709SOL    HW115026   3.807   5.524   5.137
 4709SOL    HW215027   3.711   5.457   5.023
 4710SOL     OW15028   3.539   1.363   5.988
 4710SOL    HW115029   3.497   1.278   6.019
 4710SOL    HW215030   3.553   1.424   6.066
 4711SOL     OW15031   5.319   0.547   2.025
 4711SOL    HW115032   5.383   0.575   1.954
 4711SOL    HW215033   5.267   0.468   1.993
 4712SOL     OW15034   3.086   4.509   0.661
 4712SOL    HW115035   3.084   4.472   0.568
 4712SOL    HW215036   3.180   4.512   0.695
 4713SOL     OW15037   3.254   4.026   1.165
 4713SOL    HW115038   3.220   3.934   1.185
 4713SOL    HW215039   3.294   4.066   1.247
 4714SOL     OW15040   1.898   2.174   0.202
 4714SOL    HW115041   1.812   2.195   0.154
 4714SOL    HW215042   1.878   2.151   0.297
 4715SOL     OW15043   6.521   3.525   1.665
 4715SOL    HW115044   6.472   3.599   1.619
 4715SOL    HW215045   6.484   3.437   1.636
 4716SOL     OW15046   4.220   6.179   6.494
 4716SOL    HW115047   4.201   6.108   6.562
 4716SOL    HW215048   4.146   6.181   6.426
 4717SOL     OW15049   7.021   6.330   3.560
 4717SOL    HW115050   6.973   6.411   3.526
 4717SOL    HW215051   6.990   6.310   3.653
 4718SOL     OW15052   5.881   2.097   6.570
 4718SOL    HW115053   5.907   2.034   6.643
 4718SOL    HW215054   5.785   2.083   6.546
 4719SOL     OW15055   5.220   3.396   2.599
 4719SOL    HW115056   5.246   3.354   2.686
 4719SOL    HW215057   5.233   3.331   2.525
 4720SOL     OW15058   1.954   6.186   5.657
 4720SOL    HW115059   1.896   6.107   5.678
 4720SOL    HW215060   1.943   6.255   5.728
 4721SOL     OW15061   0.052   2.574   1.288
 4721SOL    HW115062   0.103   2.525   1.217
 4721SOL    HW215063   0.024   2.509   1.359
 4722SOL     OW15064   1.259   5.669   6.789
 4722SOL    HW115065   1.240   5.678   6.887
 4722SOL    HW215066   1.188   5.716   6.737
 4723SOL     OW15067   2.268   4.863   6.290
 4723SOL    HW115068   2.313   4.879   6.202
 4723SOL    HW215069   2.304   4.927   6.358
 4724SOL     OW15070   5.185   5.853   3.194
 4724SOL    HW115071   5.087   5.858   3.211
 4724SOL    HW215072   5.202   5.807   3.107
 4725SOL     OW15073   6.455   6.726   2.229
 4725SOL    HW115074   6.450   6.638   2.183
 4725SOL    HW215075   6.366   6.770   2.227
 4726SOL     OW15076   1.931   3.210   6.514
 4726SOL    HW115077   1.936   3.112   6.494
 4726SOL    HW215078   1.835   3.239   6.514
 4727SOL     OW15079   0.071   6.523   6.574
 4727SOL    HW115080   0.136   6.590   6.538
 4727SOL    HW215081   7.000   6.551   6.550
 4728SOL     OW15082   5.162   0.650   0.382
 4728SOL    HW115083   5.141   0.583   0.311
 4728SOL    HW215084   5.261   0.658   0.392
 4729SOL     OW15085   2.485   1.387   1.862
 4729SOL    HW115086   2.438   1.377   1.774
 4729SOL    HW215087   2.501   1.296   1.902
 4730SOL     OW15088   2.671   5.697   5.225
 4730SOL    HW115089   2.631   5.778   5.180
 4730SOL    HW215090   2.653   5.702   5.323
 4731SOL     OW15091   4.359   6.914   6.089
 4731SOL    HW115092   4.344   6.894   6.186
 4731SOL    HW215093   4.425   6.849   6.052
 4732SOL     OW15094   0.093   4.026   5.723
 4732SOL    HW115095   0.074   4.050   5.627
 4732SOL    HW215096   0.162   4.089   5.760
 4733SOL     OW15097   1.307   4.072   3.379
 4733SOL    HW115098   1.390   4.037   3.336
 4733SOL    HW215099   1.283   4.014   3.457
 4734SOL     OW15100   5.073   3.130   6.568
 4734SOL    HW115101   5.030   3.122   6.658
 4734SOL    HW215102   5.026   3.071   6.503
 4735SOL     OW15103   0.684   5.584   4.214
 4735SOL    HW115104   0.596   5.632   4.217
 4735SOL    HW215105   0.724   5.584   4.306
 4736SOL     OW15106   0.408   1.724   6.249
 4736SOL    HW115107   0.469   1.646   6.238
 4736SOL    HW215108   0.439   1.781   6.325
 4737SOL     OW15109   1.028   5.133   2.398
 4737SOL    HW115110   0.951   5.160   2.456
 4737SOL    HW215111   1.010   5.043   2.360
 4738SOL     OW15112   6.941   5.742   2.954
 4738SOL    HW115113   0.013   5.768   2.976
 4738SOL    HW215114   6.916   5.780   2.864
 4739SOL     OW15115   4.712   6.663   3.332
 4739SOL    HW115116   4.657   6.616   3.263
 4739SOL    HW215117   4.679   6.638   3.423
 4740SOL     OW15118   0.155   1.428   1.020
 4740SOL    HW115119   0.227   1.462   1.081
 4740SOL    HW215120   0.145   1.330   1.032
 4741SOL     OW15121   3.342   2.865   1.222
 4741SOL    HW115122   3.317   2.849   1.318
 4741SOL    HW215123   3.303   2.792   1.165
 4742SOL     OW15124   2.240   6.551   5.149
 4742SOL    HW115125   2.157   6.512   5.109
 4742SOL    HW215126   2.215   6.618   5.219
 4743SOL     OW15127   2.187   4.124   2.696
 4743SOL    HW115128   2.123   4.047   2.706
 4743SOL    HW215129   2.222   4.126   2.602
 4744SOL     OW15130   1.683   5.103   0.786
 4744SOL    HW115131   1.766   5.153   0.765
 4744SOL    HW215132   1.623   5.159   0.843
 4745SOL     OW15133   2.735   4.111   6.548
 4745SOL    HW115134   2.781   4.184   6.598
 4745SOL    HW215135   2.793   4.030   6.546
 4746SOL     OW15136   4.618   6.698   3.819
 4746SOL    HW115137   4.555   6.676   3.893
 4746SOL    HW215138   4.711   6.669   3.844
 4747SOL     OW15139   0.864   3.877   0.669
 4747SOL    HW115140   0.900   3.818   0.597
 4747SOL    HW215141   0.924   3.957   0.679
 4748SOL     OW15142   1.757   5.959   1.447
 4748SOL    HW115143   1.720   5.867   1.437
 4748SOL    HW215144   1.683   6.024   1.464
 4749SOL     OW15145   1.689   6.563   6.514
 4749SOL    HW115146   1.665   6.656   6.540
 4749SOL    HW215147   1.606   6.509   6.501
 4750SOL     OW15148   6.880   3.333   5.321
 4750SOL    HW115149   6.915   3.283   5.243
 4750SOL    HW215150   6.943   3.407   5.345
 4751SOL     OW15151   4.624   2.615   2.966
 4751SOL    HW115152   4.679   2.688   2.925
 4751SOL    HW215153   4.585   2.558   2.894
 4752SOL     OW15154   4.313   0.923   0.089
 4752SOL    HW115155   4.334   0.978   0.170
 4752SOL    HW215156   4.381   0.940   0.018
 4753SOL     OW15157   0.517   0.133   4.029
 4753SOL    HW115158   0.525   0.184   4.114
 4753SOL    HW215159   0.463   0.186   3.963
 4754SOL     OW15160   5.122   4.039   4.822
 4754SOL    HW115161   5.136   4.011   4.917
 4754SOL    HW215162   5.178   4.120   4.803
 4755SOL     OW15163   3.141   0.936   0.756
 4755SOL    HW115164   3.163   0.874   0.831
 4755SOL    HW215165   3.193   1.021   0.766
 4756SOL     OW15166   5.578   3.831   5.599
 4756SOL    HW115167   5.521   3.770   5.545
 4756SOL    HW215168   5.669   3.791   5.610
 4757SOL     OW15169   2.343   1.855   1.480
 4757SOL    HW115170   2.264   1.917   1.478
 4757SOL    HW215171   2.316   1.769   1.522
 4758SOL     OW15172   1.422   6.510   3.054
 4758SOL    HW115173   1.504   6.456   3.033
 4758SOL    HW215174   1.433   6.602   3.018
 4759SOL     OW15175   0.782   4.620   6.351
 4759SOL    HW115176   0.850   4.683   6.313
 4759SOL    HW215177   0.802   4.603   6.447
 4760SOL     OW15178   2.583   1.744   0.418
 4760SOL    HW115179   2.678   1.712   0.415
 4760SOL    HW215180   2.552   1.744   0.513
 4761SOL     OW15181   1.436   0.323   0.701
 4761SOL    HW115182   1.476   0.407   0.737
 4761SOL    HW215183   1.371   0.286   0.768
 4762SOL     OW15184   1.475   6.125   2.604
 4762SOL    HW115185   1.518   6.068   2.534
 4762SOL    HW215186   1.464   6.218   2.568
 4763SOL     OW15187   5.309   0.585   2.632
 4763SOL    HW115188   5.251   0.586   2.714
 4763SOL    HW215189   5.254   0.559   2.553
 4764SOL     OW15190   4.499   3.563   5.337
 4764SOL    HW115191   4.570   3.533   5.273
 4764SOL    HW215192   4.450   3.641   5.298
 4765SOL     OW15193   3.673   0.837   5.659
 4765SOL    HW115194   3.662   0.902   5.584
 4765SOL    HW215195   3.631   0.875   5.742
 4766SOL     OW15196   6.115   6.055   4.256
 4766SOL    HW115197   6.117   6.146   4.215
 4766SOL    HW215198   6.021   6.022   4.259
 4767SOL     OW15199   3.378   4.884   5.319
 4767SOL    HW115200   3.340   4.793   5.334
 4767SOL    HW215201   3.450   4.901   5.387
 4768SOL     OW15202   3.626   2.880   5.728
 4768SOL    HW115203   3.691   2.904   5.801
 4768SOL    HW215204   3.585   2.791   5.748
 4769SOL     OW15205   4.377   6.116   0.593
 4769SOL    HW115206   4.375   6.158   0.684
 4769SOL    HW215207   4.331   6.027   0.597
 4770SOL     OW15208   0.560   1.897   4.637
 4770SOL    HW115209   0.485   1.948   4.594
 4770SOL    HW215210   0.639   1.897   4.575
 4771SOL     OW15211   2.991   6.743   6.498
 4771SOL    HW115212   2.930   6.683   6.550
 4771SOL    HW215213   2.990   6.835   6.538
 4772SOL     OW15214   3.401   4.702   0.852
 4772SOL    HW115215   3.418   4.791   0.892
 4772SOL    HW215216   3.335   4.711   0.777
 4773SOL     OW15217   0.446   5.684   5.402
 4773SOL    HW115218   0.492   5.723   5.482
 4773SOL    HW215219   0.405   5.758   5.349
 4774SOL     OW15220   1.593   4.236   0.930
 4774SOL    HW115221   1.621   4.331   0.945
 4774SOL    HW215222   1.507   4.236   0.879
 4775SOL     OW15223   4.828   6.849   3.672
 4775SOL    HW115224   4.742   6.889   3.642
 4775SOL    HW215225   4.827   6.751   3.654
 4776SOL     OW15226   0.852   1.207   5.309
 4776SOL    HW115227   0.776   1.258   5.350
 4776SOL    HW215228   0.937   1.235   5.352
 4777SOL     OW15229   1.973   5.672   0.999
 4777SOL    HW115230   2.009   5.663   1.092
 4777SOL    HW215231   1.998   5.762   0.962
 4778SOL     OW15232   0.212   2.375   4.580
 4778SOL    HW115233   0.206   2.469   4.548
 4778SOL    HW215234   0.175   2.369   4.673
 4779SOL     OW15235   5.569   7.007   3.517
 4779SOL    HW115236   5.597   7.020   3.612
 4779SOL    HW215237   5.596   6.916   3.486
 4780SOL     OW15238   5.679   2.459   6.779
 4780SOL    HW115239   5.686   2.546   6.730
 4780SOL    HW215240   5.583   2.431   6.783
 4781SOL     OW15241   2.905   5.677   1.834
 4781SOL    HW115242   2.822   5.712   1.876
 4781SOL    HW215243   2.890   5.663   1.736
 4782SOL     OW15244   5.951   5.730   6.486
 4782SOL    HW115245   6.016   5.661   6.455
 4782SOL    HW215246   5.860   5.709   6.450
 4783SOL     OW15247   5.946   3.445   6.886
 4783SOL    HW115248   5.901   3.424   6.799
 4783SOL    HW215249   5.928   3.541   6.910
 4784SOL     OW15250   6.229   2.105   6.004
 4784SOL    HW115251   6.143   2.055   6.011
 4784SOL    HW215252   6.304   2.049   6.038
 4785SOL     OW15253   0.177   6.556   3.226
 4785SOL    HW115254   0.262   6.528   3.183
 4785SOL    HW215255   0.101   6.548   3.161
 4786SOL     OW15256   2.533   6.679   0.075
 4786SOL    HW115257   2.630   6.669   0.052
 4786SOL    HW215258   2.479   6.678   7.013
 4787SOL     OW15259   3.794   1.908   3.380
 4787SOL    HW115260   3.816   1.992   3.332
 4787SOL    HW215261   3.719   1.861   3.334
 4788SOL     OW15262   6.734   5.695   0.640
 4788SOL    HW115263   6.723   5.710   0.542
 4788SOL    HW215264   6.782   5.608   0.655
 4789SOL     OW15265   5.016   1.768   1.406
 4789SOL    HW115266   5.003   1.823   1.488
 4789SOL    HW215267   4.971   1.680   1.417
 4790SOL     OW15268   5.735   1.713   5.893
 4790SOL    HW115269   5.820   1.764   5.875
 4790SOL    HW215270   5.662   1.748   5.835
 4791SOL     OW15271   0.285   2.911   1.912
 4791SOL    HW115272   0.259   2.852   1.835
 4791SOL    HW215273   0.211   2.914   1.979
 4792SOL     OW15274   2.281   4.570   4.680
 4792SOL    HW115275   2.186   4.578   4.651
 4792SOL    HW215276   2.286   4.570   4.780
 4793SOL     OW15277   1.917   3.800   5.023
 4793SOL    HW115278   1.822   3.817   4.998
 4793SOL    HW215279   1.945   3.864   5.094
 4794SOL     OW15280   4.416   6.744   4.445
 4794SOL    HW115281   4.317   6.762   4.452
 4794SOL    HW215282   4.447   6.702   4.530
 4795SOL     OW15283   6.301   1.598   3.950
 4795SOL    HW115284   6.396   1.599   3.979
 4795SOL    HW215285   6.289   1.659   3.872
 4796SOL     OW15286   4.122   0.297   6.299
 4796SOL    HW115287   4.068   0.301   6.383
 4796SOL    HW215288   4.060   0.298   6.220
 4797SOL     OW15289   0.748   5.995   4.658
 4797SOL    HW115290   0.766   6.094   4.653
 4797SOL    HW215291   0.824   5.945   4.617
 4798SOL     OW15292   6.423   4.892   5.370
 4798SOL    HW115293   6.328   4.923   5.368
 4798SOL    HW215294   6.483   4.968   5.392
 4799SOL     OW15295   4.394   1.562   1.048
 4799SOL    HW115296   4.379   1.657   1.020
 4799SOL    HW215297   4.421   1.508   0.969
 4800SOL     OW15298   1.830   4.076   6.794
 4800SOL    HW115299   1.740   4.111   6.766
 4800SOL    HW215300   1.819   4.021   6.877
 4801SOL     OW15301   3.299   2.486   6.590
 4801SOL    HW115302   3.278   2.566   6.646
 4801SOL    HW215303   3.259   2.498   6.499
 4802SOL     OW15304   0.304   6.723   2.098
 4802SOL    HW115305   0.207   6.707   2.120
 4802SOL    HW215306   0.326   6.679   2.011
 4803SOL     OW15307   6.902   4.546   0.959
 4803SOL    HW115308   6.806   4.574   0.959
 4803SOL    HW215309   6.944   4.573   1.046
 4804SOL     OW15310   6.882   6.880   1.271
 4804SOL    HW115311   6.886   6.936   1.188
 4804SOL    HW215312   6.789   6.843   1.281
 4805SOL     OW15313   6.598   1.209   2.161
 4805SOL    HW115314   6.610   1.214   2.260
 4805SOL    HW215315   6.510   1.250   2.136
 4806SOL     OW15316   1.054   3.419   2.760
 4806SOL    HW115317   1.039   3.517   2.777
 4806SOL    HW215318   1.147   3.405   2.725
 4807SOL     OW15319   0.975   4.165   6.267
 4807SOL    HW115320   0.993   4.260   6.241
 4807SOL    HW215321   0.883   4.158   6.305
 4808SOL     OW15322   4.106   5.453   1.000
 4808SOL    HW115323   4.119   5.525   1.068
 4808SOL    HW215324   4.167   5.376   1.021
 4809SOL     OW15325   3.737   4.999   1.327
 4809SOL    HW115326   3.772   5.002   1.421
 4809SOL    HW215327   3.813   5.003   1.262
 4810SOL     OW15328   1.691   4.458   3.068
 4810SOL    HW115329   1.750   4.493   2.995
 4810SOL    HW215330   1.670   4.532   3.133
 4811SOL     OW15331   3.757   3.903   3.131
 4811SOL    HW115332   3.703   3.983   3.105
 4811SOL    HW215333   3.824   3.882   3.060
 4812SOL     OW15334   0.194   0.525   2.583
 4812SOL    HW115335   0.170   0.443   2.531
 4812SOL    HW215336   0.294   0.535   2.585
 4813SOL     OW15337   6.159   1.477   6.372
 4813SOL    HW115338   6.067   1.448   6.397
 4813SOL    HW215339   6.159   1.508   6.276
 4814SOL     OW15340   7.005   3.170   1.990
 4814SOL    HW115341   0.028   3.091   2.032
 4814SOL    HW215342   6.949   3.139   1.913
 4815SOL     OW15343   5.504   4.386   2.930
 4815SOL    HW115344   5.500   4.483   2.953
 4815SOL    HW215345   5.564   4.339   2.995
 4816SOL     OW15346   2.260   5.202   1.571
 4816SOL    HW115347   2.325   5.271   1.601
 4816SOL    HW215348   2.173   5.246   1.549
 4817SOL     OW15349   2.950   0.975   1.592
 4817SOL    HW115350   3.002   1.034   1.653
 4817SOL    HW215351   2.995   0.886   1.585
 4818SOL     OW15352   1.032   1.399   4.049
 4818SOL    HW115353   1.031   1.430   3.954
 4818SOL    HW215354   0.962   1.328   4.061
 4819SOL     OW15355   2.860   2.555   1.336
 4819SOL    HW115356   2.924   2.499   1.388
 4819SOL    HW215357   2.888   2.651   1.340
 4820SOL     OW15358   6.551   2.065   0.334
 4820SOL    HW115359   6.560   2.003   0.256
 4820SOL    HW215360   6.621   2.043   0.402
 4821SOL     OW15361   0.046   0.060   1.281
 4821SOL    HW115362   0.003   6.993   1.294
 4821SOL    HW215363   7.020   0.128   1.334
 4822SOL     OW15364   1.967   2.700   3.581
 4822SOL    HW115365   2.025   2.690   3.500
 4822SOL    HW215366   1.927   2.792   3.582
 4823SOL     OW15367   0.286   1.622   3.774
 4823SOL    HW115368   0.242   1.563   3.706
 4823SOL    HW215369   0.380   1.641   3.746
 4824SOL     OW15370   5.730   2.098   3.626
 4824SOL    HW115371   5.687   2.042   3.555
 4824SOL    HW215372   5.828   2.079   3.629
 4825SOL     OW15373   2.154   2.645   4.110
 4825SOL    HW115374   2.155   2.739   4.145
 4825SOL    HW215375   2.087   2.591   4.160
 4826SOL     OW15376   0.531   0.454   6.661
 4826SOL    HW115377   0.591   0.410   6.727
 4826SOL    HW215378   0.523   0.551   6.684
 4827SOL     OW15379   5.874   1.079   1.566
 4827SOL    HW115380   5.846   1.121   1.653
 4827SOL    HW215381   5.806   1.100   1.496
 4828SOL     OW15382   5.421   3.122   0.863
 4828SOL    HW115383   5.427   3.154   0.769
 4828SOL    HW215384   5.331   3.082   0.879
 4829SOL     OW15385   3.897   6.369   6.752
 4829SOL    HW115386   3.902   6.279   6.795
 4829SOL    HW215387   3.931   6.438   6.816
 4830SOL     OW15388   5.361   5.905   4.119
 4830SOL    HW115389   5.283   5.964   4.138
 4830SOL    HW215390   5.386   5.854   4.201
 4831SOL     OW15391   6.734   5.467   5.795
 4831SOL    HW115392   6.745   5.414   5.880
 4831SOL    HW215393   6.818   5.520   5.778
 4832SOL     OW15394   2.671   2.569   5.696
 4832SOL    HW115395   2.586   2.522   5.722
 4832SOL    HW215396   2.651   2.641   5.631
 4833SOL     OW15397   5.171   1.132   3.119
 4833SOL    HW115398   5.266   1.100   3.129
 4833SOL    HW215399   5.165   1.195   3.042
 4834SOL     OW15400   3.797   0.451   0.628
 4834SOL    HW115401   3.837   0.543   0.625
 4834SOL    HW215402   3.698   0.458   0.625
 4835SOL     OW15403   1.159   1.277   6.569
 4835SOL    HW115404   1.168   1.337   6.489
 4835SOL    HW215405   1.199   1.187   6.548
 4836SOL     OW15406   4.912   3.211   3.336
 4836SOL    HW115407   4.939   3.117   3.314
 4836SOL    HW215408   4.822   3.210   3.379
 4837SOL     OW15409   4.457   3.390   1.535
 4837SOL    HW115410   4.518   3.462   1.568
 4837SOL    HW215411   4.417   3.342   1.614
 4838SOL     OW15412   2.134   4.985   2.018
 4838SOL    HW115413   2.177   4.901   2.050
 4838SOL    HW215414   2.136   4.987   1.918
 4839SOL     OW15415   1.802   3.782   5.511
 4839SOL    HW115416   1.872   3.712   5.521
 4839SOL    HW215417   1.735   3.773   5.585
 4840SOL     OW15418   0.747   6.652   5.374
 4840SOL    HW115419   0.768   6.748   5.389
 4840SOL    HW215420   0.677   6.623   5.439
 4841SOL     OW15421   2.661   6.276   1.492
 4841SOL    HW115422   2.735   6.214   1.467
 4841SOL    HW215423   2.574   6.239   1.460
 4842SOL     OW15424   3.382   4.775   1.669
 4842SOL    HW115425   3.364   4.874   1.672
 4842SOL    HW215426   3.458   4.753   1.729
 4843SOL     OW15427   5.783   3.529   0.453
 4843SOL    HW115428   5.848   3.463   0.416
 4843SOL    HW215429   5.714   3.551   0.384
 4844SOL     OW15430   6.700   3.454   5.916
 4844SOL    HW115431   6.761   3.526   5.884
 4844SOL    HW215432   6.753   3.372   5.937
 4845SOL     OW15433   6.755   5.560   4.402
 4845SOL    HW115434   6.716   5.592   4.489
 4845SOL    HW215435   6.687   5.507   4.352
 4846SOL     OW15436   6.620   3.368   3.131
 4846SOL    HW115437   6.617   3.449   3.072
 4846SOL    HW215438   6.654   3.392   3.221
 4847SOL     OW15439   3.472   1.398   5.737
 4847SOL    HW115440   3.542   1.436   5.677
 4847SOL    HW215441   3.508   1.391   5.830
 4848SOL     OW15442   1.458   0.849   3.563
 4848SOL    HW115443   1.465   0.943   3.528
 4848SOL    HW215444   1.368   0.837   3.606
 4849SOL     OW15445   1.040   6.567   6.288
 4849SOL    HW115446   1.079   6.506   6.357
 4849SOL    HW215447   0.991   6.513   6.220
 4850SOL     OW15448   4.098   1.606   2.727
 4850SOL    HW115449   4.027   1.539   2.747
 4850SOL    HW215450   4.065   1.670   2.657
 4851SOL     OW15451   3.715   5.949   5.277
 4851SOL    HW115452   3.738   5.908   5.366
 4851SOL    HW215453   3.785   6.017   5.253
 4852SOL     OW15454   0.748   0.722   5.477
 4852SOL    HW115455   0.713   0.629   5.471
 4852SOL    HW215456   0.770   0.743   5.572
 4853SOL     OW15457   3.089   1.122   2.811
 4853SOL    HW115458   3.154   1.152   2.882
 4853SOL    HW215459   3.033   1.047   2.847
 4854SOL     OW15460   5.105   0.040   2.310
 4854SOL    HW115461   5.118   0.014   2.214
 4854SOL    HW215462   5.042   6.998   2.354
 4855SOL     OW15463   5.590   2.833   2.240
 4855SOL    HW115464   5.640   2.912   2.204
 4855SOL    HW215465   5.610   2.823   2.337
 4856SOL     OW15466   2.008   4.088   2.355
 4856SOL    HW115467   2.015   4.074   2.256
 4856SOL    HW215468   1.968   4.007   2.397
 4857SOL     OW15469   2.380   3.050   5.780
 4857SOL    HW115470   2.455   3.105   5.744
 4857SOL    HW215471   2.388   2.956   5.746
 4858SOL     OW15472   1.212   1.433   4.748
 4858SOL    HW115473   1.114   1.437   4.767
 4858SOL    HW215474   1.240   1.337   4.736
 4859SOL     OW15475   1.718   0.980   4.438
 4859SOL    HW115476   1.765   1.057   4.395
 4859SOL    HW215477   1.771   0.948   4.517
 4860SOL     OW15478   3.894   4.836   1.987
 4860SOL    HW115479   3.800   4.814   2.011
 4860SOL    HW215480   3.912   4.807   1.893
 4861SOL     OW15481   5.239   5.004   0.345
 4861SOL    HW115482   5.170   4.946   0.390
 4861SOL    HW215483   5.317   4.949   0.317
 4862SOL     OW15484   2.893   4.790   4.843
 4862SOL    HW115485   2.913   4.873   4.894
 4862SOL    HW215486   2.866   4.718   4.907
 4863SOL     OW15487   5.998   4.421   1.775
 4863SOL    HW115488   5.985   4.498   1.712
 4863SOL    HW215489   6.096   4.399   1.781
 4864SOL     OW15490   4.110   1.169   3.696
 4864SOL    HW115491   4.013   1.193   3.698
 4864SOL    HW215492   4.147   1.168   3.789
 4865SOL     OW15493   2.361   0.569   5.751
 4865SOL    HW115494   2.437   0.607   5.698
 4865SOL    HW215495   2.275   0.608   5.720
 4866SOL     OW15496   0.258   2.451   0.561
 4866SOL    HW115497   0.241   2.549   0.570
 4866SOL    HW215498   0.330   2.424   0.625
 4867SOL     OW15499   3.837   4.925   3.305
 4867SOL    HW115500   3.873   4.861   3.237
 4867SOL    HW215501   3.882   4.910   3.393
 4868SOL     OW15502   6.796   5.333   2.918
 4868SOL    HW115503   6.813   5.295   3.009
 4868SOL    HW215504   6.709   5.296   2.883
 4869SOL     OW15505   1.186   1.782   2.439
 4869SOL    HW115506   1.250   1.842   2.488
 4869SOL    HW215507   1.189   1.691   2.478
 4870SOL     OW15508   0.480   6.373   1.937
 4870SOL    HW115509   0.549   6.442   1.915
 4870SOL    HW215510   0.452   6.326   1.853
 4871SOL     OW15511   1.595   0.983   3.803
 4871SOL    HW115512   1.686   1.026   3.802
 4871SOL    HW215513   1.541   1.018   3.727
 4872SOL     OW15514   6.520   0.261   3.717
 4872SOL    HW115515   6.460   0.270   3.797
 4872SOL    HW215516   6.489   0.324   3.645
 4873SOL     OW15517   6.554   5.124   4.174
 4873SOL    HW115518   6.466   5.170   4.179
 4873SOL    HW215519   6.541   5.026   4.166
 4874SOL     OW15520   5.880   3.911   1.921
 4874SOL    HW115521   5.782   3.910   1.899
 4874SOL    HW215522   5.895   3.863   2.008
 4875SOL     OW15523   6.025   1.507   0.613
 4875SOL    HW115524   6.065   1.419   0.640
 4875SOL    HW215525   5.926   1.500   0.614
 4876SOL     OW15526   5.977   2.133   2.793
 4876SOL    HW115527   5.963   2.222   2.750
 4876SOL    HW215528   5.952   2.061   2.729
 4877SOL     OW15529   1.601   2.184   5.647
 4877SOL    HW115530   1.564   2.103   5.693
 4877SOL    HW215531   1.676   2.157   5.587
 4878SOL     OW15532   6.356   1.031   1.832
 4878SOL    HW115533   6.450   1.044   1.862
 4878SOL    HW215534   6.336   0.933   1.830
 4879SOL     OW15535   4.761   1.887   2.814
 4879SOL    HW115536   4.672   1.865   2.855
 4879SOL    HW215537   4.751   1.966   2.753
 4880SOL     OW15538   5.279   3.372   0.038
 4880SOL    HW115539   5.296   3.352   6.964
 4880SOL    HW215540   5.345   3.323   0.094
 4881SOL     OW15541   1.647   1.253   0.060
 4881SOL    HW115542   1.554   1.220   0.043
 4881SOL    HW215543   1.684   1.293   6.999
 4882SOL     OW15544   4.998   0.546   4.689
 4882SOL    HW115545   4.995   0.499   4.601
 4882SOL    HW215546   5.002   0.645   4.674
 4883SOL     OW15547   5.200   5.165   1.550
 4883SOL    HW115548   5.190   5.099   1.624
 4883SOL    HW215549   5.280   5.141   1.494
 4884SOL     OW15550   3.104   6.155   1.863
 4884SOL    HW115551   3.016   6.107   1.867
 4884SOL    HW215552   3.174   6.092   1.828
 4885SOL     OW15553   2.391   5.058   1.376
 4885SOL    HW115554   2.353   5.114   1.450
 4885SOL    HW215555   2.322   4.992   1.346
 4886SOL     OW15556   1.917   5.823   1.616
 4886SOL    HW115557   1.865   5.754   1.667
 4886SOL    HW215558   1.857   5.868   1.551
 4887SOL     OW15559   0.017   7.007   1.649
 4887SOL    HW115560   0.022   6.907   1.643
 4887SOL    HW215561   0.102   0.020   1.688
 4888SOL     OW15562   2.775   0.447   4.682
 4888SOL    HW115563   2.814   0.413   4.597
 4888SOL    HW215564   2.809   0.392   4.759
 4889SOL     OW15565   6.795   1.303   5.242
 4889SOL    HW115566   6.830   1.220   5.285
 4889SOL    HW215567   6.710   1.283   5.194
 4890SOL     OW15568   6.976   1.299   6.034
 4890SOL    HW115569   6.976   1.318   6.132
 4890SOL    HW215570   6.919   1.366   5.987
 4891SOL     OW15571   1.519   4.540   0.382
 4891SOL    HW115572   1.611   4.580   0.389
 4891SOL    HW215573   1.479   4.566   0.294
 4892SOL     OW15574   3.598   5.645   2.321
 4892SOL    HW115575   3.693   5.613   2.324
 4892SOL    HW215576   3.539   5.580   2.370
 4893SOL     OW15577   6.502   2.403   1.757
 4893SOL    HW115578   6.472   2.341   1.685
 4893SOL    HW215579   6.429   2.469   1.777
 4894SOL     OW15580   3.644   0.873   2.383
 4894SOL    HW115581   3.569   0.908   2.439
 4894SOL    HW215582   3.726   0.863   2.441
 4895SOL     OW15583   0.635   4.993   4.437
 4895SOL    HW115584   0.690   4.999   4.353
 4895SOL    HW215585   0.640   4.900   4.473
 4896SOL     OW15586   2.297   4.269   1.606
 4896SOL    HW115587   2.352   4.352   1.622
 4896SOL    HW215588   2.201   4.295   1.595
 4897SOL     OW15589   2.090   4.909   5.925
 4897SOL    HW115590   2.067   4.846   6.000
 4897SOL    HW215591   2.007   4.928   5.871
 4898SOL     OW15592   4.570   0.843   4.750
 4898SOL    HW115593   4.634   0.920   4.748
 4898SOL    HW215594   4.607   0.771   4.809
 4899SOL     OW15595   5.798   5.255   2.667
 4899SOL    HW115596   5.701   5.273   2.687
 4899SOL    HW215597   5.849   5.248   2.753
 4900SOL     OW15598   3.208   6.118   5.125
 4900SOL    HW115599   3.305   6.133   5.102
 4900SOL    HW215600   3.202   6.075   5.215
 4901SOL     OW15601   2.756   1.492   5.644
 4901SOL    HW115602   2.696   1.455   5.573
 4901SOL    HW215603   2.844   1.517   5.604
 4902SOL     OW15604   1.865   1.687   5.274
 4902SOL    HW115605   1.832   1.769   5.321
 4902SOL    HW215606   1.964   1.693   5.264
 4903SOL     OW15607   3.659   5.658   0.600
 4903SOL    HW115608   3.682   5.686   0.693
 4903SOL    HW215609   3.670   5.559   0.591
 4904SOL     OW15610   2.326   0.514   5.426
 4904SOL    HW115611   2.328   0.414   5.430
 4904SOL    HW215612   2.420   0.549   5.431
 4905SOL     OW15613   3.303   0.696   3.267
 4905SOL    HW115614   3.204   0.689   3.273
 4905SOL    HW215615   3.329   0.735   3.179
 4906SOL     OW15616   5.275   1.628   6.564
 4906SOL    HW115617   5.288   1.714   6.614
 4906SOL    HW215618   5.216   1.568   6.618
 4907SOL     OW15619   4.313   6.513   2.265
 4907SOL    HW115620   4.226   6.466   2.277
 4907SOL    HW215621   4.351   6.491   2.175
 4908SOL     OW15622   5.724   6.362   6.937
 4908SOL    HW115623   5.795   6.430   6.923
 4908SOL    HW215624   5.749   6.277   6.891
 4909SOL     OW15625   0.544   6.394   3.700
 4909SOL    HW115626   0.449   6.407   3.672
 4909SOL    HW215627   0.602   6.462   3.655
 4910SOL     OW15628   5.154   1.187   4.502
 4910SOL    HW115629   5.137   1.132   4.420
 4910SOL    HW215630   5.146   1.284   4.479
 4911SOL     OW15631   1.720   4.200   3.189
 4911SOL    HW115632   1.723   4.290   3.146
 4911SOL    HW215633   1.782   4.138   3.142
 4912SOL     OW15634   5.657   0.972   6.120
 4912SOL    HW115635   5.735   0.955   6.179
 4912SOL    HW215636   5.627   1.067   6.129
 4913SOL     OW15637   3.918   3.259   5.153
 4913SOL    HW115638   3.994   3.262   5.088
 4913SOL    HW215639   3.915   3.170   5.198
 4914SOL     OW15640   4.093   6.879   4.851
 4914SOL    HW115641   4.094   6.871   4.950
 4914SOL    HW215642   4.106   6.975   4.825
 4915SOL     OW15643   2.944   5.582   5.867
 4915SOL    HW115644   2.988   5.493   5.858
 4915SOL    HW215645   2.870   5.577   5.934
 4916SOL     OW15646   1.277   0.716   4.067
 4916SOL    HW115647   1.291   0.769   3.983
 4916SOL    HW215648   1.240   0.775   4.138
 4917SOL     OW15649   2.514   5.308   1.339
 4917SOL    HW115650   2.611   5.306   1.316
 4917SOL    HW215651   2.480   5.214   1.349
 4918SOL     OW15652   5.227   6.701   2.127
 4918SOL    HW115653   5.154   6.723   2.062
 4918SOL    HW215654   5.310   6.751   2.102
 4919SOL     OW15655   3.546   2.547   0.409
 4919SOL    HW115656   3.537   2.528   0.507
 4919SOL    HW215657   3.640   2.576   0.389
 4920SOL     OW15658   5.441   0.198   4.534
 4920SOL    HW115659   5.344   0.183   4.512
 4920SOL    HW215660   5.457   0.179   4.630
 4921SOL     OW15661   1.197   5.774   0.022
 4921SOL    HW115662   1.106   5.767   7.003
 4921SOL    HW215663   1.192   5.750   0.118
 4922SOL     OW15664   2.875   2.251   4.886
 4922SOL    HW115665   2.831   2.338   4.867
 4922SOL    HW215666   2.974   2.263   4.893
 4923SOL     OW15667   3.653   1.517   2.278
 4923SOL    HW115668   3.575   1.461   2.303
 4923SOL    HW215669   3.663   1.592   2.344
 4924SOL     OW15670   3.261   1.076   4.947
 4924SOL    HW115671   3.293   1.169   4.966
 4924SOL    HW215672   3.161   1.073   4.959
 4925SOL     OW15673   6.315   0.067   2.354
 4925SOL    HW115674   6.284   0.126   2.279
 4925SOL    HW215675   6.243   0.001   2.376
 4926SOL     OW15676   5.040   1.353   0.941
 4926SOL    HW115677   5.056   1.348   1.039
 4926SOL    HW215678   4.963   1.415   0.923
 4927SOL     OW15679   3.500   3.797   4.587
 4927SOL    HW115680   3.599   3.804   4.600
 4927SOL    HW215681   3.477   3.706   4.554
 4928SOL     OW15682   1.546   0.214   6.771
 4928SOL    HW115683   1.559   0.312   6.784
 4928SOL    HW215684   1.578   0.188   6.680
 4929SOL     OW15685   6.509   6.786   4.542
 4929SOL    HW115686   6.428   6.786   4.601
 4929SOL    HW215687   6.541   6.692   4.529
 4930SOL     OW15688   5.574   1.048   2.948
 4930SOL    HW115689   5.610   0.972   2.893
 4930SOL    HW215690   5.532   1.011   3.031
 4931SOL     OW15691   0.087   6.665   1.309
 4931SOL    HW115692   0.113   6.685   1.215
 4931SOL    HW215693   0.008   6.721   1.334
 4932SOL     OW15694   3.476   3.127   2.065
 4932SOL    HW115695   3.431   3.053   2.115
 4932SOL    HW215696   3.516   3.091   1.980
 4933SOL     OW15697   2.290   6.635   2.299
 4933SOL    HW115698   2.314   6.692   2.377
 4933SOL    HW215699   2.306   6.539   2.321
 4934SOL     OW15700   3.402   5.257   3.156
 4934SOL    HW115701   3.373   5.253   3.252
 4934SOL    HW215702   3.356   5.333   3.111
 4935SOL     OW15703   1.623   1.993   6.132
 4935SOL    HW115704   1.589   1.903   6.159
 4935SOL    HW215705   1.698   2.020   6.192
 4936SOL     OW15706   3.152   5.423   1.323
 4936SOL    HW115707   3.232   5.405   1.266
 4936SOL    HW215708   3.076   5.452   1.266
 4937SOL     OW15709   5.893   3.079   6.063
 4937SOL    HW115710   5.973   3.027   6.093
 4937SOL    HW215711   5.912   3.177   6.068
 4938SOL     OW15712   1.951   5.439   5.859
 4938SOL    HW115713   1.890   5.461   5.783
 4938SOL    HW215714   1.999   5.353   5.841
 4939SOL     OW15715   5.862   2.256   4.595
 4939SOL    HW115716   5.807   2.331   4.557
 4939SOL    HW215717   5.814   2.170   4.581
 4940SOL     OW15718   0.724   1.286   4.905
 4940SOL    HW115719   0.732   1.190   4.929
 4940SOL    HW215720   0.685   1.295   4.813
 4941SOL     OW15721   4.536   1.912   5.958
 4941SOL    HW115722   4.589   1.996   5.969
 4941SOL    HW215723   4.492   1.912   5.868
 4942SOL     OW15724   5.171   2.916   5.795
 4942SOL    HW115725   5.084   2.961   5.813
 4942SOL    HW215726   5.209   2.882   5.881
 4943SOL     OW15727   4.671   3.226   6.749
 4943SOL    HW115728   4.582   3.254   6.786
 4943SOL    HW215729   4.685   3.129   6.767
 4944SOL     OW15730   1.936   4.255   1.997
 4944SOL    HW115731   2.033   4.279   1.990
 4944SOL    HW215732   1.909   4.254   2.094
 4945SOL     OW15733   1.219   1.264   3.694
 4945SOL    HW115734   1.314   1.238   3.682
 4945SOL    HW215735   1.182   1.221   3.776
 4946SOL     OW15736   0.366   3.096   1.052
 4946SOL    HW115737   0.288   3.153   1.077
 4946SOL    HW215738   0.366   3.082   0.953
 4947SOL     OW15739   1.936   0.879   1.579
 4947SOL    HW115740   1.916   0.932   1.662
 4947SOL    HW215741   2.034   0.865   1.571
 4948SOL     OW15742   1.861   1.148   3.047
 4948SOL    HW115743   1.950   1.111   3.071
 4948SOL    HW215744   1.859   1.172   2.950
 4949SOL     OW15745   4.145   6.418   6.610
 4949SOL    HW115746   4.162   6.326   6.574
 4949SOL    HW215747   4.048   6.428   6.629
 4950SOL     OW15748   3.061   5.523   4.616
 4950SOL    HW115749   3.076   5.428   4.641
 4950SOL    HW215750   3.139   5.578   4.648
 4951SOL     OW15751   5.110   1.449   4.490
 4951SOL    HW115752   5.027   1.439   4.545
 4951SOL    HW215753   5.123   1.545   4.467
 4952SOL     OW15754   0.051   0.766   5.099
 4952SOL    HW115755   0.143   0.727   5.109
 4952SOL    HW215756   7.012   0.697   5.061
 4953SOL     OW15757   2.030   6.531   2.248
 4953SOL    HW115758   1.958   6.562   2.310
 4953SOL    HW215759   2.115   6.580   2.267
 4954SOL     OW15760   4.391   3.969   6.940
 4954SOL    HW115761   4.329   3.980   7.018
 4954SOL    HW215762   4.478   4.014   6.960
 4955SOL     OW15763   2.115   6.316   6.606
 4955SOL    HW115764   2.069   6.345   6.690
 4955SOL    HW215765   2.048   6.285   6.539
 4956SOL     OW15766   2.848   6.857   5.048
 4956SOL    HW115767   2.929   6.800   5.060
 4956SOL    HW215768   2.817   6.852   4.952
 4957SOL     OW15769   0.131   1.773   2.809
 4957SOL    HW115770   0.180   1.807   2.729
 4957SOL    HW215771   0.147   1.835   2.886
 4958SOL     OW15772   6.894   6.498   5.486
 4958SOL    HW115773   6.795   6.490   5.471
 4958SOL    HW215774   6.942   6.473   5.401
 4959SOL     OW15775   6.981   1.776   6.785
 4959SOL    HW115776   7.009   1.818   6.699
 4959SOL    HW215777   0.002   1.687   6.795
 4960SOL     OW15778   3.354   5.742   3.807
 4960SOL    HW115779   3.445   5.780   3.788
 4960SOL    HW215780   3.364   5.665   3.870
 4961SOL     OW15781   5.011   1.702   5.658
 4961SOL    HW115782   5.015   1.725   5.755
 4961SOL    HW215783   4.987   1.783   5.605
 4962SOL     OW15784   5.882   2.628   0.793
 4962SOL    HW115785   5.885   2.575   0.878
 4962SOL    HW215786   5.963   2.685   0.786
 4963SOL     OW15787   6.583   6.033   6.910
 4963SOL    HW115788   6.650   6.051   6.983
 4963SOL    HW215789   6.512   6.104   6.913
 4964SOL     OW15790   3.593   6.746   3.755
 4964SOL    HW115791   3.546   6.805   3.820
 4964SOL    HW215792   3.672   6.793   3.718
 4965SOL     OW15793   0.116   0.393   3.575
 4965SOL    HW115794   0.023   0.412   3.607
 4965SOL    HW215795   0.136   0.296   3.585
 4966SOL     OW15796   1.784   0.394   5.251
 4966SOL    HW115797   1.720   0.383   5.327
 4966SOL    HW215798   1.860   0.329   5.261
 4967SOL     OW15799   4.156   3.293   5.866
 4967SOL    HW115800   4.163   3.339   5.778
 4967SOL    HW215801   4.174   3.195   5.853
 4968SOL     OW15802   5.796   2.916   3.239
 4968SOL    HW115803   5.718   2.977   3.226
 4968SOL    HW215804   5.771   2.844   3.304
 4969SOL     OW15805   2.132   1.134   2.140
 4969SOL    HW115806   2.149   1.232   2.148
 4969SOL    HW215807   2.034   1.116   2.145
 4970SOL     OW15808   1.700   2.175   4.526
 4970SOL    HW115809   1.683   2.164   4.624
 4970SOL    HW215810   1.613   2.183   4.477
 4971SOL     OW15811   5.844   5.766   3.509
 4971SOL    HW115812   5.801   5.839   3.457
 4971SOL    HW215813   5.779   5.691   3.522
 4972SOL     OW15814   1.373   2.982   0.690
 4972SOL    HW115815   1.406   2.972   0.784
 4972SOL    HW215816   1.450   2.968   0.627
 4973SOL     OW15817   0.194   0.330   2.408
 4973SOL    HW115818   0.140   0.258   2.366
 4973SOL    HW215819   0.238   0.385   2.337
 4974SOL     OW15820   5.955   4.637   0.890
 4974SOL    HW115821   5.864   4.678   0.882
 4974SOL    HW215822   5.947   4.543   0.924
 4975SOL     OW15823   5.338   5.435   6.172
 4975SOL    HW115824   5.256   5.486   6.148
 4975SOL    HW215825   5.329   5.400   6.266
 4976SOL     OW15826   3.141   0.009   4.868
 4976SOL    HW115827   3.220   6.980   4.833
 4976SOL    HW215828   3.063   7.019   4.807
 4977SOL     OW15829   5.144   4.053   0.250
 4977SOL    HW115830   5.056   4.039   0.204
 4977SOL    HW215831   5.186   3.964   0.270
 4978SOL     OW15832   6.769   3.599   5.468
 4978SOL    HW115833   6.801   3.584   5.374
 4978SOL    HW215834   6.811   3.532   5.529
 4979SOL     OW15835   0.086   1.010   5.343
 4979SOL    HW115836   0.059   0.916   5.364
 4979SOL    HW215837   0.103   1.060   5.428
 4980SOL     OW15838   4.669   0.156   3.490
 4980SOL    HW115839   4.653   0.072   3.437
 4980SOL    HW215840   4.595   0.221   3.473
 4981SOL     OW15841   4.616   5.421   6.078
 4981SOL    HW115842   4.710   5.385   6.076
 4981SOL    HW215843   4.551   5.347   6.061
 4982SOL     OW15844   1.830   2.180   6.909
 4982SOL    HW115845   1.874   2.109   6.855
 4982SOL    HW215846   1.774   2.138   6.980
 4983SOL     OW15847   5.149   2.709   4.017
 4983SOL    HW115848   5.079   2.778   3.998
 4983SOL    HW215849   5.110   2.637   4.075
 4984SOL     OW15850   5.656   3.922   4.427
 4984SOL    HW115851   5.717   3.991   4.388
 4984SOL    HW215852   5.576   3.911   4.369
 4985SOL     OW15853   6.096   6.203   3.357
 4985SOL    HW115854   6.012   6.251   3.332
 4985SOL    HW215855   6.138   6.164   3.275
 4986SOL     OW15856   6.932   4.112   3.185
 4986SOL    HW115857   6.946   4.197   3.237
 4986SOL    HW215858   6.879   4.048   3.241
 4987SOL     OW15859   0.985   2.015   1.263
 4987SOL    HW115860   1.049   1.987   1.192
 4987SOL    HW215861   1.032   2.074   1.329
 4988SOL     OW15862   6.255   1.995   3.544
 4988SOL    HW115863   6.195   2.010   3.465
 4988SOL    HW215864   6.341   2.044   3.531
 4989SOL     OW15865   5.081   0.682   0.985
 4989SOL    HW115866   5.178   0.681   1.009
 4989SOL    HW215867   5.071   0.700   0.887
 4990SOL     OW15868   1.660   1.558   5.978
 4990SOL    HW115869   1.740   1.515   6.020
 4990SOL    HW215870   1.595   1.488   5.948
 4991SOL     OW15871   0.753   3.434   3.983
 4991SOL    HW115872   0.844   3.393   3.990
 4991SOL    HW215873   0.759   3.532   4.004
 4992SOL     OW15874   5.144   1.012   4.288
 4992SOL    HW115875   5.184   0.925   4.261
 4992SOL    HW215876   5.162   1.080   4.217
 4993SOL     OW15877   3.360   5.692   4.253
 4993SOL    HW115878   3.448   5.659   4.218
 4993SOL    HW215879   3.362   5.791   4.261
 4994SOL     OW15880   1.266   0.489   2.237
 4994SOL    HW115881   1.286   0.535   2.324
 4994SOL    HW215882   1.324   0.408   2.227
 4995SOL     OW15883   6.603   2.453   6.010
 4995SOL    HW115884   6.550   2.375   5.978
 4995SOL    HW215885   6.583   2.470   6.107
 4996SOL     OW15886   1.563   1.242   2.666
 4996SOL    HW115887   1.597   1.324   2.620
 4996SOL    HW215888   1.471   1.258   2.700
 4997SOL     OW15889   6.168   1.852   2.857
 4997SOL    HW115890   6.092   1.812   2.806
 4997SOL    HW215891   6.242   1.876   2.793
 4998SOL     OW15892   2.098   3.582   4.987
 4998SOL    HW115893   2.179   3.618   4.940
 4998SOL    HW215894   2.037   3.658   5.012
 4999SOL     OW15895   5.459   5.270   1.076
 4999SOL    HW115896   5.538   5.244   1.132
 4999SOL    HW215897   5.491   5.318   0.994
 5000SOL     OW15898   1.550   0.318   4.274
 5000SOL    HW115899   1.463   0.276   4.300
 5000SOL    HW215900   1.533   0.390   4.207
 5001SOL     OW15901   1.290   4.126   6.136
 5001SOL    HW115902   1.239   4.167   6.060
 5001SOL    HW215903   1.308   4.196   6.205
 5002SOL     OW15904   1.514   3.431   2.847
 5002SOL    HW115905   1.524   3.489   2.766
 5002SOL    HW215906   1.419   3.430   2.876
 5003SOL     OW15907   2.035   6.795   2.986
 5003SOL    HW115908   1.983   6.728   3.039
 5003SOL    HW215909   2.132   6.789   3.011
 5004SOL     OW15910   2.926   4.886   5.423
 5004SOL    HW115911   2.834   4.856   5.446
 5004SOL    HW215912   2.991   4.850   5.491
 5005SOL     OW15913   3.283   2.796   0.760
 5005SOL    HW115914   3.300   2.887   0.723
 5005SOL    HW215915   3.254   2.735   0.686
 5006SOL     OW15916   5.408   6.440   0.017
 5006SOL    HW115917   5.506   6.424   0.020
 5006SOL    HW215918   5.389   6.527   6.994
 5007SOL     OW15919   2.269   0.459   6.814
 5007SOL    HW115920   2.196   0.468   6.746
 5007SOL    HW215921   2.257   0.372   6.864
 5008SOL     OW15922   6.506   0.681   3.668
 5008SOL    HW115923   6.541   0.604   3.721
 5008SOL    HW215924   6.571   0.703   3.595
 5009SOL     OW15925   2.042   6.427   1.990
 5009SOL    HW115926   2.022   6.439   2.087
 5009SOL    HW215927   2.042   6.516   1.945
 5010SOL     OW15928   3.191   3.044   3.387
 5010SOL    HW115929   3.247   3.127   3.379
 5010SOL    HW215930   3.175   3.006   3.296
 5011SOL     OW15931   1.903   3.555   1.914
 5011SOL    HW115932   1.804   3.557   1.908
 5011SOL    HW215933   1.942   3.529   1.826
 5012SOL     OW15934   5.022   3.128   5.905
 5012SOL    HW115935   5.011   3.221   5.869
 5012SOL    HW215936   5.064   3.132   5.995
 5013SOL     OW15937   5.202   2.034   6.925
 5013SOL    HW115938   5.285   2.084   6.901
 5013SOL    HW215939   5.224   1.937   6.938
 5014SOL     OW15940   5.488   4.730   0.544
 5014SOL    HW115941   5.575   4.697   0.509
 5014SOL    HW215942   5.418   4.659   0.532
 5015SOL     OW15943   4.525   2.189   3.974
 5015SOL    HW115944   4.557   2.111   3.920
 5015SOL    HW215945   4.601   2.222   4.031
 5016SOL     OW15946   2.703   1.695   1.475
 5016SOL    HW115947   2.759   1.749   1.412
 5016SOL    HW215948   2.661   1.619   1.426
 5017SOL     OW15949   1.958   2.393   0.408
 5017SOL    HW115950   2.051   2.359   0.405
 5017SOL    HW215951   1.941   2.453   0.330
 5018SOL     OW15952   0.873   4.650   1.611
 5018SOL    HW115953   0.916   4.665   1.700
 5018SOL    HW215954   0.775   4.633   1.623
 5019SOL     OW15955   2.409   4.203   0.135
 5019SOL    HW115956   2.476   4.191   0.062
 5019SOL    HW215957   2.374   4.113   0.163
 5020SOL     OW15958   4.557   6.158   5.752
 5020SOL    HW115959   4.533   6.253   5.774
 5020SOL    HW215960   4.596   6.154   5.661
 5021SOL     OW15961   1.592   2.572   5.459
 5021SOL    HW115962   1.615   2.489   5.408
 5021SOL    HW215963   1.518   2.621   5.412
 5022SOL     OW15964   1.967   0.352   0.912
 5022SOL    HW115965   1.922   0.373   0.825
 5022SOL    HW215966   1.978   0.253   0.920
 5023SOL     OW15967   6.394   2.921   1.325
 5023SOL    HW115968   6.383   2.825   1.349
 5023SOL    HW215969   6.456   2.929   1.247
 5024SOL     OW15970   6.938   4.377   2.966
 5024SOL    HW115971   0.014   4.398   2.959
 5024SOL    HW215972   6.925   4.303   3.032
 5025SOL     OW15973   4.090   1.939   1.807
 5025SOL    HW115974   4.173   1.979   1.767
 5025SOL    HW215975   4.071   1.851   1.765
 5026SOL     OW15976   5.694   5.634   6.282
 5026SOL    HW115977   5.715   5.571   6.207
 5026SOL    HW215978   5.596   5.634   6.300
 5027SOL     OW15979   0.542   0.186   2.055
 5027SOL    HW115980   0.536   0.200   2.153
 5027SOL    HW215981   0.499   0.099   2.031
 5028SOL     OW15982   0.174   6.814   2.730
 5028SOL    HW115983   0.219   6.798   2.818
 5028SOL    HW215984   0.181   6.911   2.707
 5029SOL     OW15985   6.350   3.011   3.919
 5029SOL    HW115986   6.389   2.927   3.882
 5029SOL    HW215987   6.298   2.991   4.002
 5030SOL     OW15988   6.614   0.840   7.008
 5030SOL    HW115989   6.532   0.851   6.952
 5030SOL    HW215990   6.693   0.822   6.950
 5031SOL     OW15991   5.635   1.351   4.757
 5031SOL    HW115992   5.553   1.368   4.703
 5031SOL    HW215993   5.714   1.391   4.711
 5032SOL     OW15994   1.036   4.058   1.440
 5032SOL    HW115995   0.951   4.007   1.456
 5032SOL    HW215996   1.016   4.156   1.441
 5033SOL     OW15997   1.630   4.505   6.550
 5033SOL    HW115998   1.689   4.472   6.476
 5033SOL    HW215999   1.598   4.598   6.528
 5034SOL     OW16000   6.522   3.220   2.545
 5034SOL    HW116001   6.518   3.314   2.578
 5034SOL    HW216002   6.604   3.176   2.581
 5035SOL     OW16003   6.134   4.129   0.639
 5035SOL    HW116004   6.132   4.030   0.627
 5035SOL    HW216005   6.195   4.153   0.715
 5036SOL     OW16006   0.378   5.066   6.546
 5036SOL    HW116007   0.430   5.052   6.631
 5036SOL    HW216008   0.327   4.983   6.524
 5037SOL     OW16009   4.595   2.527   2.230
 5037SOL    HW116010   4.584   2.500   2.135
 5037SOL    HW216011   4.622   2.624   2.234
 5038SOL     OW16012   1.677   5.180   5.717
 5038SOL    HW116013   1.610   5.107   5.724
 5038SOL    HW216014   1.641   5.262   5.762
 5039SOL     OW16015   2.151   3.676   5.342
 5039SOL    HW116016   2.155   3.773   5.317
 5039SOL    HW216017   2.183   3.621   5.265
 5040SOL     OW16018   2.287   4.343   6.257
 5040SOL    HW116019   2.332   4.291   6.328
 5040SOL    HW216020   2.281   4.288   6.173
 5041SOL     OW16021   1.093   3.478   1.323
 5041SOL    HW116022   1.146   3.394   1.336
 5041SOL    HW216023   1.018   3.481   1.389
 5042SOL     OW16024   0.080   2.975   6.644
 5042SOL    HW116025   0.145   2.996   6.571
 5042SOL    HW216026   0.093   3.038   6.720
 5043SOL     OW16027   3.459   1.143   5.623
 5043SOL    HW116028   3.465   1.237   5.657
 5043SOL    HW216029   3.383   1.096   5.667
 5044SOL     OW16030   6.075   6.993   3.020
 5044SOL    HW116031   6.091   0.001   3.114
 5044SOL    HW216032   5.980   6.965   3.010
 5045SOL     OW16033   5.303   2.994   6.906
 5045SOL    HW116034   5.344   2.973   6.995
 5045SOL    HW216035   5.339   3.081   6.873
 5046SOL     OW16036   4.123   3.660   4.778
 5046SOL    HW116037   4.197   3.671   4.843
 5046SOL    HW216038   4.036   3.657   4.827
 5047SOL     OW16039   6.597   2.296   2.343
 5047SOL    HW116040   6.674   2.340   2.296
 5047SOL    HW216041   6.565   2.218   2.290
 5048SOL     OW16042   6.911   2.417   0.979
 5048SOL    HW116043   6.992   2.404   1.036
 5048SOL    HW216044   6.833   2.440   1.036
 5049SOL     OW16045   0.011   1.289   3.935
 5049SOL    HW116046   0.040   1.311   4.028
 5049SOL    HW216047   6.938   1.262   3.935
 5050SOL     OW16048   0.690   1.308   2.114
 5050SOL    HW116049   0.745   1.332   2.194
 5050SOL    HW216050   0.725   1.357   2.034
 5051SOL     OW16051   4.254   3.849   0.707
 5051SOL    HW116052   4.249   3.939   0.663
 5051SOL    HW216053   4.336   3.844   0.764
 5052SOL     OW16054   2.740   5.355   5.800
 5052SOL    HW116055   2.781   5.264   5.807
 5052SOL    HW216056   2.782   5.405   5.724
 5053SOL     OW16057   1.899   4.035   3.092
 5053SOL    HW116058   1.916   3.992   3.180
 5053SOL    HW216059   1.986   4.056   3.048
 5054SOL     OW16060   3.625   5.462   4.851
 5054SOL    HW116061   3.544   5.420   4.893
 5054SOL    HW216062   3.672   5.395   4.794
 5055SOL     OW16063   0.267   1.353   5.251
 5055SOL    HW116064   0.327   1.425   5.218
 5055SOL    HW216065   0.306   1.264   5.229
 5056SOL     OW16066   6.563   4.264   6.982
 5056SOL    HW116067   6.614   4.203   0.020
 5056SOL    HW216068   6.495   4.211   6.931
 5057SOL     OW16069   1.121   5.325   3.483
 5057SOL    HW116070   1.216   5.340   3.510
 5057SOL    HW216071   1.094   5.394   3.416
 5058SOL     OW16072   2.566   3.375   6.454
 5058SOL    HW116073   2.580   3.472   6.437
 5058SOL    HW216074   2.506   3.336   6.384
 5059SOL     OW16075   5.308   3.588   4.545
 5059SOL    HW116076   5.247   3.623   4.617
 5059SOL    HW216077   5.253   3.557   4.467
 5060SOL     OW16078   0.103   2.617   5.414
 5060SOL    HW116079   0.062   2.593   5.326
 5060SOL    HW216080   0.107   2.716   5.424
 5061SOL     OW16081   3.150   2.995   3.658
 5061SOL    HW116082   3.057   3.019   3.687
 5061SOL    HW216083   3.159   3.012   3.560
 5062SOL     OW16084   5.820   1.394   2.252
 5062SOL    HW116085   5.779   1.486   2.252
 5062SOL    HW216086   5.836   1.365   2.347
 5063SOL     OW16087   0.967   5.921   1.971
 5063SOL    HW116088   0.906   5.947   1.896
 5063SOL    HW216089   1.048   5.876   1.934
 5064SOL     OW16090   4.825   5.465   1.388
 5064SOL    HW116091   4.824   5.373   1.427
 5064SOL    HW216092   4.904   5.475   1.328
 5065SOL     OW16093   1.591   1.041   3.053
 5065SOL    HW116094   1.527   1.018   2.980
 5065SOL    HW216095   1.680   1.064   3.014
 5066SOL     OW16096   2.594   4.419   1.669
 5066SOL    HW116097   2.582   4.408   1.571
 5066SOL    HW216098   2.686   4.456   1.687
 5067SOL     OW16099   4.703   1.350   2.589
 5067SOL    HW116100   4.712   1.443   2.623
 5067SOL    HW216101   4.606   1.325   2.585
 5068SOL     OW16102   2.922   5.583   6.931
 5068SOL    HW116103   3.015   5.620   6.940
 5068SOL    HW216104   2.924   5.484   6.935
 5069SOL     OW16105   2.505   3.221   6.018
 5069SOL    HW116106   2.459   3.241   5.932
 5069SOL    HW216107   2.482   3.291   6.085
 5070SOL     OW16108   5.924   4.435   4.697
 5070SOL    HW116109   5.826   4.421   4.707
 5070SOL    HW216110   5.964   4.456   4.786
 5071SOL     OW16111   4.144   2.281   3.422
 5071SOL    HW116112   4.188   2.204   3.469
 5071SOL    HW216113   4.210   2.324   3.360
 5072SOL     OW16114   1.895   1.180   1.496
 5072SOL    HW116115   1.985   1.139   1.478
 5072SOL    HW216116   1.823   1.119   1.462
 5073SOL     OW16117   1.474   5.295   1.254
 5073SOL    HW116118   1.375   5.309   1.255
 5073SOL    HW216119   1.496   5.204   1.290
 5074SOL     OW16120   4.154   2.288   1.508
 5074SOL    HW116121   4.188   2.254   1.596
 5074SOL    HW216122   4.061   2.324   1.519
 5075SOL     OW16123   1.200   2.017   6.984
 5075SOL    HW116124   1.123   2.021   0.025
 5075SOL    HW216125   1.273   1.960   0.001
 5076SOL     OW16126   5.663   6.737   0.191
 5076SOL    HW116127   5.735   6.670   0.208
 5076SOL    HW216128   5.635   6.779   0.277
 5077SOL     OW16129   0.219   3.830   5.940
 5077SOL    HW116130   0.212   3.919   5.895
 5077SOL    HW216131   0.128   3.797   5.963
 5078SOL     OW16132   0.491   0.911   4.101
 5078SOL    HW116133   0.512   0.893   4.005
 5078SOL    HW216134   0.422   0.983   4.107
 5079SOL     OW16135   2.460   2.766   5.621
 5079SOL    HW116136   2.484   2.795   5.528
 5079SOL    HW216137   2.534   2.792   5.683
 5080SOL     OW16138   5.578   5.526   5.632
 5080SOL    HW116139   5.579   5.602   5.567
 5080SOL    HW216140   5.672   5.505   5.660
 5081SOL     OW16141   2.892   4.501   5.709
 5081SOL    HW116142   2.924   4.487   5.616
 5081SOL    HW216143   2.814   4.564   5.709
 5082SOL     OW16144   5.260   6.906   0.384
 5082SOL    HW116145   5.358   6.917   0.403
 5082SOL    HW216146   5.226   6.824   0.430
 5083SOL     OW16147   3.319   0.552   1.734
 5083SOL    HW116148   3.221   0.540   1.718
 5083SOL    HW216149   3.353   0.475   1.788
 5084SOL     OW16150   0.744   4.992   4.200
 5084SOL    HW116151   0.703   5.040   4.123
 5084SOL    HW216152   0.839   5.019   4.210
 5085SOL     OW16153   0.703   3.229   5.519
 5085SOL    HW116154   0.749   3.317   5.532
 5085SOL    HW216155   0.671   3.222   5.425
 5086SOL     OW16156   1.001   4.278   2.324
 5086SOL    HW116157   1.092   4.265   2.363
 5086SOL    HW216158   0.987   4.214   2.249
 5087SOL     OW16159   6.922   5.547   1.500
 5087SOL    HW116160   6.844   5.590   1.455
 5087SOL    HW216161   6.989   5.617   1.525
 5088SOL     OW16162   5.252   6.883   3.130
 5088SOL    HW116163   5.267   6.971   3.174
 5088SOL    HW216164   5.246   6.895   3.031
 5089SOL     OW16165   5.935   4.293   4.260
 5089SOL    HW116166   6.021   4.298   4.209
 5089SOL    HW216167   5.859   4.303   4.197
 5090SOL     OW16168   2.214   1.562   2.491
 5090SOL    HW116169   2.243   1.562   2.587
 5090SOL    HW216170   2.114   1.566   2.486
 5091SOL     OW16171   6.507   0.716   1.298
 5091SOL    HW116172   6.528   0.698   1.394
 5091SOL    HW216173   6.419   0.675   1.275
 5092SOL     OW16174   3.580   2.855   3.333
 5092SOL    HW116175   3.675   2.879   3.353
 5092SOL    HW216176   3.553   2.775   3.387
 5093SOL     OW16177   3.536   1.474   0.851
 5093SOL    HW116178   3.550   1.380   0.881
 5093SOL    HW216179   3.606   1.498   0.783
 5094SOL     OW16180   2.100   6.008   6.623
 5094SOL    HW116181   2.080   6.065   6.702
 5094SOL    HW216182   2.076   5.913   6.644
 5095SOL     OW16183   0.097   2.439   3.405
 5095SOL    HW116184   0.033   2.512   3.430
 5095SOL    HW216185   0.046   2.361   3.369
 5096SOL     OW16186   4.767   4.962   6.416
 5096SOL    HW116187   4.687   4.989   6.470
 5096SOL    HW216188   4.795   4.869   6.443
 5097SOL     OW16189   0.039   6.700   0.035
 5097SOL    HW116190   6.980   6.755   0.054
 5097SOL    HW216191   0.076   6.664   0.120
 5098SOL     OW16192   3.394   1.402   1.733
 5098SOL    HW116193   3.421   1.456   1.813
 5098SOL    HW216194   3.326   1.452   1.680
 5099SOL     OW16195   0.578   6.485   2.297
 5099SOL    HW116196   0.498   6.426   2.285
 5099SOL    HW216197   0.660   6.428   2.305
 5100SOL     OW16198   3.461   5.522   4.468
 5100SOL    HW116199   3.417   5.545   4.381
 5100SOL    HW216200   3.436   5.590   4.537
 5101SOL     OW16201   4.367   6.753   5.679
 5101SOL    HW116202   4.294   6.810   5.717
 5101SOL    HW216203   4.374   6.668   5.730
 5102SOL     OW16204   5.346   6.359   4.302
 5102SOL    HW116205   5.399   6.366   4.387
 5102SOL    HW216206   5.366   6.436   4.243
 5103SOL     OW16207   0.899   1.476   4.278
 5103SOL    HW116208   0.947   1.403   4.327
 5103SOL    HW216209   0.932   1.479   4.183
 5104SOL     OW16210   2.762   6.700   1.943
 5104SOL    HW116211   2.860   6.695   1.964
 5104SOL    HW216212   2.711   6.710   2.028
 5105SOL     OW16213   3.270   2.983   6.619
 5105SOL    HW116214   3.265   3.022   6.711
 5105SOL    HW216215   3.335   3.036   6.563
 5106SOL     OW16216   4.167   1.296   1.763
 5106SOL    HW116217   4.138   1.294   1.859
 5106SOL    HW216218   4.247   1.355   1.754
 5107SOL     OW16219   4.728   2.321   1.662
 5107SOL    HW116220   4.698   2.416   1.652
 5107SOL    HW216221   4.768   2.290   1.576
 5108SOL     OW16222   3.912   3.689   4.980
 5108SOL    HW116223   3.854   3.766   5.007
 5108SOL    HW216224   3.883   3.607   5.030
 5109SOL     OW16225   1.106   2.163   0.611
 5109SOL    HW116226   1.040   2.100   0.569
 5109SOL    HW216227   1.143   2.121   0.694
 5110SOL     OW16228   0.999   0.720   6.379
 5110SOL    HW116229   0.927   0.726   6.311
 5110SOL    HW216230   0.965   0.754   6.467
 5111SOL     OW16231   1.828   0.279   4.149
 5111SOL    HW116232   1.730   0.261   4.150
 5111SOL    HW216233   1.850   0.334   4.068
 5112SOL     OW16234   0.592   0.259   2.699
 5112SOL    HW116235   0.646   0.243   2.616
 5112SOL    HW216236   0.595   0.177   2.756
 5113SOL     OW16237   1.360   5.825   1.554
 5113SOL    HW116238   1.322   5.743   1.598
 5113SOL    HW216239   1.286   5.889   1.534
 5114SOL     OW16240   3.894   6.810   6.590
 5114SOL    HW116241   3.985   6.834   6.625
 5114SOL    HW216242   3.902   6.779   6.495
 5115SOL     OW16243   1.360   4.844   2.886
 5115SOL    HW116244   1.432   4.835   2.955
 5115SOL    HW216245   1.308   4.759   2.881
 5116SOL     OW16246   0.817   6.463   0.782
 5116SOL    HW116247   0.877   6.543   0.787
 5116SOL    HW216248   0.797   6.430   0.874
 5117SOL     OW16249   0.699   3.691   3.945
 5117SOL    HW116250   0.713   3.775   3.998
 5117SOL    HW216251   0.602   3.676   3.932
 5118SOL     OW16252   5.313   0.779   0.143
 5118SOL    HW116253   5.234   0.732   0.106
 5118SOL    HW216254   5.349   0.844   0.075
 5119SOL     OW16255   4.702   0.990   2.673
 5119SOL    HW116256   4.787   0.942   2.695
 5119SOL    HW216257   4.625   0.942   2.716
 5120SOL     OW16258   4.128   6.861   5.117
 5120SOL    HW116259   4.205   6.920   5.143
 5120SOL    HW216260   4.111   6.795   5.190
 5121SOL     OW16261   3.552   2.976   7.000
 5121SOL    HW116262   3.636   2.951   0.026
 5121SOL    HW216263   3.544   3.076   6.996
 5122SOL     OW16264   3.357   6.104   3.336
 5122SOL    HW116265   3.412   6.080   3.256
 5122SOL    HW216266   3.327   6.020   3.382
 5123SOL     OW16267   5.376   1.854   4.552
 5123SOL    HW116268   5.429   1.772   4.571
 5123SOL    HW216269   5.321   1.841   4.470
 5124SOL     OW16270   1.954   5.782   4.524
 5124SOL    HW116271   2.000   5.694   4.534
 5124SOL    HW216272   1.888   5.778   4.448
 5125SOL     OW16273   6.322   2.946   3.036
 5125SOL    HW116274   6.374   3.032   3.035
 5125SOL    HW216275   6.304   2.919   3.130
 5126SOL     OW16276   6.901   5.858   6.870
 5126SOL    HW116277   6.937   5.767   6.889
 5126SOL    HW216278   6.904   5.876   6.772
 5127SOL     OW16279   0.160   3.781   0.123
 5127SOL    HW116280   0.174   3.840   0.043
 5127SOL    HW216281   0.076   3.728   0.110
 5128SOL     OW16282   0.435   0.075   0.330
 5128SOL    HW116283   0.475   7.010   0.300
 5128SOL    HW216284   0.467   0.096   0.422
 5129SOL     OW16285   6.381   6.840   2.869
 5129SOL    HW116286   6.376   6.920   2.808
 5129SOL    HW216287   6.476   6.825   2.896
 5130SOL     OW16288   6.895   5.654   2.469
 5130SOL    HW116289   6.847   5.737   2.439
 5130SOL    HW216290   6.861   5.576   2.417
 5131SOL     OW16291   1.803   3.537   4.440
 5131SOL    HW116292   1.862   3.597   4.386
 5131SOL    HW216293   1.839   3.444   4.437
 5132SOL     OW16294   3.995   2.633   6.064
 5132SOL    HW116295   3.898   2.652   6.073
 5132SOL    HW216296   4.010   2.534   6.060
 5133SOL     OW16297   1.707   5.046   7.015
 5133SOL    HW116298   1.766   5.056   0.073
 5133SOL    HW216299   1.691   5.136   6.974
 5134SOL     OW16300   6.876   2.786   2.147
 5134SOL    HW116301   6.852   2.752   2.238
 5134SOL    HW216302   6.808   2.853   2.118
 5135SOL     OW16303   6.342   2.540   5.255
 5135SOL    HW116304   6.314   2.460   5.202
 5135SOL    HW216305   6.292   2.620   5.222
 5136SOL     OW16306   4.537   0.663   6.163
 5136SOL    HW116307   4.544   0.563   6.172
 5136SOL    HW216308   4.487   0.700   6.242
 5137SOL     OW16309   5.635   3.376   6.215
 5137SOL    HW116310   5.605   3.425   6.133
 5137SOL    HW216311   5.580   3.293   6.226
 5138SOL     OW16312   2.755   2.342   5.878
 5138SOL    HW116313   2.719   2.392   5.957
 5138SOL    HW216314   2.752   2.401   5.798
 5139SOL     OW16315   1.787   0.204   2.876
 5139SOL    HW116316   1.845   0.156   2.940
 5139SOL    HW216317   1.783   0.154   2.789
 5140SOL     OW16318   3.808   2.066   0.469
 5140SOL    HW116319   3.755   2.057   0.553
 5140SOL    HW216320   3.746   2.085   0.393
 5141SOL     OW16321   6.546   3.915   0.429
 5141SOL    HW116322   6.596   3.829   0.438
 5141SOL    HW216323   6.447   3.897   0.429
 5142SOL     OW16324   5.830   0.681   4.166
 5142SOL    HW116325   5.746   0.630   4.187
 5142SOL    HW216326   5.893   0.675   4.244
 5143SOL     OW16327   0.111   4.353   3.842
 5143SOL    HW116328   0.155   4.276   3.795
 5143SOL    HW216329   0.045   4.397   3.781
 5144SOL     OW16330   1.025   4.728   6.207
 5144SOL    HW116331   1.084   4.669   6.262
 5144SOL    HW216332   1.077   4.807   6.175
 5145SOL     OW16333   2.208   4.650   5.733
 5145SOL    HW116334   2.233   4.745   5.715
 5145SOL    HW216335   2.120   4.630   5.690
 5146SOL     OW16336   4.140   4.001   5.338
 5146SOL    HW116337   4.161   4.097   5.319
 5146SOL    HW216338   4.061   3.972   5.285
 5147SOL     OW16339   0.061   4.727   2.680
 5147SOL    HW116340   0.076   4.757   2.774
 5147SOL    HW216341   7.004   4.775   2.641
 5148SOL     OW16342   1.046   6.316   1.243
 5148SOL    HW116343   1.022   6.313   1.340
 5148SOL    HW216344   1.129   6.371   1.231
 5149SOL     OW16345   6.107   6.042   3.908
 5149SOL    HW116346   6.053   5.975   3.858
 5149SOL    HW216347   6.203   6.033   3.882
 5150SOL     OW16348   2.134   5.167   2.557
 5150SOL    HW116349   2.158   5.146   2.651
 5150SOL    HW216350   2.043   5.131   2.537
 5151SOL     OW16351   4.979   1.916   0.762
 5151SOL    HW116352   4.921   1.997   0.776
 5151SOL    HW216353   4.963   1.878   0.671
 5152SOL     OW16354   2.125   4.126   0.034
 5152SOL    HW116355   2.164   4.142   6.965
 5152SOL    HW216356   2.114   4.213   0.081
 5153SOL     OW16357   2.550   0.201   0.009
 5153SOL    HW116358   2.496   0.239   0.084
 5153SOL    HW216359   2.536   0.257   6.949
 5154SOL     OW16360   1.699   2.947   6.221
 5154SOL    HW116361   1.759   2.932   6.142
 5154SOL    HW216362   1.685   3.045   6.233
 5155SOL     OW16363   3.957   6.935   2.987
 5155SOL    HW116364   4.039   6.907   3.036
 5155SOL    HW216365   3.932   6.865   2.920
 5156SOL     OW16366   6.834   3.280   6.374
 5156SOL    HW116367   6.766   3.230   6.319
 5156SOL    HW216368   6.838   3.375   6.344
 5157SOL     OW16369   4.366   2.263   3.767
 5157SOL    HW116370   4.294   2.315   3.812
 5157SOL    HW216371   4.432   2.230   3.835
 5158SOL     OW16372   3.773   1.306   1.355
 5158SOL    HW116373   3.837   1.231   1.374
 5158SOL    HW216374   3.705   1.310   1.428
 5159SOL     OW16375   0.169   3.132   3.975
 5159SOL    HW116376   0.194   3.107   3.881
 5159SOL    HW216377   0.231   3.204   4.007
 5160SOL     OW16378   0.498   4.316   3.485
 5160SOL    HW116379   0.499   4.342   3.582
 5160SOL    HW216380   0.418   4.356   3.440
 5161SOL     OW16381   1.574   3.331   4.678
 5161SOL    HW116382   1.655   3.386   4.657
 5161SOL    HW216383   1.602   3.241   4.709
 5162SOL     OW16384   1.323   4.966   3.552
 5162SOL    HW116385   1.367   4.893   3.603
 5162SOL    HW216386   1.266   5.021   3.614
 5163SOL     OW16387   4.573   6.097   1.393
 5163SOL    HW116388   4.548   6.009   1.355
 5163SOL    HW216389   4.504   6.126   1.460
 5164SOL     OW16390   4.555   2.532   6.385
 5164SOL    HW116391   4.531   2.627   6.370
 5164SOL    HW216392   4.545   2.481   6.299
 5165SOL     OW16393   5.788   4.141   5.319
 5165SOL    HW116394   5.707   4.107   5.367
 5165SOL    HW216395   5.783   4.116   5.223
 5166SOL     OW16396   0.115   5.591   2.359
 5166SOL    HW116397   0.101   5.493   2.350
 5166SOL    HW216398   0.045   5.630   2.418
 5167SOL     OW16399   6.468   5.759   5.537
 5167SOL    HW116400   6.441   5.798   5.625
 5167SOL    HW216401   6.438   5.819   5.463
 5168SOL     OW16402   5.214   3.548   3.344
 5168SOL    HW116403   5.239   3.464   3.295
 5168SOL    HW216404   5.287   3.616   3.332
 5169SOL     OW16405   4.320   1.910   5.189
 5169SOL    HW116406   4.321   1.971   5.268
 5169SOL    HW216407   4.242   1.932   5.130
 5170SOL     OW16408   0.468   4.033   5.353
 5170SOL    HW116409   0.463   4.079   5.442
 5170SOL    HW216410   0.387   4.055   5.299
 5171SOL     OW16411   1.702   5.471   3.671
 5171SOL    HW116412   1.671   5.462   3.766
 5171SOL    HW216413   1.796   5.439   3.663
 5172SOL     OW16414   6.600   2.693   2.577
 5172SOL    HW116415   6.576   2.775   2.628
 5172SOL    HW216416   6.517   2.651   2.540
 5173SOL     OW16417   5.664   4.554   5.943
 5173SOL    HW116418   5.676   4.456   5.932
 5173SOL    HW216419   5.630   4.574   6.036
 5174SOL     OW16420   2.332   4.658   3.257
 5174SOL    HW116421   2.323   4.639   3.159
 5174SOL    HW216422   2.426   4.640   3.286
 5175SOL     OW16423   2.399   3.807   6.986
 5175SOL    HW116424   2.393   3.735   0.033
 5175SOL    HW216425   2.414   3.895   0.007
 5176SOL     OW16426   4.619   3.339   6.437
 5176SOL    HW116427   4.712   3.375   6.436
 5176SOL    HW216428   4.582   3.346   6.530
 5177SOL     OW16429   5.101   0.204   6.574
 5177SOL    HW116430   5.108   0.105   6.561
 5177SOL    HW216431   5.025   0.240   6.519
 5178SOL     OW16432   1.515   3.594   1.374
 5178SOL    HW116433   1.445   3.560   1.312
 5178SOL    HW216434   1.504   3.692   1.388
 5179SOL     OW16435   4.008   5.804   4.879
 5179SOL    HW116436   3.910   5.815   4.866
 5179SOL    HW216437   4.039   5.858   4.957
 5180SOL     OW16438   3.129   2.956   6.975
 5180SOL    HW116439   3.045   2.966   0.006
 5180SOL    HW216440   3.106   2.936   6.880
 5181SOL     OW16441   4.961   1.768   2.091
 5181SOL    HW116442   5.028   1.721   2.149
 5181SOL    HW216443   4.899   1.822   2.149
 5182SOL     OW16444   3.783   5.026   1.602
 5182SOL    HW116445   3.714   5.033   1.674
 5182SOL    HW216446   3.872   5.003   1.644
 5183SOL     OW16447   3.958   1.348   2.822
 5183SOL    HW116448   3.965   1.302   2.910
 5183SOL    HW216449   3.897   1.295   2.762
 5184SOL     OW16450   0.251   2.224   4.305
 5184SOL    HW116451   0.165   2.267   4.334
 5184SOL    HW216452   0.327   2.287   4.323
 5185SOL     OW16453   5.444   0.726   2.449
 5185SOL    HW116454   5.412   0.696   2.359
 5185SOL    HW216455   5.395   0.675   2.520
 5186SOL     OW16456   5.935   3.406   0.856
 5186SOL    HW116457   5.933   3.505   0.870
 5186SOL    HW216458   5.951   3.361   0.944
 5187SOL     OW16459   6.766   0.909   3.723
 5187SOL    HW116460   6.704   0.939   3.650
 5187SOL    HW216461   6.727   0.829   3.769
 5188SOL     OW16462   0.708   5.654   0.146
 5188SOL    HW116463   0.784   5.589   0.140
 5188SOL    HW216464   0.667   5.648   0.237
 5189SOL     OW16465   4.958   4.928   1.035
 5189SOL    HW116466   4.985   4.980   1.116
 5189SOL    HW216467   5.015   4.847   1.027
 5190SOL     OW16468   0.170   2.997   4.262
 5190SOL    HW116469   0.087   2.999   4.206
 5190SOL    HW216470   0.240   2.943   4.215
 5191SOL     OW16471   4.590   0.497   2.097
 5191SOL    HW116472   4.599   0.592   2.128
 5191SOL    HW216473   4.519   0.492   2.027
 5192SOL     OW16474   2.673   5.551   3.093
 5192SOL    HW116475   2.654   5.650   3.094
 5192SOL    HW216476   2.746   5.532   3.158
 5193SOL     OW16477   5.029   4.819   4.001
 5193SOL    HW116478   5.122   4.784   4.006
 5193SOL    HW216479   4.976   4.765   3.935
 5194SOL     OW16480   4.325   0.680   7.008
 5194SOL    HW116481   4.249   0.687   6.944
 5194SOL    HW216482   4.335   0.767   0.035
 5195SOL     OW16483   0.016   5.676   4.009
 5195SOL    HW116484   7.021   5.580   4.033
 5195SOL    HW216485   0.108   5.701   4.039
 5196SOL     OW16486   1.460   3.888   0.834
 5196SOL    HW116487   1.547   3.860   0.874
 5196SOL    HW216488   1.385   3.861   0.894
 5197SOL     OW16489   1.365   5.442   5.105
 5197SOL    HW116490   1.380   5.474   5.198
 5197SOL    HW216491   1.389   5.515   5.040
 5198SOL     OW16492   4.033   6.812   3.937
 5198SOL    HW116493   4.034   6.907   3.905
 5198SOL    HW216494   3.945   6.770   3.914
 5199SOL     OW16495   1.229   6.391   6.734
 5199SOL    HW116496   1.258   6.387   6.638
 5199SOL    HW216497   1.156   6.459   6.743
 5200SOL     OW16498   1.514   1.827   5.508
 5200SOL    HW116499   1.425   1.855   5.471
 5200SOL    HW216500   1.501   1.789   5.600
 5201SOL     OW16501   5.675   6.094   4.418
 5201SOL    HW116502   5.687   6.193   4.411
 5201SOL    HW216503   5.724   6.049   4.343
 5202SOL     OW16504   5.915   4.030   5.724
 5202SOL    HW116505   5.993   4.092   5.732
 5202SOL    HW216506   5.886   4.000   5.815
 5203SOL     OW16507   2.355   0.895   6.889
 5203SOL    HW116508   2.388   0.963   6.824
 5203SOL    HW216509   2.336   0.939   6.977
 5204SOL     OW16510   3.701   6.241   0.578
 5204SOL    HW116511   3.756   6.179   0.634
 5204SOL    HW216512   3.734   6.335   0.589
 5205SOL     OW16513   6.832   6.010   0.040
 5205SOL    HW116514   6.899   6.082   0.059
 5205SOL    HW216515   6.865   5.952   6.989
 5206SOL     OW16516   6.856   5.295   6.776
 5206SOL    HW116517   6.885   5.238   6.853
 5206SOL    HW216518   6.893   5.259   6.691
 5207SOL     OW16519   0.871   0.304   3.471
 5207SOL    HW116520   0.901   0.210   3.487
 5207SOL    HW216521   0.868   0.322   3.373
 5208SOL     OW16522   4.367   2.576   0.007
 5208SOL    HW116523   4.459   2.587   6.992
 5208SOL    HW216524   4.343   2.479   0.011
 5209SOL     OW16525   5.405   0.815   1.551
 5209SOL    HW116526   5.452   0.854   1.630
 5209SOL    HW216527   5.382   0.888   1.486
 5210SOL     OW16528   4.703   3.736   0.478
 5210SOL    HW116529   4.749   3.797   0.412
 5210SOL    HW216530   4.768   3.666   0.509
 5211SOL     OW16531   4.752   2.004   5.165
 5211SOL    HW116532   4.669   1.949   5.155
 5211SOL    HW216533   4.759   2.036   5.259
 5212SOL     OW16534   1.937   2.605   1.377
 5212SOL    HW116535   1.867   2.543   1.412
 5212SOL    HW216536   1.897   2.695   1.360
 5213SOL     OW16537   4.236   3.583   0.938
 5213SOL    HW116538   4.201   3.676   0.943
 5213SOL    HW216539   4.263   3.552   1.029
 5214SOL     OW16540   5.625   2.738   5.835
 5214SOL    HW116541   5.593   2.746   5.740
 5214SOL    HW216542   5.662   2.826   5.865
 5215SOL     OW16543   0.432   4.692   4.327
 5215SOL    HW116544   0.354   4.753   4.311
 5215SOL    HW216545   0.479   4.720   4.410
 5216SOL     OW16546   4.675   5.178   1.042
 5216SOL    HW116547   4.593   5.235   1.031
 5216SOL    HW216548   4.752   5.236   1.069
 5217SOL     OW16549   3.698   5.704   4.578
 5217SOL    HW116550   3.649   5.724   4.492
 5217SOL    HW216551   3.678   5.609   4.605
 5218SOL     OW16552   0.637   1.413   1.451
 5218SOL    HW116553   0.552   1.363   1.438
 5218SOL    HW216554   0.629   1.504   1.410
 5219SOL     OW16555   3.738   2.030   4.768
 5219SOL    HW116556   3.639   2.045   4.767
 5219SOL    HW216557   3.756   1.931   4.773
 5220SOL     OW16558   1.461   4.850   3.134
 5220SOL    HW116559   1.463   4.770   3.194
 5220SOL    HW216560   1.482   4.932   3.187
 5221SOL     OW16561   6.338   0.484   2.682
 5221SOL    HW116562   6.248   0.525   2.696
 5221SOL    HW216563   6.328   0.398   2.631
 5222SOL     OW16564   3.873   6.239   2.330
 5222SOL    HW116565   3.911   6.209   2.417
 5222SOL    HW216566   3.778   6.267   2.343
 5223SOL     OW16567   0.071   2.781   7.013
 5223SOL    HW116568   0.085   2.880   7.003
 5223SOL    HW216569   0.116   2.750   0.075
 5224SOL     OW16570   6.931   2.753   4.201
 5224SOL    HW116571   6.929   2.850   4.177
 5224SOL    HW216572   0.001   2.727   4.230
 5225SOL     OW16573   6.384   0.840   3.432
 5225SOL    HW116574   6.483   0.835   3.419
 5225SOL    HW216575   6.362   0.920   3.488
 5226SOL     OW16576   0.568   6.452   4.026
 5226SOL    HW116577   0.632   6.528   4.016
 5226SOL    HW216578   0.582   6.387   3.951
 5227SOL     OW16579   0.253   4.353   5.772
 5227SOL    HW116580   0.349   4.374   5.790
 5227SOL    HW216581   0.195   4.409   5.831
 5228SOL     OW16582   0.972   2.024   0.154
 5228SOL    HW116583   0.893   1.962   0.154
 5228SOL    HW216584   0.947   2.110   0.111
 5229SOL     OW16585   3.169   6.395   0.326
 5229SOL    HW116586   3.145   6.414   0.231
 5229SOL    HW216587   3.087   6.396   0.383
 5230SOL     OW16588   6.699   6.173   2.353
 5230SOL    HW116589   6.625   6.107   2.337
 5230SOL    HW216590   6.785   6.124   2.367
 5231SOL     OW16591   4.621   2.657   3.523
 5231SOL    HW116592   4.578   2.603   3.596
 5231SOL    HW216593   4.582   2.632   3.435
 5232SOL     OW16594   0.977   4.031   6.008
 5232SOL    HW116595   1.048   3.965   5.984
 5232SOL    HW216596   1.016   4.101   6.068
 5233SOL     OW16597   3.505   1.091   2.602
 5233SOL    HW116598   3.448   1.042   2.536
 5233SOL    HW216599   3.473   1.186   2.610
 5234SOL     OW16600   2.404   2.417   6.654
 5234SOL    HW116601   2.363   2.466   6.731
 5234SOL    HW216602   2.484   2.366   6.685
 5235SOL     OW16603   2.090   2.157   0.899
 5235SOL    HW116604   2.075   2.255   0.898
 5235SOL    HW216605   2.187   2.137   0.886
 5236SOL     OW16606   3.630   5.692   2.031
 5236SOL    HW116607   3.632   5.700   2.131
 5236SOL    HW216608   3.688   5.763   1.990
 5237SOL     OW16609   1.147   0.980   4.954
 5237SOL    HW116610   1.228   0.925   4.974
 5237SOL    HW216611   1.129   1.042   5.030
 5238SOL     OW16612   0.658   6.052   0.031
 5238SOL    HW116613   0.741   6.108   0.028
 5238SOL    HW216614   0.635   6.031   0.126
 5239SOL     OW16615   3.589   2.621   0.143
 5239SOL    HW116616   3.536   2.589   0.222
 5239SOL    HW216617   3.558   2.712   0.116
 5240SOL     OW16618   3.376   2.162   5.227
 5240SOL    HW116619   3.354   2.135   5.321
 5240SOL    HW216620   3.306   2.224   5.192
 5241SOL     OW16621   0.789   5.720   3.998
 5241SOL    HW116622   0.870   5.771   4.027
 5241SOL    HW216623   0.768   5.649   4.065
 5242SOL     OW16624   5.642   6.706   2.223
 5242SOL    HW116625   5.569   6.736   2.162
 5242SOL    HW216626   5.624   6.738   2.316
 5243SOL     OW16627   2.107   5.680   1.760
 5243SOL    HW116628   2.040   5.713   1.693
 5243SOL    HW216629   2.199   5.700   1.727
 5244SOL     OW16630   3.430   4.606   6.468
 5244SOL    HW116631   3.500   4.665   6.428
 5244SOL    HW216632   3.406   4.640   6.559
 5245SOL     OW16633   3.675   4.435   0.647
 5245SOL    HW116634   3.768   4.399   0.633
 5245SOL    HW216635   3.677   4.535   0.644
 5246SOL     OW16636   6.418   2.689   2.056
 5246SOL    HW116637   6.337   2.740   2.027
 5246SOL    HW216638   6.474   2.747   2.115
 5247SOL     OW16639   2.649   0.157   6.292
 5247SOL    HW116640   2.723   0.223   6.301
 5247SOL    HW216641   2.687   0.065   6.281
 5248SOL     OW16642   6.586   2.352   3.092
 5248SOL    HW116643   6.637   2.356   3.178
 5248SOL    HW216644   6.620   2.276   3.036
 5249SOL     OW16645   0.827   5.769   6.122
 5249SOL    HW116646   0.911   5.823   6.131
 5249SOL    HW216647   0.833   5.711   6.041
 5250SOL     OW16648   1.082   6.130   0.351
 5250SOL    HW116649   1.083   6.224   0.386
 5250SOL    HW216650   1.142   6.073   0.407
 5251SOL     OW16651   1.082   3.383   0.602
 5251SOL    HW116652   1.004   3.446   0.605
 5251SOL    HW216653   1.086   3.331   0.687
 5252SOL     OW16654   2.848   6.558   1.154
 5252SOL    HW116655   2.880   6.500   1.229
 5252SOL    HW216656   2.904   6.640   1.150
 5253SOL     OW16657   6.859   3.891   4.899
 5253SOL    HW116658   6.786   3.838   4.942
 5253SOL    HW216659   6.833   3.915   4.806
 5254SOL     OW16660   5.703   0.894   3.583
 5254SOL    HW116661   5.682   0.796   3.592
 5254SOL    HW216662   5.683   0.941   3.669
 5255SOL     OW16663   5.287   2.190   5.365
 5255SOL    HW116664   5.276   2.092   5.381
 5255SOL    HW216665   5.273   2.239   5.451
 5256SOL     OW16666   5.351   2.058   3.832
 5256SOL    HW116667   5.272   1.999   3.812
 5256SOL    HW216668   5.385   2.096   3.746
 5257SOL     OW16669   4.684   6.919   1.061
 5257SOL    HW116670   4.778   6.921   1.095
 5257SOL    HW216671   4.625   6.968   1.126
 5258SOL     OW16672   5.934   3.059   1.731
 5258SOL    HW116673   5.991   3.080   1.810
 5258SOL    HW216674   5.933   2.960   1.716
 5259SOL     OW16675   4.909   5.887   2.700
 5259SOL    HW116676   4.928   5.792   2.674
 5259SOL    HW216677   4.924   5.947   2.622
 5260SOL     OW16678   4.421   3.680   0.497
 5260SOL    HW116679   4.517   3.707   0.510
 5260SOL    HW216680   4.362   3.737   0.554
 5261SOL     OW16681   6.410   3.935   5.966
 5261SOL    HW116682   6.359   3.983   5.894
 5261SOL    HW216683   6.372   3.960   6.055
 5262SOL     OW16684   2.566   1.487   3.394
 5262SOL    HW116685   2.578   1.538   3.309
 5262SOL    HW216686   2.647   1.432   3.412
 5263SOL     OW16687   1.900   1.528   3.362
 5263SOL    HW116688   1.888   1.478   3.276
 5263SOL    HW216689   1.977   1.591   3.353
 5264SOL     OW16690   6.459   2.045   1.966
 5264SOL    HW116691   6.546   2.065   1.920
 5264SOL    HW216692   6.384   2.090   1.917
 5265SOL     OW16693   6.066   3.739   4.015
 5265SOL    HW116694   6.111   3.704   3.933
 5265SOL    HW216695   5.985   3.684   4.035
 5266SOL     OW16696   3.473   5.508   6.817
 5266SOL    HW116697   3.505   5.563   6.740
 5266SOL    HW216698   3.458   5.414   6.786
 5267SOL     OW16699   4.977   2.599   4.803
 5267SOL    HW116700   5.015   2.517   4.760
 5267SOL    HW216701   5.048   2.669   4.810
 5268SOL     OW16702   5.902   0.871   0.362
 5268SOL    HW116703   5.890   0.866   0.461
 5268SOL    HW216704   5.824   0.828   0.317
 5269SOL     OW16705   0.952   6.414   3.022
 5269SOL    HW116706   0.881   6.349   3.048
 5269SOL    HW216707   1.042   6.371   3.028
 5270SOL     OW16708   5.203   1.300   1.918
 5270SOL    HW116709   5.178   1.385   1.964
 5270SOL    HW216710   5.179   1.222   1.976
 5271SOL     OW16711   6.090   4.293   5.077
 5271SOL    HW116712   6.122   4.333   5.162
 5271SOL    HW216713   6.135   4.205   5.061
 5272SOL     OW16714   3.407   6.406   1.708
 5272SOL    HW116715   3.416   6.314   1.670
 5272SOL    HW216716   3.454   6.409   1.797
 5273SOL     OW16717   0.511   2.887   3.361
 5273SOL    HW116718   0.456   2.868   3.279
 5273SOL    HW216719   0.453   2.927   3.431
 5274SOL     OW16720   6.011   0.447   2.809
 5274SOL    HW116721   6.013   0.439   2.908
 5274SOL    HW216722   5.972   0.535   2.783
 5275SOL     OW16723   3.955   1.807   0.452
 5275SOL    HW116724   3.916   1.894   0.481
 5275SOL    HW216725   3.957   1.744   0.529
 5276SOL     OW16726   2.047   0.067   0.884
 5276SOL    HW116727   2.143   0.052   0.863
 5276SOL    HW216728   1.993   7.010   0.855
 5277SOL     OW16729   2.489   1.552   2.407
 5277SOL    HW116730   2.514   1.481   2.341
 5277SOL    HW216731   2.393   1.542   2.431
 5278SOL     OW16732   5.431   5.903   3.510
 5278SOL    HW116733   5.439   6.000   3.535
 5278SOL    HW216734   5.413   5.895   3.412
 5279SOL     OW16735   2.172   5.082   0.114
 5279SOL    HW116736   2.118   5.159   0.147
 5279SOL    HW216737   2.265   5.113   0.092
 5280SOL     OW16738   3.254   5.768   5.298
 5280SOL    HW116739   3.306   5.694   5.256
 5280SOL    HW216740   3.164   5.774   5.255
 5281SOL     OW16741   6.853   1.803   1.979
 5281SOL    HW116742   6.944   1.764   1.965
 5281SOL    HW216743   6.785   1.729   1.985
 5282SOL     OW16744   4.032   1.871   3.516
 5282SOL    HW116745   4.082   1.849   3.432
 5282SOL    HW216746   3.936   1.888   3.494
 5283SOL     OW16747   4.509   6.302   2.373
 5283SOL    HW116748   4.444   6.378   2.364
 5283SOL    HW216749   4.559   6.292   2.287
 5284SOL     OW16750   4.507   4.500   3.232
 5284SOL    HW116751   4.520   4.418   3.287
 5284SOL    HW216752   4.499   4.474   3.135
 5285SOL     OW16753   2.577   4.562   4.283
 5285SOL    HW116754   2.536   4.534   4.370
 5285SOL    HW216755   2.555   4.494   4.213
 5286SOL     OW16756   1.874   4.553   0.657
 5286SOL    HW116757   1.939   4.594   0.592
 5286SOL    HW216758   1.788   4.534   0.610
 5287SOL     OW16759   3.371   0.745   0.288
 5287SOL    HW116760   3.272   0.756   0.278
 5287SOL    HW216761   3.412   0.729   0.198
 5288SOL     OW16762   2.820   0.027   1.864
 5288SOL    HW116763   2.875   0.013   1.782
 5288SOL    HW216764   2.880   0.057   1.939
 5289SOL     OW16765   1.613   4.774   6.478
 5289SOL    HW116766   1.695   4.765   6.422
 5289SOL    HW216767   1.554   4.845   6.440
 5290SOL     OW16768   2.536   5.879   5.736
 5290SOL    HW116769   2.557   5.976   5.728
 5290SOL    HW216770   2.516   5.856   5.831
 5291SOL     OW16771   2.307   5.884   5.261
 5291SOL    HW116772   2.249   5.941   5.202
 5291SOL    HW216773   2.286   5.787   5.245
 5292SOL     OW16774   5.595   2.644   0.386
 5292SOL    HW116775   5.590   2.738   0.353
 5292SOL    HW216776   5.524   2.589   0.340
 5293SOL     OW16777   0.312   0.961   5.089
 5293SOL    HW116778   0.351   0.980   5.179
 5293SOL    HW216779   0.215   0.985   5.089
 5294SOL     OW16780   5.281   3.512   5.984
 5294SOL    HW116781   5.276   3.573   6.063
 5294SOL    HW216782   5.189   3.481   5.961
 5295SOL     OW16783   6.340   1.087   2.800
 5295SOL    HW116784   6.316   1.172   2.754
 5295SOL    HW216785   6.373   1.021   2.733
 5296SOL     OW16786   1.734   5.975   6.950
 5296SOL    HW116787   1.646   6.022   6.959
 5296SOL    HW216788   1.720   5.886   6.906
 5297SOL     OW16789   1.586   2.085   1.502
 5297SOL    HW116790   1.496   2.065   1.463
 5297SOL    HW216791   1.651   2.102   1.428
 5298SOL     OW16792   6.390   5.977   2.211
 5298SOL    HW116793   6.370   6.066   2.252
 5298SOL    HW216794   6.369   5.904   2.277
 5299SOL     OW16795   2.962   2.014   1.251
 5299SOL    HW116796   2.890   2.083   1.262
 5299SOL    HW216797   3.030   2.047   1.186
 5300SOL     OW16798   0.390   5.393   2.655
 5300SOL    HW116799   0.375   5.459   2.728
 5300SOL    HW216800   0.314   5.329   2.651
 5301SOL     OW16801   4.324   1.159   0.240
 5301SOL    HW116802   4.395   1.207   0.292
 5301SOL    HW216803   4.274   1.097   0.301
 5302SOL     OW16804   6.509   4.572   3.377
 5302SOL    HW116805   6.588   4.596   3.433
 5302SOL    HW216806   6.539   4.524   3.295
 5303SOL     OW16807   6.707   6.663   3.995
 5303SOL    HW116808   6.791   6.609   4.009
 5303SOL    HW216809   6.713   6.711   3.907
 5304SOL     OW16810   5.876   1.972   6.277
 5304SOL    HW116811   5.925   2.017   6.352
 5304SOL    HW216812   5.942   1.946   6.205
 5305SOL     OW16813   0.832   0.415   4.098
 5305SOL    HW116814   0.827   0.442   4.002
 5305SOL    HW216815   0.814   0.495   4.156
 5306SOL     OW16816   1.758   6.393   5.222
 5306SOL    HW116817   1.677   6.449   5.205
 5306SOL    HW216818   1.737   6.297   5.208
 5307SOL     OW16819   4.562   6.206   6.182
 5307SOL    HW116820   4.475   6.157   6.174
 5307SOL    HW216821   4.547   6.303   6.162
 5308SOL     OW16822   6.985   0.945   4.013
 5308SOL    HW116823   7.013   0.887   3.937
 5308SOL    HW216824   6.921   1.015   3.980
 5309SOL     OW16825   3.963   3.874   3.318
 5309SOL    HW116826   3.871   3.882   3.278
 5309SOL    HW216827   4.000   3.966   3.333
 5310SOL     OW16828   5.016   2.712   2.042
 5310SOL    HW116829   5.001   2.725   2.140
 5310SOL    HW216830   5.091   2.648   2.028
 5311SOL     OW16831   0.381   6.001   6.909
 5311SOL    HW116832   0.391   5.968   6.814
 5311SOL    HW216833   0.371   6.100   6.909
 5312SOL     OW16834   0.307   4.618   2.136
 5312SOL    HW116835   0.235   4.674   2.176
 5312SOL    HW216836   0.303   4.525   2.172
 5313SOL     OW16837   0.515   5.615   6.821
 5313SOL    HW116838   0.581   5.577   6.757
 5313SOL    HW216839   0.563   5.662   6.895
 5314SOL     OW16840   4.645   5.263   0.475
 5314SOL    HW116841   4.569   5.200   0.489
 5314SOL    HW216842   4.611   5.357   0.470
 5315SOL     OW16843   4.446   4.554   1.978
 5315SOL    HW116844   4.530   4.605   1.996
 5315SOL    HW216845   4.468   4.457   1.965
 5316SOL     OW16846   0.573   5.352   4.789
 5316SOL    HW116847   0.582   5.312   4.698
 5316SOL    HW216848   0.649   5.321   4.846
 5317SOL     OW16849   5.547   1.576   4.122
 5317SOL    HW116850   5.588   1.511   4.058
 5317SOL    HW216851   5.497   1.527   4.192
 5318SOL     OW16852   6.886   1.920   4.819
 5318SOL    HW116853   6.913   1.873   4.735
 5318SOL    HW216854   6.807   1.873   4.859
 5319SOL     OW16855   5.254   6.396   6.415
 5319SOL    HW116856   5.241   6.455   6.494
 5319SOL    HW216857   5.222   6.304   6.436
 5320SOL     OW16858   6.207   5.099   0.392
 5320SOL    HW116859   6.194   5.007   0.355
 5320SOL    HW216860   6.157   5.165   0.336
 5321SOL     OW16861   1.068   4.971   3.391
 5321SOL    HW116862   1.150   4.960   3.448
 5321SOL    HW216863   1.092   5.015   3.305
 5322SOL     OW16864   3.966   6.611   6.919
 5322SOL    HW116865   4.017   6.676   6.976
 5322SOL    HW216866   3.930   6.659   6.839
 5323SOL     OW16867   4.568   2.981   1.281
 5323SOL    HW116868   4.648   2.928   1.253
 5323SOL    HW216869   4.586   3.024   1.369
 5324SOL     OW16870   3.779   2.562   1.723
 5324SOL    HW116871   3.844   2.509   1.668
 5324SOL    HW216872   3.745   2.505   1.797
 5325SOL     OW16873   5.621   7.018   2.821
 5325SOL    HW116874   5.543   0.058   2.830
 5325SOL    HW216875   5.669   0.016   2.736
 5326SOL     OW16876   6.123   5.217   2.246
 5326SOL    HW116877   6.134   5.119   2.230
 5326SOL    HW216878   6.040   5.249   2.199
 5327SOL     OW16879   0.594   6.423   5.533
 5327SOL    HW116880   0.569   6.495   5.598
 5327SOL    HW216881   0.516   6.405   5.472
 5328SOL     OW16882   3.625   2.413   5.663
 5328SOL    HW116883   3.595   2.331   5.711
 5328SOL    HW216884   3.611   2.401   5.564
 5329SOL     OW16885   6.634   4.248   0.787
 5329SOL    HW116886   6.565   4.182   0.756
 5329SOL    HW216887   6.716   4.239   0.731
 5330SOL     OW16888   3.738   4.235   6.848
 5330SOL    HW116889   3.781   4.243   6.938
 5330SOL    HW216890   3.665   4.304   6.840
 5331SOL     OW16891   4.796   2.448   0.668
 5331SOL    HW116892   4.836   2.436   0.577
 5331SOL    HW216893   4.697   2.445   0.661
 5332SOL     OW16894   6.484   4.811   0.202
 5332SOL    HW116895   6.412   4.871   0.167
 5332SOL    HW216896   6.505   4.740   0.134
 5333SOL     OW16897   1.969   0.880   3.603
 5333SOL    HW116898   1.877   0.850   3.578
 5333SOL    HW216899   1.966   0.976   3.632
 5334SOL     OW16900   4.924   4.951   4.583
 5334SOL    HW116901   4.942   5.019   4.655
 5334SOL    HW216902   4.827   4.949   4.562
 5335SOL     OW16903   6.571   4.349   2.804
 5335SOL    HW116904   6.524   4.330   2.890
 5335SOL    HW216905   6.655   4.400   2.822
 5336SOL     OW16906   2.244   1.767   3.885
 5336SOL    HW116907   2.212   1.842   3.827
 5336SOL    HW216908   2.293   1.804   3.963
 5337SOL     OW16909   5.988   4.945   1.366
 5337SOL    HW116910   6.014   5.034   1.328
 5337SOL    HW216911   6.070   4.897   1.398
 5338SOL     OW16912   5.402   3.025   0.156
 5338SOL    HW116913   5.354   2.938   0.162
 5338SOL    HW216914   5.501   3.009   0.155
 5339SOL     OW16915   5.911   1.792   1.847
 5339SOL    HW116916   5.998   1.763   1.885
 5339SOL    HW216917   5.925   1.872   1.789
 5340SOL     OW16918   5.467   3.898   1.597
 5340SOL    HW116919   5.513   3.809   1.593
 5340SOL    HW216920   5.369   3.884   1.616
 5341SOL     OW16921   4.335   4.923   4.275
 5341SOL    HW116922   4.282   4.890   4.354
 5341SOL    HW216923   4.432   4.906   4.290
 5342SOL     OW16924   4.719   6.576   5.498
 5342SOL    HW116925   4.717   6.638   5.419
 5342SOL    HW216926   4.710   6.630   5.582
 5343SOL     OW16927   3.675   3.538   4.476
 5343SOL    HW116928   3.743   3.504   4.411
 5343SOL    HW216929   3.584   3.534   4.435
 5344SOL     OW16930   0.422   1.495   7.022
 5344SOL    HW116931   0.333   1.464   0.032
 5344SOL    HW216932   0.470   1.418   6.979
 5345SOL     OW16933   5.148   1.083   0.050
 5345SOL    HW116934   5.221   1.092   0.118
 5345SOL    HW216935   5.098   0.997   0.066
 5346SOL     OW16936   2.716   5.025   4.139
 5346SOL    HW116937   2.665   4.943   4.167
 5346SOL    HW216938   2.652   5.101   4.128
 5347SOL     OW16939   0.039   2.919   3.336
 5347SOL    HW116940   0.018   2.833   3.289
 5347SOL    HW216941   0.134   2.944   3.318
 5348SOL     OW16942   0.180   1.577   5.081
 5348SOL    HW116943   0.096   1.574   5.027
 5348SOL    HW216944   0.207   1.483   5.106
 5349SOL     OW16945   1.899   2.913   1.682
 5349SOL    HW116946   1.963   2.926   1.606
 5349SOL    HW216947   1.872   2.817   1.687
 5350SOL     OW16948   1.673   7.005   5.659
 5350SOL    HW116949   1.724   0.057   5.701
 5350SOL    HW216950   1.736   6.932   5.633
 5351SOL     OW16951   0.296   4.472   1.899
 5351SOL    HW116952   0.310   4.538   1.825
 5351SOL    HW216953   0.314   4.516   1.987
 5352SOL     OW16954   2.529   4.476   2.893
 5352SOL    HW116955   2.554   4.467   2.797
 5352SOL    HW216956   2.587   4.546   2.936
 5353SOL     OW16957   3.404   5.142   3.678
 5353SOL    HW116958   3.439   5.074   3.613
 5353SOL    HW216959   3.313   5.171   3.650
 5354SOL     OW16960   3.021   4.655   0.236
 5354SOL    HW116961   3.121   4.663   0.235
 5354SOL    HW216962   2.983   4.711   0.163
 5355SOL     OW16963   4.854   4.914   5.282
 5355SOL    HW116964   4.892   4.971   5.209
 5355SOL    HW216965   4.850   4.818   5.251
 5356SOL     OW16966   6.734   3.289   1.845
 5356SOL    HW116967   6.776   3.341   1.771
 5356SOL    HW216968   6.757   3.193   1.835
 5357SOL     OW16969   4.135   4.803   2.108
 5357SOL    HW116970   4.192   4.800   2.026
 5357SOL    HW216971   4.039   4.815   2.081
 5358SOL     OW16972   4.498   1.989   0.130
 5358SOL    HW116973   4.458   2.027   0.214
 5358SOL    HW216974   4.448   1.907   0.103
 5359SOL     OW16975   2.154   2.486   0.118
 5359SOL    HW116976   2.064   2.494   0.075
 5359SOL    HW216977   2.156   2.542   0.201
 5360SOL     OW16978   5.354   6.186   3.161
 5360SOL    HW116979   5.337   6.229   3.072
 5360SOL    HW216980   5.391   6.094   3.147
 5361SOL     OW16981   2.806   6.616   3.092
 5361SOL    HW116982   2.889   6.568   3.122
 5361SOL    HW216983   2.726   6.559   3.110
 5362SOL     OW16984   6.154   6.600   2.517
 5362SOL    HW116985   6.058   6.574   2.517
 5362SOL    HW216986   6.181   6.629   2.610
 5363SOL     OW16987   5.413   6.422   4.570
 5363SOL    HW116988   5.347   6.497   4.575
 5363SOL    HW216989   5.399   6.359   4.646
 5364SOL     OW16990   5.247   0.679   2.235
 5364SOL    HW116991   5.186   0.745   2.190
 5364SOL    HW216992   5.280   0.614   2.167
 5365SOL     OW16993   3.111   3.816   2.553
 5365SOL    HW116994   3.018   3.781   2.548
 5365SOL    HW216995   3.174   3.740   2.572
 5366SOL     OW16996   6.546   0.379   1.705
 5366SOL    HW116997   6.561   0.305   1.639
 5366SOL    HW216998   6.453   0.415   1.695
 5367SOL     OW16999   6.189   6.958   0.877
 5367SOL    HW117000   6.210   6.861   0.890
 5367SOL    HW217001   6.109   6.966   0.818
 5368SOL     OW17002   6.767   5.959   2.088
 5368SOL    HW117003   6.735   6.019   2.014
 5368SOL    HW217004   6.829   5.890   2.050
 5369SOL     OW17005   2.627   5.704   1.570
 5369SOL    HW117006   2.663   5.630   1.514
 5369SOL    HW217007   2.585   5.666   1.653
 5370SOL     OW17008   4.175   3.244   1.890
 5370SOL    HW117009   4.248   3.213   1.828
 5370SOL    HW217010   4.087   3.210   1.856
 5371SOL     OW17011   6.951   5.070   5.250
 5371SOL    HW117012   0.026   5.048   5.257
 5371SOL    HW217013   6.908   5.009   5.183
 5372SOL     OW17014   1.015   0.341   2.321
 5372SOL    HW117015   1.038   0.299   2.233
 5372SOL    HW217016   1.018   0.272   2.393
 5373SOL     OW17017   3.752   6.565   6.372
 5373SOL    HW117018   3.703   6.620   6.440
 5373SOL    HW217019   3.719   6.589   6.281
 5374SOL     OW17020   2.403   4.785   1.073
 5374SOL    HW117021   2.334   4.817   1.137
 5374SOL    HW217022   2.494   4.813   1.105
 5375SOL     OW17023   0.987   6.499   5.352
 5375SOL    HW117024   0.987   6.435   5.428
 5375SOL    HW217025   0.900   6.549   5.350
 5376SOL     OW17026   1.570   1.937   1.975
 5376SOL    HW117027   1.570   1.839   1.995
 5376SOL    HW217028   1.487   1.961   1.924
 5377SOL     OW17029   2.272   0.967   3.278
 5377SOL    HW117030   2.346   1.004   3.334
 5377SOL    HW217031   2.261   0.869   3.297
 5378SOL     OW17032   5.997   0.058   0.730
 5378SOL    HW117033   6.007   0.080   0.633
 5378SOL    HW217034   5.931   0.120   0.771
 5379SOL     OW17035   1.157   2.867   6.035
 5379SOL    HW117036   1.117   2.812   5.962
 5379SOL    HW217037   1.256   2.856   6.036
 5380SOL     OW17038   3.412   6.983   1.224
 5380SOL    HW117039   3.454   7.003   1.312
 5380SOL    HW217040   3.464   0.004   1.151
 5381SOL     OW17041   6.173   6.102   1.988
 5381SOL    HW117042   6.183   6.024   1.927
 5381SOL    HW217043   6.245   6.099   2.057
 5382SOL     OW17044   3.806   1.896   2.670
 5382SOL    HW117045   3.788   1.950   2.588
 5382SOL    HW217046   3.745   1.926   2.743
 5383SOL     OW17047   0.850   3.014   4.627
 5383SOL    HW117048   0.921   3.057   4.572
 5383SOL    HW217049   0.879   2.921   4.653
 5384SOL     OW17050   4.559   5.239   4.717
 5384SOL    HW117051   4.472   5.287   4.727
 5384SOL    HW217052   4.591   5.209   4.807
 5385SOL     OW17053   6.309   2.556   5.861
 5385SOL    HW117054   6.312   2.654   5.841
 5385SOL    HW217055   6.354   2.539   5.949
 5386SOL     OW17056   5.437   2.738   4.029
 5386SOL    HW117057   5.442   2.639   4.017
 5386SOL    HW217058   5.341   2.765   4.041
 5387SOL     OW17059   2.608   0.043   3.060
 5387SOL    HW117060   2.662   0.119   3.097
 5387SOL    HW217061   2.628   6.983   3.113
 5388SOL     OW17062   1.237   6.812   2.963
 5388SOL    HW117063   1.180   6.734   2.937
 5388SOL    HW217064   1.329   6.801   2.924
 5389SOL     OW17065   4.546   2.482   4.349
 5389SOL    HW117066   4.466   2.454   4.402
 5389SOL    HW217067   4.529   2.466   4.252
 5390SOL     OW17068   5.538   3.680   4.123
 5390SOL    HW117069   5.598   3.624   4.180
 5390SOL    HW217070   5.497   3.623   4.051
 5391SOL     OW17071   2.594   2.363   6.917
 5391SOL    HW117072   2.638   2.308   6.845
 5391SOL    HW217073   2.579   2.306   6.997
 5392SOL     OW17074   4.786   2.790   2.575
 5392SOL    HW117075   4.754   2.700   2.548
 5392SOL    HW217076   4.779   2.853   2.498
 5393SOL     OW17077   4.356   0.074   5.087
 5393SOL    HW117078   4.367   0.164   5.128
 5393SOL    HW217079   4.411   0.007   5.138
 5394SOL     OW17080   0.738   6.120   1.547
 5394SOL    HW117081   0.733   6.031   1.501
 5394SOL    HW217082   0.793   6.182   1.493
 5395SOL     OW17083   4.922   1.052   0.949
 5395SOL    HW117084   5.017   1.036   0.924
 5395SOL    HW217085   4.875   1.100   0.875
 5396SOL     OW17086   5.364   5.861   2.154
 5396SOL    HW117087   5.392   5.768   2.135
 5396SOL    HW217088   5.392   5.921   2.079
 5397SOL     OW17089   7.001   2.089   2.318
 5397SOL    HW117090   6.944   2.024   2.268
 5397SOL    HW217091   0.075   2.065   2.306
 5398SOL     OW17092   4.162   2.336   3.957
 5398SOL    HW117093   4.108   2.261   3.995
 5398SOL    HW217094   4.101   2.407   3.923
 5399SOL     OW17095   1.890   6.518   5.615
 5399SOL    HW117096   1.930   6.496   5.526
 5399SOL    HW217097   1.804   6.468   5.626
 5400SOL     OW17098   3.500   3.251   0.917
 5400SOL    HW117099   3.534   3.227   0.826
 5400SOL    HW217100   3.562   3.317   0.960
 5401SOL     OW17101   4.757   4.649   3.254
 5401SOL    HW117102   4.798   4.571   3.301
 5401SOL    HW217103   4.657   4.643   3.260
 5402SOL     OW17104   3.116   6.473   1.049
 5402SOL    HW117105   3.103   6.571   1.059
 5402SOL    HW217106   3.194   6.444   1.105
 5403SOL     OW17107   5.410   3.162   6.321
 5403SOL    HW117108   5.412   3.125   6.414
 5403SOL    HW217109   5.320   3.145   6.281
 5404SOL     OW17110   0.206   0.772   0.881
 5404SOL    HW117111   0.256   0.724   0.953
 5404SOL    HW217112   0.142   0.709   0.837
 5405SOL     OW17113   5.443   4.995   0.047
 5405SOL    HW117114   5.436   4.922   0.115
 5405SOL    HW217115   5.539   5.022   0.037
 5406SOL     OW17116   1.864   0.510   4.562
 5406SOL    HW117117   1.874   0.430   4.620
 5406SOL    HW217118   1.814   0.581   4.611
 5407SOL     OW17119   3.059   0.827   1.137
 5407SOL    HW117120   3.044   0.748   1.197
 5407SOL    HW217121   2.982   0.835   1.073
 5408SOL     OW17122   3.979   1.823   4.555
 5408SOL    HW117123   3.957   1.913   4.516
 5408SOL    HW217124   4.076   1.804   4.543
 5409SOL     OW17125   6.296   2.101   1.751
 5409SOL    HW117126   6.336   2.054   1.672
 5409SOL    HW217127   6.284   2.198   1.729
 5410SOL     OW17128   0.019   2.948   0.943
 5410SOL    HW117129   0.117   2.957   0.928
 5410SOL    HW217130   7.011   2.857   0.913
 5411SOL     OW17131   5.552   4.228   6.912
 5411SOL    HW117132   5.497   4.295   6.961
 5411SOL    HW217133   5.569   4.149   6.971
 5412SOL     OW17134   2.067   1.317   6.192
 5412SOL    HW117135   2.076   1.268   6.279
 5412SOL    HW217136   2.153   1.309   6.140
 5413SOL     OW17137   6.562   0.211   5.613
 5413SOL    HW117138   6.475   0.188   5.569
 5413SOL    HW217139   6.543   0.257   5.700
 5414SOL     OW17140   0.290   4.714   5.584
 5414SOL    HW117141   0.369   4.698   5.524
 5414SOL    HW217142   0.289   4.644   5.656
 5415SOL     OW17143   3.201   5.752   0.207
 5415SOL    HW117144   3.112   5.739   0.164
 5415SOL    HW217145   3.256   5.668   0.198
 5416SOL     OW17146   3.031   5.227   5.007
 5416SOL    HW117147   3.117   5.202   4.962
 5416SOL    HW217148   2.991   5.145   5.048
 5417SOL     OW17149   4.727   6.418   4.022
 5417SOL    HW117150   4.645   6.379   4.064
 5417SOL    HW217151   4.759   6.495   4.076
 5418SOL     OW17152   5.590   4.630   4.627
 5418SOL    HW117153   5.503   4.680   4.626
 5418SOL    HW217154   5.588   4.560   4.555
 5419SOL     OW17155   4.213   6.717   7.001
 5419SOL    HW117156   4.284   6.786   7.016
 5419SOL    HW217157   4.225   6.677   6.910
 5420SOL     OW17158   1.364   1.504   1.856
 5420SOL    HW117159   1.400   1.411   1.854
 5420SOL    HW217160   1.431   1.567   1.819
 5421SOL     OW17161   3.363   5.327   2.176
 5421SOL    HW117162   3.312   5.388   2.237
 5421SOL    HW217163   3.330   5.338   2.082
 5422SOL     OW17164   1.978   5.558   4.123
 5422SOL    HW117165   2.013   5.552   4.216
 5422SOL    HW217166   1.956   5.466   4.090
 5423SOL     OW17167   6.527   5.479   2.110
 5423SOL    HW117168   6.572   5.398   2.070
 5423SOL    HW217169   6.443   5.452   2.155
 5424SOL     OW17170   4.888   4.533   4.725
 5424SOL    HW117171   4.963   4.477   4.761
 5424SOL    HW217172   4.816   4.473   4.690
 5425SOL     OW17173   6.367   3.141   4.824
 5425SOL    HW117174   6.285   3.193   4.849
 5425SOL    HW217175   6.343   3.072   4.755
 5426SOL     OW17176   4.973   5.273   1.892
 5426SOL    HW117177   4.908   5.331   1.941
 5426SOL    HW217178   5.018   5.211   1.957
 5427SOL     OW17179   4.675   2.951   6.842
 5427SOL    HW117180   4.711   2.864   6.874
 5427SOL    HW217181   4.690   3.021   6.912
 5428SOL     OW17182   5.478   5.997   2.550
 5428SOL    HW117183   5.418   5.917   2.547
 5428SOL    HW217184   5.503   6.015   2.645
 5429SOL     OW17185   2.914   0.068   4.280
 5429SOL    HW117186   2.816   0.070   4.303
 5429SOL    HW217187   2.940   6.998   4.254
 5430SOL     OW17188   2.136   3.514   5.787
 5430SOL    HW117189   2.156   3.420   5.763
 5430SOL    HW217190   2.193   3.542   5.865
 5431SOL     OW17191   3.486   5.033   6.075
 5431SOL    HW117192   3.454   4.961   6.014
 5431SOL    HW217193   3.431   5.032   6.159
 5432SOL     OW17194   5.579   5.817   0.795
 5432SOL    HW117195   5.595   5.834   0.698
 5432SOL    HW217196   5.484   5.791   0.810
 5433SOL     OW17197   1.223   0.154   1.136
 5433SOL    HW117198   1.182   0.205   1.211
 5433SOL    HW217199   1.239   0.059   1.165
 5434SOL     OW17200   4.767   1.022   4.790
 5434SOL    HW117201   4.835   1.095   4.785
 5434SOL    HW217202   4.703   1.042   4.865
 5435SOL     OW17203   6.284   3.864   0.411
 5435SOL    HW117204   6.224   3.931   0.368
 5435SOL    HW217205   6.243   3.833   0.497
 5436SOL     OW17206   0.463   5.691   2.944
 5436SOL    HW117207   0.433   5.714   3.037
 5436SOL    HW217208   0.429   5.601   2.918
 5437SOL     OW17209   3.124   4.917   6.004
 5437SOL    HW117210   3.115   4.845   5.935
 5437SOL    HW217211   3.035   4.956   6.022
 5438SOL     OW17212   4.929   4.201   1.961
 5438SOL    HW117213   5.008   4.142   1.979
 5438SOL    HW217214   4.897   4.242   2.046
 5439SOL     OW17215   0.996   4.028   0.347
 5439SOL    HW117216   1.073   4.092   0.354
 5439SOL    HW217217   0.937   4.056   0.271
 5440SOL     OW17218   5.531   7.007   3.118
 5440SOL    HW117219   5.561   0.076   3.146
 5440SOL    HW217220   5.611   6.949   3.103
 5441SOL     OW17221   5.045   3.244   3.737
 5441SOL    HW117222   5.097   3.217   3.818
 5441SOL    HW217223   5.011   3.163   3.690
 5442SOL     OW17224   5.176   0.796   3.771
 5442SOL    HW117225   5.176   0.697   3.768
 5442SOL    HW217226   5.088   0.831   3.738
 5443SOL     OW17227   4.881   6.805   4.504
 5443SOL    HW117228   4.842   6.721   4.542
 5443SOL    HW217229   4.809   6.856   4.455
 5444SOL     OW17230   0.406   1.945   4.211
 5444SOL    HW117231   0.445   2.027   4.252
 5444SOL    HW217232   0.335   1.970   4.147
 5445SOL     OW17233   5.297   5.303   4.851
 5445SOL    HW117234   5.360   5.381   4.852
 5445SOL    HW217235   5.335   5.229   4.907
 5446SOL     OW17236   6.792   4.887   5.139
 5446SOL    HW117237   6.835   4.797   5.137
 5446SOL    HW217238   6.720   4.888   5.208
 5447SOL     OW17239   2.348   1.321   1.630
 5447SOL    HW117240   2.419   1.266   1.587
 5447SOL    HW217241   2.265   1.266   1.643
 5448SOL     OW17242   4.422   5.716   4.002
 5448SOL    HW117243   4.455   5.794   4.056
 5448SOL    HW217244   4.351   5.668   4.052
 5449SOL     OW17245   3.098   1.498   1.803
 5449SOL    HW117246   3.114   1.590   1.767
 5449SOL    HW217247   3.023   1.502   1.870
 5450SOL     OW17248   3.513   6.044   1.881
 5450SOL    HW117249   3.444   6.007   1.943
 5450SOL    HW217250   3.584   6.090   1.933
 5451SOL     OW17251   1.070   0.119   2.490
 5451SOL    HW117252   1.119   0.035   2.468
 5451SOL    HW217253   0.992   0.099   2.549
 5452SOL     OW17254   1.512   4.904   1.085
 5452SOL    HW117255   1.469   4.814   1.097
 5452SOL    HW217256   1.489   4.962   1.163
 5453SOL     OW17257   4.879   3.985   2.472
 5453SOL    HW117258   4.862   3.896   2.431
 5453SOL    HW217259   4.975   4.010   2.459
 5454SOL     OW17260   5.795   5.906   2.348
 5454SOL    HW117261   5.863   5.946   2.286
 5454SOL    HW217262   5.706   5.948   2.331
 5455SOL     OW17263   0.807   1.124   2.851
 5455SOL    HW117264   0.890   1.125   2.795
 5455SOL    HW217265   0.803   1.039   2.904
 5456SOL     OW17266   5.102   0.656   0.016
 5456SOL    HW117267   5.019   0.605   7.015
 5456SOL    HW217268   5.179   0.619   6.985
 5457SOL     OW17269   6.095   1.999   6.968
 5457SOL    HW117270   6.171   1.934   6.960
 5457SOL    HW217271   6.101   2.046   0.033
 5458SOL     OW17272   6.197   5.077   0.668
 5458SOL    HW117273   6.181   4.979   0.685
 5458SOL    HW217274   6.204   5.092   0.569
 5459SOL     OW17275   2.103   5.081   5.602
 5459SOL    HW117276   2.180   5.030   5.639
 5459SOL    HW217277   2.134   5.142   5.529
 5460SOL     OW17278   2.149   1.379   1.269
 5460SOL    HW117279   2.114   1.450   1.208
 5460SOL    HW217280   2.235   1.342   1.233
 5461SOL     OW17281   1.217   1.555   5.508
 5461SOL    HW117282   1.290   1.551   5.440
 5461SOL    HW217283   1.216   1.646   5.550
 5462SOL     OW17284   5.523   5.986   6.926
 5462SOL    HW117285   5.546   5.964   7.021
 5462SOL    HW217286   5.450   6.054   6.924
 5463SOL     OW17287   6.550   2.071   6.282
 5463SOL    HW117288   6.487   2.044   6.209
 5463SOL    HW217289   6.642   2.080   6.244
 5464SOL     OW17290   6.245   5.493   5.200
 5464SOL    HW117291   6.280   5.419   5.143
 5464SOL    HW217292   6.288   5.490   5.290
 5465SOL     OW17293   6.393   6.914   3.265
 5465SOL    HW117294   6.466   6.874   3.209
 5465SOL    HW217295   6.336   6.972   3.207
 5466SOL     OW17296   5.765   2.986   5.274
 5466SOL    HW117297   5.707   2.925   5.329
 5466SOL    HW217298   5.707   3.047   5.219
 5467SOL     OW17299   5.751   3.746   3.679
 5467SOL    HW117300   5.810   3.793   3.745
 5467SOL    HW217301   5.788   3.759   3.587
 5468SOL     OW17302   6.859   2.742   3.306
 5468SOL    HW117303   6.860   2.732   3.406
 5468SOL    HW217304   6.801   2.820   3.282
 5469SOL     OW17305   1.628   6.970   6.194
 5469SOL    HW117306   1.722   6.960   6.226
 5469SOL    HW217307   1.565   6.950   6.270
 5470SOL     OW17308   4.271   5.350   3.998
 5470SOL    HW117309   4.215   5.389   3.924
 5470SOL    HW217310   4.269   5.251   3.992
 5471SOL     OW17311   5.891   0.747   2.451
 5471SOL    HW117312   5.957   0.823   2.452
 5471SOL    HW217313   5.815   0.771   2.391
 5472SOL     OW17314   3.263   2.616   5.690
 5472SOL    HW117315   3.176   2.641   5.647
 5472SOL    HW217316   3.297   2.532   5.649
 5473SOL     OW17317   1.456   4.890   0.638
 5473SOL    HW117318   1.470   4.989   0.647
 5473SOL    HW217319   1.506   4.842   0.710
 5474SOL     OW17320   1.197   5.761   3.480
 5474SOL    HW117321   1.123   5.743   3.545
 5474SOL    HW217322   1.201   5.859   3.461
 5475SOL     OW17323   1.860   1.559   1.119
 5475SOL    HW117324   1.779   1.560   1.061
 5475SOL    HW217325   1.848   1.492   1.192
 5476SOL     OW17326   2.365   4.941   5.363
 5476SOL    HW117327   2.347   4.847   5.334
 5476SOL    HW217328   2.440   4.978   5.308
 5477SOL     OW17329   1.886   4.252   2.820
 5477SOL    HW117330   1.973   4.252   2.871
 5477SOL    HW217331   1.905   4.261   2.722
 5478SOL     OW17332   4.435   5.633   6.090
 5478SOL    HW117333   4.496   5.554   6.085
 5478SOL    HW217334   4.351   5.607   6.137
 5479SOL     OW17335   4.422   0.823   4.122
 5479SOL    HW117336   4.387   0.855   4.210
 5479SOL    HW217337   4.454   0.901   4.069
 5480SOL     OW17338   6.081   4.956   4.805
 5480SOL    HW117339   6.113   4.941   4.899
 5480SOL    HW217340   6.078   4.868   4.758
 5481SOL     OW17341   5.040   0.646   5.021
 5481SOL    HW117342   4.963   0.606   4.971
 5481SOL    HW217343   5.097   0.700   4.958
 5482SOL     OW17344   3.327   3.980   2.123
 5482SOL    HW117345   3.232   4.007   2.136
 5482SOL    HW217346   3.385   4.033   2.186
 5483SOL     OW17347   6.421   2.648   5.484
 5483SOL    HW117348   6.344   2.700   5.520
 5483SOL    HW217349   6.396   2.607   5.396
 5484SOL     OW17350   6.073   0.035   3.295
 5484SOL    HW117351   6.099   0.026   3.391
 5484SOL    HW217352   6.004   0.106   3.285
 5485SOL     OW17353   2.987   0.006   4.605
 5485SOL    HW117354   3.040   0.091   4.603
 5485SOL    HW217355   3.005   6.976   4.522
 5486SOL     OW17356   2.204   6.549   3.972
 5486SOL    HW117357   2.278   6.495   4.012
 5486SOL    HW217358   2.240   6.638   3.944
 5487SOL     OW17359   5.863   3.979   6.648
 5487SOL    HW117360   5.950   3.956   6.692
 5487SOL    HW217361   5.844   4.076   6.661
 5488SOL     OW17362   4.615   1.577   0.689
 5488SOL    HW117363   4.671   1.549   0.767
 5488SOL    HW217364   4.518   1.572   0.715
 5489SOL     OW17365   1.701   4.016   1.608
 5489SOL    HW117366   1.770   4.081   1.642
 5489SOL    HW217367   1.621   4.067   1.574
 5490SOL     OW17368   4.021   0.045   0.806
 5490SOL    HW117369   3.988   0.115   0.743
 5490SOL    HW217370   4.115   0.021   0.783
 5491SOL     OW17371   1.357   4.417   6.760
 5491SOL    HW117372   1.287   4.351   6.732
 5491SOL    HW217373   1.314   4.497   6.801
 5492SOL     OW17374   1.084   1.524   6.058
 5492SOL    HW117375   1.182   1.513   6.042
 5492SOL    HW217376   1.035   1.517   5.971
 5493SOL     OW17377   3.500   3.482   4.728
 5493SOL    HW117378   3.587   3.472   4.680
 5493SOL    HW217379   3.467   3.576   4.720
 5494SOL     OW17380   6.367   2.439   0.343
 5494SOL    HW117381   6.322   2.354   0.369
 5494SOL    HW217382   6.310   2.516   0.369
 5495SOL     OW17383   3.107   3.009   1.783
 5495SOL    HW117384   3.171   2.942   1.822
 5495SOL    HW217385   3.082   2.981   1.690
 5496SOL     OW17386   2.670   6.540   2.438
 5496SOL    HW117387   2.654   6.442   2.439
 5496SOL    HW217388   2.595   6.587   2.485
 5497SOL     OW17389   0.491   2.126   3.353
 5497SOL    HW117390   0.512   2.088   3.443
 5497SOL    HW217391   0.481   2.052   3.287
 5498SOL     OW17392   5.445   0.492   0.524
 5498SOL    HW117393   5.416   0.529   0.613
 5498SOL    HW217394   5.466   0.567   0.462
 5499SOL     OW17395   0.898   1.115   3.853
 5499SOL    HW117396   0.900   1.131   3.755
 5499SOL    HW217397   0.813   1.150   3.892
 5500SOL     OW17398   1.718   5.947   6.611
 5500SOL    HW117399   1.802   5.919   6.659
 5500SOL    HW217400   1.686   5.871   6.555
 5501SOL     OW17401   3.277   6.963   0.958
 5501SOL    HW117402   3.191   6.991   0.917
 5501SOL    HW217403   3.270   6.968   1.058
 5502SOL     OW17404   5.962   4.192   6.029
 5502SOL    HW117405   6.054   4.187   6.068
 5502SOL    HW217406   5.895   4.199   6.103
 5503SOL     OW17407   0.611   4.416   3.025
 5503SOL    HW117408   0.530   4.359   3.038
 5503SOL    HW217409   0.686   4.380   3.080
 5504SOL     OW17410   3.013   1.183   5.702
 5504SOL    HW117411   3.076   1.161   5.777
 5504SOL    HW217412   2.923   1.207   5.740
 5505SOL     OW17413   2.684   5.351   4.622
 5505SOL    HW117414   2.584   5.360   4.625
 5505SOL    HW217415   2.721   5.420   4.562
 5506SOL     OW17416   6.495   0.493   5.898
 5506SOL    HW117417   6.558   0.417   5.912
 5506SOL    HW217418   6.401   0.461   5.906
 5507SOL     OW17419   2.227   0.019   2.691
 5507SOL    HW117420   2.245   7.012   2.785
 5507SOL    HW217421   2.185   0.110   2.692
 5508SOL     OW17422   2.650   1.044   6.900
 5508SOL    HW117423   2.731   0.986   6.890
 5508SOL    HW217424   2.679   1.139   6.912
 5509SOL     OW17425   0.998   6.429   0.130
 5509SOL    HW117426   0.973   6.484   0.209
 5509SOL    HW217427   1.086   6.385   0.147
 5510SOL     OW17428   5.056   5.801   0.693
 5510SOL    HW117429   5.131   5.778   0.755
 5510SOL    HW217430   5.080   5.884   0.641
 5511SOL     OW17431   2.523   6.983   4.178
 5511SOL    HW117432   2.560   6.900   4.137
 5511SOL    HW217433   2.425   6.989   4.160
 5512SOL     OW17434   6.783   1.839   0.811
 5512SOL    HW117435   6.776   1.739   0.811
 5512SOL    HW217436   6.878   1.867   0.802
 5513SOL     OW17437   4.317   4.448   6.217
 5513SOL    HW117438   4.275   4.424   6.130
 5513SOL    HW217439   4.375   4.372   6.248
 5514SOL     OW17440   5.325   5.779   2.593
 5514SOL    HW117441   5.329   5.742   2.685
 5514SOL    HW217442   5.289   5.710   2.530
 5515SOL     OW17443   0.335   4.188   1.339
 5515SOL    HW117444   0.425   4.161   1.373
 5515SOL    HW217445   0.280   4.225   1.415
 5516SOL     OW17446   1.226   2.808   0.538
 5516SOL    HW117447   1.286   2.858   0.600
 5516SOL    HW217448   1.137   2.796   0.581
 5517SOL     OW17449   2.780   2.248   2.480
 5517SOL    HW117450   2.709   2.234   2.411
 5517SOL    HW217451   2.743   2.304   2.554
 5518SOL     OW17452   6.362   6.212   6.027
 5518SOL    HW117453   6.380   6.310   6.022
 5518SOL    HW217454   6.265   6.197   6.044
 5519SOL     OW17455   4.973   3.645   2.721
 5519SOL    HW117456   4.935   3.621   2.810
 5519SOL    HW217457   4.976   3.564   2.663
 5520SOL     OW17458   0.330   4.660   2.987
 5520SOL    HW117459   0.355   4.632   2.894
 5520SOL    HW217460   0.391   4.615   3.052
 5521SOL     OW17461   3.781   6.041   2.731
 5521SOL    HW117462   3.871   6.026   2.773
 5521SOL    HW217463   3.727   5.957   2.737
 5522SOL     OW17464   1.348   4.279   0.807
 5522SOL    HW117465   1.334   4.317   0.898
 5522SOL    HW217466   1.317   4.345   0.738
 5523SOL     OW17467   2.974   0.052   3.240
 5523SOL    HW117468   2.896   0.049   3.303
 5523SOL    HW217469   2.964   7.002   3.172
 5524SOL     OW17470   6.880   5.312   4.445
 5524SOL    HW117471   6.809   5.250   4.479
 5524SOL    HW217472   6.842   5.404   4.438
 5525SOL     OW17473   6.952   3.712   0.516
 5525SOL    HW117474   0.019   3.726   0.474
 5525SOL    HW217475   6.957   3.730   0.614
 5526SOL     OW17476   6.041   3.710   5.222
 5526SOL    HW117477   6.007   3.794   5.264
 5526SOL    HW217478   6.138   3.698   5.244
 5527SOL     OW17479   0.735   3.580   3.580
 5527SOL    HW117480   0.794   3.659   3.601
 5527SOL    HW217481   0.773   3.530   3.502
 5528SOL     OW17482   1.028   2.022   6.501
 5528SOL    HW117483   0.969   2.044   6.579
 5528SOL    HW217484   1.107   2.083   6.501
 5529SOL     OW17485   2.369   6.808   4.764
 5529SOL    HW117486   2.448   6.824   4.705
 5529SOL    HW217487   2.371   6.713   4.796
 5530SOL     OW17488   6.882   2.813   2.618
 5530SOL    HW117489   6.891   2.769   2.528
 5530SOL    HW217490   6.797   2.783   2.660
 5531SOL     OW17491   3.561   3.841   3.374
 5531SOL    HW117492   3.569   3.935   3.408
 5531SOL    HW217493   3.599   3.835   3.282
 5532SOL     OW17494   1.188   1.553   1.364
 5532SOL    HW117495   1.201   1.487   1.438
 5532SOL    HW217496   1.096   1.543   1.326
 5533SOL     OW17497   3.041   1.175   2.562
 5533SOL    HW117498   3.067   1.171   2.659
 5533SOL    HW217499   3.062   1.265   2.525
 5534SOL     OW17500   1.278   3.156   6.029
 5534SOL    HW117501   1.309   3.074   6.078
 5534SOL    HW217502   1.194   3.134   5.979
 5535SOL     OW17503   0.387   2.981   3.569
 5535SOL    HW117504   0.386   2.983   3.669
 5535SOL    HW217505   0.389   3.075   3.534
 5536SOL     OW17506   3.630   1.726   4.715
 5536SOL    HW117507   3.724   1.721   4.751
 5536SOL    HW217508   3.596   1.634   4.699
 5537SOL     OW17509   3.105   0.699   4.427
 5537SOL    HW117510   3.169   0.688   4.504
 5537SOL    HW217511   3.157   0.707   4.342
 5538SOL     OW17512   3.360   0.386   5.026
 5538SOL    HW117513   3.395   0.466   4.979
 5538SOL    HW217514   3.267   0.366   4.994
 5539SOL     OW17515   0.964   2.791   0.838
 5539SOL    HW117516   1.016   2.868   0.801
 5539SOL    HW217517   0.939   2.809   0.933
 5540SOL     OW17518   5.573   3.623   2.275
 5540SOL    HW117519   5.643   3.606   2.206
 5540SOL    HW217520   5.608   3.601   2.366
 5541SOL     OW17521   5.500   2.344   6.320
 5541SOL    HW117522   5.459   2.320   6.232
 5541SOL    HW217523   5.570   2.414   6.306
 5542SOL     OW17524   5.689   6.452   5.419
 5542SOL    HW117525   5.678   6.509   5.500
 5542SOL    HW217526   5.725   6.363   5.446
 5543SOL     OW17527   2.448   5.245   6.143
 5543SOL    HW117528   2.355   5.236   6.180
 5543SOL    HW217529   2.514   5.232   6.216
 5544SOL     OW17530   4.957   5.832   6.126
 5544SOL    HW117531   4.994   5.902   6.065
 5544SOL    HW217532   4.908   5.764   6.073
 5545SOL     OW17533   4.648   1.272   3.259
 5545SOL    HW117534   4.718   1.253   3.328
 5545SOL    HW217535   4.559   1.239   3.292
 5546SOL     OW17536   0.719   6.902   4.348
 5546SOL    HW117537   0.715   6.833   4.421
 5546SOL    HW217538   0.626   6.932   4.326
 5547SOL     OW17539   4.132   0.809   4.611
 5547SOL    HW117540   4.179   0.896   4.623
 5547SOL    HW217541   4.189   0.735   4.645
 5548SOL     OW17542   6.013   3.191   5.042
 5548SOL    HW117543   6.060   3.135   5.111
 5548SOL    HW217544   5.926   3.150   5.019
 5549SOL     OW17545   3.901   4.489   0.894
 5549SOL    HW117546   3.816   4.534   0.865
 5549SOL    HW217547   3.890   4.390   0.886
 5550SOL     OW17548   2.085   4.477   2.163
 5550SOL    HW117549   2.106   4.440   2.073
 5550SOL    HW217550   1.999   4.439   2.196
 5551SOL     OW17551   1.513   6.770   2.927
 5551SOL    HW117552   1.583   6.739   2.862
 5551SOL    HW217553   1.557   6.791   3.014
 5552SOL     OW17554   6.744   0.484   6.621
 5552SOL    HW117555   6.783   0.576   6.610
 5552SOL    HW217556   6.688   0.482   6.704
 5553SOL     OW17557   4.772   6.067   6.267
 5553SOL    HW117558   4.771   5.980   6.219
 5553SOL    HW217559   4.689   6.118   6.247
 5554SOL     OW17560   4.008   2.363   6.960
 5554SOL    HW117561   3.993   2.264   6.967
 5554SOL    HW217562   4.008   2.390   6.864
 5555SOL     OW17563   0.974   3.942   2.830
 5555SOL    HW117564   0.901   3.928   2.897
 5555SOL    HW217565   1.016   4.032   2.845
 5556SOL     OW17566   6.270   1.834   3.125
 5556SOL    HW117567   6.247   1.815   3.029
 5556SOL    HW217568   6.293   1.748   3.171
 5557SOL     OW17569   3.658   6.454   2.953
 5557SOL    HW117570   3.697   6.389   3.019
 5557SOL    HW217571   3.633   6.539   3.001
 5558SOL     OW17572   3.739   3.927   5.902
 5558SOL    HW117573   3.800   4.001   5.931
 5558SOL    HW217574   3.793   3.843   5.889
 5559SOL     OW17575   2.068   0.157   1.432
 5559SOL    HW117576   2.084   0.135   1.335
 5559SOL    HW217577   2.106   0.084   1.489
 5560SOL     OW17578   0.617   5.408   1.619
 5560SOL    HW117579   0.527   5.372   1.598
 5560SOL    HW217580   0.667   5.344   1.677
 5561SOL     OW17581   1.682   1.417   4.278
 5561SOL    HW117582   1.620   1.465   4.340
 5561SOL    HW217583   1.777   1.436   4.303
 5562SOL     OW17584   4.211   2.597   6.465
 5562SOL    HW117585   4.274   2.620   6.540
 5562SOL    HW217586   4.188   2.680   6.414
 5563SOL     OW17587   3.481   4.855   2.425
 5563SOL    HW117588   3.553   4.834   2.492
 5563SOL    HW217589   3.521   4.863   2.334
 5564SOL     OW17590   4.911   0.131   0.915
 5564SOL    HW117591   4.824   0.135   0.866
 5564SOL    HW217592   4.940   0.224   0.940
 5565SOL     OW17593   4.531   2.267   6.227
 5565SOL    HW117594   4.545   2.183   6.280
 5565SOL    HW217595   4.438   2.301   6.242
 5566SOL     OW17596   1.465   3.735   6.619
 5566SOL    HW117597   1.435   3.644   6.592
 5566SOL    HW217598   1.553   3.755   6.576
 5567SOL     OW17599   0.072   2.692   0.927
 5567SOL    HW117600   6.999   2.675   0.904
 5567SOL    HW217601   0.118   2.605   0.944
 5568SOL     OW17602   5.127   1.934   3.776
 5568SOL    HW117603   5.080   1.974   3.697
 5568SOL    HW217604   5.106   1.837   3.782
 5569SOL     OW17605   2.165   2.017   2.428
 5569SOL    HW117606   2.133   2.111   2.441
 5569SOL    HW217607   2.113   1.975   2.353
 5570SOL     OW17608   6.721   3.697   5.047
 5570SOL    HW117609   6.696   3.605   5.077
 5570SOL    HW217610   6.771   3.744   5.121
 5571SOL     OW17611   6.217   6.128   0.211
 5571SOL    HW117612   6.189   6.032   0.209
 5571SOL    HW217613   6.302   6.139   0.160
 5572SOL     OW17614   0.969   2.769   4.737
 5572SOL    HW117615   1.058   2.797   4.774
 5572SOL    HW217616   0.926   2.704   4.800
 5573SOL     OW17617   1.906   5.276   5.613
 5573SOL    HW117618   1.991   5.224   5.615
 5573SOL    HW217619   1.831   5.220   5.649
 5574SOL     OW17620   6.955   1.933   2.558
 5574SOL    HW117621   6.976   1.965   2.465
 5574SOL    HW217622   6.920   1.840   2.553
 5575SOL     OW17623   6.825   0.896   0.925
 5575SOL    HW117624   6.914   0.913   0.882
 5575SOL    HW217625   6.752   0.921   0.861
 5576SOL     OW17626   0.972   4.671   1.847
 5576SOL    HW117627   0.939   4.577   1.854
 5576SOL    HW217628   0.932   4.726   1.920
 5577SOL     OW17629   3.188   3.017   5.614
 5577SOL    HW117630   3.235   2.987   5.531
 5577SOL    HW217631   3.124   2.946   5.643
 5578SOL     OW17632   3.667   3.466   0.960
 5578SOL    HW117633   3.738   3.412   1.003
 5578SOL    HW217634   3.706   3.550   0.923
 5579SOL     OW17635   0.821   3.186   0.765
 5579SOL    HW117636   0.773   3.273   0.778
 5579SOL    HW217637   0.919   3.199   0.780
 5580SOL     OW17638   5.304   2.583   5.648
 5580SOL    HW117639   5.381   2.606   5.589
 5580SOL    HW217640   5.335   2.576   5.743
 5581SOL     OW17641   1.475   6.903   1.598
 5581SOL    HW117642   1.419   6.831   1.558
 5581SOL    HW217643   1.433   6.935   1.683
 5582SOL     OW17644   3.079   3.291   5.326
 5582SOL    HW117645   3.016   3.273   5.251
 5582SOL    HW217646   3.152   3.353   5.295
 5583SOL     OW17647   4.948   0.524   2.989
 5583SOL    HW117648   4.923   0.491   3.081
 5583SOL    HW217649   4.865   0.554   2.942
 5584SOL     OW17650   6.091   5.154   3.397
 5584SOL    HW117651   6.014   5.212   3.426
 5584SOL    HW217652   6.100   5.077   3.460
 5585SOL     OW17653   5.346   5.064   3.419
 5585SOL    HW117654   5.297   5.027   3.339
 5585SOL    HW217655   5.283   5.121   3.472
 5586SOL     OW17656   0.459   2.468   6.378
 5586SOL    HW117657   0.465   2.368   6.390
 5586SOL    HW217658   0.509   2.494   6.295
 5587SOL     OW17659   4.227   6.635   1.547
 5587SOL    HW117660   4.225   6.543   1.508
 5587SOL    HW217661   4.300   6.688   1.503
 5588SOL     OW17662   2.009   5.439   3.109
 5588SOL    HW117663   1.976   5.498   3.036
 5588SOL    HW217664   1.935   5.426   3.176
 5589SOL     OW17665   6.412   3.433   5.475
 5589SOL    HW117666   6.482   3.389   5.420
 5589SOL    HW217667   6.445   3.446   5.568
 5590SOL     OW17668   6.937   6.538   4.085
 5590SOL    HW117669   6.961   6.609   4.152
 5590SOL    HW217670   7.018   6.483   4.065
 5591SOL     OW17671   5.479   1.447   0.413
 5591SOL    HW117672   5.492   1.367   0.473
 5591SOL    HW217673   5.382   1.469   0.408
 5592SOL     OW17674   0.239   5.152   2.200
 5592SOL    HW117675   0.260   5.226   2.135
 5592SOL    HW217676   0.324   5.110   2.231
 5593SOL     OW17677   0.806   3.638   0.231
 5593SOL    HW117678   0.791   3.708   0.161
 5593SOL    HW217679   0.868   3.674   0.301
 5594SOL     OW17680   4.253   0.864   6.246
 5594SOL    HW117681   4.350   0.889   6.250
 5594SOL    HW217682   4.206   0.903   6.325
 5595SOL     OW17683   6.903   0.890   4.763
 5595SOL    HW117684   6.925   0.888   4.666
 5595SOL    HW217685   6.846   0.811   4.786
 5596SOL     OW17686   4.818   0.629   3.260
 5596SOL    HW117687   4.772   0.555   3.209
 5596SOL    HW217688   4.751   0.699   3.284
 5597SOL     OW17689   5.043   2.766   5.056
 5597SOL    HW117690   5.010   2.837   5.119
 5597SOL    HW217691   5.046   2.803   4.963
 5598SOL     OW17692   5.896   3.935   3.364
 5598SOL    HW117693   5.939   4.013   3.318
 5598SOL    HW217694   5.926   3.850   3.319
 5599SOL     OW17695   0.654   2.443   1.742
 5599SOL    HW117696   0.725   2.500   1.702
 5599SOL    HW217697   0.683   2.411   1.832
 5600SOL     OW17698   1.576   1.039   1.348
 5600SOL    HW117699   1.600   0.962   1.408
 5600SOL    HW217700   1.644   1.045   1.274
 5601SOL     OW17701   2.231   0.978   6.596
 5601SOL    HW117702   2.274   1.062   6.630
 5601SOL    HW217703   2.290   0.900   6.615
 5602SOL     OW17704   0.369   1.863   1.247
 5602SOL    HW117705   0.339   1.778   1.292
 5602SOL    HW217706   0.357   1.940   1.310
 5603SOL     OW17707   5.906   2.558   0.323
 5603SOL    HW117708   5.813   2.594   0.324
 5603SOL    HW217709   5.903   2.458   0.323
 5604SOL     OW17710   6.338   2.215   4.484
 5604SOL    HW117711   6.319   2.227   4.581
 5604SOL    HW217712   6.321   2.119   4.458
 5605SOL     OW17713   6.707   1.050   5.306
 5605SOL    HW117714   6.703   1.008   5.216
 5605SOL    HW217715   6.619   1.038   5.353
 5606SOL     OW17716   5.120   5.938   6.955
 5606SOL    HW117717   5.200   5.954   7.013
 5606SOL    HW217718   5.037   5.945   7.011
 5607SOL     OW17719   6.015   1.154   2.851
 5607SOL    HW117720   6.110   1.123   2.856
 5607SOL    HW217721   6.007   1.243   2.896
 5608SOL     OW17722   5.437   0.443   3.886
 5608SOL    HW117723   5.487   0.529   3.885
 5608SOL    HW217724   5.498   0.368   3.858
 5609SOL     OW17725   3.370   6.084   1.410
 5609SOL    HW117726   3.425   6.135   1.476
 5609SOL    HW217727   3.430   6.037   1.345
 5610SOL     OW17728   4.388   5.426   0.984
 5610SOL    HW117729   4.339   5.513   0.976
 5610SOL    HW217730   4.464   5.437   1.048
 5611SOL     OW17731   0.725   5.746   2.932
 5611SOL    HW117732   0.625   5.749   2.943
 5611SOL    HW217733   0.747   5.735   2.835
 5612SOL     OW17734   4.130   1.859   5.907
 5612SOL    HW117735   4.186   1.934   5.941
 5612SOL    HW217736   4.126   1.862   5.807
 5613SOL     OW17737   0.008   4.828   3.610
 5613SOL    HW117738   0.086   4.880   3.646
 5613SOL    HW217739   0.039   4.739   3.577
 5614SOL     OW17740   4.798   2.384   4.489
 5614SOL    HW117741   4.755   2.385   4.579
 5614SOL    HW217742   4.741   2.434   4.424
 5615SOL     OW17743   6.702   1.389   3.474
 5615SOL    HW117744   6.645   1.385   3.392
 5615SOL    HW217745   6.650   1.352   3.552
 5616SOL     OW17746   2.757   2.348   4.280
 5616SOL    HW117747   2.680   2.286   4.263
 5616SOL    HW217748   2.843   2.301   4.259
 5617SOL     OW17749   2.581   6.306   5.498
 5617SOL    HW117750   2.657   6.244   5.479
 5617SOL    HW217751   2.498   6.271   5.455
 5618SOL     OW17752   0.592   4.318   3.739
 5618SOL    HW117753   0.558   4.250   3.804
 5618SOL    HW217754   0.596   4.407   3.783
 5619SOL     OW17755   3.752   4.046   4.809
 5619SOL    HW117756   3.766   3.986   4.730
 5619SOL    HW217757   3.825   4.031   4.875
 5620SOL     OW17758   4.499   3.472   0.644
 5620SOL    HW117759   4.460   3.542   0.585
 5620SOL    HW217760   4.589   3.445   0.608
 5621SOL     OW17761   2.425   2.725   0.405
 5621SOL    HW117762   2.353   2.736   0.336
 5621SOL    HW217763   2.466   2.634   0.396
 5622SOL     OW17764   4.877   0.369   5.751
 5622SOL    HW117765   4.908   0.355   5.656
 5622SOL    HW217766   4.838   0.460   5.760
 5623SOL     OW17767   3.893   5.654   5.219
 5623SOL    HW117768   3.932   5.689   5.305
 5623SOL    HW217769   3.848   5.729   5.171
 5624SOL     OW17770   0.735   4.438   3.429
 5624SOL    HW117771   0.653   4.387   3.456
 5624SOL    HW217772   0.815   4.392   3.467
 5625SOL     OW17773   5.607   0.648   5.017
 5625SOL    HW117774   5.686   0.597   5.050
 5625SOL    HW217775   5.541   0.585   4.977
 5626SOL     OW17776   2.291   6.052   4.852
 5626SOL    HW117777   2.202   6.017   4.824
 5626SOL    HW217778   2.342   5.980   4.900
 5627SOL     OW17779   0.350   5.336   6.156
 5627SOL    HW117780   0.351   5.253   6.100
 5627SOL    HW217781   0.409   5.405   6.115
 5628SOL     OW17782   1.429   2.136   2.181
 5628SOL    HW117783   1.454   2.128   2.085
 5628SOL    HW217784   1.346   2.083   2.199
 5629SOL     OW17785   3.793   3.634   2.277
 5629SOL    HW117786   3.753   3.585   2.354
 5629SOL    HW217787   3.722   3.686   2.230
 5630SOL     OW17788   1.852   3.743   6.587
 5630SOL    HW117789   1.793   3.769   6.511
 5630SOL    HW217790   1.796   3.709   6.663
 5631SOL     OW17791   4.427   2.328   1.349
 5631SOL    HW117792   4.454   2.309   1.443
 5631SOL    HW217793   4.345   2.385   1.348
 5632SOL     OW17794   3.151   2.401   6.377
 5632SOL    HW117795   3.167   2.312   6.334
 5632SOL    HW217796   3.126   2.467   6.306
 5633SOL     OW17797   6.304   4.396   4.615
 5633SOL    HW117798   6.278   4.465   4.682
 5633SOL    HW217799   6.222   4.354   4.576
 5634SOL     OW17800   2.164   5.004   3.841
 5634SOL    HW117801   2.255   5.040   3.819
 5634SOL    HW217802   2.155   4.998   3.940
 5635SOL     OW17803   1.901   5.006   5.764
 5635SOL    HW117804   1.966   5.020   5.689
 5635SOL    HW217805   1.824   5.068   5.752
 5636SOL     OW17806   4.723   6.861   5.026
 5636SOL    HW117807   4.725   6.957   5.055
 5636SOL    HW217808   4.650   6.848   4.958
 5637SOL     OW17809   5.180   0.652   2.882
 5637SOL    HW117810   5.176   0.751   2.894
 5637SOL    HW217811   5.098   0.610   2.921
 5638SOL     OW17812   6.444   4.000   0.704
 5638SOL    HW117813   6.352   3.962   0.704
 5638SOL    HW217814   6.481   3.998   0.611
 5639SOL     OW17815   1.114   0.871   2.688
 5639SOL    HW117816   1.181   0.854   2.616
 5639SOL    HW217817   1.039   0.806   2.681
 5640SOL     OW17818   3.614   0.145   3.590
 5640SOL    HW117819   3.575   0.220   3.537
 5640SOL    HW217820   3.692   0.106   3.541
 5641SOL     OW17821   0.880   5.060   4.943
 5641SOL    HW117822   0.939   5.029   5.018
 5641SOL    HW217823   0.804   4.996   4.932
 5642SOL     OW17824   1.893   6.601   5.013
 5642SOL    HW117825   1.915   6.644   5.101
 5642SOL    HW217826   1.821   6.533   5.027
 5643SOL     OW17827   4.489   1.322   5.586
 5643SOL    HW117828   4.392   1.326   5.565
 5643SOL    HW217829   4.526   1.415   5.587
 5644SOL     OW17830   2.881   0.461   5.162
 5644SOL    HW117831   2.787   0.493   5.162
 5644SOL    HW217832   2.890   0.383   5.225
 5645SOL     OW17833   6.361   4.832   3.648
 5645SOL    HW117834   6.338   4.736   3.665
 5645SOL    HW217835   6.277   4.887   3.646
 5646SOL     OW17836   1.691   4.761   3.623
 5646SOL    HW117837   1.661   4.674   3.583
 5646SOL    HW217838   1.715   4.825   3.549
 5647SOL     OW17839   4.892   5.326   1.085
 5647SOL    HW117840   4.917   5.391   1.014
 5647SOL    HW217841   4.971   5.269   1.108
 5648SOL     OW17842   1.944   6.965   2.788
 5648SOL    HW117843   1.988   6.880   2.816
 5648SOL    HW217844   1.944   0.006   2.865
 5649SOL     OW17845   0.591   0.340   4.233
 5649SOL    HW117846   0.556   0.433   4.230
 5649SOL    HW217847   0.685   0.339   4.201
 5650SOL     OW17848   0.312   5.750   1.189
 5650SOL    HW117849   0.298   5.779   1.095
 5650SOL    HW217850   0.320   5.831   1.248
 5651SOL     OW17851   1.466   0.638   1.524
 5651SOL    HW117852   1.498   0.577   1.596
 5651SOL    HW217853   1.538   0.704   1.502
 5652SOL     OW17854   6.573   0.197   1.449
 5652SOL    HW117855   6.501   0.263   1.426
 5652SOL    HW217856   6.584   0.132   1.374
 5653SOL     OW17857   6.116   6.279   6.100
 5653SOL    HW117858   6.100   6.221   6.180
 5653SOL    HW217859   6.129   6.373   6.130
 5654SOL     OW17860   0.395   6.257   5.382
 5654SOL    HW117861   0.358   6.250   5.475
 5654SOL    HW217862   0.355   6.185   5.326
 5655SOL     OW17863   1.305   3.648   4.150
 5655SOL    HW117864   1.303   3.739   4.192
 5655SOL    HW217865   1.214   3.607   4.155
 5656SOL     OW17866   0.141   4.083   6.426
 5656SOL    HW117867   0.188   4.006   6.471
 5656SOL    HW217868   0.174   4.169   6.465
 5657SOL     OW17869   6.024   2.670   0.005
 5657SOL    HW117870   6.058   2.708   0.091
 5657SOL    HW217871   6.034   2.571   0.005
 5658SOL     OW17872   3.245   3.163   6.884
 5658SOL    HW117873   3.284   3.232   6.945
 5658SOL    HW217874   3.204   3.090   6.938
 5659SOL     OW17875   3.440   3.333   5.043
 5659SOL    HW117876   3.538   3.318   5.033
 5659SOL    HW217877   3.402   3.360   4.954
 5660SOL     OW17878   4.339   6.886   6.362
 5660SOL    HW117879   4.286   6.819   6.414
 5660SOL    HW217880   4.435   6.878   6.386
 5661SOL     OW17881   1.743   5.478   5.076
 5661SOL    HW117882   1.759   5.443   5.168
 5661SOL    HW217883   1.686   5.413   5.024
 5662SOL     OW17884   2.757   6.321   4.007
 5662SOL    HW117885   2.772   6.223   4.018
 5662SOL    HW217886   2.667   6.337   3.968
 5663SOL     OW17887   2.321   2.379   0.527
 5663SOL    HW117888   2.383   2.362   0.450
 5663SOL    HW217889   2.357   2.334   0.608
 5664SOL     OW17890   0.061   3.221   4.372
 5664SOL    HW117891   0.017   3.143   4.415
 5664SOL    HW217892   0.145   3.192   4.327
 5665SOL     OW17893   2.507   0.870   0.306
 5665SOL    HW117894   2.488   0.905   0.398
 5665SOL    HW217895   2.435   0.806   0.279
 5666SOL     OW17896   6.400   6.996   3.542
 5666SOL    HW117897   6.482   7.016   3.595
 5666SOL    HW217898   6.421   6.999   3.444
 5667SOL     OW17899   1.547   4.795   4.692
 5667SOL    HW117900   1.536   4.698   4.711
 5667SOL    HW217901   1.491   4.821   4.613
 5668SOL     OW17902   5.262   2.801   3.172
 5668SOL    HW117903   5.333   2.857   3.214
 5668SOL    HW217904   5.242   2.722   3.231
 5669SOL     OW17905   6.648   3.905   0.876
 5669SOL    HW117906   6.626   3.869   0.967
 5669SOL    HW217907   6.563   3.925   0.827
 5670SOL     OW17908   1.068   3.524   4.008
 5670SOL    HW117909   1.059   3.453   3.939
 5670SOL    HW217910   1.095   3.610   3.965
 5671SOL     OW17911   5.925   5.716   5.430
 5671SOL    HW117912   5.972   5.736   5.343
 5671SOL    HW217913   5.993   5.714   5.504
 5672SOL     OW17914   4.408   3.760   6.786
 5672SOL    HW117915   4.398   3.831   6.856
 5672SOL    HW217916   4.328   3.761   6.726
 5673SOL     OW17917   2.083   6.659   1.301
 5673SOL    HW117918   2.062   6.633   1.396
 5673SOL    HW217919   2.179   6.641   1.282
 5674SOL     OW17920   0.509   4.232   5.138
 5674SOL    HW117921   0.414   4.238   5.109
 5674SOL    HW217922   0.513   4.200   5.233
 5675SOL     OW17923   4.414   2.957   6.056
 5675SOL    HW117924   4.376   2.871   6.090
 5675SOL    HW217925   4.480   2.993   6.122
 5676SOL     OW17926   2.823   1.438   2.574
 5676SOL    HW117927   2.845   1.368   2.643
 5676SOL    HW217928   2.907   1.468   2.529
 5677SOL     OW17929   0.467   0.822   0.775
 5677SOL    HW117930   0.466   0.796   0.678
 5677SOL    HW217931   0.381   0.796   0.818
 5678SOL     OW17932   4.242   6.659   2.813
 5678SOL    HW117933   4.248   6.755   2.841
 5678SOL    HW217934   4.183   6.609   2.876
 5679SOL     OW17935   6.332   1.475   3.455
 5679SOL    HW117936   6.234   1.479   3.475
 5679SOL    HW217937   6.375   1.560   3.484
 5680SOL     OW17938   1.628   5.290   6.152
 5680SOL    HW117939   1.612   5.295   6.251
 5680SOL    HW217940   1.687   5.366   6.124
 5681SOL     OW17941   0.643   3.432   1.880
 5681SOL    HW117942   0.738   3.450   1.853
 5681SOL    HW217943   0.626   3.334   1.878
 5682SOL     OW17944   1.909   5.182   4.822
 5682SOL    HW117945   1.923   5.281   4.825
 5682SOL    HW217946   1.813   5.162   4.840
 5683SOL     OW17947   3.730   1.161   5.740
 5683SOL    HW117948   3.638   1.126   5.721
 5683SOL    HW217949   3.794   1.126   5.673
 5684SOL     OW17950   2.309   3.626   5.972
 5684SOL    HW117951   2.407   3.641   5.956
 5684SOL    HW217952   2.263   3.715   5.979
 5685SOL     OW17953   2.295   1.462   3.424
 5685SOL    HW117954   2.250   1.423   3.504
 5685SOL    HW217955   2.394   1.452   3.433
 5686SOL     OW17956   2.906   1.725   6.223
 5686SOL    HW117957   2.917   1.707   6.125
 5686SOL    HW217958   2.811   1.748   6.242
 5687SOL     OW17959   0.272   5.596   6.584
 5687SOL    HW117960   0.277   5.595   6.484
 5687SOL    HW217961   0.362   5.615   6.622
 5688SOL     OW17962   1.223   2.306   2.190
 5688SOL    HW117963   1.298   2.240   2.199
 5688SOL    HW217964   1.261   2.396   2.167
 5689SOL     OW17965   3.221   1.489   1.523
 5689SOL    HW117966   3.216   1.390   1.511
 5689SOL    HW217967   3.246   1.532   1.437
 5690SOL     OW17968   1.571   6.118   0.262
 5690SOL    HW117969   1.657   6.103   0.311
 5690SOL    HW217970   1.527   6.030   0.245
 5691SOL     OW17971   4.210   0.611   2.197
 5691SOL    HW117972   4.254   0.621   2.286
 5691SOL    HW217973   4.189   0.702   2.160
 5692SOL     OW17974   5.513   3.697   0.673
 5692SOL    HW117975   5.425   3.653   0.656
 5692SOL    HW217976   5.545   3.674   0.765
 5693SOL     OW17977   4.502   1.939   2.537
 5693SOL    HW117978   4.498   1.949   2.438
 5693SOL    HW217979   4.450   1.859   2.565
 5694SOL     OW17980   1.189   1.157   3.094
 5694SOL    HW117981   1.155   1.085   3.033
 5694SOL    HW217982   1.182   1.246   3.049
 5695SOL     OW17983   1.704   1.915   4.113
 5695SOL    HW117984   1.683   2.013   4.111
 5695SOL    HW217985   1.762   1.896   4.193
 5696SOL     OW17986   0.981   1.155   3.509
 5696SOL    HW117987   1.060   1.158   3.570
 5696SOL    HW217988   0.943   1.062   3.509
 5697SOL     OW17989   6.012   2.139   1.613
 5697SOL    HW117990   6.035   2.092   1.528
 5697SOL    HW217991   6.068   2.221   1.623
 5698SOL     OW17992   0.902   4.566   3.903
 5698SOL    HW117993   0.877   4.584   3.998
 5698SOL    HW217994   0.955   4.643   3.867
 5699SOL     OW17995   0.963   2.849   3.295
 5699SOL    HW117996   1.058   2.834   3.269
 5699SOL    HW217997   0.937   2.943   3.274
 5700SOL     OW17998   6.139   7.000   3.554
 5700SOL    HW117999   6.120   6.908   3.589
 5700SOL    HW218000   6.238   7.012   3.544
 5701SOL     OW18001   0.584   0.306   1.336
 5701SOL    HW118002   0.485   0.317   1.349
 5701SOL    HW218003   0.623   0.264   1.418
 5702SOL     OW18004   2.760   5.254   4.345
 5702SOL    HW118005   2.766   5.332   4.407
 5702SOL    HW218006   2.849   5.241   4.300
 5703SOL     OW18007   6.389   4.694   0.623
 5703SOL    HW118008   6.417   4.621   0.685
 5703SOL    HW218009   6.438   4.778   0.646
 5704SOL     OW18010   4.714   4.171   2.937
 5704SOL    HW118011   4.659   4.090   2.957
 5704SOL    HW218012   4.745   4.168   2.842
 5705SOL     OW18013   4.999   6.530   6.960
 5705SOL    HW118014   5.045   6.568   6.880
 5705SOL    HW218015   5.043   6.565   0.021
 5706SOL     OW18016   6.719   3.042   2.340
 5706SOL    HW118017   6.810   3.024   2.378
 5706SOL    HW218018   6.713   3.139   2.314
 5707SOL     OW18019   6.967   6.735   0.549
 5707SOL    HW118020   6.916   6.700   0.470
 5707SOL    HW218021   6.953   6.834   0.556
 5708SOL     OW18022   5.190   5.714   2.354
 5708SOL    HW118023   5.100   5.691   2.316
 5708SOL    HW218024   5.239   5.774   2.290
 5709SOL     OW18025   1.150   1.388   2.507
 5709SOL    HW118026   1.206   1.457   2.553
 5709SOL    HW218027   1.061   1.427   2.484
 5710SOL     OW18028   2.987   3.039   0.847
 5710SOL    HW118029   3.025   3.028   0.939
 5710SOL    HW218030   2.955   3.133   0.835
 5711SOL     OW18031   5.433   1.279   2.671
 5711SOL    HW118032   5.401   1.262   2.578
 5711SOL    HW218033   5.454   1.376   2.683
 5712SOL     OW18034   6.183   0.371   0.188
 5712SOL    HW118035   6.091   0.381   0.226
 5712SOL    HW218036   6.241   0.444   0.224
 5713SOL     OW18037   3.053   3.951   1.570
 5713SOL    HW118038   3.049   4.026   1.636
 5713SOL    HW218039   2.969   3.897   1.576
 5714SOL     OW18040   0.292   5.559   0.743
 5714SOL    HW118041   0.380   5.597   0.715
 5714SOL    HW218042   0.246   5.623   0.805
 5715SOL     OW18043   0.922   0.611   2.681
 5715SOL    HW118044   0.951   0.618   2.586
 5715SOL    HW218045   0.835   0.660   2.693
 5716SOL     OW18046   1.454   4.753   6.123
 5716SOL    HW118047   1.425   4.759   6.028
 5716SOL    HW218048   1.467   4.845   6.160
 5717SOL     OW18049   1.884   4.917   0.657
 5717SOL    HW118050   1.956   4.953   0.598
 5717SOL    HW218051   1.922   4.846   0.716
 5718SOL     OW18052   0.513   3.300   0.178
 5718SOL    HW118053   0.612   3.310   0.185
 5718SOL    HW218054   0.489   3.203   0.186
 5719SOL     OW18055   1.676   2.625   6.955
 5719SOL    HW118056   1.584   2.626   6.994
 5719SOL    HW218057   1.671   2.629   6.856
 5720SOL     OW18058   2.531   5.928   5.120
 5720SOL    HW118059   2.460   5.896   5.183
 5720SOL    HW218060   2.508   6.019   5.087
 5721SOL     OW18061   6.323   3.763   0.878
 5721SOL    HW118062   6.346   3.826   0.952
 5721SOL    HW218063   6.391   3.691   0.872
 5722SOL     OW18064   6.690   2.090   5.044
 5722SOL    HW118065   6.712   1.995   5.021
 5722SOL    HW218066   6.616   2.091   5.112
 5723SOL     OW18067   4.363   3.132   0.178
 5723SOL    HW118068   4.359   3.232   0.182
 5723SOL    HW218069   4.312   3.100   0.097
 5724SOL     OW18070   5.176   2.886   4.367
 5724SOL    HW118071   5.101   2.834   4.407
 5724SOL    HW218072   5.260   2.832   4.371
 5725SOL     OW18073   6.405   5.175   3.912
 5725SOL    HW118074   6.337   5.235   3.870
 5725SOL    HW218075   6.474   5.230   3.958
 5726SOL     OW18076   6.593   5.624   4.131
 5726SOL    HW118077   6.569   5.590   4.039
 5726SOL    HW218078   6.590   5.549   4.196
 5727SOL     OW18079   6.133   2.414   4.445
 5727SOL    HW118080   6.055   2.392   4.503
 5727SOL    HW218081   6.207   2.348   4.461
 5728SOL     OW18082   4.016   6.196   5.658
 5728SOL    HW118083   4.071   6.137   5.717
 5728SOL    HW218084   4.035   6.292   5.680
 5729SOL     OW18085   2.439   0.366   0.196
 5729SOL    HW118086   2.477   0.363   0.289
 5729SOL    HW218087   2.339   0.371   0.201
 5730SOL     OW18088   5.354   4.756   6.204
 5730SOL    HW118089   5.259   4.731   6.221
 5730SOL    HW218090   5.359   4.815   6.124
 5731SOL     OW18091   0.275   6.760   2.983
 5731SOL    HW118092   0.363   6.785   3.025
 5731SOL    HW218093   0.207   6.828   3.007
 5732SOL     OW18094   0.370   5.484   3.889
 5732SOL    HW118095   0.452   5.532   3.858
 5732SOL    HW218096   0.388   5.386   3.893
 5733SOL     OW18097   3.162   6.666   5.440
 5733SOL    HW118098   3.100   6.591   5.461
 5733SOL    HW218099   3.219   6.686   5.519
 5734SOL     OW18100   0.832   0.589   5.002
 5734SOL    HW118101   0.848   0.558   4.908
 5734SOL    HW218102   0.791   0.680   5.000
 5735SOL     OW18103   3.855   2.095   1.525
 5735SOL    HW118104   3.786   2.099   1.598
 5735SOL    HW218105   3.815   2.053   1.443
 5736SOL     OW18106   6.081   4.140   7.001
 5736SOL    HW118107   6.154   4.092   6.952
 5736SOL    HW218108   6.040   4.078   0.046
 5737SOL     OW18109   5.626   6.244   0.194
 5737SOL    HW118110   5.630   6.274   0.289
 5737SOL    HW218111   5.685   6.301   0.137
 5738SOL     OW18112   2.023   2.526   5.844
 5738SOL    HW118113   2.076   2.518   5.760
 5738SOL    HW218114   1.943   2.466   5.839
 5739SOL     OW18115   2.053   0.777   5.956
 5739SOL    HW118116   2.000   0.780   6.040
 5739SOL    HW218117   2.102   0.864   5.944
 5740SOL     OW18118   4.332   4.457   0.565
 5740SOL    HW118119   4.398   4.471   0.639
 5740SOL    HW218120   4.331   4.537   0.506
 5741SOL     OW18121   1.046   5.689   4.775
 5741SOL    HW118122   1.021   5.760   4.841
 5741SOL    HW218123   1.091   5.614   4.822
 5742SOL     OW18124   5.730   6.418   2.712
 5742SOL    HW118125   5.699   6.358   2.638
 5742SOL    HW218126   5.728   6.513   2.681
 5743SOL     OW18127   2.491   6.247   5.123
 5743SOL    HW118128   2.497   6.342   5.155
 5743SOL    HW218129   2.394   6.221   5.116
 5744SOL     OW18130   4.513   0.315   2.464
 5744SOL    HW118131   4.597   0.362   2.492
 5744SOL    HW218132   4.516   0.298   2.365
 5745SOL     OW18133   3.644   0.574   3.788
 5745SOL    HW118134   3.630   0.664   3.830
 5745SOL    HW218135   3.742   0.552   3.787
 5746SOL     OW18136   5.347   0.155   1.592
 5746SOL    HW118137   5.363   0.182   1.497
 5746SOL    HW218138   5.398   0.215   1.653
 5747SOL     OW18139   0.164   4.970   2.521
 5747SOL    HW118140   0.230   5.041   2.495
 5747SOL    HW218141   0.168   4.956   2.620
 5748SOL     OW18142   1.240   5.513   0.764
 5748SOL    HW118143   1.163   5.450   0.753
 5748SOL    HW218144   1.230   5.588   0.699
 5749SOL     OW18145   2.161   0.238   4.770
 5749SOL    HW118146   2.211   0.271   4.850
 5749SOL    HW218147   2.067   0.273   4.773
 5750SOL     OW18148   6.109   5.142   4.403
 5750SOL    HW118149   6.106   5.043   4.398
 5750SOL    HW218150   6.131   5.170   4.497
 5751SOL     OW18151   2.452   2.698   4.387
 5751SOL    HW118152   2.534   2.746   4.355
 5751SOL    HW218153   2.442   2.612   4.337
 5752SOL     OW18154   6.609   0.493   6.856
 5752SOL    HW118155   6.621   0.477   6.955
 5752SOL    HW218156   6.552   0.420   6.818
 5753SOL     OW18157   3.157   3.486   5.707
 5753SOL    HW118158   3.221   3.545   5.757
 5753SOL    HW218159   3.187   3.477   5.612
 5754SOL     OW18160   5.875   4.683   1.247
 5754SOL    HW118161   5.808   4.670   1.174
 5754SOL    HW218162   5.905   4.778   1.248
 5755SOL     OW18163   2.956   3.261   5.639
 5755SOL    HW118164   3.024   3.315   5.688
 5755SOL    HW218165   2.986   3.248   5.544
 5756SOL     OW18166   6.277   5.946   3.381
 5756SOL    HW118167   6.360   5.898   3.408
 5756SOL    HW218168   6.238   5.993   3.461
 5757SOL     OW18169   6.607   6.695   2.626
 5757SOL    HW118170   6.671   6.621   2.650
 5757SOL    HW218171   6.525   6.655   2.584
 5758SOL     OW18172   3.316   1.331   4.011
 5758SOL    HW118173   3.313   1.427   4.038
 5758SOL    HW218174   3.355   1.324   3.919
 5759SOL     OW18175   4.516   1.730   6.572
 5759SOL    HW118176   4.551   1.636   6.578
 5759SOL    HW218177   4.490   1.749   6.477
 5760SOL     OW18178   1.447   5.064   1.734
 5760SOL    HW118179   1.542   5.082   1.757
 5760SOL    HW218180   1.387   5.121   1.790
 5761SOL     OW18181   5.580   0.066   6.226
 5761SOL    HW118182   5.531   0.057   6.313
 5761SOL    HW218183   5.622   0.156   6.220
 5762SOL     OW18184   4.763   6.815   0.246
 5762SOL    HW118185   4.779   6.721   0.276
 5762SOL    HW218186   4.829   6.875   0.290
 5763SOL     OW18187   0.117   0.313   0.047
 5763SOL    HW118188   0.069   0.225   0.043
 5763SOL    HW218189   0.209   0.299   0.082
 5764SOL     OW18190   5.592   4.634   6.212
 5764SOL    HW118191   5.511   4.692   6.204
 5764SOL    HW218192   5.641   4.655   6.297
 5765SOL     OW18193   6.665   3.970   6.093
 5765SOL    HW118194   6.662   4.070   6.102
 5765SOL    HW218195   6.585   3.939   6.042
 5766SOL     OW18196   2.551   1.807   0.754
 5766SOL    HW118197   2.583   1.887   0.805
 5766SOL    HW218198   2.572   1.724   0.807
 5767SOL     OW18199   2.714   7.017   0.471
 5767SOL    HW118200   2.768   0.079   0.464
 5767SOL    HW218201   2.717   6.969   0.384
 5768SOL     OW18202   0.192   6.647   3.486
 5768SOL    HW118203   0.102   6.673   3.521
 5768SOL    HW218204   0.183   6.615   3.392
 5769SOL     OW18205   2.784   0.108   3.780
 5769SOL    HW118206   2.717   0.124   3.852
 5769SOL    HW218207   2.825   0.194   3.751
 5770SOL     OW18208   0.222   6.685   0.636
 5770SOL    HW118209   0.126   6.680   0.609
 5770SOL    HW218210   0.259   6.593   0.645
 5771SOL     OW18211   1.034   6.085   2.334
 5771SOL    HW118212   0.984   6.129   2.260
 5771SOL    HW218213   1.126   6.062   2.303
 5772SOL     OW18214   5.649   2.497   0.631
 5772SOL    HW118215   5.637   2.538   0.541
 5772SOL    HW218216   5.733   2.530   0.673
 5773SOL     OW18217   5.344   0.898   4.003
 5773SOL    HW118218   5.285   0.874   3.926
 5773SOL    HW218219   5.314   0.847   4.084
 5774SOL     OW18220   2.523   5.207   3.958
 5774SOL    HW118221   2.480   5.189   4.046
 5774SOL    HW218222   2.501   5.299   3.928
 5775SOL     OW18223   1.344   6.915   1.264
 5775SOL    HW118224   1.310   6.850   1.332
 5775SOL    HW218225   1.419   6.968   1.304
 5776SOL     OW18226   6.728   1.123   6.173
 5776SOL    HW118227   6.773   1.182   6.105
 5776SOL    HW218228   6.688   1.044   6.127
 5777SOL     OW18229   5.987   0.690   4.397
 5777SOL    HW118230   6.039   0.766   4.435
 5777SOL    HW218231   6.007   0.606   4.448
 5778SOL     OW18232   1.948   6.886   1.129
 5778SOL    HW118233   1.990   6.797   1.114
 5778SOL    HW218234   1.903   6.917   1.046
 5779SOL     OW18235   4.017   1.086   1.434
 5779SOL    HW118236   4.040   1.182   1.416
 5779SOL    HW218237   4.069   1.053   1.512
 5780SOL     OW18238   6.074   5.257   2.512
 5780SOL    HW118239   5.980   5.229   2.531
 5780SOL    HW218240   6.096   5.235   2.417
 5781SOL     OW18241   1.455   4.279   4.962
 5781SOL    HW118242   1.487   4.187   4.985
 5781SOL    HW218243   1.364   4.274   4.921
 5782SOL     OW18244   1.681   0.930   1.039
 5782SOL    HW118245   1.746   0.987   1.088
 5782SOL    HW218246   1.683   0.837   1.077
 5783SOL     OW18247   1.839   1.069   1.193
 5783SOL    HW118248   1.866   1.109   1.106
 5783SOL    HW218249   1.918   1.062   1.253
 5784SOL     OW18250   0.486   6.585   0.198
 5784SOL    HW118251   0.508   6.494   0.163
 5784SOL    HW218252   0.474   6.648   0.121
 5785SOL     OW18253   1.838   2.123   1.344
 5785SOL    HW118254   1.861   2.216   1.373
 5785SOL    HW218255   1.912   2.061   1.368
 5786SOL     OW18256   1.298   4.043   0.681
 5786SOL    HW118257   1.337   3.958   0.715
 5786SOL    HW218258   1.330   4.120   0.736
 5787SOL     OW18259   5.049   2.375   4.371
 5787SOL    HW118260   4.976   2.382   4.439
 5787SOL    HW218261   5.065   2.279   4.349
 5788SOL     OW18262   2.993   0.274   1.586
 5788SOL    HW118263   2.962   0.180   1.596
 5788SOL    HW218264   3.081   0.275   1.539
 5789SOL     OW18265   3.749   2.537   6.314
 5789SOL    HW118266   3.709   2.452   6.282
 5789SOL    HW218267   3.691   2.614   6.287
 5790SOL     OW18268   6.834   6.012   5.217
 5790SOL    HW118269   6.806   6.107   5.200
 5790SOL    HW218270   6.875   6.005   5.308
 5791SOL     OW18271   3.445   1.352   2.593
 5791SOL    HW118272   3.413   1.376   2.502
 5791SOL    HW218273   3.509   1.422   2.625
 5792SOL     OW18274   4.845   3.737   3.343
 5792SOL    HW118275   4.900   3.654   3.343
 5792SOL    HW218276   4.816   3.759   3.250
 5793SOL     OW18277   6.312   1.102   6.114
 5793SOL    HW118278   6.342   1.007   6.129
 5793SOL    HW218279   6.392   1.162   6.112
 5794SOL     OW18280   3.476   6.905   6.905
 5794SOL    HW118281   3.560   6.950   6.873
 5794SOL    HW218282   3.480   6.896   7.005
 5795SOL     OW18283   0.566   6.309   1.397
 5795SOL    HW118284   0.501   6.302   1.321
 5795SOL    HW218285   0.637   6.377   1.374
 5796SOL     OW18286   4.914   0.490   6.963
 5796SOL    HW118287   4.956   0.404   6.993
 5796SOL    HW218288   4.852   0.473   6.887
 5797SOL     OW18289   5.717   0.947   0.063
 5797SOL    HW118290   5.624   0.960   0.029
 5797SOL    HW218291   5.719   0.868   0.124
 5798SOL     OW18292   0.712   4.018   4.541
 5798SOL    HW118293   0.665   3.942   4.585
 5798SOL    HW218294   0.759   4.073   4.610
 5799SOL     OW18295   0.594   0.016   2.859
 5799SOL    HW118296   0.588   0.041   2.956
 5799SOL    HW218297   0.561   6.946   2.846
 5800SOL     OW18298   0.805   0.521   1.558
 5800SOL    HW118299   0.830   0.441   1.612
 5800SOL    HW218300   0.852   0.518   1.470
 5801SOL     OW18301   2.398   2.750   4.025
 5801SOL    HW118302   2.318   2.701   4.059
 5801SOL    HW218303   2.476   2.688   4.019
 5802SOL     OW18304   6.071   3.766   2.405
 5802SOL    HW118305   5.973   3.753   2.415
 5802SOL    HW218306   6.118   3.729   2.486
 5803SOL     OW18307   0.883   4.992   3.765
 5803SOL    HW118308   0.947   4.920   3.790
 5803SOL    HW218309   0.789   4.957   3.770
 5804SOL     OW18310   6.621   6.196   3.917
 5804SOL    HW118311   6.697   6.232   3.970
 5804SOL    HW218312   6.597   6.105   3.950
 5805SOL     OW18313   1.654   2.991   0.873
 5805SOL    HW118314   1.717   3.067   0.884
 5805SOL    HW218315   1.636   2.976   0.776
 5806SOL     OW18316   0.000   4.268   4.793
 5806SOL    HW118317   6.941   4.233   4.747
 5806SOL    HW218318   0.036   4.198   4.855
 5807SOL     OW18319   1.396   6.013   1.302
 5807SOL    HW118320   1.442   5.926   1.287
 5807SOL    HW218321   1.450   6.069   1.364
 5808SOL     OW18322   6.239   0.073   4.754
 5808SOL    HW118323   6.243   6.996   4.759
 5808SOL    HW218324   6.331   0.110   4.742
 5809SOL     OW18325   0.160   2.247   5.724
 5809SOL    HW118326   0.260   2.248   5.727
 5809SOL    HW218327   0.124   2.265   5.816
 5810SOL     OW18328   4.128   0.425   4.872
 5810SOL    HW118329   4.029   0.432   4.886
 5810SOL    HW218330   4.161   0.506   4.824
 5811SOL     OW18331   2.614   2.211   5.465
 5811SOL    HW118332   2.550   2.139   5.438
 5811SOL    HW218333   2.576   2.300   5.442
 5812SOL     OW18334   5.650   3.623   6.356
 5812SOL    HW118335   5.747   3.640   6.335
 5812SOL    HW218336   5.622   3.536   6.316
 5813SOL     OW18337   3.078   6.104   1.483
 5813SOL    HW118338   3.105   6.200   1.496
 5813SOL    HW218339   3.159   6.047   1.472
 5814SOL     OW18340   0.079   1.993   2.010
 5814SOL    HW118341   0.067   1.900   2.044
 5814SOL    HW218342   0.146   2.041   2.067
 5815SOL     OW18343   5.602   1.965   4.342
 5815SOL    HW118344   5.529   2.024   4.306
 5815SOL    HW218345   5.633   2.000   4.430
 5816SOL     OW18346   6.835   4.973   2.170
 5816SOL    HW118347   6.893   4.984   2.251
 5816SOL    HW218348   6.767   4.903   2.186
 5817SOL     OW18349   6.224   4.415   5.280
 5817SOL    HW118350   6.284   4.484   5.320
 5817SOL    HW218351   6.171   4.370   5.352
 5818SOL     OW18352   1.222   5.873   5.485
 5818SOL    HW118353   1.203   5.815   5.405
 5818SOL    HW218354   1.159   5.950   5.485
 5819SOL     OW18355   3.026   5.279   6.628
 5819SOL    HW118356   3.007   5.195   6.577
 5819SOL    HW218357   3.106   5.324   6.589
 5820SOL     OW18358   4.567   4.861   2.018
 5820SOL    HW118359   4.622   4.867   2.102
 5820SOL    HW218360   4.475   4.894   2.037
 5821SOL     OW18361   6.552   0.666   1.600
 5821SOL    HW118362   6.498   0.664   1.684
 5821SOL    HW218363   6.629   0.603   1.608
 5822SOL     OW18364   1.158   2.518   2.501
 5822SOL    HW118365   1.173   2.430   2.456
 5822SOL    HW218366   1.242   2.571   2.499
 5823SOL     OW18367   2.571   6.434   4.607
 5823SOL    HW118368   2.477   6.467   4.596
 5823SOL    HW218369   2.569   6.340   4.640
 5824SOL     OW18370   0.821   6.869   2.437
 5824SOL    HW118371   0.823   6.774   2.467
 5824SOL    HW218372   0.757   6.920   2.495
 5825SOL     OW18373   0.377   5.763   4.929
 5825SOL    HW118374   0.469   5.802   4.939
 5825SOL    HW218375   0.309   5.829   4.958
 5826SOL     OW18376   0.011   7.012   5.561
 5826SOL    HW118377   6.983   0.050   5.501
 5826SOL    HW218378   7.001   6.918   5.550
 5827SOL     OW18379   0.985   3.615   4.912
 5827SOL    HW118380   0.907   3.597   4.973
 5827SOL    HW218381   0.953   3.618   4.817
 5828SOL     OW18382   5.000   1.018   3.724
 5828SOL    HW118383   4.933   1.093   3.728
 5828SOL    HW218384   4.994   0.972   3.636
 5829SOL     OW18385   1.410   0.579   4.976
 5829SOL    HW118386   1.371   0.581   5.068
 5829SOL    HW218387   1.500   0.535   4.979
 5830SOL     OW18388   4.209   5.693   5.422
 5830SOL    HW118389   4.181   5.624   5.489
 5830SOL    HW218390   4.179   5.784   5.452
 5831SOL     OW18391   1.191   1.806   5.564
 5831SOL    HW118392   1.101   1.825   5.524
 5831SOL    HW218393   1.231   1.891   5.597
 5832SOL     OW18394   3.587   4.553   1.312
 5832SOL    HW118395   3.563   4.638   1.360
 5832SOL    HW218396   3.547   4.555   1.220
 5833SOL     OW18397   3.841   3.311   5.466
 5833SOL    HW118398   3.928   3.262   5.462
 5833SOL    HW218399   3.780   3.277   5.396
 5834SOL     OW18400   6.660   3.270   6.566
 5834SOL    HW118401   6.699   3.220   6.643
 5834SOL    HW218402   6.732   3.290   6.499
 5835SOL     OW18403   6.298   1.660   2.636
 5835SOL    HW118404   6.322   1.755   2.621
 5835SOL    HW218405   6.309   1.608   2.551
 5836SOL     OW18406   3.169   6.693   2.338
 5836SOL    HW118407   3.072   6.676   2.353
 5836SOL    HW218408   3.197   6.654   2.250
 5837SOL     OW18409   4.157   3.742   0.319
 5837SOL    HW118410   4.171   3.730   0.418
 5837SOL    HW218411   4.240   3.712   0.271
 5838SOL     OW18412   2.764   1.365   1.170
 5838SOL    HW118413   2.756   1.316   1.083
 5838SOL    HW218414   2.799   1.303   1.240
 5839SOL     OW18415   0.579   2.836   1.301
 5839SOL    HW118416   0.647   2.908   1.289
 5839SOL    HW218417   0.604   2.758   1.243
 5840SOL     OW18418   6.914   3.844   1.432
 5840SOL    HW118419   6.950   3.930   1.397
 5840SOL    HW218420   6.939   3.769   1.370
 5841SOL     OW18421   4.966   0.596   1.870
 5841SOL    HW118422   4.936   0.513   1.916
 5841SOL    HW218423   4.891   0.633   1.815
 5842SOL     OW18424   3.888   2.033   0.886
 5842SOL    HW118425   3.818   1.984   0.937
 5842SOL    HW218426   3.844   2.091   0.817
 5843SOL     OW18427   2.089   3.532   1.159
 5843SOL    HW118428   2.145   3.597   1.210
 5843SOL    HW218429   2.063   3.572   1.071
 5844SOL     OW18430   0.878   6.338   4.929
 5844SOL    HW118431   0.832   6.427   4.926
 5844SOL    HW218432   0.871   6.294   4.840
 5845SOL     OW18433   0.388   0.103   1.561
 5845SOL    HW118434   0.456   0.044   1.605
 5845SOL    HW218435   0.381   0.081   1.464
 5846SOL     OW18436   6.095   3.531   5.540
 5846SOL    HW118437   6.089   3.442   5.585
 5846SOL    HW218438   6.027   3.593   5.580
 5847SOL     OW18439   2.846   2.711   1.706
 5847SOL    HW118440   2.768   2.684   1.649
 5847SOL    HW218441   2.876   2.632   1.760
 5848SOL     OW18442   1.913   5.795   4.005
 5848SOL    HW118443   1.968   5.770   3.925
 5848SOL    HW218444   1.909   5.717   4.067
 5849SOL     OW18445   1.976   6.478   5.366
 5849SOL    HW118446   1.979   6.577   5.350
 5849SOL    HW218447   1.893   6.440   5.327
 5850SOL     OW18448   0.956   3.032   1.800
 5850SOL    HW118449   0.918   3.008   1.710
 5850SOL    HW218450   1.055   3.030   1.796
 5851SOL     OW18451   5.491   3.787   3.584
 5851SOL    HW118452   5.448   3.820   3.668
 5851SOL    HW218453   5.590   3.784   3.596
 5852SOL     OW18454   4.481   6.097   2.938
 5852SOL    HW118455   4.526   6.033   3.001
 5852SOL    HW218456   4.509   6.076   2.844
 5853SOL     OW18457   4.502   5.126   5.232
 5853SOL    HW118458   4.405   5.146   5.244
 5853SOL    HW218459   4.550   5.140   5.319
 5854SOL     OW18460   3.815   4.366   5.439
 5854SOL    HW118461   3.852   4.438   5.379
 5854SOL    HW218462   3.819   4.396   5.534
 5855SOL     OW18463   1.837   2.665   4.116
 5855SOL    HW118464   1.760   2.723   4.141
 5855SOL    HW218465   1.873   2.620   4.198
 5856SOL     OW18466   1.223   6.979   2.255
 5856SOL    HW118467   1.197   0.041   2.207
 5856SOL    HW218468   1.160   6.906   2.230
 5857SOL     OW18469   6.599   3.293   5.329
 5857SOL    HW118470   6.687   3.311   5.374
 5857SOL    HW218471   6.592   3.196   5.306
 5858SOL     OW18472   2.479   2.201   2.369
 5858SOL    HW118473   2.554   2.239   2.315
 5858SOL    HW218474   2.466   2.105   2.344
 5859SOL     OW18475   6.066   6.316   1.523
 5859SOL    HW118476   6.014   6.399   1.543
 5859SOL    HW218477   6.019   6.237   1.563
 5860SOL     OW18478   0.797   4.524   3.197
 5860SOL    HW118479   0.889   4.561   3.185
 5860SOL    HW218480   0.787   4.488   3.290
 5861SOL     OW18481   5.517   0.730   4.761
 5861SOL    HW118482   5.571   0.797   4.711
 5861SOL    HW218483   5.544   0.729   4.857
 5862SOL     OW18484   6.121   5.668   2.035
 5862SOL    HW118485   6.100   5.765   2.024
 5862SOL    HW218486   6.148   5.651   2.130
 5863SOL     OW18487   3.078   1.196   4.697
 5863SOL    HW118488   3.169   1.161   4.672
 5863SOL    HW218489   3.035   1.133   4.761
 5864SOL     OW18490   3.805   3.669   2.713
 5864SOL    HW118491   3.814   3.724   2.631
 5864SOL    HW218492   3.894   3.662   2.758
 5865SOL     OW18493   5.605   0.587   5.554
 5865SOL    HW118494   5.574   0.498   5.520
 5865SOL    HW218495   5.542   0.658   5.522
 5866SOL     OW18496   3.208   3.338   0.435
 5866SOL    HW118497   3.116   3.372   0.452
 5866SOL    HW218498   3.257   3.326   0.522
 5867SOL     OW18499   2.449   2.287   1.934
 5867SOL    HW118500   2.390   2.238   1.998
 5867SOL    HW218501   2.443   2.244   1.843
 5868SOL     OW18502   1.054   2.114   5.932
 5868SOL    HW118503   0.996   2.036   5.956
 5868SOL    HW218504   1.109   2.140   6.012
 5869SOL     OW18505   1.647   4.282   3.449
 5869SOL    HW118506   1.722   4.349   3.445
 5869SOL    HW218507   1.623   4.253   3.356
 5870SOL     OW18508   4.121   5.491   5.567
 5870SOL    HW118509   4.106   5.545   5.649
 5870SOL    HW218510   4.077   5.401   5.578
 5871SOL     OW18511   4.096   3.759   2.494
 5871SOL    HW118512   4.018   3.818   2.514
 5871SOL    HW218513   4.114   3.761   2.395
 5872SOL     OW18514   4.135   6.278   1.535
 5872SOL    HW118515   4.169   6.192   1.573
 5872SOL    HW218516   4.208   6.322   1.483
 5873SOL     OW18517   3.157   5.921   2.287
 5873SOL    HW118518   3.114   5.885   2.203
 5873SOL    HW218519   3.217   5.851   2.326
 5874SOL     OW18520   2.187   4.226   5.097
 5874SOL    HW118521   2.203   4.241   5.195
 5874SOL    HW218522   2.233   4.142   5.069
 5875SOL     OW18523   3.681   2.215   0.260
 5875SOL    HW118524   3.589   2.255   0.267
 5875SOL    HW218525   3.747   2.288   0.242
 5876SOL     OW18526   3.867   3.350   2.118
 5876SOL    HW118527   3.937   3.278   2.112
 5876SOL    HW218528   3.779   3.313   2.088
 5877SOL     OW18529   6.053   6.355   6.985
 5877SOL    HW118530   5.981   6.425   6.983
 5877SOL    HW218531   6.070   6.323   6.891
 5878SOL     OW18532   1.297   6.016   3.910
 5878SOL    HW118533   1.321   6.058   3.822
 5878SOL    HW218534   1.308   5.917   3.904
 5879SOL     OW18535   0.559   3.638   0.664
 5879SOL    HW118536   0.559   3.736   0.682
 5879SOL    HW218537   0.553   3.621   0.566
 5880SOL     OW18538   2.870   4.623   0.804
 5880SOL    HW118539   2.955   4.593   0.760
 5880SOL    HW218540   2.861   4.722   0.796
 5881SOL     OW18541   0.119   4.819   2.916
 5881SOL    HW118542   0.200   4.768   2.944
 5881SOL    HW218543   0.054   4.822   2.992
 5882SOL     OW18544   6.339   6.284   1.204
 5882SOL    HW118545   6.355   6.298   1.301
 5882SOL    HW218546   6.265   6.345   1.174
 5883SOL     OW18547   0.941   2.072   6.783
 5883SOL    HW118548   0.860   2.035   6.829
 5883SOL    HW218549   1.022   2.054   6.839
 5884SOL     OW18550   2.628   1.276   4.138
 5884SOL    HW118551   2.589   1.262   4.229
 5884SOL    HW218552   2.613   1.371   4.110
 5885SOL     OW18553   0.141   0.064   2.255
 5885SOL    HW118554   0.176   6.998   2.284
 5885SOL    HW218555   0.049   0.078   2.290
 5886SOL     OW18556   0.475   2.055   5.206
 5886SOL    HW118557   0.568   2.032   5.179
 5886SOL    HW218558   0.412   2.034   5.131
 5887SOL     OW18559   3.627   1.015   3.638
 5887SOL    HW118560   3.614   0.985   3.732
 5887SOL    HW218561   3.561   0.969   3.578
 5888SOL     OW18562   2.584   0.639   2.726
 5888SOL    HW118563   2.603   0.686   2.640
 5888SOL    HW218564   2.487   0.648   2.749
 5889SOL     OW18565   1.363   6.424   1.469
 5889SOL    HW118566   1.431   6.463   1.531
 5889SOL    HW218567   1.317   6.347   1.513
 5890SOL     OW18568   1.039   6.948   5.456
 5890SOL    HW118569   1.055   0.011   5.504
 5890SOL    HW218570   1.025   6.874   5.522
 5891SOL     OW18571   3.415   3.093   5.832
 5891SOL    HW118572   3.341   3.132   5.778
 5891SOL    HW218573   3.453   3.014   5.785
 5892SOL     OW18574   0.802   5.761   1.742
 5892SOL    HW118575   0.808   5.860   1.758
 5892SOL    HW218576   0.881   5.731   1.688
 5893SOL     OW18577   1.493   4.112   3.904
 5893SOL    HW118578   1.482   4.156   3.815
 5893SOL    HW218579   1.528   4.019   3.891
 5894SOL     OW18580   0.878   5.913   3.306
 5894SOL    HW118581   0.837   5.944   3.220
 5894SOL    HW218582   0.814   5.852   3.353
 5895SOL     OW18583   4.825   3.042   4.179
 5895SOL    HW118584   4.911   3.079   4.213
 5895SOL    HW218585   4.762   3.117   4.158
 5896SOL     OW18586   4.206   1.663   0.618
 5896SOL    HW118587   4.133   1.610   0.661
 5896SOL    HW218588   4.195   1.760   0.642
 5897SOL     OW18589   3.758   0.347   1.767
 5897SOL    HW118590   3.761   0.278   1.839
 5897SOL    HW218591   3.666   0.353   1.730
 5898SOL     OW18592   1.810   6.614   3.118
 5898SOL    HW118593   1.850   6.583   3.204
 5898SOL    HW218594   1.754   6.696   3.135
 5899SOL     OW18595   4.988   6.674   5.759
 5899SOL    HW118596   4.926   6.740   5.803
 5899SOL    HW218597   5.000   6.595   5.819
 5900SOL     OW18598   4.536   5.285   3.468
 5900SOL    HW118599   4.562   5.370   3.423
 5900SOL    HW218600   4.601   5.266   3.542
 5901SOL     OW18601   2.792   0.263   0.375
 5901SOL    HW118602   2.716   0.319   0.407
 5901SOL    HW218603   2.796   0.265   0.275
 5902SOL     OW18604   0.042   2.374   6.927
 5902SOL    HW118605   0.133   2.408   6.902
 5902SOL    HW218606   0.049   2.278   6.955
 5903SOL     OW18607   4.465   4.237   0.290
 5903SOL    HW118608   4.374   4.269   0.267
 5903SOL    HW218609   4.497   4.173   0.220
 5904SOL     OW18610   0.889   3.491   1.835
 5904SOL    HW118611   0.910   3.575   1.785
 5904SOL    HW218612   0.929   3.495   1.927
 5905SOL     OW18613   6.314   6.306   3.086
 5905SOL    HW118614   6.334   6.286   2.990
 5905SOL    HW218615   6.273   6.397   3.094
 5906SOL     OW18616   4.648   1.578   4.394
 5906SOL    HW118617   4.727   1.563   4.453
 5906SOL    HW218618   4.616   1.672   4.404
 5907SOL     OW18619   2.001   5.838   2.161
 5907SOL    HW118620   2.045   5.884   2.084
 5907SOL    HW218621   2.034   5.877   2.247
 5908SOL     OW18622   0.734   2.179   6.233
 5908SOL    HW118623   0.762   2.252   6.170
 5908SOL    HW218624   0.782   2.094   6.208
 5909SOL     OW18625   6.801   5.423   0.779
 5909SOL    HW118626   6.879   5.374   0.740
 5909SOL    HW218627   6.716   5.380   0.748
 5910SOL     OW18628   0.692   2.801   3.193
 5910SOL    HW118629   0.630   2.846   3.257
 5910SOL    HW218630   0.782   2.793   3.235
 5911SOL     OW18631   6.395   5.864   6.682
 5911SOL    HW118632   6.382   5.831   6.775
 5911SOL    HW218633   6.490   5.893   6.670
 5912SOL     OW18634   6.433   0.632   5.277
 5912SOL    HW118635   6.426   0.534   5.296
 5912SOL    HW218636   6.481   0.677   5.352
 5913SOL     OW18637   4.495   2.794   6.382
 5913SOL    HW118638   4.584   2.837   6.363
 5913SOL    HW218639   4.429   2.864   6.408
 5914SOL     OW18640   0.887   6.021   6.790
 5914SOL    HW118641   0.867   6.073   6.873
 5914SOL    HW218642   0.805   5.972   6.761
 5915SOL     OW18643   4.441   6.200   1.176
 5915SOL    HW118644   4.457   6.273   1.109
 5915SOL    HW218645   4.512   6.204   1.246
 5916SOL     OW18646   0.298   6.201   2.447
 5916SOL    HW118647   0.302   6.258   2.529
 5916SOL    HW218648   0.286   6.105   2.473
 5917SOL     OW18649   3.089   4.059   4.867
 5917SOL    HW118650   3.015   4.113   4.907
 5917SOL    HW218651   3.167   4.119   4.849
 5918SOL     OW18652   2.092   5.209   5.861
 5918SOL    HW118653   2.030   5.151   5.915
 5918SOL    HW218654   2.119   5.161   5.778
 5919SOL     OW18655   3.094   3.423   2.519
 5919SOL    HW118656   3.192   3.419   2.540
 5919SOL    HW218657   3.080   3.474   2.435
 5920SOL     OW18658   5.077   0.688   6.320
 5920SOL    HW118659   4.982   0.717   6.333
 5920SOL    HW218660   5.082   0.589   6.320
 5921SOL     OW18661   4.097   5.201   6.474
 5921SOL    HW118662   4.190   5.235   6.459
 5921SOL    HW218663   4.101   5.120   6.532
 5922SOL     OW18664   6.215   4.013   4.545
 5922SOL    HW118665   6.192   3.958   4.626
 5922SOL    HW218666   6.180   4.106   4.557
 5923SOL     OW18667   7.003   1.131   2.392
 5923SOL    HW118668   6.993   1.180   2.305
 5923SOL    HW218669   6.924   1.071   2.405
 5924SOL     OW18670   6.132   0.034   2.732
 5924SOL    HW118671   6.087   6.981   2.686
 5924SOL    HW218672   6.105   0.035   2.829
 5925SOL     OW18673   3.585   6.447   1.923
 5925SOL    HW118674   3.604   6.357   1.961
 5925SOL    HW218675   3.573   6.513   1.997
 5926SOL     OW18676   4.316   4.607   2.215
 5926SOL    HW118677   4.234   4.651   2.179
 5926SOL    HW218678   4.376   4.582   2.140
 5927SOL     OW18679   1.168   4.412   1.836
 5927SOL    HW118680   1.069   4.398   1.834
 5927SOL    HW218681   1.202   4.392   1.928
 5928SOL     OW18682   3.833   6.717   1.505
 5928SOL    HW118683   3.820   6.816   1.497
 5928SOL    HW218684   3.778   6.683   1.582
 5929SOL     OW18685   5.798   0.505   5.719
 5929SOL    HW118686   5.723   0.539   5.662
 5929SOL    HW218687   5.840   0.582   5.767
 5930SOL     OW18688   0.654   3.064   2.906
 5930SOL    HW118689   0.714   3.129   2.859
 5930SOL    HW218690   0.561   3.073   2.869
 5931SOL     OW18691   6.236   6.188   2.836
 5931SOL    HW118692   6.219   6.127   2.913
 5931SOL    HW218693   6.154   6.242   2.818
 5932SOL     OW18694   3.798   0.103   0.409
 5932SOL    HW118695   3.734   0.169   0.368
 5932SOL    HW218696   3.747   0.031   0.454
 5933SOL     OW18697   6.846   4.977   4.216
 5933SOL    HW118698   6.815   4.945   4.127
 5933SOL    HW218699   6.780   4.949   4.286
 5934SOL     OW18700   3.896   3.011   5.223
 5934SOL    HW118701   3.896   2.989   5.126
 5934SOL    HW218702   3.940   2.937   5.275
 5935SOL     OW18703   0.789   5.153   5.995
 5935SOL    HW118704   0.882   5.165   6.029
 5935SOL    HW218705   0.740   5.090   6.054
 5936SOL     OW18706   3.071   3.383   1.632
 5936SOL    HW118707   3.042   3.470   1.672
 5936SOL    HW218708   3.164   3.392   1.597
 5937SOL     OW18709   6.312   3.134   1.852
 5937SOL    HW118710   6.351   3.089   1.772
 5937SOL    HW218711   6.295   3.231   1.832
 5938SOL     OW18712   6.299   5.872   4.069
 5938SOL    HW118713   6.304   5.821   4.155
 5938SOL    HW218714   6.216   5.927   4.067
 5939SOL     OW18715   2.648   5.875   4.071
 5939SOL    HW118716   2.687   5.788   4.103
 5939SOL    HW218717   2.699   5.907   3.992
 5940SOL     OW18718   4.126   5.195   3.693
 5940SOL    HW118719   4.205   5.138   3.718
 5940SOL    HW218720   4.138   5.227   3.599
 5941SOL     OW18721   5.818   3.292   2.540
 5941SOL    HW118722   5.798   3.203   2.579
 5941SOL    HW218723   5.795   3.293   2.443
 5942SOL     OW18724   5.662   3.798   6.812
 5942SOL    HW118725   5.681   3.770   6.906
 5942SOL    HW218726   5.748   3.818   6.765
 5943SOL     OW18727   3.524   3.630   6.324
 5943SOL    HW118728   3.611   3.673   6.298
 5943SOL    HW218729   3.468   3.615   6.242
 5944SOL     OW18730   0.521   2.532   0.213
 5944SOL    HW118731   0.612   2.513   0.250
 5944SOL    HW218732   0.514   2.494   0.121
 5945SOL     OW18733   6.945   5.310   5.156
 5945SOL    HW118734   7.014   5.334   5.087
 5945SOL    HW218735   6.956   5.214   5.183
 5946SOL     OW18736   3.409   4.390   0.085
 5946SOL    HW118737   3.352   4.471   0.075
 5946SOL    HW218738   3.466   4.400   0.167
 5947SOL     OW18739   3.216   3.588   3.034
 5947SOL    HW118740   3.139   3.615   2.977
 5947SOL    HW218741   3.260   3.507   2.994
 5948SOL     OW18742   4.161   4.948   2.469
 5948SOL    HW118743   4.223   4.870   2.472
 5948SOL    HW218744   4.073   4.919   2.431
 5949SOL     OW18745   5.455   5.125   1.422
 5949SOL    HW118746   5.461   5.028   1.448
 5949SOL    HW218747   5.541   5.171   1.444
 5950SOL     OW18748   5.563   2.048   4.816
 5950SOL    HW118749   5.574   2.136   4.861
 5950SOL    HW218750   5.481   2.048   4.760
 5951SOL     OW18751   1.011   5.559   5.156
 5951SOL    HW118752   1.024   5.497   5.079
 5951SOL    HW218753   0.937   5.526   5.214
 5952SOL     OW18754   4.651   5.751   3.510
 5952SOL    HW118755   4.613   5.741   3.602
 5952SOL    HW218756   4.733   5.808   3.514
 5953SOL     OW18757   0.037   4.284   5.074
 5953SOL    HW118758   6.990   4.219   5.045
 5953SOL    HW218759   7.018   4.355   5.131
 5954SOL     OW18760   6.603   5.166   4.779
 5954SOL    HW118761   6.538   5.169   4.854
 5954SOL    HW218762   6.675   5.099   4.800
 5955SOL     OW18763   4.737   5.371   1.989
 5955SOL    HW118764   4.649   5.328   2.011
 5955SOL    HW218765   4.744   5.459   2.036
 5956SOL     OW18766   5.529   2.492   4.069
 5956SOL    HW118767   5.626   2.485   4.091
 5956SOL    HW218768   5.498   2.406   4.029
 5957SOL     OW18769   3.197   1.699   4.666
 5957SOL    HW118770   3.146   1.785   4.665
 5957SOL    HW218771   3.148   1.630   4.611
 5958SOL     OW18772   4.028   0.367   2.692
 5958SOL    HW118773   4.110   0.344   2.745
 5958SOL    HW218774   3.986   0.283   2.659
 5959SOL     OW18775   4.476   2.630   5.600
 5959SOL    HW118776   4.491   2.678   5.514
 5959SOL    HW218777   4.422   2.687   5.662
 5960SOL     OW18778   3.506   6.403   4.279
 5960SOL    HW118779   3.586   6.345   4.264
 5960SOL    HW218780   3.535   6.498   4.283
 5961SOL     OW18781   4.684   1.660   2.561
 5961SOL    HW118782   4.779   1.689   2.575
 5961SOL    HW218783   4.631   1.680   2.643
 5962SOL     OW18784   5.402   5.910   5.683
 5962SOL    HW118785   5.346   5.855   5.620
 5962SOL    HW218786   5.368   5.897   5.776
 5963SOL     OW18787   3.104   3.804   6.656
 5963SOL    HW118788   3.198   3.795   6.623
 5963SOL    HW218789   3.084   3.901   6.672
 5964SOL     OW18790   1.697   6.324   4.892
 5964SOL    HW118791   1.643   6.406   4.874
 5964SOL    HW218792   1.638   6.243   4.886
 5965SOL     OW18793   2.240   1.201   0.356
 5965SOL    HW118794   2.306   1.204   0.280
 5965SOL    HW218795   2.199   1.110   0.360
 5966SOL     OW18796   1.371   6.459   6.487
 5966SOL    HW118797   1.329   6.542   6.524
 5966SOL    HW218798   1.414   6.480   6.399
 5967SOL     OW18799   2.427   0.329   5.886
 5967SOL    HW118800   2.517   0.293   5.860
 5967SOL    HW218801   2.412   0.417   5.842
 5968SOL     OW18802   5.383   2.205   6.827
 5968SOL    HW118803   5.379   2.302   6.803
 5968SOL    HW218804   5.455   2.190   6.895
 5969SOL     OW18805   6.099   0.705   0.062
 5969SOL    HW118806   6.186   0.679   0.021
 5969SOL    HW218807   6.115   0.772   0.135
 5970SOL     OW18808   6.951   4.862   1.622
 5970SOL    HW118809   6.986   4.948   1.584
 5970SOL    HW218810   6.984   4.786   1.567
 5971SOL     OW18811   0.097   0.416   1.072
 5971SOL    HW118812   0.136   0.325   1.088
 5971SOL    HW218813   0.005   0.406   1.034
 5972SOL     OW18814   4.842   5.815   6.485
 5972SOL    HW118815   4.888   5.727   6.494
 5972SOL    HW218816   4.895   5.874   6.425
 5973SOL     OW18817   1.634   2.574   3.087
 5973SOL    HW118818   1.558   2.560   3.150
 5973SOL    HW218819   1.685   2.489   3.078
 5974SOL     OW18820   5.142   6.664   0.164
 5974SOL    HW118821   5.102   6.697   0.249
 5974SOL    HW218822   5.227   6.712   0.146
 5975SOL     OW18823   4.401   6.717   0.712
 5975SOL    HW118824   4.360   6.738   0.801
 5975SOL    HW218825   4.338   6.742   0.639
 5976SOL     OW18826   3.791   2.695   5.472
 5976SOL    HW118827   3.847   2.736   5.400
 5976SOL    HW218828   3.694   2.701   5.448
 5977SOL     OW18829   0.919   5.876   0.300
 5977SOL    HW118830   0.843   5.844   0.243
 5977SOL    HW218831   0.977   5.937   0.246
 5978SOL     OW18832   3.469   5.792   1.499
 5978SOL    HW118833   3.500   5.849   1.423
 5978SOL    HW218834   3.548   5.753   1.547
 5979SOL     OW18835   6.558   0.389   2.232
 5979SOL    HW118836   6.487   0.439   2.282
 5979SOL    HW218837   6.525   0.297   2.210
 5980SOL     OW18838   4.396   3.783   1.500
 5980SOL    HW118839   4.480   3.795   1.446
 5980SOL    HW218840   4.392   3.854   1.570
 5981SOL     OW18841   4.986   1.599   0.196
 5981SOL    HW118842   5.069   1.562   0.237
 5981SOL    HW218843   4.993   1.699   0.191
 5982SOL     OW18844   6.315   1.993   2.422
 5982SOL    HW118845   6.348   1.955   2.508
 5982SOL    HW218846   6.224   1.956   2.402
 5983SOL     OW18847   1.336   1.373   4.412
 5983SOL    HW118848   1.407   1.377   4.482
 5983SOL    HW218849   1.373   1.330   4.329
 5984SOL     OW18850   4.910   6.866   3.121
 5984SOL    HW118851   4.988   6.806   3.108
 5984SOL    HW218852   4.833   6.814   3.158
 5985SOL     OW18853   6.590   3.166   3.585
 5985SOL    HW118854   6.604   3.095   3.516
 5985SOL    HW218855   6.656   3.240   3.569
 5986SOL     OW18856   3.321   3.901   5.250
 5986SOL    HW118857   3.379   3.978   5.274
 5986SOL    HW218858   3.320   3.889   5.151
 5987SOL     OW18859   5.033   0.233   4.204
 5987SOL    HW118860   5.071   0.319   4.169
 5987SOL    HW218861   4.939   0.222   4.170
 5988SOL     OW18862   4.614   0.383   6.149
 5988SOL    HW118863   4.619   0.355   6.245
 5988SOL    HW218864   4.552   0.323   6.099
 5989SOL     OW18865   2.000   5.487   6.264
 5989SOL    HW118866   2.070   5.417   6.253
 5989SOL    HW218867   1.937   5.483   6.186
 5990SOL     OW18868   3.609   3.314   0.412
 5990SOL    HW118869   3.644   3.399   0.372
 5990SOL    HW218870   3.534   3.279   0.355
 5991SOL     OW18871   4.495   6.134   6.987
 5991SOL    HW118872   4.419   6.136   0.030
 5991SOL    HW218873   4.475   6.070   6.913
 5992SOL     OW18874   3.726   0.027   2.190
 5992SOL    HW118875   3.767   0.066   2.272
 5992SOL    HW218876   3.711   6.952   2.203
 5993SOL     OW18877   4.308   4.016   6.132
 5993SOL    HW118878   4.244   3.993   6.059
 5993SOL    HW218879   4.293   3.957   6.211
 5994SOL     OW18880   6.791   2.238   0.221
 5994SOL    HW118881   6.846   2.184   0.157
 5994SOL    HW218882   6.725   2.178   0.267
 5995SOL     OW18883   4.952   3.394   2.218
 5995SOL    HW118884   4.962   3.484   2.176
 5995SOL    HW218885   4.884   3.341   2.167
 5996SOL     OW18886   0.874   5.832   1.215
 5996SOL    HW118887   0.937   5.909   1.222
 5996SOL    HW218888   0.817   5.828   1.297
 5997SOL     OW18889   1.251   5.868   2.454
 5997SOL    HW118890   1.278   5.776   2.426
 5997SOL    HW218891   1.300   5.935   2.399
 5998SOL     OW18892   6.664   1.590   2.020
 5998SOL    HW118893   6.736   1.554   2.079
 5998SOL    HW218894   6.654   1.530   1.940
 5999SOL     OW18895   2.899   3.270   1.441
 5999SOL    HW118896   2.879   3.176   1.466
 5999SOL    HW218897   2.948   3.315   1.516
 6000SOL     OW18898   1.079   6.353   0.530
 6000SOL    HW118899   1.178   6.336   0.525
 6000SOL    HW218900   1.063   6.442   0.573
 6001SOL     OW18901   6.886   5.051   6.926
 6001SOL    HW118902   6.959   4.983   6.919
 6001SOL    HW218903   6.800   5.005   6.948
 6002SOL     OW18904   6.019   6.872   5.818
 6002SOL    HW118905   6.052   6.943   5.757
 6002SOL    HW218906   6.072   6.788   5.804
 6003SOL     OW18907   5.819   2.223   5.064
 6003SOL    HW118908   5.879   2.293   5.103
 6003SOL    HW218909   5.729   2.228   5.108
 6004SOL     OW18910   6.334   3.187   3.712
 6004SOL    HW118911   6.411   3.161   3.655
 6004SOL    HW218912   6.320   3.118   3.783
 6005SOL     OW18913   6.036   4.722   4.648
 6005SOL    HW118914   6.136   4.710   4.653
 6005SOL    HW218915   6.005   4.701   4.556
 6006SOL     OW18916   2.536   0.455   4.922
 6006SOL    HW118917   2.610   0.412   4.871
 6006SOL    HW218918   2.498   0.531   4.868
 6007SOL     OW18919   6.605   3.599   6.175
 6007SOL    HW118920   6.640   3.556   6.092
 6007SOL    HW218921   6.532   3.543   6.213
 6008SOL     OW18922   2.583   4.937   5.872
 6008SOL    HW118923   2.566   5.024   5.825
 6008SOL    HW218924   2.498   4.904   5.913
 6009SOL     OW18925   3.772   6.930   3.721
 6009SOL    HW118926   3.732   7.017   3.751
 6009SOL    HW218927   3.870   6.929   3.741
 6010SOL     OW18928   0.862   4.404   3.703
 6010SOL    HW118929   0.891   4.470   3.771
 6010SOL    HW218930   0.777   4.361   3.732
 6011SOL     OW18931   5.580   3.414   3.087
 6011SOL    HW118932   5.600   3.407   2.989
 6011SOL    HW218933   5.583   3.510   3.114
 6012SOL     OW18934   6.001   0.361   0.892
 6012SOL    HW118935   6.076   0.422   0.869
 6012SOL    HW218936   6.018   0.320   0.982
 6013SOL     OW18937   4.704   1.056   3.034
 6013SOL    HW118938   4.672   0.961   3.031
 6013SOL    HW218939   4.769   1.071   2.959
 6014SOL     OW18940   3.617   4.115   3.494
 6014SOL    HW118941   3.579   4.172   3.421
 6014SOL    HW218942   3.634   4.172   3.575
 6015SOL     OW18943   5.954   4.051   4.828
 6015SOL    HW118944   6.048   4.033   4.854
 6015SOL    HW218945   5.927   4.142   4.861
 6016SOL     OW18946   6.338   1.309   5.871
 6016SOL    HW118947   6.302   1.231   5.821
 6016SOL    HW218948   6.379   1.278   5.957
 6017SOL     OW18949   6.086   5.079   3.876
 6017SOL    HW118950   6.132   5.011   3.933
 6017SOL    HW218951   6.127   5.169   3.891
 6018SOL     OW18952   3.203   1.337   6.054
 6018SOL    HW118953   3.249   1.426   6.056
 6018SOL    HW218954   3.198   1.300   6.146
 6019SOL     OW18955   0.994   3.417   5.233
 6019SOL    HW118956   0.974   3.445   5.327
 6019SOL    HW218957   0.909   3.412   5.181
 6020SOL     OW18958   0.718   5.237   6.868
 6020SOL    HW118959   0.688   5.331   6.859
 6020SOL    HW218960   0.739   5.218   6.964
 6021SOL     OW18961   4.282   0.551   2.954
 6021SOL    HW118962   4.258   0.489   3.029
 6021SOL    HW218963   4.211   0.546   2.883
 6022SOL     OW18964   0.217   1.828   3.417
 6022SOL    HW118965   0.313   1.825   3.389
 6022SOL    HW218966   0.210   1.870   3.507
 6023SOL     OW18967   5.101   0.771   1.462
 6023SOL    HW118968   5.181   0.725   1.501
 6023SOL    HW218969   5.079   0.851   1.518
 6024SOL     OW18970   0.912   4.843   1.348
 6024SOL    HW118971   0.939   4.910   1.417
 6024SOL    HW218972   0.897   4.754   1.391
 6025SOL     OW18973   3.135   2.189   3.306
 6025SOL    HW118974   3.147   2.159   3.400
 6025SOL    HW218975   3.220   2.229   3.272
 6026SOL     OW18976   6.996   5.884   4.683
 6026SOL    HW118977   0.028   5.835   4.615
 6026SOL    HW218978   6.977   5.824   4.761
 6027SOL     OW18979   0.198   3.556   6.496
 6027SOL    HW118980   0.258   3.601   6.430
 6027SOL    HW218981   0.202   3.457   6.482
 6028SOL     OW18982   5.672   4.379   1.161
 6028SOL    HW118983   5.665   4.473   1.129
 6028SOL    HW218984   5.589   4.329   1.138
 6029SOL     OW18985   2.964   6.665   3.698
 6029SOL    HW118986   3.014   6.623   3.623
 6029SOL    HW218987   3.000   6.757   3.715
 6030SOL     OW18988   4.597   4.723   3.933
 6030SOL    HW118989   4.650   4.655   3.985
 6030SOL    HW218990   4.508   4.735   3.976
 6031SOL     OW18991   2.801   5.490   4.118
 6031SOL    HW118992   2.843   5.405   4.088
 6031SOL    HW218993   2.845   5.567   4.071
 6032SOL     OW18994   2.243   5.107   2.833
 6032SOL    HW118995   2.327   5.145   2.869
 6032SOL    HW218996   2.164   5.157   2.870
 6033SOL     OW18997   2.147   3.165   2.877
 6033SOL    HW118998   2.182   3.117   2.796
 6033SOL    HW218999   2.057   3.127   2.901
 6034SOL     OW19000   1.174   1.159   5.766
 6034SOL    HW119001   1.202   1.107   5.847
 6034SOL    HW219002   1.101   1.109   5.718
 6035SOL     OW19003   1.662   1.001   2.178
 6035SOL    HW119004   1.599   1.000   2.256
 6035SOL    HW219005   1.630   0.935   2.109
 6036SOL     OW19006   5.317   4.692   2.190
 6036SOL    HW119007   5.272   4.653   2.270
 6036SOL    HW219008   5.399   4.742   2.219
 6037SOL     OW19009   3.902   0.212   0.643
 6037SOL    HW119010   3.848   0.295   0.626
 6037SOL    HW219011   3.891   0.149   0.567
 6038SOL     OW19012   1.869   2.418   6.272
 6038SOL    HW119013   1.931   2.495   6.260
 6038SOL    HW219014   1.868   2.391   6.369
 6039SOL     OW19015   3.822   3.336   3.108
 6039SOL    HW119016   3.911   3.291   3.111
 6039SOL    HW219017   3.775   3.323   3.196
 6040SOL     OW19018   1.331   1.621   0.938
 6040SOL    HW119019   1.237   1.654   0.930
 6040SOL    HW219020   1.365   1.595   0.847
 6041SOL     OW19021   2.771   2.015   4.794
 6041SOL    HW119022   2.674   2.009   4.772
 6041SOL    HW219023   2.795   2.109   4.817
 6042SOL     OW19024   3.822   6.725   2.853
 6042SOL    HW119025   3.822   6.717   2.753
 6042SOL    HW219026   3.774   6.647   2.893
 6043SOL     OW19027   0.460   0.209   4.763
 6043SOL    HW119028   0.519   0.285   4.738
 6043SOL    HW219029   0.489   0.170   4.850
 6044SOL     OW19030   2.480   2.704   1.780
 6044SOL    HW119031   2.532   2.637   1.727
 6044SOL    HW219032   2.400   2.733   1.727
 6045SOL     OW19033   5.584   3.579   3.420
 6045SOL    HW119034   5.528   3.503   3.386
 6045SOL    HW219035   5.527   3.641   3.473
 6046SOL     OW19036   2.912   2.633   1.019
 6046SOL    HW119037   2.923   2.557   1.084
 6046SOL    HW219038   2.849   2.605   0.946
 6047SOL     OW19039   5.423   2.472   1.490
 6047SOL    HW119040   5.327   2.484   1.465
 6047SOL    HW219041   5.435   2.498   1.586
 6048SOL     OW19042   4.927   5.216   4.846
 6048SOL    HW119043   4.969   5.173   4.925
 6048SOL    HW219044   4.832   5.240   4.867
 6049SOL     OW19045   4.437   4.600   6.762
 6049SOL    HW119046   4.414   4.539   6.838
 6049SOL    HW219047   4.395   4.566   6.678
 6050SOL     OW19048   1.959   5.500   6.741
 6050SOL    HW119049   1.959   5.417   6.796
 6050SOL    HW219050   1.930   5.479   6.648
 6051SOL     OW19051   1.985   0.073   3.025
 6051SOL    HW119052   2.059   0.138   3.046
 6051SOL    HW219053   1.998   7.012   3.079
 6052SOL     OW19054   5.139   1.536   1.596
 6052SOL    HW119055   5.235   1.513   1.615
 6052SOL    HW219056   5.097   1.574   1.679
 6053SOL     OW19057   4.163   0.654   6.135
 6053SOL    HW119058   4.170   0.570   6.188
 6053SOL    HW219059   4.213   0.727   6.181
 6054SOL     OW19060   2.420   3.573   0.088
 6054SOL    HW119061   2.497   3.550   0.028
 6054SOL    HW219062   2.344   3.510   0.071
 6055SOL     OW19063   5.036   6.025   5.161
 6055SOL    HW119064   5.116   6.002   5.106
 6055SOL    HW219065   5.060   6.096   5.228
 6056SOL     OW19066   4.717   3.283   5.333
 6056SOL    HW119067   4.766   3.333   5.262
 6056SOL    HW219068   4.756   3.306   5.422
 6057SOL     OW19069   6.660   0.851   2.257
 6057SOL    HW119070   6.579   0.898   2.220
 6057SOL    HW219071   6.689   0.780   2.193
 6058SOL     OW19072   5.169   3.776   0.548
 6058SOL    HW119073   5.206   3.695   0.593
 6058SOL    HW219074   5.185   3.857   0.605
 6059SOL     OW19075   4.924   4.770   6.042
 6059SOL    HW119076   4.892   4.681   6.012
 6059SOL    HW219077   4.848   4.835   6.042
 6060SOL     OW19078   2.310   3.357   6.345
 6060SOL    HW119079   2.212   3.374   6.343
 6060SOL    HW219080   2.358   3.428   6.293
 6061SOL     OW19081   5.181   3.835   6.951
 6061SOL    HW119082   5.224   3.922   6.979
 6061SOL    HW219083   5.179   3.773   0.007
 6062SOL     OW19084   2.494   1.370   6.220
 6062SOL    HW119085   2.512   1.322   6.134
 6062SOL    HW219086   2.525   1.464   6.213
 6063SOL     OW19087   4.459   2.590   5.939
 6063SOL    HW119088   4.402   2.542   5.872
 6063SOL    HW219089   4.401   2.626   6.012
 6064SOL     OW19090   1.563   0.571   0.713
 6064SOL    HW119091   1.546   0.577   0.615
 6064SOL    HW219092   1.661   0.583   0.731
 6065SOL     OW19093   0.825   6.113   2.856
 6065SOL    HW119094   0.769   6.039   2.820
 6065SOL    HW219095   0.900   6.131   2.793
 6066SOL     OW19096   5.281   1.034   5.939
 6066SOL    HW119097   5.347   0.990   6.000
 6066SOL    HW219098   5.263   1.127   5.971
 6067SOL     OW19099   4.852   0.373   5.164
 6067SOL    HW119100   4.860   0.394   5.066
 6067SOL    HW219101   4.834   0.458   5.214
 6068SOL     OW19102   5.003   3.083   4.708
 6068SOL    HW119103   5.027   3.164   4.654
 6068SOL    HW219104   4.942   3.025   4.655
 6069SOL     OW19105   5.892   3.438   5.226
 6069SOL    HW119106   5.941   3.366   5.177
 6069SOL    HW219107   5.945   3.523   5.222
 6070SOL     OW19108   2.929   2.817   1.359
 6070SOL    HW119109   2.842   2.862   1.379
 6070SOL    HW219110   2.992   2.830   1.435
 6071SOL     OW19111   0.482   5.971   4.693
 6071SOL    HW119112   0.581   5.980   4.692
 6071SOL    HW219113   0.457   5.877   4.719
 6072SOL     OW19114   0.412   0.740   1.625
 6072SOL    HW119115   0.441   0.662   1.679
 6072SOL    HW219116   0.482   0.811   1.628
 6073SOL     OW19117   5.021   3.374   0.729
 6073SOL    HW119118   4.991   3.279   0.726
 6073SOL    HW219119   5.049   3.398   0.822
 6074SOL     OW19120   1.677   6.156   2.223
 6074SOL    HW119121   1.657   6.146   2.125
 6074SOL    HW219122   1.720   6.245   2.240
 6075SOL     OW19123   4.647   6.782   5.661
 6075SOL    HW119124   4.548   6.793   5.671
 6075SOL    HW219125   4.690   6.779   5.752
 6076SOL     OW19126   2.815   4.929   3.064
 6076SOL    HW119127   2.715   4.930   3.075
 6076SOL    HW219128   2.838   4.930   2.966
 6077SOL     OW19129   6.370   5.295   1.387
 6077SOL    HW119130   6.381   5.283   1.289
 6077SOL    HW219131   6.349   5.391   1.407
 6078SOL     OW19132   4.938   4.748   0.096
 6078SOL    HW119133   4.920   4.666   0.042
 6078SOL    HW219134   5.011   4.801   0.053
 6079SOL     OW19135   4.911   3.591   5.665
 6079SOL    HW119136   4.823   3.633   5.643
 6079SOL    HW219137   4.912   3.496   5.636
 6080SOL     OW19138   0.259   5.803   0.915
 6080SOL    HW119139   0.190   5.823   0.845
 6080SOL    HW219140   0.341   5.857   0.897
 6081SOL     OW19141   0.070   2.510   5.682
 6081SOL    HW119142   0.092   2.552   5.594
 6081SOL    HW219143   0.091   2.412   5.679
 6082SOL     OW19144   3.271   0.008   2.722
 6082SOL    HW119145   3.307   6.978   2.645
 6082SOL    HW219146   3.346   0.060   2.764
 6083SOL     OW19147   5.963   6.217   0.190
 6083SOL    HW119148   6.049   6.189   0.231
 6083SOL    HW219149   5.980   6.291   0.125
 6084SOL     OW19150   1.033   6.800   2.256
 6084SOL    HW119151   1.061   6.716   2.303
 6084SOL    HW219152   0.948   6.833   2.296
 6085SOL     OW19153   0.191   6.910   7.018
 6085SOL    HW119154   0.130   6.986   0.018
 6085SOL    HW219155   0.142   6.823   0.011
 6086SOL     OW19156   2.698   1.898   5.547
 6086SOL    HW119157   2.787   1.853   5.535
 6086SOL    HW219158   2.711   1.997   5.543
 6087SOL     OW19159   3.499   6.160   1.638
 6087SOL    HW119160   3.499   6.117   1.728
 6087SOL    HW219161   3.582   6.215   1.627
 6088SOL     OW19162   5.433   0.190   4.261
 6088SOL    HW119163   5.442   0.220   4.356
 6088SOL    HW219164   5.409   0.093   4.259
 6089SOL     OW19165   5.957   2.403   2.676
 6089SOL    HW119166   5.989   2.401   2.581
 6089SOL    HW219167   6.028   2.442   2.734
 6090SOL     OW19168   2.184   5.045   4.415
 6090SOL    HW119169   2.266   4.988   4.404
 6090SOL    HW219170   2.210   5.137   4.444
 6091SOL     OW19171   2.550   1.448   6.764
 6091SOL    HW119172   2.630   1.501   6.737
 6091SOL    HW219173   2.495   1.425   6.683
 6092SOL     OW19174   4.503   0.800   2.746
 6092SOL    HW119175   4.415   0.842   2.724
 6092SOL    HW219176   4.503   0.704   2.719
 6093SOL     OW19177   2.108   2.655   2.176
 6093SOL    HW119178   2.113   2.577   2.114
 6093SOL    HW219179   2.108   2.740   2.124
 6094SOL     OW19180   1.405   5.654   3.320
 6094SOL    HW119181   1.456   5.713   3.257
 6094SOL    HW219182   1.325   5.704   3.355
 6095SOL     OW19183   4.769   4.948   6.751
 6095SOL    HW119184   4.700   4.990   6.692
 6095SOL    HW219185   4.770   4.995   6.839
 6096SOL     OW19186   6.555   0.129   2.471
 6096SOL    HW119187   6.469   0.104   2.426
 6096SOL    HW219188   6.628   0.136   2.402
 6097SOL     OW19189   1.880   5.621   2.309
 6097SOL    HW119190   1.930   5.536   2.297
 6097SOL    HW219191   1.912   5.688   2.241
 6098SOL     OW19192   0.290   1.670   5.820
 6098SOL    HW119193   0.238   1.697   5.739
 6098SOL    HW219194   0.375   1.625   5.791
 6099SOL     OW19195   5.386   5.641   5.326
 6099SOL    HW119196   5.321   5.690   5.384
 6099SOL    HW219197   5.479   5.660   5.356
 6100SOL     OW19198   5.646   6.268   1.472
 6100SOL    HW119199   5.660   6.186   1.526
 6100SOL    HW219200   5.603   6.338   1.528
 6101SOL     OW19201   0.008   3.166   2.954
 6101SOL    HW119202   6.971   3.096   2.915
 6101SOL    HW219203   6.989   3.256   2.943
 6102SOL     OW19204   3.807   5.809   3.118
 6102SOL    HW119205   3.793   5.771   3.209
 6102SOL    HW219206   3.903   5.830   3.105
 6103SOL     OW19207   5.396   1.509   1.624
 6103SOL    HW119208   5.465   1.526   1.554
 6103SOL    HW219209   5.424   1.431   1.680
 6104SOL     OW19210   5.817   6.936   4.907
 6104SOL    HW119211   5.797   7.003   4.835
 6104SOL    HW219212   5.773   6.849   4.885
 6105SOL     OW19213   2.141   5.681   6.432
 6105SOL    HW119214   2.062   5.719   6.480
 6105SOL    HW219215   2.111   5.640   6.346
 6106SOL     OW19216   1.720   4.718   6.074
 6106SOL    HW119217   1.763   4.634   6.040
 6106SOL    HW219218   1.623   4.701   6.092
 6107SOL     OW19219   4.483   5.554   4.979
 6107SOL    HW119220   4.424   5.576   5.057
 6107SOL    HW219221   4.572   5.523   5.013
 6108SOL     OW19222   2.212   2.447   2.995
 6108SOL    HW119223   2.285   2.510   2.970
 6108SOL    HW219224   2.123   2.489   2.977
 6109SOL     OW19225   5.574   1.526   5.100
 6109SOL    HW119226   5.671   1.513   5.081
 6109SOL    HW219227   5.542   1.454   5.161
 6110SOL     OW19228   2.653   3.793   1.201
 6110SOL    HW119229   2.734   3.745   1.236
 6110SOL    HW219230   2.579   3.728   1.185
 6111SOL     OW19231   1.414   2.881   2.129
 6111SOL    HW119232   1.435   2.811   2.198
 6111SOL    HW219233   1.499   2.912   2.087
 6112SOL     OW19234   3.483   0.273   2.367
 6112SOL    HW119235   3.533   0.227   2.440
 6112SOL    HW219236   3.487   0.371   2.381
 6113SOL     OW19237   2.545   2.146   5.794
 6113SOL    HW119238   2.573   2.116   5.704
 6113SOL    HW219239   2.475   2.085   5.830
 6114SOL     OW19240   4.981   4.372   2.341
 6114SOL    HW119241   5.026   4.310   2.405
 6114SOL    HW219242   4.910   4.323   2.290
 6115SOL     OW19243   6.354   0.136   4.418
 6115SOL    HW119244   6.453   0.127   4.428
 6115SOL    HW219245   6.334   0.182   4.331
 6116SOL     OW19246   3.903   1.797   6.271
 6116SOL    HW119247   3.844   1.850   6.332
 6116SOL    HW219248   3.872   1.809   6.176
 6117SOL     OW19249   2.398   1.925   3.357
 6117SOL    HW119250   2.464   1.883   3.420
 6117SOL    HW219251   2.379   1.861   3.282
 6118SOL     OW19252   5.449   1.166   0.924
 6118SOL    HW119253   5.384   1.227   0.877
 6118SOL    HW219254   5.405   1.126   1.004
 6119SOL     OW19255   0.992   3.760   0.434
 6119SOL    HW119256   1.088   3.739   0.453
 6119SOL    HW219257   0.984   3.858   0.415
 6120SOL     OW19258   2.562   6.962   5.664
 6120SOL    HW119259   2.467   6.930   5.657
 6120SOL    HW219260   2.622   6.895   5.621
 6121SOL     OW19261   1.212   3.764   5.297
 6121SOL    HW119262   1.211   3.743   5.199
 6121SOL    HW219263   1.118   3.761   5.332
 6122SOL     OW19264   3.984   5.331   0.178
 6122SOL    HW119265   4.005   5.373   0.090
 6122SOL    HW219266   3.912   5.382   0.224
 6123SOL     OW19267   5.227   6.579   6.225
 6123SOL    HW119268   5.233   6.509   6.295
 6123SOL    HW219269   5.131   6.599   6.205
 6124SOL     OW19270   1.169   0.132   5.611
 6124SOL    HW119271   1.242   0.070   5.580
 6124SOL    HW219272   1.159   0.207   5.546
 6125SOL     OW19273   1.807   4.284   0.152
 6125SOL    HW119274   1.736   4.327   0.098
 6125SOL    HW219275   1.822   4.190   0.119
 6126SOL     OW19276   6.973   1.051   4.473
 6126SOL    HW119277   0.046   1.079   4.487
 6126SOL    HW219278   6.955   1.039   4.376
 6127SOL     OW19279   3.011   6.763   1.123
 6127SOL    HW119280   2.982   6.814   1.042
 6127SOL    HW219281   3.060   6.824   1.185
 6128SOL     OW19282   5.979   5.268   0.325
 6128SOL    HW119283   5.938   5.181   0.352
 6128SOL    HW219284   5.974   5.332   0.401
 6129SOL     OW19285   0.455   2.982   2.714
 6129SOL    HW119286   0.526   2.921   2.679
 6129SOL    HW219287   0.377   2.928   2.747
 6130SOL     OW19288   4.718   2.528   2.531
 6130SOL    HW119289   4.669   2.490   2.452
 6130SOL    HW219290   4.798   2.472   2.551
 6131SOL     OW19291   0.539   1.684   3.667
 6131SOL    HW119292   0.588   1.607   3.708
 6131SOL    HW219293   0.562   1.768   3.717
 6132SOL     OW19294   4.101   1.846   6.970
 6132SOL    HW119295   4.191   1.837   7.012
 6132SOL    HW219296   4.076   1.761   6.925
 6133SOL     OW19297   2.038   3.623   3.380
 6133SOL    HW119298   2.088   3.693   3.329
 6133SOL    HW219299   1.944   3.618   3.347
 6134SOL     OW19300   4.474   5.956   6.760
 6134SOL    HW119301   4.560   5.904   6.762
 6134SOL    HW219302   4.465   6.002   6.672
 6135SOL     OW19303   0.309   6.142   1.085
 6135SOL    HW119304   0.292   6.134   0.987
 6135SOL    HW219305   0.400   6.108   1.107
 6136SOL     OW19306   1.540   2.842   1.789
 6136SOL    HW119307   1.546   2.837   1.689
 6136SOL    HW219308   1.570   2.932   1.820
 6137SOL     OW19309   6.687   4.002   2.296
 6137SOL    HW119310   6.739   3.935   2.349
 6137SOL    HW219311   6.734   4.091   2.298
 6138SOL     OW19312   3.970   0.203   3.114
 6138SOL    HW119313   3.976   0.124   3.053
 6138SOL    HW219314   3.876   0.214   3.145
 6139SOL     OW19315   0.782   0.195   5.710
 6139SOL    HW119316   0.794   0.288   5.743
 6139SOL    HW219317   0.812   0.190   5.615
 6140SOL     OW19318   1.151   0.383   2.031
 6140SOL    HW119319   1.108   0.444   1.965
 6140SOL    HW219320   1.195   0.437   2.103
 6141SOL     OW19321   0.466   6.987   6.155
 6141SOL    HW119322   0.411   0.045   6.132
 6141SOL    HW219323   0.434   6.909   6.103
 6142SOL     OW19324   0.013   5.957   6.200
 6142SOL    HW119325   6.981   5.988   6.278
 6142SOL    HW219326   0.002   6.021   6.124
 6143SOL     OW19327   6.622   3.770   1.132
 6143SOL    HW119328   6.637   3.675   1.160
 6143SOL    HW219329   6.525   3.784   1.113
 6144SOL     OW19330   5.616   5.008   4.188
 6144SOL    HW119331   5.626   4.979   4.284
 6144SOL    HW219332   5.650   4.936   4.128
 6145SOL     OW19333   5.513   5.235   4.045
 6145SOL    HW119334   5.596   5.283   4.018
 6145SOL    HW219335   5.530   5.186   4.130
 6146SOL     OW19336   3.121   5.464   3.936
 6146SOL    HW119337   3.124   5.560   3.964
 6146SOL    HW219338   3.130   5.458   3.837
 6147SOL     OW19339   2.409   2.582   5.091
 6147SOL    HW119340   2.434   2.665   5.141
 6147SOL    HW219341   2.312   2.587   5.065
 6148SOL     OW19342   4.113   6.578   4.853
 6148SOL    HW119343   4.036   6.514   4.856
 6148SOL    HW219344   4.079   6.672   4.857
 6149SOL     OW19345   2.422   6.787   1.664
 6149SOL    HW119346   2.438   6.750   1.572
 6149SOL    HW219347   2.402   6.885   1.657
 6150SOL     OW19348   6.097   4.525   0.305
 6150SOL    HW119349   6.193   4.545   0.326
 6150SOL    HW219350   6.093   4.450   0.238
 6151SOL     OW19351   6.371   4.736   6.000
 6151SOL    HW119352   6.383   4.659   6.061
 6151SOL    HW219353   6.273   4.752   5.984
 6152SOL     OW19354   0.933   5.919   4.289
 6152SOL    HW119355   0.961   5.875   4.203
 6152SOL    HW219356   0.965   5.864   4.366
 6153SOL     OW19357   5.560   4.612   1.388
 6153SOL    HW119358   5.488   4.626   1.320
 6153SOL    HW219359   5.594   4.700   1.419
 6154SOL     OW19360   5.873   2.714   2.156
 6154SOL    HW119361   5.871   2.614   2.151
 6154SOL    HW219362   5.788   2.747   2.195
 6155SOL     OW19363   2.218   1.386   3.171
 6155SOL    HW119364   2.240   1.415   3.264
 6155SOL    HW219365   2.168   1.299   3.175
 6156SOL     OW19366   4.745   4.610   2.079
 6156SOL    HW119367   4.786   4.695   2.046
 6156SOL    HW219368   4.817   4.544   2.101
 6157SOL     OW19369   6.754   2.303   3.307
 6157SOL    HW119370   6.847   2.289   3.272
 6157SOL    HW219371   6.736   2.236   3.379
 6158SOL     OW19372   3.781   2.020   6.864
 6158SOL    HW119373   3.693   2.023   6.911
 6158SOL    HW219374   3.852   2.058   6.924
 6159SOL     OW19375   4.195   1.921   0.658
 6159SOL    HW119376   4.101   1.954   0.654
 6159SOL    HW219377   4.258   1.999   0.654
 6160SOL     OW19378   5.333   0.322   6.916
 6160SOL    HW119379   5.371   0.286   6.831
 6160SOL    HW219380   5.282   0.406   6.897
 6161SOL     OW19381   5.701   1.767   6.667
 6161SOL    HW119382   5.646   1.785   6.748
 6161SOL    HW219383   5.797   1.755   6.692
 6162SOL     OW19384   6.380   6.946   3.925
 6162SOL    HW119385   6.405   7.017   3.860
 6162SOL    HW219386   6.357   6.862   3.877
 6163SOL     OW19387   5.619   6.308   1.052
 6163SOL    HW119388   5.637   6.354   0.965
 6163SOL    HW219389   5.678   6.346   1.123
 6164SOL     OW19390   3.170   3.992   3.990
 6164SOL    HW119391   3.236   4.047   4.041
 6164SOL    HW219392   3.102   3.956   4.053
 6165SOL     OW19393   3.906   1.312   6.594
 6165SOL    HW119394   3.897   1.411   6.607
 6165SOL    HW219395   4.002   1.288   6.582
 6166SOL     OW19396   5.342   1.543   6.833
 6166SOL    HW119397   5.356   1.502   6.923
 6166SOL    HW219398   5.267   1.609   6.839
 6167SOL     OW19399   0.730   4.642   2.910
 6167SOL    HW119400   0.702   4.554   2.949
 6167SOL    HW219401   0.827   4.658   2.931
 6168SOL     OW19402   1.567   3.395   3.196
 6168SOL    HW119403   1.492   3.423   3.255
 6168SOL    HW219404   1.534   3.388   3.101
 6169SOL     OW19405   1.272   2.035   0.834
 6169SOL    HW119406   1.239   2.012   0.926
 6169SOL    HW219407   1.246   1.962   0.770
 6170SOL     OW19408   2.829   4.010   5.680
 6170SOL    HW119409   2.854   3.992   5.584
 6170SOL    HW219410   2.887   4.083   5.716
 6171SOL     OW19411   1.722   3.563   1.002
 6171SOL    HW119412   1.755   3.654   1.027
 6171SOL    HW219413   1.789   3.494   1.031
 6172SOL     OW19414   1.708   1.325   3.774
 6172SOL    HW119415   1.691   1.369   3.862
 6172SOL    HW219416   1.722   1.395   3.704
 6173SOL     OW19417   6.454   5.453   2.656
 6173SOL    HW119418   6.439   5.386   2.584
 6173SOL    HW219419   6.541   5.500   2.640
 6174SOL     OW19420   5.754   5.602   3.190
 6174SOL    HW119421   5.703   5.516   3.193
 6174SOL    HW219422   5.847   5.587   3.224
 6175SOL     OW19423   4.576   0.797   3.357
 6175SOL    HW119424   4.511   0.837   3.291
 6175SOL    HW219425   4.539   0.806   3.449
 6176SOL     OW19426   6.254   2.888   0.037
 6176SOL    HW119427   6.247   2.824   6.983
 6176SOL    HW219428   6.204   2.852   0.116
 6177SOL     OW19429   4.924   1.471   1.438
 6177SOL    HW119430   5.002   1.485   1.500
 6177SOL    HW219431   4.909   1.373   1.426
 6178SOL     OW19432   4.639   5.011   2.964
 6178SOL    HW119433   4.620   5.068   3.044
 6178SOL    HW219434   4.587   5.044   2.885
 6179SOL     OW19435   6.389   4.777   4.475
 6179SOL    HW119436   6.360   4.710   4.543
 6179SOL    HW219437   6.311   4.802   4.417
 6180SOL     OW19438   3.770   5.467   0.271
 6180SOL    HW119439   3.678   5.437   0.294
 6180SOL    HW219440   3.778   5.566   0.286
 6181SOL     OW19441   4.268   6.573   1.018
 6181SOL    HW119442   4.249   6.670   1.001
 6181SOL    HW219443   4.182   6.521   1.014
 6182SOL     OW19444   5.938   3.343   6.141
 6182SOL    HW119445   5.846   3.376   6.160
 6182SOL    HW219446   5.999   3.371   6.215
 6183SOL     OW19447   1.872   0.533   3.000
 6183SOL    HW119448   1.950   0.498   3.051
 6183SOL    HW219449   1.871   0.493   2.908
 6184SOL     OW19450   1.444   6.944   6.423
 6184SOL    HW119451   1.411   6.850   6.434
 6184SOL    HW219452   1.375   7.008   6.458
 6185SOL     OW19453   0.236   4.316   6.540
 6185SOL    HW119454   0.333   4.292   6.550
 6185SOL    HW219455   0.209   4.376   6.614
 6186SOL     OW19456   6.227   6.875   5.447
 6186SOL    HW119457   6.188   6.905   5.360
 6186SOL    HW219458   6.164   6.812   5.493
 6187SOL     OW19459   4.337   5.021   3.776
 6187SOL    HW119460   4.381   5.057   3.858
 6187SOL    HW219461   4.393   4.947   3.738
 6188SOL     OW19462   2.270   0.242   0.560
 6188SOL    HW119463   2.308   0.288   0.640
 6188SOL    HW219464   2.337   0.179   0.523
 6189SOL     OW19465   4.857   3.823   4.191
 6189SOL    HW119466   4.873   3.786   4.100
 6189SOL    HW219467   4.840   3.921   4.185
 6190SOL     OW19468   6.668   3.841   5.811
 6190SOL    HW119469   6.734   3.902   5.854
 6190SOL    HW219470   6.592   3.823   5.874
 6191SOL     OW19471   3.904   2.689   6.979
 6191SOL    HW119472   4.003   2.705   6.976
 6191SOL    HW219473   3.875   2.646   6.894
 6192SOL     OW19474   3.106   2.806   6.454
 6192SOL    HW119475   3.156   2.877   6.504
 6192SOL    HW219476   3.171   2.748   6.404
 6193SOL     OW19477   5.335   0.976   2.417
 6193SOL    HW119478   5.372   0.884   2.424
 6193SOL    HW219479   5.405   1.042   2.446
 6194SOL     OW19480   1.431   0.007   0.776
 6194SOL    HW119481   1.521   0.048   0.790
 6194SOL    HW219482   1.363   0.079   0.761
 6195SOL     OW19483   3.932   6.466   5.150
 6195SOL    HW119484   3.952   6.441   5.055
 6195SOL    HW219485   3.980   6.550   5.173
 6196SOL     OW19486   6.015   2.062   1.334
 6196SOL    HW119487   5.916   2.076   1.344
 6196SOL    HW219488   6.031   1.988   1.269
 6197SOL     OW19489   4.320   4.675   0.398
 6197SOL    HW119490   4.228   4.646   0.372
 6197SOL    HW219491   4.326   4.775   0.392
 6198SOL     OW19492   3.354   5.744   2.257
 6198SOL    HW119493   3.281   5.676   2.267
 6198SOL    HW219494   3.441   5.703   2.283
 6199SOL     OW19495   1.072   0.710   0.678
 6199SOL    HW119496   1.159   0.706   0.727
 6199SOL    HW219497   0.997   0.716   0.743
 6200SOL     OW19498   1.614   1.567   5.295
 6200SOL    HW119499   1.603   1.559   5.394
 6200SOL    HW219500   1.702   1.610   5.274
 6201SOL     OW19501   1.014   3.954   4.719
 6201SOL    HW119502   0.977   3.862   4.712
 6201SOL    HW219503   1.111   3.950   4.742
 6202SOL     OW19504   4.218   1.652   2.302
 6202SOL    HW119505   4.189   1.718   2.233
 6202SOL    HW219506   4.185   1.561   2.276
 6203SOL     OW19507   6.664   6.760   3.276
 6203SOL    HW119508   6.668   6.859   3.292
 6203SOL    HW219509   6.757   6.723   3.275
 6204SOL     OW19510   1.400   5.394   4.669
 6204SOL    HW119511   1.338   5.418   4.594
 6204SOL    HW219512   1.452   5.312   4.644
 6205SOL     OW19513   6.528   6.311   0.183
 6205SOL    HW119514   6.519   6.404   0.219
 6205SOL    HW219515   6.621   6.277   0.201
 6206SOL     OW19516   6.890   0.663   2.454
 6206SOL    HW119517   6.852   0.575   2.426
 6206SOL    HW219518   6.831   0.737   2.421
 6207SOL     OW19519   1.566   5.167   4.557
 6207SOL    HW119520   1.627   5.105   4.508
 6207SOL    HW219521   1.604   5.187   4.647
 6208SOL     OW19522   5.822   1.703   6.266
 6208SOL    HW119523   5.859   1.796   6.273
 6208SOL    HW219524   5.727   1.703   6.298
 6209SOL     OW19525   4.607   5.526   0.046
 6209SOL    HW119526   4.556   5.496   6.988
 6209SOL    HW219527   4.698   5.483   0.046
 6210SOL     OW19528   5.369   3.788   3.329
 6210SOL    HW119529   5.423   3.825   3.253
 6210SOL    HW219530   5.415   3.807   3.415
 6211SOL     OW19531   2.872   6.116   5.814
 6211SOL    HW119532   2.874   6.087   5.719
 6211SOL    HW219533   2.863   6.215   5.819
 6212SOL     OW19534   1.960   4.906   2.972
 6212SOL    HW119535   2.055   4.936   2.964
 6212SOL    HW219536   1.952   4.812   2.941
 6213SOL     OW19537   5.381   0.265   6.600
 6213SOL    HW119538   5.432   0.190   6.641
 6213SOL    HW219539   5.285   0.239   6.592
 6214SOL     OW19540   4.576   4.784   4.328
 6214SOL    HW119541   4.659   4.748   4.284
 6214SOL    HW219542   4.602   4.855   4.393
 6215SOL     OW19543   4.194   1.602   1.414
 6215SOL    HW119544   4.168   1.643   1.326
 6215SOL    HW219545   4.196   1.503   1.404
 6216SOL     OW19546   6.248   1.865   2.039
 6216SOL    HW119547   6.205   1.794   1.982
 6216SOL    HW219548   6.331   1.897   1.994
 6217SOL     OW19549   0.690   2.828   2.095
 6217SOL    HW119550   0.730   2.898   2.035
 6217SOL    HW219551   0.647   2.872   2.173
 6218SOL     OW19552   3.691   5.139   5.577
 6218SOL    HW119553   3.762   5.081   5.538
 6218SOL    HW219554   3.722   5.234   5.578
 6219SOL     OW19555   0.622   2.196   4.182
 6219SOL    HW119556   0.541   2.249   4.205
 6219SOL    HW219557   0.699   2.226   4.238
 6220SOL     OW19558   1.223   2.834   4.913
 6220SOL    HW119559   1.237   2.766   4.984
 6220SOL    HW219560   1.257   2.923   4.945
 6221SOL     OW19561   5.906   5.951   0.128
 6221SOL    HW119562   5.857   5.948   0.042
 6221SOL    HW219563   5.938   6.044   0.146
 6222SOL     OW19564   0.628   6.328   0.975
 6222SOL    HW119565   0.595   6.263   1.044
 6222SOL    HW219566   0.630   6.283   0.886
 6223SOL     OW19567   0.392   4.880   3.945
 6223SOL    HW119568   0.359   4.881   4.039
 6223SOL    HW219569   0.331   4.935   3.888
 6224SOL     OW19570   2.245   1.760   6.017
 6224SOL    HW119571   2.310   1.736   6.089
 6224SOL    HW219572   2.218   1.678   5.967
 6225SOL     OW19573   3.352   4.077   0.370
 6225SOL    HW119574   3.365   4.158   0.427
 6225SOL    HW219575   3.350   3.995   0.428
 6226SOL     OW19576   5.847   1.496   5.057
 6226SOL    HW119577   5.908   1.482   4.979
 6226SOL    HW219578   5.854   1.418   5.119
 6227SOL     OW19579   3.893   5.826   5.717
 6227SOL    HW119580   3.821   5.763   5.689
 6227SOL    HW219581   3.861   5.920   5.707
 6228SOL     OW19582   0.921   2.580   3.171
 6228SOL    HW119583   0.963   2.503   3.221
 6228SOL    HW219584   0.925   2.662   3.228
 6229SOL     OW19585   0.018   2.247   2.941
 6229SOL    HW119586   0.092   2.284   2.998
 6229SOL    HW219587   0.047   2.159   2.903
 6230SOL     OW19588   1.486   1.231   3.628
 6230SOL    HW119589   1.577   1.242   3.668
 6230SOL    HW219590   1.495   1.193   3.535
 6231SOL     OW19591   5.892   5.190   1.013
 6231SOL    HW119592   5.867   5.214   0.919
 6231SOL    HW219593   5.810   5.173   1.066
 6232SOL     OW19594   6.632   0.979   0.759
 6232SOL    HW119595   6.655   1.036   0.679
 6232SOL    HW219596   6.544   1.008   0.796
 6233SOL     OW19597   6.304   0.560   0.548
 6233SOL    HW119598   6.365   0.639   0.555
 6233SOL    HW219599   6.218   0.588   0.507
 6234SOL     OW19600   6.231   1.548   5.865
 6234SOL    HW119601   6.158   1.568   5.799
 6234SOL    HW219602   6.263   1.454   5.852
 6235SOL     OW19603   1.253   0.233   1.809
 6235SOL    HW119604   1.252   0.242   1.709
 6235SOL    HW219605   1.177   0.285   1.848
 6236SOL     OW19606   0.579   3.895   0.698
 6236SOL    HW119607   0.534   3.914   0.785
 6236SOL    HW219608   0.673   3.928   0.702
 6237SOL     OW19609   3.760   6.487   0.069
 6237SOL    HW119610   3.827   6.497   7.018
 6237SOL    HW219611   3.806   6.478   0.157
 6238SOL     OW19612   4.227   5.119   2.970
 6238SOL    HW119613   4.177   5.099   3.054
 6238SOL    HW219614   4.317   5.156   2.992
 6239SOL     OW19615   2.851   6.914   2.374
 6239SOL    HW119616   2.760   6.919   2.334
 6239SOL    HW219617   2.870   6.997   2.426
 6240SOL     OW19618   2.789   3.131   5.989
 6240SOL    HW119619   2.690   3.138   5.973
 6240SOL    HW219620   2.808   3.152   6.085
 6241SOL     OW19621   3.891   0.218   2.065
 6241SOL    HW119622   3.925   0.267   2.145
 6241SOL    HW219623   3.802   0.176   2.087
 6242SOL     OW19624   5.521   1.494   3.378
 6242SOL    HW119625   5.435   1.534   3.409
 6242SOL    HW219626   5.597   1.554   3.402
 6243SOL     OW19627   5.976   6.966   4.096
 6243SOL    HW119628   6.028   7.009   4.022
 6243SOL    HW219629   6.036   6.955   4.176
 6244SOL     OW19630   0.877   2.479   2.540
 6244SOL    HW119631   0.976   2.490   2.542
 6244SOL    HW219632   0.833   2.569   2.541
 6245SOL     OW19633   1.868   3.760   0.314
 6245SOL    HW119634   1.804   3.789   0.385
 6245SOL    HW219635   1.880   3.660   0.319
 6246SOL     OW19636   1.949   2.133   5.728
 6246SOL    HW119637   1.890   2.125   5.808
 6246SOL    HW219638   1.972   2.041   5.694
 6247SOL     OW19639   1.542   6.201   4.622
 6247SOL    HW119640   1.495   6.204   4.711
 6247SOL    HW219641   1.591   6.114   4.614
 6248SOL     OW19642   3.378   3.224   0.249
 6248SOL    HW119643   3.332   3.148   0.294
 6248SOL    HW219644   3.320   3.306   0.255
 6249SOL     OW19645   0.404   3.987   0.949
 6249SOL    HW119646   0.312   4.014   0.977
 6249SOL    HW219647   0.456   3.956   1.028
 6250SOL     OW19648   6.610   5.978   0.222
 6250SOL    HW119649   6.622   6.069   0.262
 6250SOL    HW219650   6.677   5.965   0.149
 6251SOL     OW19651   3.946   5.426   6.956
 6251SOL    HW119652   4.016   5.477   6.907
 6251SOL    HW219653   3.869   5.487   6.978
 6252SOL     OW19654   1.315   6.721   5.559
 6252SOL    HW119655   1.226   6.722   5.606
 6252SOL    HW219656   1.385   6.690   5.622
 6253SOL     OW19657   2.009   3.912   2.722
 6253SOL    HW119658   2.037   3.823   2.684
 6253SOL    HW219659   1.919   3.903   2.763
 6254SOL     OW19660   4.952   1.807   0.492
 6254SOL    HW119661   4.875   1.847   0.442
 6254SOL    HW219662   4.927   1.716   0.525
 6255SOL     OW19663   3.011   0.004   0.901
 6255SOL    HW119664   2.945   6.976   0.845
 6255SOL    HW219665   2.964   0.078   0.950
 6256SOL     OW19666   3.474   5.174   2.352
 6256SOL    HW119667   3.445   5.235   2.279
 6256SOL    HW219668   3.423   5.088   2.347
 6257SOL     OW19669   4.829   2.422   6.996
 6257SOL    HW119670   4.899   2.351   7.005
 6257SOL    HW219671   4.749   2.397   0.030
 6258SOL     OW19672   3.841   0.132   4.041
 6258SOL    HW119673   3.935   0.151   4.072
 6258SOL    HW219674   3.816   0.039   4.067
 6259SOL     OW19675   2.456   2.319   0.768
 6259SOL    HW119676   2.517   2.358   0.699
 6259SOL    HW219677   2.482   2.352   0.859
 6260SOL     OW19678   3.053   5.763   0.715
 6260SOL    HW119679   3.073   5.847   0.765
 6260SOL    HW219680   3.086   5.771   0.621
 6261SOL     OW19681   4.223   0.568   6.633
 6261SOL    HW119682   4.150   0.567   6.701
 6261SOL    HW219683   4.187   0.599   6.545
 6262SOL     OW19684   1.886   6.199   0.360
 6262SOL    HW119685   1.960   6.216   0.425
 6262SOL    HW219686   1.912   6.123   0.300
 6263SOL     OW19687   6.364   0.371   5.033
 6263SOL    HW119688   6.273   0.397   5.001
 6263SOL    HW219689   6.356   0.319   5.118
 6264SOL     OW19690   1.465   6.668   2.642
 6264SOL    HW119691   1.383   6.723   2.625
 6264SOL    HW219692   1.546   6.726   2.633
 6265SOL     OW19693   3.258   4.290   0.512
 6265SOL    HW119694   3.323   4.366   0.505
 6265SOL    HW219695   3.173   4.314   0.465
 6266SOL     OW19696   3.821   0.963   4.672
 6266SOL    HW119697   3.872   0.878   4.659
 6266SOL    HW219698   3.843   1.002   4.761
 6267SOL     OW19699   2.419   0.764   6.665
 6267SOL    HW119700   2.397   0.788   6.759
 6267SOL    HW219701   2.498   0.703   6.664
 6268SOL     OW19702   3.217   0.029   3.620
 6268SOL    HW119703   3.289   0.047   3.687
 6268SOL    HW219704   3.139   7.010   3.666
 6269SOL     OW19705   7.017   6.198   1.600
 6269SOL    HW119706   6.979   6.112   1.633
 6269SOL    HW219707   6.967   6.274   1.639
 6270SOL     OW19708   1.650   0.427   5.032
 6270SOL    HW119709   1.706   0.490   4.977
 6270SOL    HW219710   1.703   0.396   5.111
 6271SOL     OW19711   6.260   2.041   6.703
 6271SOL    HW119712   6.229   2.096   6.781
 6271SOL    HW219713   6.333   2.090   6.655
 6272SOL     OW19714   0.394   2.348   6.966
 6272SOL    HW119715   0.379   2.442   6.936
 6272SOL    HW219716   0.366   2.338   0.039
 6273SOL     OW19717   1.697   6.843   2.689
 6273SOL    HW119718   1.659   6.922   2.641
 6273SOL    HW219719   1.766   6.873   2.754
 6274SOL     OW19720   2.677   5.887   6.237
 6274SOL    HW119721   2.763   5.855   6.278
 6274SOL    HW219722   2.697   5.957   6.169
 6275SOL     OW19723   1.676   6.628   5.435
 6275SOL    HW119724   1.595   6.652   5.381
 6275SOL    HW219725   1.682   6.529   5.445
 6276SOL     OW19726   2.308   4.250   2.921
 6276SOL    HW119727   2.393   4.290   2.888
 6276SOL    HW219728   2.255   4.216   2.844
 6277SOL     OW19729   5.434   3.544   1.794
 6277SOL    HW119730   5.478   3.487   1.863
 6277SOL    HW219731   5.365   3.491   1.745
 6278SOL     OW19732   5.086   6.429   4.205
 6278SOL    HW119733   5.158   6.401   4.268
 6278SOL    HW219734   5.081   6.529   4.204
 6279SOL     OW19735   4.270   0.269   6.893
 6279SOL    HW119736   4.286   0.195   6.828
 6279SOL    HW219737   4.343   0.337   6.885
 6280SOL     OW19738   1.356   2.222   5.263
 6280SOL    HW119739   1.269   2.175   5.276
 6280SOL    HW219740   1.359   2.262   5.172
 6281SOL     OW19741   1.225   5.104   3.142
 6281SOL    HW119742   1.233   5.163   3.061
 6281SOL    HW219743   1.315   5.095   3.185
 6282SOL     OW19744   1.299   6.461   4.963
 6282SOL    HW119745   1.227   6.461   5.032
 6282SOL    HW219746   1.284   6.537   4.899
 6283SOL     OW19747   6.971   3.206   5.937
 6283SOL    HW119748   6.885   3.155   5.925
 6283SOL    HW219749   7.013   3.222   5.848
 6284SOL     OW19750   1.871   5.461   4.809
 6284SOL    HW119751   1.792   5.419   4.765
 6284SOL    HW219752   1.844   5.500   4.897
 6285SOL     OW19753   0.072   3.077   4.668
 6285SOL    HW119754   0.168   3.055   4.684
 6285SOL    HW219755   0.034   3.124   4.748
 6286SOL     OW19756   6.390   2.141   3.198
 6286SOL    HW119757   6.330   2.062   3.188
 6286SOL    HW219758   6.335   2.225   3.191
 6287SOL     OW19759   3.544   4.951   3.960
 6287SOL    HW119760   3.466   4.953   4.023
 6287SOL    HW219761   3.514   4.919   3.870
 6288SOL     OW19762   4.838   4.601   2.465
 6288SOL    HW119763   4.897   4.674   2.432
 6288SOL    HW219764   4.864   4.515   2.420
 6289SOL     OW19765   1.927   4.767   1.712
 6289SOL    HW119766   2.024   4.775   1.685
 6289SOL    HW219767   1.922   4.741   1.808
 6290SOL     OW19768   6.904   4.522   4.876
 6290SOL    HW119769   6.938   4.428   4.873
 6290SOL    HW219770   6.816   4.526   4.828
 6291SOL     OW19771   3.957   3.090   4.741
 6291SOL    HW119772   3.885   3.132   4.686
 6291SOL    HW219773   3.997   3.013   4.691
 6292SOL     OW19774   1.460   2.582   4.293
 6292SOL    HW119775   1.486   2.608   4.386
 6292SOL    HW219776   1.488   2.654   4.229
 6293SOL     OW19777   3.528   0.717   0.042
 6293SOL    HW119778   3.613   0.763   0.067
 6293SOL    HW219779   3.504   0.740   6.970
 6294SOL     OW19780   3.917   4.973   4.936
 6294SOL    HW119781   3.922   5.007   4.842
 6294SOL    HW219782   3.825   4.991   4.972
 6295SOL     OW19783   5.737   4.755   5.768
 6295SOL    HW119784   5.727   4.666   5.814
 6295SOL    HW219785   5.735   4.827   5.837
 6296SOL     OW19786   0.314   0.173   6.081
 6296SOL    HW119787   0.312   0.203   5.985
 6296SOL    HW219788   0.237   0.214   6.130
 6297SOL     OW19789   4.832   6.507   4.359
 6297SOL    HW119790   4.787   6.595   4.342
 6297SOL    HW219791   4.929   6.514   4.336
 6298SOL     OW19792   1.146   2.816   6.456
 6298SOL    HW119793   1.162   2.798   6.553
 6298SOL    HW219794   1.079   2.891   6.447
 6299SOL     OW19795   5.352   1.865   6.705
 6299SOL    HW119796   5.435   1.921   6.698
 6299SOL    HW219797   5.275   1.916   6.667
 6300SOL     OW19798   6.353   0.139   0.750
 6300SOL    HW119799   6.330   0.054   0.799
 6300SOL    HW219800   6.275   0.202   0.756
 6301SOL     OW19801   4.108   0.594   0.207
 6301SOL    HW119802   4.069   0.535   0.136
 6301SOL    HW219803   4.192   0.552   0.242
 6302SOL     OW19804   1.936   0.442   3.429
 6302SOL    HW119805   1.842   0.475   3.426
 6302SOL    HW219806   1.997   0.518   3.452
 6303SOL     OW19807   1.426   1.662   4.248
 6303SOL    HW119808   1.390   1.706   4.331
 6303SOL    HW219809   1.355   1.603   4.208
 6304SOL     OW19810   2.563   1.272   1.440
 6304SOL    HW119811   2.546   1.210   1.516
 6304SOL    HW219812   2.658   1.264   1.411
 6305SOL     OW19813   5.761   0.145   1.672
 6305SOL    HW119814   5.712   0.129   1.758
 6305SOL    HW219815   5.718   0.220   1.622
 6306SOL     OW19816   0.337   3.893   4.391
 6306SOL    HW119817   0.354   3.832   4.313
 6306SOL    HW219818   0.294   3.977   4.359
 6307SOL     OW19819   4.163   4.253   5.608
 6307SOL    HW119820   4.151   4.230   5.511
 6307SOL    HW219821   4.208   4.177   5.655
 6308SOL     OW19822   1.898   2.515   4.323
 6308SOL    HW119823   1.971   2.467   4.371
 6308SOL    HW219824   1.818   2.456   4.317
 6309SOL     OW19825   5.334   4.996   5.270
 6309SOL    HW119826   5.296   4.903   5.269
 6309SOL    HW219827   5.420   4.996   5.321
 6310SOL     OW19828   1.557   6.064   3.215
 6310SOL    HW119829   1.520   6.093   3.127
 6310SOL    HW219830   1.651   6.033   3.203
 6311SOL     OW19831   4.533   0.753   5.906
 6311SOL    HW119832   4.509   0.679   5.843
 6311SOL    HW219833   4.536   0.718   5.999
 6312SOL     OW19834   6.188   5.366   5.559
 6312SOL    HW119835   6.236   5.369   5.647
 6312SOL    HW219836   6.244   5.410   5.489
 6313SOL     OW19837   1.387   6.589   4.466
 6313SOL    HW119838   1.457   6.653   4.495
 6313SOL    HW219839   1.430   6.508   4.424
 6314SOL     OW19840   3.753   6.277   1.673
 6314SOL    HW119841   3.792   6.290   1.765
 6314SOL    HW219842   3.797   6.341   1.610
 6315SOL     OW19843   2.238   2.492   5.554
 6315SOL    HW119844   2.301   2.568   5.564
 6315SOL    HW219845   2.171   2.513   5.483
 6316SOL     OW19846   4.786   1.313   6.895
 6316SOL    HW119847   4.747   1.403   6.878
 6316SOL    HW219848   4.833   1.280   6.814
 6317SOL     OW19849   4.691   5.692   2.771
 6317SOL    HW119850   4.741   5.778   2.780
 6317SOL    HW219851   4.667   5.677   2.675
 6318SOL     OW19852   3.949   1.610   4.987
 6318SOL    HW119853   3.986   1.608   5.080
 6318SOL    HW219854   3.968   1.524   4.941
 6319SOL     OW19855   6.635   1.616   4.487
 6319SOL    HW119856   6.539   1.586   4.487
 6319SOL    HW219857   6.690   1.550   4.537
 6320SOL     OW19858   5.624   5.784   4.969
 6320SOL    HW119859   5.643   5.795   5.067
 6320SOL    HW219860   5.658   5.696   4.938
 6321SOL     OW19861   3.222   3.639   0.725
 6321SOL    HW119862   3.195   3.682   0.811
 6321SOL    HW219863   3.318   3.612   0.730
 6322SOL     OW19864   1.528   2.038   0.280
 6322SOL    HW119865   1.544   2.011   0.375
 6322SOL    HW219866   1.434   2.069   0.269
 6323SOL     OW19867   3.595   2.692   1.544
 6323SOL    HW119868   3.536   2.771   1.564
 6323SOL    HW219869   3.599   2.633   1.624
 6324SOL     OW19870   5.106   6.944   6.416
 6324SOL    HW119871   5.187   6.890   6.395
 6324SOL    HW219872   5.080   6.998   6.336
 6325SOL     OW19873   2.610   1.637   2.668
 6325SOL    HW119874   2.692   1.694   2.662
 6325SOL    HW219875   2.590   1.597   2.578
 6326SOL     OW19876   4.689   4.959   1.791
 6326SOL    HW119877   4.677   4.913   1.879
 6326SOL    HW219878   4.670   4.894   1.717
 6327SOL     OW19879   6.740   0.441   4.678
 6327SOL    HW119880   6.769   0.535   4.663
 6327SOL    HW219881   6.819   0.384   4.700
 6328SOL     OW19882   2.814   2.844   0.559
 6328SOL    HW119883   2.913   2.854   0.574
 6328SOL    HW219884   2.792   2.865   0.464
 6329SOL     OW19885   2.373   2.574   3.609
 6329SOL    HW119886   2.360   2.639   3.534
 6329SOL    HW219887   2.332   2.611   3.692
 6330SOL     OW19888   4.626   0.862   1.213
 6330SOL    HW119889   4.618   0.843   1.311
 6330SOL    HW219890   4.717   0.836   1.181
 6331SOL     OW19891   6.475   2.140   6.567
 6331SOL    HW119892   6.495   2.123   6.470
 6331SOL    HW219893   6.516   2.226   6.595
 6332SOL     OW19894   6.215   3.225   1.357
 6332SOL    HW119895   6.141   3.252   1.419
 6332SOL    HW219896   6.178   3.166   1.286
 6333SOL     OW19897   4.991   5.523   5.305
 6333SOL    HW119898   4.976   5.430   5.337
 6333SOL    HW219899   4.931   5.585   5.356
 6334SOL     OW19900   3.059   0.511   1.730
 6334SOL    HW119901   3.081   0.438   1.795
 6334SOL    HW219902   3.001   0.474   1.658
 6335SOL     OW19903   4.308   1.173   0.544
 6335SOL    HW119904   4.391   1.119   0.554
 6335SOL    HW219905   4.332   1.270   0.540
 6336SOL     OW19906   0.863   2.269   5.780
 6336SOL    HW119907   0.926   2.216   5.837
 6336SOL    HW219908   0.914   2.322   5.714
 6337SOL     OW19909   4.946   4.027   6.287
 6337SOL    HW119910   4.999   3.944   6.267
 6337SOL    HW219911   4.972   4.062   6.377
 6338SOL     OW19912   3.847   1.860   4.215
 6338SOL    HW119913   3.927   1.806   4.243
 6338SOL    HW219914   3.767   1.829   4.267
 6339SOL     OW19915   1.459   4.045   2.753
 6339SOL    HW119916   1.436   3.972   2.817
 6339SOL    HW219917   1.387   4.114   2.754
 6340SOL     OW19918   1.556   5.051   2.783
 6340SOL    HW119919   1.492   5.124   2.759
 6340SOL    HW219920   1.506   4.972   2.816
 6341SOL     OW19921   0.920   4.222   4.494
 6341SOL    HW119922   0.908   4.208   4.592
 6341SOL    HW219923   1.014   4.251   4.475
 6342SOL     OW19924   2.102   1.411   2.101
 6342SOL    HW119925   2.134   1.497   2.141
 6342SOL    HW219926   2.082   1.425   2.004
 6343SOL     OW19927   4.530   2.049   6.385
 6343SOL    HW119928   4.562   2.022   6.476
 6343SOL    HW219929   4.456   1.989   6.356
 6344SOL     OW19930   5.810   3.200   5.527
 6344SOL    HW119931   5.804   3.295   5.500
 6344SOL    HW219932   5.764   3.142   5.460
 6345SOL     OW19933   5.235   2.805   2.323
 6345SOL    HW119934   5.298   2.734   2.354
 6345SOL    HW219935   5.142   2.768   2.322
 6346SOL     OW19936   6.976   4.429   3.604
 6346SOL    HW119937   6.923   4.400   3.524
 6346SOL    HW219938   0.035   4.479   3.573
 6347SOL     OW19939   2.353   0.519   0.763
 6347SOL    HW119940   2.315   0.512   0.855
 6347SOL    HW219941   2.317   0.600   0.717
 6348SOL     OW19942   1.033   4.023   5.498
 6348SOL    HW119943   1.114   4.032   5.441
 6348SOL    HW219944   0.996   3.930   5.488
 6349SOL     OW19945   2.716   0.353   1.547
 6349SOL    HW119946   2.665   0.311   1.621
 6349SOL    HW219947   2.812   0.361   1.573
 6350SOL     OW19948   2.151   4.977   4.126
 6350SOL    HW119949   2.083   4.904   4.133
 6350SOL    HW219950   2.194   4.991   4.216
 6351SOL     OW19951   6.414   3.434   3.500
 6351SOL    HW119952   6.323   3.392   3.506
 6351SOL    HW219953   6.481   3.377   3.548
 6352SOL     OW19954   3.755   5.853   4.803
 6352SOL    HW119955   3.693   5.821   4.875
 6352SOL    HW219956   3.723   5.819   4.715
 6353SOL     OW19957   0.226   0.311   5.838
 6353SOL    HW119958   0.230   0.396   5.890
 6353SOL    HW219959   0.148   0.313   5.776
 6354SOL     OW19960   1.770   5.857   3.305
 6354SOL    HW119961   1.732   5.767   3.326
 6354SOL    HW219962   1.866   5.847   3.279
 6355SOL     OW19963   0.865   5.174   6.385
 6355SOL    HW119964   0.880   5.076   6.401
 6355SOL    HW219965   0.766   5.192   6.380
 6356SOL     OW19966   4.105   5.347   2.078
 6356SOL    HW119967   4.150   5.270   2.032
 6356SOL    HW219968   4.169   5.390   2.141
 6357SOL     OW19969   5.338   3.485   2.241
 6357SOL    HW119970   5.430   3.507   2.274
 6357SOL    HW219971   5.323   3.386   2.249
 6358SOL     OW19972   0.667   1.703   6.514
 6358SOL    HW119973   0.754   1.729   6.471
 6358SOL    HW219974   0.619   1.786   6.544
 6359SOL     OW19975   6.121   6.816   6.084
 6359SOL    HW119976   6.038   6.848   6.130
 6359SOL    HW219977   6.122   6.849   5.989
 6360SOL     OW19978   1.184   4.022   3.937
 6360SOL    HW119979   1.137   4.109   3.940
 6360SOL    HW219980   1.283   4.037   3.929
 6361SOL     OW19981   6.296   6.706   0.946
 6361SOL    HW119982   6.360   6.654   0.889
 6361SOL    HW219983   6.321   6.695   1.042
 6362SOL     OW19984   0.571   6.395   0.533
 6362SOL    HW119985   0.517   6.328   0.481
 6362SOL    HW219986   0.664   6.399   0.495
 6363SOL     OW19987   2.335   4.524   3.645
 6363SOL    HW119988   2.300   4.450   3.702
 6363SOL    HW219989   2.325   4.500   3.549
 6364SOL     OW19990   3.221   1.132   5.877
 6364SOL    HW119991   3.234   1.194   5.954
 6364SOL    HW219992   3.237   1.038   5.907
 6365SOL     OW19993   5.399   0.088   3.941
 6365SOL    HW119994   5.493   0.103   3.972
 6365SOL    HW219995   5.335   0.106   4.016
 6366SOL     OW19996   1.287   6.152   5.781
 6366SOL    HW119997   1.290   6.251   5.793
 6366SOL    HW219998   1.204   6.115   5.825
 6367SOL     OW19999   3.934   0.711   4.766
 6367SOL    HW120000   4.019   0.725   4.715
 6367SOL    HW220001   3.925   0.781   4.836
 6368SOL     OW20002   3.444   4.919   3.530
 6368SOL    HW120003   3.527   4.892   3.578
 6368SOL    HW220004   3.466   4.938   3.434
 6369SOL     OW20005   1.749   5.006   3.801
 6369SOL    HW120006   1.748   4.913   3.764
 6369SOL    HW220007   1.825   5.057   3.760
 6370SOL     OW20008   0.274   3.103   2.981
 6370SOL    HW120009   0.176   3.122   2.978
 6370SOL    HW220010   0.320   3.150   2.907
 6371SOL     OW20011   5.178   4.174   4.062
 6371SOL    HW120012   5.247   4.105   4.042
 6371SOL    HW220013   5.162   4.176   4.161
 6372SOL     OW20014   2.462   0.367   2.058
 6372SOL    HW120015   2.400   0.348   1.982
 6372SOL    HW220016   2.427   0.444   2.111
 6373SOL     OW20017   4.926   4.274   3.106
 6373SOL    HW120018   4.859   4.210   3.068
 6373SOL    HW220019   5.005   4.222   3.140
 6374SOL     OW20020   2.963   3.865   4.168
 6374SOL    HW120021   2.940   3.814   4.251
 6374SOL    HW220022   2.974   3.962   4.190
 6375SOL     OW20023   6.440   1.724   3.519
 6375SOL    HW120024   6.532   1.762   3.529
 6375SOL    HW220025   6.377   1.797   3.493
 6376SOL     OW20026   5.797   2.910   4.446
 6376SOL    HW120027   5.700   2.921   4.424
 6376SOL    HW220028   5.806   2.888   4.543
 6377SOL     OW20029   6.179   1.381   5.405
 6377SOL    HW120030   6.241   1.345   5.474
 6377SOL    HW220031   6.114   1.310   5.378
 6378SOL     OW20032   4.714   5.227   3.655
 6378SOL    HW120033   4.764   5.304   3.694
 6378SOL    HW220034   4.660   5.182   3.726
 6379SOL     OW20035   1.766   3.820   4.112
 6379SOL    HW120036   1.683   3.862   4.078
 6379SOL    HW220037   1.833   3.813   4.038
 6380SOL     OW20038   0.332   1.930   6.097
 6380SOL    HW120039   0.239   1.907   6.070
 6380SOL    HW220040   0.371   1.855   6.149
 6381SOL     OW20041   3.673   3.433   1.724
 6381SOL    HW120042   3.680   3.339   1.691
 6381SOL    HW220043   3.633   3.433   1.816
 6382SOL     OW20044   1.248   1.316   0.828
 6382SOL    HW120045   1.235   1.327   0.926
 6382SOL    HW220046   1.304   1.390   0.793
 6383SOL     OW20047   1.391   1.751   3.183
 6383SOL    HW120048   1.399   1.760   3.282
 6383SOL    HW220049   1.383   1.654   3.159
 6384SOL     OW20050   5.789   3.924   1.401
 6384SOL    HW120051   5.771   3.928   1.500
 6384SOL    HW220052   5.885   3.946   1.384
 6385SOL     OW20053   0.151   4.617   3.540
 6385SOL    HW120054   0.236   4.628   3.592
 6385SOL    HW220055   0.174   4.591   3.446
 6386SOL     OW20056   2.287   4.246   6.006
 6386SOL    HW120057   2.364   4.292   5.961
 6386SOL    HW220058   2.208   4.247   5.944
 6387SOL     OW20059   0.745   1.509   6.696
 6387SOL    HW120060   0.720   1.569   6.621
 6387SOL    HW220061   0.695   1.422   6.688
 6388SOL     OW20062   4.035   4.637   1.072
 6388SOL    HW120063   4.013   4.627   1.169
 6388SOL    HW220064   3.975   4.577   1.018
 6389SOL     OW20065   0.674   5.964   2.665
 6389SOL    HW120066   0.717   5.873   2.672
 6389SOL    HW220067   0.626   5.972   2.578
 6390SOL     OW20068   0.546   2.163   5.457
 6390SOL    HW120069   0.503   2.121   5.377
 6390SOL    HW220070   0.601   2.095   5.505
 6391SOL     OW20071   2.424   7.009   6.087
 6391SOL    HW120072   2.367   6.999   6.006
 6391SOL    HW220073   2.419   6.925   6.142
 6392SOL     OW20074   2.300   6.757   3.029
 6392SOL    HW120075   2.321   6.844   2.983
 6392SOL    HW220076   2.323   6.764   3.126
 6393SOL     OW20077   0.036   0.016   2.003
 6393SOL    HW120078   0.030   0.097   1.945
 6393SOL    HW220079   0.068   0.042   2.094
 6394SOL     OW20080   2.067   4.781   0.902
 6394SOL    HW120081   2.158   4.741   0.890
 6394SOL    HW220082   2.072   4.857   0.966
 6395SOL     OW20083   6.645   2.532   1.127
 6395SOL    HW120084   6.603   2.603   1.183
 6395SOL    HW220085   6.582   2.455   1.118
 6396SOL     OW20086   5.156   3.117   6.153
 6396SOL    HW120087   5.144   3.019   6.172
 6396SOL    HW220088   5.069   3.164   6.168
 6397SOL     OW20089   5.388   2.467   6.757
 6397SOL    HW120090   5.359   2.468   6.661
 6397SOL    HW220091   5.331   2.530   6.810
 6398SOL     OW20092   3.466   0.278   0.801
 6398SOL    HW120093   3.471   0.348   0.730
 6398SOL    HW220094   3.372   0.243   0.805
 6399SOL     OW20095   1.199   5.684   6.251
 6399SOL    HW120096   1.162   5.610   6.194
 6399SOL    HW220097   1.269   5.647   6.311
 6400SOL     OW20098   2.136   6.218   2.144
 6400SOL    HW120099   2.090   6.266   2.219
 6400SOL    HW220100   2.132   6.274   2.061
 6401SOL     OW20101   0.286   4.910   3.549
 6401SOL    HW120102   0.290   4.975   3.624
 6401SOL    HW220103   0.319   4.821   3.579
 6402SOL     OW20104   4.015   1.764   2.509
 6402SOL    HW120105   3.934   1.802   2.464
 6402SOL    HW220106   4.091   1.761   2.444
 6403SOL     OW20107   6.651   6.731   6.244
 6403SOL    HW120108   6.692   6.641   6.260
 6403SOL    HW220109   6.692   6.798   6.307
 6404SOL     OW20110   4.568   1.657   2.310
 6404SOL    HW120111   4.475   1.635   2.340
 6404SOL    HW220112   4.626   1.671   2.390
 6405SOL     OW20113   2.942   0.336   3.764
 6405SOL    HW120114   2.954   0.305   3.670
 6405SOL    HW220115   2.942   0.436   3.766
 6406SOL     OW20116   1.072   2.362   3.259
 6406SOL    HW120117   1.011   2.304   3.206
 6406SOL    HW220118   1.069   2.335   3.355
 6407SOL     OW20119   2.597   6.108   4.285
 6407SOL    HW120120   2.558   6.045   4.352
 6407SOL    HW220121   2.628   6.058   4.205
 6408SOL     OW20122   5.651   1.879   0.666
 6408SOL    HW120123   5.597   1.804   0.628
 6408SOL    HW220124   5.589   1.946   0.707
 6409SOL     OW20125   6.813   4.361   3.377
 6409SOL    HW120126   6.783   4.392   3.286
 6409SOL    HW220127   6.748   4.294   3.412
 6410SOL     OW20128   2.051   1.454   0.663
 6410SOL    HW120129   1.968   1.495   0.700
 6410SOL    HW220130   2.114   1.526   0.633
 6411SOL     OW20131   0.676   2.510   3.084
 6411SOL    HW120132   0.762   2.558   3.098
 6411SOL    HW220133   0.600   2.575   3.088
 6412SOL     OW20134   0.298   2.283   5.195
 6412SOL    HW120135   0.352   2.201   5.216
 6412SOL    HW220136   0.311   2.308   5.099
 6413SOL     OW20137   4.287   4.697   3.802
 6413SOL    HW120138   4.264   4.741   3.889
 6413SOL    HW220139   4.373   4.646   3.812
 6414SOL     OW20140   5.644   0.947   0.684
 6414SOL    HW120141   5.706   0.870   0.667
 6414SOL    HW220142   5.647   0.971   0.781
 6415SOL     OW20143   1.839   3.031   3.330
 6415SOL    HW120144   1.837   3.105   3.263
 6415SOL    HW220145   1.755   3.032   3.384
 6416SOL     OW20146   1.289   1.348   6.810
 6416SOL    HW120147   1.235   1.322   6.729
 6416SOL    HW220148   1.322   1.442   6.799
 6417SOL     OW20149   6.648   5.120   2.334
 6417SOL    HW120150   6.708   5.087   2.261
 6417SOL    HW220151   6.618   5.043   2.390
 6418SOL     OW20152   5.018   4.607   1.893
 6418SOL    HW120153   5.098   4.667   1.890
 6418SOL    HW220154   5.035   4.533   1.958
 6419SOL     OW20155   2.628   4.568   2.665
 6419SOL    HW120156   2.576   4.647   2.697
 6419SOL    HW220157   2.722   4.595   2.646
 6420SOL     OW20158   3.412   4.206   5.659
 6420SOL    HW120159   3.332   4.267   5.656
 6420SOL    HW220160   3.437   4.181   5.566
 6421SOL     OW20161   5.331   1.113   2.875
 6421SOL    HW120162   5.348   1.181   2.804
 6421SOL    HW220163   5.418   1.088   2.918
 6422SOL     OW20164   0.491   0.801   3.472
 6422SOL    HW120165   0.392   0.793   3.456
 6422SOL    HW220166   0.517   0.742   3.549
 6423SOL     OW20167   4.724   4.985   2.549
 6423SOL    HW120168   4.800   4.933   2.587
 6423SOL    HW220169   4.759   5.069   2.506
 6424SOL     OW20170   6.973   6.133   6.005
 6424SOL    HW120171   6.945   6.221   5.968
 6424SOL    HW220172   6.903   6.064   5.983
 6425SOL     OW20173   6.338   5.869   2.882
 6425SOL    HW120174   6.262   5.806   2.865
 6425SOL    HW220175   6.320   5.920   2.967
 6426SOL     OW20176   0.988   4.656   2.943
 6426SOL    HW120177   1.066   4.597   2.922
 6426SOL    HW220178   1.018   4.732   3.000
 6427SOL     OW20179   3.174   2.500   6.084
 6427SOL    HW120180   3.084   2.525   6.119
 6427SOL    HW220181   3.219   2.581   6.047
 6428SOL     OW20182   6.460   3.032   0.004
 6428SOL    HW120183   6.378   2.978   0.023
 6428SOL    HW220184   6.481   3.029   6.929
 6429SOL     OW20185   1.813   2.107   5.955
 6429SOL    HW120186   1.846   2.082   6.046
 6429SOL    HW220187   1.725   2.063   5.938
 6430SOL     OW20188   5.737   1.139   2.188
 6430SOL    HW120189   5.652   1.160   2.141
 6430SOL    HW220190   5.780   1.223   2.220
 6431SOL     OW20191   5.091   6.469   3.897
 6431SOL    HW120192   5.118   6.440   3.989
 6431SOL    HW220193   5.005   6.424   3.871
 6432SOL     OW20194   3.843   3.988   6.391
 6432SOL    HW120195   3.931   3.968   6.435
 6432SOL    HW220196   3.781   4.029   6.458
 6433SOL     OW20197   2.876   4.245   0.277
 6433SOL    HW120198   2.933   4.211   0.202
 6433SOL    HW220199   2.780   4.233   0.253
 6434SOL     OW20200   1.448   3.909   0.108
 6434SOL    HW120201   1.508   3.843   0.152
 6434SOL    HW220202   1.447   3.894   0.010
 6435SOL     OW20203   4.230   6.286   6.910
 6435SOL    HW120204   4.293   6.363   6.904
 6435SOL    HW220205   4.281   6.204   6.938
 6436SOL     OW20206   1.880   3.250   3.568
 6436SOL    HW120207   1.965   3.213   3.529
 6436SOL    HW220208   1.804   3.234   3.505
 6437SOL     OW20209   2.516   1.172   0.769
 6437SOL    HW120210   2.569   1.239   0.717
 6437SOL    HW220211   2.426   1.161   0.726
 6438SOL     OW20212   0.404   3.939   6.410
 6438SOL    HW120213   0.481   3.962   6.469
 6438SOL    HW220214   0.396   4.007   6.337
 6439SOL     OW20215   5.416   0.882   2.004
 6439SOL    HW120216   5.402   0.830   2.088
 6439SOL    HW220217   5.346   0.856   1.937
 6440SOL     OW20218   2.369   1.707   6.799
 6440SOL    HW120219   2.367   1.615   6.759
 6440SOL    HW220220   2.286   1.721   6.854
 6441SOL     OW20221   0.888   6.156   2.090
 6441SOL    HW120222   0.790   6.166   2.073
 6441SOL    HW220223   0.922   6.073   2.044
 6442SOL     OW20224   2.398   0.388   4.666
 6442SOL    HW120225   2.303   0.357   4.670
 6442SOL    HW220226   2.460   0.311   4.684
 6443SOL     OW20227   3.895   2.398   5.552
 6443SOL    HW120228   3.859   2.469   5.612
 6443SOL    HW220229   3.820   2.356   5.500
 6444SOL     OW20230   6.634   2.403   3.946
 6444SOL    HW120231   6.670   2.384   4.037
 6444SOL    HW220232   6.537   2.424   3.952
 6445SOL     OW20233   4.544   3.148   5.480
 6445SOL    HW120234   4.591   3.216   5.423
 6445SOL    HW220235   4.455   3.126   5.439
 6446SOL     OW20236   1.776   1.015   5.874
 6446SOL    HW120237   1.770   0.920   5.905
 6446SOL    HW220238   1.798   1.075   5.950
 6447SOL     OW20239   0.481   4.880   2.555
 6447SOL    HW120240   0.518   4.787   2.559
 6447SOL    HW220241   0.465   4.906   2.460
 6448SOL     OW20242   4.822   5.470   2.422
 6448SOL    HW120243   4.877   5.500   2.344
 6448SOL    HW220244   4.766   5.547   2.454
 6449SOL     OW20245   2.729   4.857   0.714
 6449SOL    HW120246   2.704   4.762   0.695
 6449SOL    HW220247   2.647   4.914   0.709
 6450SOL     OW20248   0.113   3.550   1.361
 6450SOL    HW120249   0.188   3.570   1.299
 6450SOL    HW220250   0.148   3.501   1.441
 6451SOL     OW20251   1.972   0.059   4.950
 6451SOL    HW120252   2.055   0.007   4.932
 6451SOL    HW220253   1.984   0.154   4.921
 6452SOL     OW20254   3.283   6.810   4.766
 6452SOL    HW120255   3.211   6.742   4.782
 6452SOL    HW220256   3.364   6.784   4.817
 6453SOL     OW20257   2.374   6.560   1.237
 6453SOL    HW120258   2.420   6.570   1.325
 6453SOL    HW220259   2.420   6.618   1.169
 6454SOL     OW20260   2.604   2.200   3.788
 6454SOL    HW120261   2.642   2.109   3.805
 6454SOL    HW220262   2.572   2.206   3.694
 6455SOL     OW20263   0.190   2.077   4.083
 6455SOL    HW120264   0.189   2.146   4.156
 6455SOL    HW220265   0.113   2.015   4.095
 6456SOL     OW20266   1.685   0.568   3.399
 6456SOL    HW120267   1.607   0.532   3.450
 6456SOL    HW220268   1.672   0.550   3.301
 6457SOL     OW20269   4.848   2.164   0.798
 6457SOL    HW120270   4.873   2.260   0.781
 6457SOL    HW220271   4.843   2.148   0.896
 6458SOL     OW20272   0.746   7.021   3.741
 6458SOL    HW120273   0.746   6.931   3.784
 6458SOL    HW220274   0.806   0.060   3.792
 6459SOL     OW20275   6.225   4.919   0.133
 6459SOL    HW120276   6.139   4.885   0.171
 6459SOL    HW220277   6.216   4.930   0.034
 6460SOL     OW20278   4.917   5.558   5.652
 6460SOL    HW120279   4.906   5.641   5.707
 6460SOL    HW220280   4.914   5.581   5.555
 6461SOL     OW20281   2.674   4.795   5.456
 6461SOL    HW120282   2.641   4.889   5.468
 6461SOL    HW220283   2.610   4.744   5.399
 6462SOL     OW20284   2.434   2.613   4.713
 6462SOL    HW120285   2.338   2.591   4.732
 6462SOL    HW220286   2.452   2.602   4.615
 6463SOL     OW20287   6.709   3.677   6.831
 6463SOL    HW120288   6.666   3.633   6.753
 6463SOL    HW220289   6.689   3.775   6.830
 6464SOL     OW20290   1.511   4.778   4.212
 6464SOL    HW120291   1.498   4.758   4.115
 6464SOL    HW220292   1.460   4.712   4.266
 6465SOL     OW20293   6.517   2.889   3.374
 6465SOL    HW120294   6.588   2.916   3.308
 6465SOL    HW220295   6.560   2.850   3.455
 6466SOL     OW20296   1.499   1.542   6.552
 6466SOL    HW120297   1.505   1.486   6.470
 6466SOL    HW220298   1.571   1.611   6.550
 6467SOL     OW20299   3.512   0.466   6.812
 6467SOL    HW120300   3.591   0.528   6.819
 6467SOL    HW220301   3.545   0.373   6.794
 6468SOL     OW20302   4.006   6.473   1.061
 6468SOL    HW120303   4.023   6.377   1.084
 6468SOL    HW220304   3.980   6.523   1.144
 6469SOL     OW20305   4.835   0.453   4.892
 6469SOL    HW120306   4.888   0.461   4.807
 6469SOL    HW220307   4.743   0.422   4.871
 6470SOL     OW20308   6.546   4.528   0.073
 6470SOL    HW120309   6.610   4.530   0.149
 6470SOL    HW220310   6.534   4.433   0.042
 6471SOL     OW20311   6.460   6.121   5.322
 6471SOL    HW120312   6.477   6.212   5.359
 6471SOL    HW220313   6.363   6.111   5.301
 6472SOL     OW20314   0.717   4.869   1.162
 6472SOL    HW120315   0.662   4.943   1.201
 6472SOL    HW220316   0.793   4.849   1.224
 6473SOL     OW20317   2.839   1.356   4.324
 6473SOL    HW120318   2.930   1.384   4.293
 6473SOL    HW220319   2.795   1.303   4.252
 6474SOL     OW20320   2.369   4.041   5.779
 6474SOL    HW120321   2.430   3.992   5.717
 6474SOL    HW220322   2.325   4.117   5.731
 6475SOL     OW20323   6.299   5.238   4.217
 6475SOL    HW120324   6.235   5.305   4.180
 6475SOL    HW220325   6.258   5.194   4.298
 6476SOL     OW20326   4.546   3.167   0.947
 6476SOL    HW120327   4.473   3.231   0.971
 6476SOL    HW220328   4.517   3.074   0.968
 6477SOL     OW20329   6.178   4.757   1.003
 6477SOL    HW120330   6.200   4.852   0.977
 6477SOL    HW220331   6.091   4.731   0.962
 6478SOL     OW20332   3.654   6.619   1.707
 6478SOL    HW120333   3.604   6.559   1.770
 6478SOL    HW220334   3.744   6.640   1.746
 6479SOL     OW20335   3.751   5.590   3.915
 6479SOL    HW120336   3.701   5.666   3.875
 6479SOL    HW220337   3.805   5.622   3.993
 6480SOL     OW20338   3.317   2.344   5.566
 6480SOL    HW120339   3.226   2.340   5.607
 6480SOL    HW220340   3.340   2.254   5.529
 6481SOL     OW20341   3.614   2.135   1.680
 6481SOL    HW120342   3.631   2.193   1.760
 6481SOL    HW220343   3.588   2.193   1.602
 6482SOL     OW20344   7.004   0.415   5.742
 6482SOL    HW120345   6.956   0.368   5.667
 6482SOL    HW220346   0.009   0.506   5.712
 6483SOL     OW20347   1.013   6.041   1.265
 6483SOL    HW120348   1.013   6.014   1.169
 6483SOL    HW220349   1.045   6.135   1.273
 6484SOL     OW20350   3.475   0.250   1.740
 6484SOL    HW120351   3.428   0.173   1.697
 6484SOL    HW220352   3.481   0.235   1.838
 6485SOL     OW20353   1.705   4.621   3.316
 6485SOL    HW120354   1.747   4.696   3.267
 6485SOL    HW220355   1.776   4.565   3.360
 6486SOL     OW20356   1.858   4.354   4.354
 6486SOL    HW120357   1.888   4.368   4.449
 6486SOL    HW220358   1.847   4.256   4.336
 6487SOL     OW20359   6.995   6.617   5.125
 6487SOL    HW120360   6.899   6.643   5.117
 6487SOL    HW220361   7.005   6.547   5.196
 6488SOL     OW20362   3.499   6.154   5.612
 6488SOL    HW120363   3.473   6.216   5.538
 6488SOL    HW220364   3.480   6.060   5.585
 6489SOL     OW20365   2.582   2.683   6.709
 6489SOL    HW120366   2.550   2.642   6.794
 6489SOL    HW220367   2.622   2.612   6.651
 6490SOL     OW20368   4.134   1.584   6.358
 6490SOL    HW120369   4.178   1.571   6.446
 6490SOL    HW220370   4.066   1.657   6.364
 6491SOL     OW20371   4.020   1.100   0.249
 6491SOL    HW120372   3.932   1.092   0.296
 6491SOL    HW220373   4.050   1.195   0.252
 6492SOL     OW20374   5.753   5.153   0.186
 6492SOL    HW120375   5.722   5.109   0.271
 6492SOL    HW220376   5.830   5.214   0.206
 6493SOL     OW20377   1.415   5.615   4.879
 6493SOL    HW120378   1.381   5.553   4.807
 6493SOL    HW220379   1.509   5.642   4.859
 6494SOL     OW20380   0.244   1.325   3.450
 6494SOL    HW120381   0.183   1.336   3.528
 6494SOL    HW220382   0.219   1.391   3.379
 6495SOL     OW20383   4.929   6.161   4.134
 6495SOL    HW120384   4.957   6.213   4.054
 6495SOL    HW220385   4.865   6.215   4.188
 6496SOL     OW20386   6.810   0.444   2.313
 6496SOL    HW120387   6.869   0.382   2.262
 6496SOL    HW220388   6.714   0.420   2.297
 6497SOL     OW20389   2.484   2.400   1.031
 6497SOL    HW120390   2.497   2.498   1.018
 6497SOL    HW220391   2.410   2.385   1.097
 6498SOL     OW20392   1.961   3.697   4.281
 6498SOL    HW120393   2.026   3.740   4.217
 6498SOL    HW220394   1.868   3.722   4.255
 6499SOL     OW20395   5.193   2.401   5.231
 6499SOL    HW120396   5.202   2.351   5.317
 6499SOL    HW220397   5.209   2.338   5.154
 6500SOL     OW20398   0.173   4.128   3.721
 6500SOL    HW120399   0.110   4.107   3.646
 6500SOL    HW220400   0.247   4.060   3.721
 6501SOL     OW20401   6.272   2.799   6.535
 6501SOL    HW120402   6.323   2.855   6.470
 6501SOL    HW220403   6.192   2.759   6.491
 6502SOL     OW20404   6.420   3.297   1.549
 6502SOL    HW120405   6.495   3.231   1.538
 6502SOL    HW220406   6.352   3.282   1.477
 6503SOL     OW20407   4.516   1.384   3.786
 6503SOL    HW120408   4.604   1.427   3.767
 6503SOL    HW220409   4.523   1.286   3.773
 6504SOL     OW20410   5.014   6.045   5.975
 6504SOL    HW120411   4.936   6.106   5.963
 6504SOL    HW220412   5.069   6.043   5.892
 6505SOL     OW20413   5.395   5.665   1.441
 6505SOL    HW120414   5.297   5.681   1.434
 6505SOL    HW220415   5.435   5.727   1.509
 6506SOL     OW20416   6.234   3.376   1.772
 6506SOL    HW120417   6.150   3.412   1.731
 6506SOL    HW220418   6.312   3.395   1.712
 6507SOL     OW20419   1.951   5.157   6.158
 6507SOL    HW120420   1.910   5.078   6.203
 6507SOL    HW220421   1.882   5.229   6.149
 6508SOL     OW20422   2.241   0.652   3.235
 6508SOL    HW120423   2.194   0.667   3.321
 6508SOL    HW220424   2.197   0.577   3.185
 6509SOL     OW20425   3.217   1.853   4.992
 6509SOL    HW120426   3.237   1.936   4.940
 6509SOL    HW220427   3.217   1.873   5.090
 6510SOL     OW20428   0.162   4.351   6.952
 6510SOL    HW120429   0.203   4.440   6.929
 6510SOL    HW220430   0.068   4.347   6.918
 6511SOL     OW20431   4.838   1.113   4.466
 6511SOL    HW120432   4.890   1.140   4.547
 6511SOL    HW220433   4.893   1.051   4.410
 6512SOL     OW20434   5.051   0.019   1.976
 6512SOL    HW120435   5.043   0.101   1.918
 6512SOL    HW220436   5.035   6.960   1.920
 6513SOL     OW20437   3.140   4.879   2.722
 6513SOL    HW120438   3.218   4.906   2.778
 6513SOL    HW220439   3.157   4.904   2.627
 6514SOL     OW20440   5.345   1.252   3.888
 6514SOL    HW120441   5.436   1.211   3.894
 6514SOL    HW220442   5.330   1.286   3.795
 6515SOL     OW20443   0.567   5.082   4.017
 6515SOL    HW120444   0.552   5.164   3.962
 6515SOL    HW220445   0.518   5.005   3.976
 6516SOL     OW20446   0.510   3.060   1.716
 6516SOL    HW120447   0.447   3.106   1.779
 6516SOL    HW220448   0.479   3.074   1.622
 6517SOL     OW20449   6.705   1.136   0.539
 6517SOL    HW120450   6.669   1.139   0.446
 6517SOL    HW220451   6.805   1.141   0.536
 6518SOL     OW20452   6.993   0.014   6.670
 6518SOL    HW120453   6.906   0.014   6.719
 6518SOL    HW220454   7.012   0.105   6.633
 6519SOL     OW20455   2.825   1.833   3.578
 6519SOL    HW120456   2.868   1.787   3.499
 6519SOL    HW220457   2.788   1.921   3.549
 6520SOL     OW20458   5.663   5.260   1.925
 6520SOL    HW120459   5.691   5.170   1.892
 6520SOL    HW220460   5.565   5.259   1.943
 6521SOL     OW20461   1.832   2.843   4.674
 6521SOL    HW120462   1.809   2.746   4.671
 6521SOL    HW220463   1.923   2.854   4.715
 6522SOL     OW20464   3.669   4.455   0.261
 6522SOL    HW120465   3.706   4.376   0.212
 6522SOL    HW220466   3.744   4.506   0.304
 6523SOL     OW20467   3.797   0.638   6.835
 6523SOL    HW120468   3.805   0.554   6.889
 6523SOL    HW220469   3.790   0.717   6.896
 6524SOL     OW20470   2.896   3.525   2.087
 6524SOL    HW120471   2.887   3.435   2.130
 6524SOL    HW220472   2.843   3.528   2.003
 6525SOL     OW20473   1.242   3.927   3.599
 6525SOL    HW120474   1.163   3.978   3.634
 6525SOL    HW220475   1.217   3.830   3.590
 6526SOL     OW20476   2.113   0.115   6.557
 6526SOL    HW120477   2.059   0.199   6.548
 6526SOL    HW220478   2.202   0.129   6.514
 6527SOL     OW20479   0.876   2.602   4.916
 6527SOL    HW120480   0.779   2.591   4.937
 6527SOL    HW220481   0.930   2.545   4.978
 6528SOL     OW20482   0.273   1.090   4.083
 6528SOL    HW120483   0.238   1.170   4.132
 6528SOL    HW220484   0.198   1.043   4.037
 6529SOL     OW20485   0.505   1.394   2.429
 6529SOL    HW120486   0.441   1.445   2.486
 6529SOL    HW220487   0.466   1.381   2.338
 6530SOL     OW20488   6.875   3.513   1.438
 6530SOL    HW120489   6.974   3.511   1.424
 6530SOL    HW220490   6.856   3.518   1.536
 6531SOL     OW20491   5.414   4.051   4.962
 6531SOL    HW120492   5.341   4.069   5.028
 6531SOL    HW220493   5.393   3.968   4.910
 6532SOL     OW20494   6.312   0.414   6.786
 6532SOL    HW120495   6.328   0.470   6.705
 6532SOL    HW220496   6.214   0.393   6.793
 6533SOL     OW20497   4.782   6.072   0.903
 6533SOL    HW120498   4.684   6.052   0.907
 6533SOL    HW220499   4.804   6.116   0.816
 6534SOL     OW20500   3.235   4.266   1.044
 6534SOL    HW120501   3.250   4.179   1.092
 6534SOL    HW220502   3.220   4.248   0.947
 6535SOL     OW20503   6.219   3.837   4.351
 6535SOL    HW120504   6.184   3.910   4.410
 6535SOL    HW220505   6.309   3.808   4.384
 6536SOL     OW20506   0.612   2.383   5.857
 6536SOL    HW120507   0.549   2.319   5.814
 6536SOL    HW220508   0.706   2.350   5.848
 6537SOL     OW20509   6.174   5.567   6.874
 6537SOL    HW120510   6.118   5.623   6.812
 6537SOL    HW220511   6.122   5.548   6.957
 6538SOL     OW20512   3.151   4.198   6.870
 6538SOL    HW120513   3.117   4.248   6.949
 6538SOL    HW220514   3.241   4.159   6.890
 6539SOL     OW20515   3.543   0.078   6.448
 6539SOL    HW120516   3.444   0.082   6.456
 6539SOL    HW220517   3.581   0.170   6.457
 6540SOL     OW20518   5.302   1.578   5.042
 6540SOL    HW120519   5.392   1.543   5.067
 6540SOL    HW220520   5.300   1.597   4.944
 6541SOL     OW20521   3.933   1.231   5.101
 6541SOL    HW120522   3.882   1.295   5.044
 6541SOL    HW220523   3.921   1.255   5.198
 6542SOL     OW20524   6.633   4.466   4.303
 6542SOL    HW120525   6.639   4.380   4.354
 6542SOL    HW220526   6.652   4.542   4.365
 6543SOL     OW20527   6.071   3.472   6.332
 6543SOL    HW120528   6.089   3.420   6.416
 6543SOL    HW220529   6.158   3.498   6.291
 6544SOL     OW20530   0.388   6.271   3.004
 6544SOL    HW120531   0.341   6.218   3.074
 6544SOL    HW220532   0.398   6.366   3.035
 6545SOL     OW20533   5.178   2.124   6.316
 6545SOL    HW120534   5.176   2.224   6.308
 6545SOL    HW220535   5.173   2.083   6.225
 6546SOL     OW20536   3.510   4.341   6.402
 6546SOL    HW120537   3.546   4.374   6.315
 6546SOL    HW220538   3.478   4.418   6.457
 6547SOL     OW20539   4.831   1.277   5.967
 6547SOL    HW120540   4.804   1.337   6.042
 6547SOL    HW220541   4.914   1.313   5.924
 6548SOL     OW20542   0.859   3.820   0.021
 6548SOL    HW120543   0.956   3.823   0.046
 6548SOL    HW220544   0.842   3.740   6.986
 6549SOL     OW20545   4.455   1.343   1.188
 6549SOL    HW120546   4.421   1.433   1.161
 6549SOL    HW220547   4.536   1.321   1.134
 6550SOL     OW20548   0.719   6.789   3.877
 6550SOL    HW120549   0.674   6.789   3.966
 6550SOL    HW220550   0.771   6.705   3.865
 6551SOL     OW20551   1.681   4.550   2.331
 6551SOL    HW120552   1.588   4.570   2.301
 6551SOL    HW220553   1.716   4.628   2.384
 6552SOL     OW20554   2.273   0.225   5.581
 6552SOL    HW120555   2.239   0.298   5.640
 6552SOL    HW220556   2.271   0.138   5.630
 6553SOL     OW20557   0.879   1.298   3.042
 6553SOL    HW120558   0.795   1.300   3.097
 6553SOL    HW220559   0.868   1.233   2.967
 6554SOL     OW20560   5.752   1.268   5.608
 6554SOL    HW120561   5.688   1.287   5.682
 6554SOL    HW220562   5.821   1.341   5.605
 6555SOL     OW20563   0.249   2.009   2.286
 6555SOL    HW120564   0.332   2.059   2.263
 6555SOL    HW220565   0.273   1.918   2.319
 6556SOL     OW20566   4.626   4.610   5.235
 6556SOL    HW120567   4.724   4.629   5.230
 6556SOL    HW220568   4.576   4.696   5.240
 6557SOL     OW20569   3.190   5.716   1.190
 6557SOL    HW120570   3.194   5.755   1.282
 6557SOL    HW220571   3.095   5.713   1.159
 6558SOL     OW20572   6.633   4.971   0.346
 6558SOL    HW120573   6.576   4.903   0.299
 6558SOL    HW220574   6.579   5.054   0.362
 6559SOL     OW20575   6.829   4.293   6.480
 6559SOL    HW120576   6.899   4.351   6.438
 6559SOL    HW220577   6.739   4.335   6.467
 6560SOL     OW20578   4.560   4.298   1.014
 6560SOL    HW120579   4.613   4.265   0.936
 6560SOL    HW220580   4.559   4.228   1.086
 6561SOL     OW20581   3.543   4.126   2.222
 6561SOL    HW120582   3.636   4.090   2.218
 6561SOL    HW220583   3.545   4.225   2.210
 6562SOL     OW20584   5.285   4.422   6.995
 6562SOL    HW120585   5.189   4.394   6.987
 6562SOL    HW220586   5.312   4.420   0.069
 6563SOL     OW20587   6.859   5.959   0.399
 6563SOL    HW120588   6.785   5.978   0.334
 6563SOL    HW220589   6.937   6.017   0.379
 6564SOL     OW20590   6.848   4.085   2.575
 6564SOL    HW120591   6.903   4.094   2.658
 6564SOL    HW220592   6.897   4.128   2.499
 6565SOL     OW20593   6.706   2.375   4.198
 6565SOL    HW120594   6.626   2.326   4.233
 6565SOL    HW220595   6.734   2.446   4.264
 6566SOL     OW20596   3.032   6.255   2.524
 6566SOL    HW120597   3.011   6.269   2.428
 6566SOL    HW220598   3.049   6.158   2.540
 6567SOL     OW20599   3.956   2.391   0.916
 6567SOL    HW120600   4.024   2.317   0.914
 6567SOL    HW220601   3.998   2.473   0.954
 6568SOL     OW20602   4.922   0.030   3.353
 6568SOL    HW120603   4.896   6.982   3.286
 6568SOL    HW220604   4.943   7.008   3.440
 6569SOL     OW20605   2.810   3.860   6.451
 6569SOL    HW120606   2.745   3.831   6.521
 6569SOL    HW220607   2.764   3.865   6.362
 6570SOL     OW20608   4.365   6.614   2.543
 6570SOL    HW120609   4.297   6.555   2.499
 6570SOL    HW220610   4.327   6.652   2.628
 6571SOL     OW20611   2.879   5.821   2.540
 6571SOL    HW120612   2.959   5.876   2.518
 6571SOL    HW220613   2.886   5.787   2.634
 6572SOL     OW20614   0.121   6.060   5.731
 6572SOL    HW120615   0.057   5.983   5.729
 6572SOL    HW220616   0.072   6.144   5.706
 6573SOL     OW20617   2.606   1.645   1.958
 6573SOL    HW120618   2.553   1.567   1.923
 6573SOL    HW220619   2.613   1.714   1.887
 6574SOL     OW20620   2.967   6.371   2.758
 6574SOL    HW120621   2.999   6.334   2.671
 6574SOL    HW220622   2.954   6.296   2.823
 6575SOL     OW20623   1.146   1.224   2.009
 6575SOL    HW120624   1.219   1.260   1.951
 6575SOL    HW220625   1.162   1.127   2.025
 6576SOL     OW20626   1.939   6.252   6.408
 6576SOL    HW120627   1.972   6.201   6.328
 6576SOL    HW220628   1.901   6.339   6.378
 6577SOL     OW20629   1.025   2.182   3.482
 6577SOL    HW120630   0.985   2.187   3.574
 6577SOL    HW220631   1.073   2.095   3.472
 6578SOL     OW20632   1.034   4.204   2.905
 6578SOL    HW120633   0.969   4.273   2.875
 6578SOL    HW220634   1.046   4.210   3.004
 6579SOL     OW20635   0.053   3.284   4.853
 6579SOL    HW120636   0.028   3.267   4.948
 6579SOL    HW220637   7.000   3.330   4.806
 6580SOL     OW20638   6.460   1.387   1.193
 6580SOL    HW120639   6.472   1.306   1.136
 6580SOL    HW220640   6.528   1.455   1.168
 6581SOL     OW20641   2.858   1.478   6.663
 6581SOL    HW120642   2.862   1.562   6.718
 6581SOL    HW220643   2.951   1.449   6.641
 6582SOL     OW20644   1.670   1.358   1.593
 6582SOL    HW120645   1.579   1.391   1.618
 6582SOL    HW220646   1.698   1.398   1.506
 6583SOL     OW20647   4.561   0.436   4.878
 6583SOL    HW120648   4.473   0.414   4.921
 6583SOL    HW220649   4.600   0.517   4.921
 6584SOL     OW20650   4.971   1.907   6.754
 6584SOL    HW120651   5.036   1.935   6.684
 6584SOL    HW220652   4.932   1.987   6.797
 6585SOL     OW20653   6.802   0.210   6.862
 6585SOL    HW120654   6.875   0.253   6.808
 6585SOL    HW220655   6.790   0.260   6.948
 6586SOL     OW20656   6.253   1.857   5.816
 6586SOL    HW120657   6.260   1.922   5.891
 6586SOL    HW220658   6.301   1.773   5.839
 6587SOL     OW20659   2.474   6.475   5.265
 6587SOL    HW120660   2.483   6.501   5.362
 6587SOL    HW220661   2.400   6.528   5.224
 6588SOL     OW20662   1.558   3.581   1.655
 6588SOL    HW120663   1.541   3.548   1.562
 6588SOL    HW220664   1.616   3.662   1.651
 6589SOL     OW20665   4.787   0.389   0.498
 6589SOL    HW120666   4.777   0.290   0.486
 6589SOL    HW220667   4.855   0.407   0.568
 6590SOL     OW20668   0.940   1.563   5.840
 6590SOL    HW120669   0.853   1.605   5.863
 6590SOL    HW220670   0.926   1.468   5.814
 6591SOL     OW20671   5.141   6.010   2.518
 6591SOL    HW120672   5.185   5.920   2.516
 6591SOL    HW220673   5.106   6.031   2.427
 6592SOL     OW20674   5.705   6.249   4.033
 6592SOL    HW120675   5.802   6.265   4.017
 6592SOL    HW220676   5.684   6.267   4.129
 6593SOL     OW20677   2.871   1.449   3.999
 6593SOL    HW120678   2.894   1.433   3.903
 6593SOL    HW220679   2.787   1.401   4.023
 6594SOL     OW20680   3.656   1.390   0.080
 6594SOL    HW120681   3.707   1.313   0.117
 6594SOL    HW220682   3.633   1.372   7.007
 6595SOL     OW20683   0.608   2.449   1.019
 6595SOL    HW120684   0.592   2.532   0.965
 6595SOL    HW220685   0.690   2.402   0.984
 6596SOL     OW20686   3.280   0.014   4.357
 6596SOL    HW120687   3.236   0.097   4.323
 6596SOL    HW220688   3.373   0.009   4.321
 6597SOL     OW20689   2.095   6.267   2.992
 6597SOL    HW120690   2.112   6.239   3.086
 6597SOL    HW220691   2.163   6.335   2.964
 6598SOL     OW20692   0.415   0.215   4.410
 6598SOL    HW120693   0.487   0.243   4.347
 6598SOL    HW220694   0.432   0.254   4.500
 6599SOL     OW20695   4.217   5.989   5.463
 6599SOL    HW120696   4.300   6.044   5.455
 6599SOL    HW220697   4.207   5.956   5.557
 6600SOL     OW20698   4.885   5.315   6.114
 6600SOL    HW120699   4.957   5.266   6.064
 6600SOL    HW220700   4.899   5.302   6.212
 6601SOL     OW20701   1.159   1.746   5.827
 6601SOL    HW120702   1.091   1.675   5.845
 6601SOL    HW220703   1.143   1.787   5.738
 6602SOL     OW20704   0.303   1.747   1.863
 6602SOL    HW120705   0.393   1.779   1.891
 6602SOL    HW220706   0.258   1.701   1.939
 6603SOL     OW20707   0.480   2.528   3.815
 6603SOL    HW120708   0.426   2.461   3.764
 6603SOL    HW220709   0.483   2.614   3.764
 6604SOL     OW20710   2.481   6.403   0.725
 6604SOL    HW120711   2.494   6.362   0.815
 6604SOL    HW220712   2.433   6.490   0.734
 6605SOL     OW20713   5.565   4.423   1.612
 6605SOL    HW120714   5.469   4.430   1.640
 6605SOL    HW220715   5.580   4.481   1.532
 6606SOL     OW20716   6.683   6.790   2.375
 6606SOL    HW120717   6.609   6.781   2.308
 6606SOL    HW220718   6.649   6.761   2.465
 6607SOL     OW20719   1.819   2.405   2.188
 6607SOL    HW120720   1.915   2.416   2.212
 6607SOL    HW220721   1.778   2.334   2.246
 6608SOL     OW20722   5.198   6.077   2.211
 6608SOL    HW120723   5.245   6.163   2.229
 6608SOL    HW220724   5.266   6.005   2.193
 6609SOL     OW20725   4.766   0.814   6.227
 6609SOL    HW120726   4.697   0.753   6.187
 6609SOL    HW220727   4.758   0.905   6.186
 6610SOL     OW20728   2.759   1.246   6.572
 6610SOL    HW120729   2.795   1.173   6.629
 6610SOL    HW220730   2.787   1.335   6.609
 6611SOL     OW20731   5.894   3.124   4.250
 6611SOL    HW120732   5.929   3.205   4.297
 6611SOL    HW220733   5.873   3.053   4.317
 6612SOL     OW20734   6.749   2.265   6.892
 6612SOL    HW120735   6.673   2.288   6.954
 6612SOL    HW220736   6.795   2.348   6.862
 6613SOL     OW20737   6.216   6.207   5.196
 6613SOL    HW120738   6.295   6.224   5.137
 6613SOL    HW220739   6.133   6.204   5.141
 6614SOL     OW20740   5.296   6.059   0.140
 6614SOL    HW120741   5.286   6.158   0.138
 6614SOL    HW220742   5.392   6.035   0.158
 6615SOL     OW20743   0.471   4.566   3.205
 6615SOL    HW120744   0.504   4.613   3.287
 6615SOL    HW220745   0.549   4.534   3.152
 6616SOL     OW20746   4.129   0.948   5.899
 6616SOL    HW120747   4.096   1.041   5.910
 6616SOL    HW220748   4.094   0.891   5.973
 6617SOL     OW20749   3.552   5.420   2.805
 6617SOL    HW120750   3.604   5.467   2.877
 6617SOL    HW220751   3.472   5.376   2.845
 6618SOL     OW20752   1.626   3.765   3.137
 6618SOL    HW120753   1.553   3.702   3.111
 6618SOL    HW220754   1.669   3.732   3.221
 6619SOL     OW20755   6.442   0.500   4.685
 6619SOL    HW120756   6.375   0.430   4.713
 6619SOL    HW220757   6.513   0.457   4.630
 6620SOL     OW20758   2.121   2.584   5.345
 6620SOL    HW120759   2.050   2.531   5.298
 6620SOL    HW220760   2.159   2.652   5.282
 6621SOL     OW20761   2.186   3.741   6.363
 6621SOL    HW120762   2.206   3.738   6.460
 6621SOL    HW220763   2.092   3.708   6.347
 6622SOL     OW20764   5.527   6.457   1.704
 6622SOL    HW120765   5.558   6.542   1.662
 6622SOL    HW220766   5.430   6.465   1.730
 6623SOL     OW20767   2.249   3.494   6.642
 6623SOL    HW120768   2.268   3.428   6.569
 6623SOL    HW220769   2.327   3.556   6.652
 6624SOL     OW20770   1.941   7.015   4.420
 6624SOL    HW120771   1.978   6.956   4.492
 6624SOL    HW220772   1.841   7.014   4.423
 6625SOL     OW20773   5.554   1.915   6.040
 6625SOL    HW120774   5.535   1.868   6.126
 6625SOL    HW220775   5.622   1.864   5.988
 6626SOL     OW20776   4.242   5.011   5.487
 6626SOL    HW120777   4.210   4.919   5.462
 6626SOL    HW220778   4.246   5.068   5.405
 6627SOL     OW20779   2.429   0.730   5.967
 6627SOL    HW120780   2.395   0.677   5.890
 6627SOL    HW220781   2.476   0.812   5.933
 6628SOL     OW20782   4.654   4.469   4.405
 6628SOL    HW120783   4.710   4.536   4.357
 6628SOL    HW220784   4.557   4.493   4.396
 6629SOL     OW20785   3.951   5.810   0.009
 6629SOL    HW120786   4.011   5.783   6.956
 6629SOL    HW220787   3.928   5.907   0.001
 6630SOL     OW20788   3.629   1.349   1.585
 6630SOL    HW120789   3.709   1.332   1.642
 6630SOL    HW220790   3.549   1.362   1.644
 6631SOL     OW20791   3.319   6.861   2.476
 6631SOL    HW120792   3.346   6.914   2.396
 6631SOL    HW220793   3.248   6.796   2.449
 6632SOL     OW20794   0.466   6.137   1.604
 6632SOL    HW120795   0.547   6.176   1.560
 6632SOL    HW220796   0.494   6.078   1.680
 6633SOL     OW20797   0.627   3.631   6.037
 6633SOL    HW120798   0.661   3.558   5.978
 6633SOL    HW220799   0.541   3.603   6.080
 6634SOL     OW20800   6.054   2.795   4.421
 6634SOL    HW120801   5.977   2.857   4.436
 6634SOL    HW220802   6.123   2.810   4.493
 6635SOL     OW20803   4.150   5.008   3.213
 6635SOL    HW120804   4.195   4.995   3.302
 6635SOL    HW220805   4.081   4.937   3.199
 6636SOL     OW20806   4.374   1.231   5.831
 6636SOL    HW120807   4.449   1.269   5.776
 6636SOL    HW220808   4.338   1.149   5.786
 6637SOL     OW20809   1.493   0.221   6.099
 6637SOL    HW120810   1.462   0.210   6.004
 6637SOL    HW220811   1.556   0.147   6.122
 6638SOL     OW20812   3.380   4.169   4.143
 6638SOL    HW120813   3.430   4.115   4.211
 6638SOL    HW220814   3.445   4.219   4.086
 6639SOL     OW20815   5.853   5.255   6.595
 6639SOL    HW120816   5.787   5.309   6.647
 6639SOL    HW220817   5.824   5.250   6.499
 6640SOL     OW20818   0.953   1.430   4.879
 6640SOL    HW120819   0.883   1.373   4.921
 6640SOL    HW220820   0.911   1.510   4.837
 6641SOL     OW20821   2.381   2.366   0.181
 6641SOL    HW120822   2.445   2.410   0.244
 6641SOL    HW220823   2.318   2.435   0.144
 6642SOL     OW20824   2.752   5.342   6.622
 6642SOL    HW120825   2.751   5.433   6.663
 6642SOL    HW220826   2.845   5.308   6.619
 6643SOL     OW20827   6.891   5.646   6.511
 6643SOL    HW120828   6.960   5.718   6.514
 6643SOL    HW220829   6.929   5.562   6.551
 6644SOL     OW20830   2.914   4.752   2.130
 6644SOL    HW120831   2.912   4.695   2.048
 6644SOL    HW220832   2.864   4.707   2.204
 6645SOL     OW20833   6.987   5.201   0.592
 6645SOL    HW120834   7.014   5.215   0.496
 6645SOL    HW220835   6.916   5.131   0.597
 6646SOL     OW20836   3.617   6.812   4.651
 6646SOL    HW120837   3.546   6.759   4.604
 6646SOL    HW220838   3.625   6.902   4.608
 6647SOL     OW20839   4.485   0.981   2.461
 6647SOL    HW120840   4.434   1.067   2.472
 6647SOL    HW220841   4.575   0.990   2.503
 6648SOL     OW20842   3.444   5.953   3.077
 6648SOL    HW120843   3.505   5.984   3.004
 6648SOL    HW220844   3.474   5.862   3.109
 6649SOL     OW20845   5.448   0.935   6.987
 6649SOL    HW120846   5.468   0.845   6.948
 6649SOL    HW220847   5.426   1.000   6.913
 6650SOL     OW20848   3.034   1.653   4.946
 6650SOL    HW120849   3.110   1.718   4.944
 6650SOL    HW220850   2.948   1.701   4.932
 6651SOL     OW20851   2.098   1.802   6.567
 6651SOL    HW120852   2.109   1.703   6.555
 6651SOL    HW220853   2.187   1.846   6.564
 6652SOL     OW20854   6.854   4.358   0.559
 6652SOL    HW120855   6.802   4.441   0.579
 6652SOL    HW220856   6.863   4.348   0.459
 6653SOL     OW20857   3.564   2.784   1.978
 6653SOL    HW120858   3.646   2.807   1.926
 6653SOL    HW220859   3.587   2.720   2.051
 6654SOL     OW20860   1.800   3.164   1.617
 6654SOL    HW120861   1.830   3.070   1.636
 6654SOL    HW220862   1.834   3.192   1.527
 6655SOL     OW20863   2.539   7.012   1.846
 6655SOL    HW120864   2.630   6.985   1.878
 6655SOL    HW220865   2.535   7.007   1.747
 6656SOL     OW20866   6.113   1.628   1.968
 6656SOL    HW120867   6.089   1.549   1.911
 6656SOL    HW220868   6.095   1.607   2.064
 6657SOL     OW20869   5.702   6.189   6.530
 6657SOL    HW120870   5.603   6.204   6.531
 6657SOL    HW220871   5.744   6.255   6.468
 6658SOL     OW20872   6.101   1.236   4.958
 6658SOL    HW120873   6.164   1.176   4.908
 6658SOL    HW220874   6.008   1.220   4.926
 6659SOL     OW20875   1.906   2.018   0.736
 6659SOL    HW120876   1.977   2.052   0.798
 6659SOL    HW220877   1.949   1.970   0.659
 6660SOL     OW20878   0.572   5.934   0.267
 6660SOL    HW120879   0.493   5.987   0.300
 6660SOL    HW220880   0.594   5.863   0.334
 6661SOL     OW20881   1.203   6.229   4.353
 6661SOL    HW120882   1.193   6.204   4.257
 6661SOL    HW220883   1.291   6.274   4.367
 6662SOL     OW20884   1.237   1.185   0.185
 6662SOL    HW120885   1.211   1.126   0.262
 6662SOL    HW220886   1.233   1.281   0.213
 6663SOL     OW20887   6.801   5.342   3.609
 6663SOL    HW120888   6.731   5.406   3.579
 6663SOL    HW220889   6.845   5.376   3.693
 6664SOL     OW20890   2.220   6.918   0.580
 6664SOL    HW120891   2.255   6.991   0.522
 6664SOL    HW220892   2.230   6.830   0.533
 6665SOL     OW20893   1.346   0.012   3.416
 6665SOL    HW120894   1.347   0.045   3.510
 6665SOL    HW220895   1.369   6.937   3.414
 6666SOL     OW20896   5.583   6.803   6.240
 6666SOL    HW120897   5.586   6.737   6.166
 6666SOL    HW220898   5.593   6.896   6.203
 6667SOL     OW20899   6.911   5.265   6.364
 6667SOL    HW120900   6.993   5.232   6.317
 6667SOL    HW220901   6.936   5.306   6.451
 6668SOL     OW20902   6.496   5.662   1.873
 6668SOL    HW120903   6.449   5.743   1.908
 6668SOL    HW220904   6.505   5.595   1.946
 6669SOL     OW20905   1.902   2.842   3.887
 6669SOL    HW120906   1.881   2.765   3.947
 6669SOL    HW220907   1.834   2.847   3.814
 6670SOL     OW20908   3.826   1.847   5.723
 6670SOL    HW120909   3.802   1.816   5.631
 6670SOL    HW220910   3.890   1.923   5.717
 6671SOL     OW20911   5.805   5.506   1.218
 6671SOL    HW120912   5.829   5.530   1.124
 6671SOL    HW220913   5.707   5.518   1.232
 6672SOL     OW20914   0.436   2.218   5.706
 6672SOL    HW120915   0.480   2.203   5.618
 6672SOL    HW220916   0.424   2.131   5.753
 6673SOL     OW20917   4.942   6.073   3.804
 6673SOL    HW120918   4.985   6.019   3.877
 6673SOL    HW220919   4.851   6.036   3.786
 6674SOL     OW20920   1.091   4.774   5.778
 6674SOL    HW120921   1.134   4.781   5.688
 6674SOL    HW220922   1.005   4.825   5.778
 6675SOL     OW20923   4.277   4.011   1.652
 6675SOL    HW120924   4.325   4.075   1.712
 6675SOL    HW220925   4.178   4.020   1.665
 6676SOL     OW20926   0.061   4.731   5.284
 6676SOL    HW120927   0.150   4.701   5.249
 6676SOL    HW220928   0.075   4.784   5.368
 6677SOL     OW20929   0.470   1.894   6.465
 6677SOL    HW120930   0.393   1.887   6.529
 6677SOL    HW220931   0.483   1.990   6.440
 6678SOL     OW20932   2.306   3.129   0.015
 6678SOL    HW120933   2.391   3.177   7.015
 6678SOL    HW220934   2.322   3.031   0.014
 6679SOL     OW20935   3.082   1.798   3.785
 6679SOL    HW120936   3.076   1.862   3.861
 6679SOL    HW220937   2.991   1.783   3.747
 6680SOL     OW20938   4.659   0.100   6.267
 6680SOL    HW120939   4.652   0.049   6.353
 6680SOL    HW220940   4.568   0.111   6.227
 6681SOL     OW20941   4.484   5.445   0.709
 6681SOL    HW120942   4.431   5.372   0.664
 6681SOL    HW220943   4.451   5.456   0.803
 6682SOL     OW20944   1.619   4.309   2.750
 6682SOL    HW120945   1.706   4.285   2.794
 6682SOL    HW220946   1.549   4.244   2.779
 6683SOL     OW20947   5.399   3.253   5.403
 6683SOL    HW120948   5.332   3.325   5.386
 6683SOL    HW220949   5.377   3.206   5.489
 6684SOL     OW20950   2.694   6.146   0.959
 6684SOL    HW120951   2.764   6.145   1.030
 6684SOL    HW220952   2.736   6.127   0.870
 6685SOL     OW20953   6.054   2.757   6.334
 6685SOL    HW120954   6.029   2.780   6.240
 6685SOL    HW220955   6.077   2.660   6.340
 6686SOL     OW20956   5.124   6.290   4.575
 6686SOL    HW120957   5.203   6.248   4.620
 6686SOL    HW220958   5.049   6.225   4.571
 6687SOL     OW20959   0.324   2.796   0.890
 6687SOL    HW120960   0.233   2.758   0.906
 6687SOL    HW220961   0.373   2.802   0.977
 6688SOL     OW20962   6.793   4.456   2.063
 6688SOL    HW120963   6.823   4.363   2.040
 6688SOL    HW220964   6.873   4.514   2.078
 6689SOL     OW20965   4.303   3.403   0.096
 6689SOL    HW120966   4.243   3.406   0.016
 6689SOL    HW220967   4.367   3.480   0.092
 6690SOL     OW20968   2.489   1.341   1.014
 6690SOL    HW120969   2.537   1.272   0.959
 6690SOL    HW220970   2.438   1.295   1.087
 6691SOL     OW20971   3.115   6.784   1.540
 6691SOL    HW120972   3.144   6.700   1.585
 6691SOL    HW220973   3.021   6.774   1.507
 6692SOL     OW20974   3.883   4.051   5.655
 6692SOL    HW120975   3.851   4.071   5.747
 6692SOL    HW220976   3.929   4.131   5.617
 6693SOL     OW20977   4.356   3.631   6.100
 6693SOL    HW120978   4.294   3.594   6.169
 6693SOL    HW220979   4.444   3.582   6.104
 6694SOL     OW20980   5.105   5.270   0.514
 6694SOL    HW120981   5.055   5.327   0.579
 6694SOL    HW220982   5.041   5.212   0.464
 6695SOL     OW20983   2.888   2.062   6.391
 6695SOL    HW120984   2.814   2.114   6.349
 6695SOL    HW220985   2.974   2.113   6.385
 6696SOL     OW20986   1.013   3.074   6.995
 6696SOL    HW120987   1.022   3.051   6.898
 6696SOL    HW220988   1.095   3.121   0.004
 6697SOL     OW20989   5.146   2.660   2.970
 6697SOL    HW120990   5.192   2.731   3.025
 6697SOL    HW220991   5.127   2.696   2.879
 6698SOL     OW20992   2.743   2.645   0.756
 6698SOL    HW120993   2.675   2.577   0.730
 6698SOL    HW220994   2.752   2.713   0.684
 6699SOL     OW20995   3.172   5.305   6.257
 6699SOL    HW120996   3.208   5.379   6.200
 6699SOL    HW220997   3.073   5.305   6.253
 6700SOL     OW20998   6.795   6.192   0.938
 6700SOL    HW120999   6.847   6.237   0.865
 6700SOL    HW221000   6.845   6.112   0.971
 6701SOL     OW21001   5.674   2.789   0.860
 6701SOL    HW121002   5.710   2.880   0.842
 6701SOL    HW221003   5.739   2.720   0.827
 6702SOL     OW21004   3.123   2.793   1.576
 6702SOL    HW121005   3.067   2.738   1.639
 6702SOL    HW221006   3.194   2.735   1.536
 6703SOL     OW21007   5.963   1.723   0.031
 6703SOL    HW121008   5.923   1.643   0.076
 6703SOL    HW221009   5.985   1.793   0.100
 6704SOL     OW21010   4.439   2.207   2.622
 6704SOL    HW121011   4.482   2.246   2.541
 6704SOL    HW221012   4.442   2.107   2.617
 6705SOL     OW21013   6.670   2.519   1.561
 6705SOL    HW121014   6.598   2.466   1.606
 6705SOL    HW221015   6.682   2.606   1.609
 6706SOL     OW21016   0.407   4.250   1.680
 6706SOL    HW121017   0.475   4.223   1.748
 6706SOL    HW221018   0.318   4.214   1.707
 6707SOL     OW21019   6.985   6.212   3.813
 6707SOL    HW121020   6.944   6.261   3.889
 6707SOL    HW221021   7.015   6.121   3.844
 6708SOL     OW21022   0.805   5.164   2.540
 6708SOL    HW121023   0.792   5.256   2.577
 6708SOL    HW221024   0.735   5.145   2.471
 6709SOL     OW21025   3.268   6.593   2.039
 6709SOL    HW121026   3.223   6.647   1.968
 6709SOL    HW221027   3.234   6.499   2.036
 6710SOL     OW21028   2.944   0.882   5.951
 6710SOL    HW121029   3.039   0.894   5.924
 6710SOL    HW221030   2.931   0.789   5.988
 6711SOL     OW21031   5.278   4.670   6.838
 6711SOL    HW121032   5.346   4.743   6.848
 6711SOL    HW221033   5.313   4.586   6.880
 6712SOL     OW21034   4.868   5.125   0.398
 6712SOL    HW121035   4.788   5.166   0.440
 6712SOL    HW221036   4.869   5.027   0.415
 6713SOL     OW21037   2.330   2.033   1.977
 6713SOL    HW121038   2.269   1.959   2.004
 6713SOL    HW221039   2.309   2.062   1.884
 6714SOL     OW21040   5.496   0.636   6.484
 6714SOL    HW121041   5.534   0.714   6.532
 6714SOL    HW221042   5.566   0.564   6.476
 6715SOL     OW21043   0.671   0.084   6.611
 6715SOL    HW121044   0.657   0.121   6.519
 6715SOL    HW221045   0.597   0.021   6.634
 6716SOL     OW21046   0.238   5.594   2.118
 6716SOL    HW121047   0.223   5.586   2.216
 6716SOL    HW221048   0.287   5.513   2.085
 6717SOL     OW21049   4.578   3.145   0.515
 6717SOL    HW121050   4.485   3.158   0.550
 6717SOL    HW221051   4.630   3.230   0.528
 6718SOL     OW21052   4.502   6.655   6.017
 6718SOL    HW121053   4.517   6.599   6.099
 6718SOL    HW221054   4.407   6.646   5.988
 6719SOL     OW21055   0.612   6.981   5.695
 6719SOL    HW121056   0.639   6.932   5.778
 6719SOL    HW221057   0.657   0.047   5.692
 6720SOL     OW21058   0.694   5.423   2.929
 6720SOL    HW121059   0.681   5.521   2.944
 6720SOL    HW221060   0.767   5.389   2.988
 6721SOL     OW21061   6.407   0.036   5.068
 6721SOL    HW121062   6.367   0.075   5.152
 6721SOL    HW221063   6.361   0.074   4.988
 6722SOL     OW21064   5.992   3.477   1.677
 6722SOL    HW121065   5.976   3.528   1.592
 6722SOL    HW221066   5.914   3.488   1.738
 6723SOL     OW21067   2.307   6.836   2.496
 6723SOL    HW121068   2.272   6.920   2.538
 6723SOL    HW221069   2.385   6.803   2.549
 6724SOL     OW21070   1.450   3.341   5.921
 6724SOL    HW121071   1.516   3.383   5.984
 6724SOL    HW221072   1.399   3.270   5.969
 6725SOL     OW21073   1.008   4.541   1.166
 6725SOL    HW121074   0.994   4.574   1.259
 6725SOL    HW221075   0.959   4.600   1.102
 6726SOL     OW21076   0.839   2.216   4.929
 6726SOL    HW121077   0.890   2.294   4.965
 6726SOL    HW221078   0.773   2.249   4.861
 6727SOL     OW21079   6.498   3.506   5.727
 6727SOL    HW121080   6.573   3.483   5.789
 6727SOL    HW221081   6.501   3.603   5.705
 6728SOL     OW21082   5.192   1.686   4.329
 6728SOL    HW121083   5.198   1.773   4.281
 6728SOL    HW221084   5.273   1.631   4.309
 6729SOL     OW21085   0.228   0.999   2.413
 6729SOL    HW121086   0.176   0.916   2.392
 6729SOL    HW221087   0.165   1.074   2.431
 6730SOL     OW21088   2.172   6.469   6.371
 6730SOL    HW121089   2.195   6.558   6.410
 6730SOL    HW221090   2.173   6.400   6.444
 6731SOL     OW21091   1.328   4.680   1.119
 6731SOL    HW121092   1.279   4.688   1.206
 6731SOL    HW221093   1.378   4.593   1.117
 6732SOL     OW21094   4.402   5.303   6.483
 6732SOL    HW121095   4.391   5.396   6.448
 6732SOL    HW221096   4.466   5.304   6.559
 6733SOL     OW21097   3.461   5.472   0.405
 6733SOL    HW121098   3.469   5.565   0.440
 6733SOL    HW221099   3.418   5.414   0.474
 6734SOL     OW21100   6.699   2.919   5.143
 6734SOL    HW121101   6.699   2.973   5.227
 6734SOL    HW221102   6.655   2.970   5.070
 6735SOL     OW21103   0.102   5.363   4.934
 6735SOL    HW121104   0.103   5.271   4.895
 6735SOL    HW221105   0.195   5.388   4.962
 6736SOL     OW21106   2.185   3.170   0.282
 6736SOL    HW121107   2.103   3.116   0.300
 6736SOL    HW221108   2.253   3.114   0.236
 6737SOL     OW21109   2.118   2.734   0.960
 6737SOL    HW121110   2.132   2.658   0.897
 6737SOL    HW221111   2.071   2.808   0.913
 6738SOL     OW21112   2.134   3.720   2.199
 6738SOL    HW121113   2.145   3.818   2.213
 6738SOL    HW221114   2.219   3.681   2.164
 6739SOL     OW21115   3.737   4.897   6.072
 6739SOL    HW121116   3.764   4.944   5.989
 6739SOL    HW221117   3.640   4.914   6.090
 6740SOL     OW21118   1.574   1.446   4.576
 6740SOL    HW121119   1.651   1.419   4.633
 6740SOL    HW221120   1.493   1.461   4.633
 6741SOL     OW21121   4.752   1.051   6.095
 6741SOL    HW121122   4.787   1.120   6.032
 6741SOL    HW221123   4.658   1.026   6.069
 6742SOL     OW21124   7.015   5.498   2.877
 6742SOL    HW121125   6.938   5.435   2.870
 6742SOL    HW221126   6.983   5.585   2.915
 6743SOL     OW21127   3.919   4.429   0.517
 6743SOL    HW121128   3.955   4.497   0.582
 6743SOL    HW221129   3.896   4.475   0.431
 6744SOL     OW21130   5.232   5.400   5.344
 6744SOL    HW121131   5.149   5.443   5.309
 6744SOL    HW221132   5.311   5.459   5.323
 6745SOL     OW21133   0.825   6.358   2.257
 6745SOL    HW121134   0.865   6.289   2.198
 6745SOL    HW221135   0.846   6.449   2.221
 6746SOL     OW21136   0.953   0.914   3.262
 6746SOL    HW121137   1.040   0.926   3.213
 6746SOL    HW221138   0.877   0.925   3.199
 6747SOL     OW21139   5.490   0.114   4.818
 6747SOL    HW121140   5.417   0.049   4.800
 6747SOL    HW221141   5.532   0.094   4.907
 6748SOL     OW21142   1.314   0.671   2.936
 6748SOL    HW121143   1.322   0.751   2.878
 6748SOL    HW221144   1.357   0.689   3.025
 6749SOL     OW21145   2.774   5.846   0.359
 6749SOL    HW121146   2.738   5.758   0.388
 6749SOL    HW221147   2.836   5.833   0.282
 6750SOL     OW21148   4.035   1.161   4.738
 6750SOL    HW121149   4.133   1.142   4.732
 6750SOL    HW221150   3.986   1.106   4.670
 6751SOL     OW21151   4.062   1.656   4.255
 6751SOL    HW121152   4.124   1.702   4.318
 6751SOL    HW221153   4.096   1.664   4.161
 6752SOL     OW21154   6.391   3.473   2.138
 6752SOL    HW121155   6.405   3.478   2.237
 6752SOL    HW221156   6.480   3.475   2.092
 6753SOL     OW21157   4.714   0.865   6.707
 6753SOL    HW121158   4.767   0.852   6.790
 6753SOL    HW221159   4.767   0.833   6.628
 6754SOL     OW21160   6.418   1.894   6.066
 6754SOL    HW121161   6.487   1.835   6.025
 6754SOL    HW221162   6.410   1.873   6.163
 6755SOL     OW21163   4.663   1.858   3.629
 6755SOL    HW121164   4.689   1.945   3.671
 6755SOL    HW221165   4.663   1.867   3.530
 6756SOL     OW21166   4.733   4.311   4.622
 6756SOL    HW121167   4.650   4.341   4.668
 6756SOL    HW221168   4.724   4.324   4.523
 6757SOL     OW21169   4.892   6.149   0.644
 6757SOL    HW121170   4.892   6.246   0.620
 6757SOL    HW221171   4.870   6.094   0.564
 6758SOL     OW21172   6.236   3.739   1.357
 6758SOL    HW121173   6.324   3.739   1.406
 6758SOL    HW221174   6.221   3.650   1.315
 6759SOL     OW21175   1.196   3.620   4.517
 6759SOL    HW121176   1.289   3.611   4.552
 6759SOL    HW221177   1.153   3.530   4.513
 6760SOL     OW21178   6.657   5.174   4.521
 6760SOL    HW121179   6.635   5.198   4.615
 6760SOL    HW221180   6.580   5.125   4.480
 6761SOL     OW21181   5.752   2.521   6.285
 6761SOL    HW121182   5.774   2.481   6.374
 6761SOL    HW221183   5.764   2.620   6.289
 6762SOL     OW21184   6.936   5.469   3.344
 6762SOL    HW121185   6.886   5.555   3.353
 6762SOL    HW221186   6.873   5.398   3.313
 6763SOL     OW21187   6.543   5.888   3.802
 6763SOL    HW121188   6.532   5.910   3.899
 6763SOL    HW221189   6.612   5.948   3.761
 6764SOL     OW21190   2.638   5.085   6.663
 6764SOL    HW121191   2.662   5.180   6.646
 6764SOL    HW221192   2.677   5.027   6.592
 6765SOL     OW21193   5.112   5.356   3.207
 6765SOL    HW121194   5.149   5.392   3.292
 6765SOL    HW221195   5.180   5.298   3.163
 6766SOL     OW21196   3.486   6.624   6.882
 6766SOL    HW121197   3.475   6.588   6.789
 6766SOL    HW221198   3.473   6.723   6.880
 6767SOL     OW21199   0.512   2.234   1.142
 6767SOL    HW121200   0.471   2.179   1.069
 6767SOL    HW221201   0.541   2.322   1.104
 6768SOL     OW21202   1.009   0.054   3.855
 6768SOL    HW121203   1.087   0.112   3.828
 6768SOL    HW221204   0.959   0.097   3.930
 6769SOL     OW21205   2.915   1.204   5.224
 6769SOL    HW121206   2.976   1.266   5.175
 6769SOL    HW221207   2.966   1.157   5.296
 6770SOL     OW21208   6.684   2.175   3.536
 6770SOL    HW121209   6.700   2.077   3.529
 6770SOL    HW221210   6.692   2.203   3.632
 6771SOL     OW21211   3.992   2.157   3.614
 6771SOL    HW121212   4.023   2.234   3.557
 6771SOL    HW221213   4.040   2.074   3.587
 6772SOL     OW21214   5.517   1.444   2.004
 6772SOL    HW121215   5.517   1.355   1.959
 6772SOL    HW221216   5.592   1.500   1.966
 6773SOL     OW21217   0.328   6.742   1.468
 6773SOL    HW121218   0.279   6.677   1.410
 6773SOL    HW221219   0.331   6.832   1.422
 6774SOL     OW21220   2.057   2.109   5.205
 6774SOL    HW121221   2.149   2.145   5.218
 6774SOL    HW221222   2.009   2.107   5.293
 6775SOL     OW21223   0.784   1.943   3.481
 6775SOL    HW121224   0.814   2.038   3.492
 6775SOL    HW221225   0.686   1.940   3.466
 6776SOL     OW21226   4.045   3.825   2.192
 6776SOL    HW121227   3.951   3.858   2.193
 6776SOL    HW221228   4.107   3.899   2.166
 6777SOL     OW21229   4.361   4.984   1.027
 6777SOL    HW121230   4.328   4.905   0.975
 6777SOL    HW221231   4.433   4.955   1.091
 6778SOL     OW21232   5.842   3.291   2.141
 6778SOL    HW121233   5.867   3.201   2.104
 6778SOL    HW221234   5.920   3.329   2.190
 6779SOL     OW21235   5.187   4.460   6.280
 6779SOL    HW121236   5.091   4.443   6.257
 6779SOL    HW221237   5.198   4.461   6.380
 6780SOL     OW21238   1.841   3.545   2.493
 6780SOL    HW121239   1.925   3.588   2.525
 6780SOL    HW221240   1.803   3.487   2.565
 6781SOL     OW21241   6.676   1.159   3.283
 6781SOL    HW121242   6.752   1.222   3.272
 6781SOL    HW221243   6.641   1.132   3.193
 6782SOL     OW21244   1.119   0.864   3.517
 6782SOL    HW121245   1.149   0.950   3.476
 6782SOL    HW221246   1.124   0.791   3.450
 6783SOL     OW21247   0.830   4.135   4.753
 6783SOL    HW121248   0.786   4.115   4.840
 6783SOL    HW221249   0.895   4.063   4.731
 6784SOL     OW21250   2.735   4.126   1.700
 6784SOL    HW121251   2.644   4.152   1.666
 6784SOL    HW221252   2.802   4.195   1.673
 6785SOL     OW21253   5.710   4.813   5.493
 6785SOL    HW121254   5.790   4.852   5.449
 6785SOL    HW221255   5.730   4.793   5.589
 6786SOL     OW21256   6.814   2.770   0.375
 6786SOL    HW121257   6.783   2.711   0.301
 6786SOL    HW221258   6.741   2.781   0.442
 6787SOL     OW21259   3.158   2.411   1.463
 6787SOL    HW121260   3.077   2.433   1.517
 6787SOL    HW221261   3.203   2.331   1.502
 6788SOL     OW21262   0.267   3.701   2.403
 6788SOL    HW121263   0.189   3.718   2.342
 6788SOL    HW221264   0.296   3.786   2.446
 6789SOL     OW21265   0.185   4.765   4.570
 6789SOL    HW121266   0.186   4.665   4.563
 6789SOL    HW221267   0.143   4.803   4.488
 6790SOL     OW21268   0.244   4.653   6.130
 6790SOL    HW121269   0.291   4.675   6.044
 6790SOL    HW221270   0.231   4.736   6.184
 6791SOL     OW21271   4.881   2.031   3.303
 6791SOL    HW121272   4.899   2.063   3.210
 6791SOL    HW221273   4.832   1.944   3.298
 6792SOL     OW21274   4.013   6.695   5.557
 6792SOL    HW121275   4.086   6.750   5.597
 6792SOL    HW221276   3.929   6.748   5.552
 6793SOL     OW21277   3.212   1.987   7.004
 6793SOL    HW121278   3.302   1.972   0.022
 6793SOL    HW221279   3.184   1.905   6.954
 6794SOL     OW21280   4.974   1.063   5.690
 6794SOL    HW121281   4.892   1.009   5.667
 6794SOL    HW221282   4.996   1.052   5.786
 6795SOL     OW21283   1.229   0.176   0.822
 6795SOL    HW121284   1.161   0.186   0.749
 6795SOL    HW221285   1.184   0.178   0.911
 6796SOL     OW21286   5.498   1.155   2.014
 6796SOL    HW121287   5.407   1.193   2.033
 6796SOL    HW221288   5.493   1.056   2.012
 6797SOL     OW21289   6.509   2.630   1.350
 6797SOL    HW121290   6.412   2.608   1.337
 6797SOL    HW221291   6.545   2.574   1.424
 6798SOL     OW21292   5.174   6.677   1.465
 6798SOL    HW121293   5.199   6.773   1.479
 6798SOL    HW221294   5.075   6.669   1.456
 6799SOL     OW21295   5.583   0.753   2.738
 6799SOL    HW121296   5.653   0.813   2.701
 6799SOL    HW221297   5.510   0.742   2.671
 6800SOL     OW21298   1.998   1.914   1.421
 6800SOL    HW121299   1.992   1.896   1.519
 6800SOL    HW221300   2.037   1.833   1.375
 6801SOL     OW21301   1.459   6.303   4.387
 6801SOL    HW121302   1.535   6.255   4.343
 6801SOL    HW221303   1.475   6.306   4.486
 6802SOL     OW21304   3.562   6.391   1.162
 6802SOL    HW121305   3.533   6.466   1.222
 6802SOL    HW221306   3.592   6.428   1.075
 6803SOL     OW21307   5.057   4.311   6.868
 6803SOL    HW121308   5.109   4.226   6.852
 6803SOL    HW221309   5.076   4.375   6.793
 6804SOL     OW21310   2.922   5.222   2.971
 6804SOL    HW121311   2.833   5.242   3.013
 6804SOL    HW221312   2.978   5.172   3.036
 6805SOL     OW21313   0.280   4.732   6.455
 6805SOL    HW121314   0.336   4.702   6.378
 6805SOL    HW221315   0.331   4.720   6.540
 6806SOL     OW21316   6.805   1.290   4.279
 6806SOL    HW121317   6.847   1.199   4.286
 6806SOL    HW221318   6.736   1.301   4.351
 6807SOL     OW21319   3.760   2.969   3.597
 6807SOL    HW121320   3.779   2.924   3.685
 6807SOL    HW221321   3.845   2.992   3.551
 6808SOL     OW21322   5.335   1.075   5.100
 6808SOL    HW121323   5.310   1.156   5.152
 6808SOL    HW221324   5.406   1.024   5.150
 6809SOL     OW21325   6.624   4.254   1.064
 6809SOL    HW121326   6.708   4.210   1.095
 6809SOL    HW221327   6.621   4.255   0.964
 6810SOL     OW21328   3.410   1.055   3.218
 6810SOL    HW121329   3.483   1.124   3.221
 6810SOL    HW221330   3.368   1.047   3.308
 6811SOL     OW21331   6.356   2.641   2.446
 6811SOL    HW121332   6.322   2.596   2.364
 6811SOL    HW221333   6.281   2.655   2.510
 6812SOL     OW21334   3.419   3.587   4.425
 6812SOL    HW121335   3.371   3.510   4.468
 6812SOL    HW221336   3.362   3.627   4.353
 6813SOL     OW21337   5.247   3.656   2.033
 6813SOL    HW121338   5.298   3.742   2.030
 6813SOL    HW221339   5.300   3.587   2.082
 6814SOL     OW21340   4.426   1.304   6.712
 6814SOL    HW121341   4.426   1.303   6.812
 6814SOL    HW221342   4.495   1.240   6.678
 6815SOL     OW21343   1.537   5.297   6.662
 6815SOL    HW121344   1.548   5.264   6.568
 6815SOL    HW221345   1.454   5.353   6.668
 6816SOL     OW21346   6.737   1.880   4.514
 6816SOL    HW121347   6.706   1.785   4.507
 6816SOL    HW221348   6.836   1.884   4.497
 6817SOL     OW21349   2.945   2.227   3.845
 6817SOL    HW121350   2.867   2.175   3.813
 6817SOL    HW221351   2.914   2.317   3.877
 6818SOL     OW21352   2.216   6.169   6.020
 6818SOL    HW121353   2.213   6.077   5.980
 6818SOL    HW221354   2.157   6.173   6.100
 6819SOL     OW21355   4.819   6.010   2.997
 6819SOL    HW121356   4.879   5.970   2.928
 6819SOL    HW221357   4.784   6.098   2.964
 6820SOL     OW21358   1.541   6.133   1.493
 6820SOL    HW121359   1.478   6.146   1.570
 6820SOL    HW221360   1.612   6.203   1.497
 6821SOL     OW21361   4.745   2.383   5.743
 6821SOL    HW121362   4.758   2.419   5.651
 6821SOL    HW221363   4.798   2.437   5.808
 6822SOL     OW21364   6.989   2.501   6.541
 6822SOL    HW121365   6.988   2.555   6.457
 6822SOL    HW221366   0.040   2.535   6.601
 6823SOL     OW21367   5.291   3.718   6.249
 6823SOL    HW121368   5.270   3.671   6.335
 6823SOL    HW221369   5.376   3.769   6.259
 6824SOL     OW21370   1.326   1.825   0.113
 6824SOL    HW121371   1.283   1.803   0.201
 6824SOL    HW221372   1.366   1.741   0.074
 6825SOL     OW21373   6.419   6.234   0.484
 6825SOL    HW121374   6.467   6.153   0.519
 6825SOL    HW221375   6.380   6.212   0.394
 6826SOL     OW21376   0.328   3.146   3.273
 6826SOL    HW121377   0.229   3.145   3.257
 6826SOL    HW221378   0.375   3.094   3.202
 6827SOL     OW21379   5.068   5.025   5.585
 6827SOL    HW121380   5.056   5.039   5.486
 6827SOL    HW221381   5.153   4.976   5.602
 6828SOL     OW21382   3.198   1.421   2.788
 6828SOL    HW121383   3.244   1.339   2.755
 6828SOL    HW221384   3.265   1.490   2.813
 6829SOL     OW21385   5.054   0.134   5.402
 6829SOL    HW121386   5.004   0.061   5.356
 6829SOL    HW221387   5.127   0.094   5.458
 6830SOL     OW21388   6.172   1.534   3.170
 6830SOL    HW121389   6.135   1.520   3.262
 6830SOL    HW221390   6.232   1.458   3.146
 6831SOL     OW21391   0.960   1.288   5.831
 6831SOL    HW121392   1.054   1.254   5.831
 6831SOL    HW221393   0.898   1.214   5.859
 6832SOL     OW21394   2.543   3.210   6.926
 6832SOL    HW121395   2.503   3.264   6.851
 6832SOL    HW221396   2.603   3.140   6.889
 6833SOL     OW21397   3.558   5.761   6.020
 6833SOL    HW121398   3.521   5.676   5.983
 6833SOL    HW221399   3.560   5.831   5.949
 6834SOL     OW21400   5.142   0.061   0.785
 6834SOL    HW121401   5.131   0.127   0.710
 6834SOL    HW221402   5.052   0.039   0.823
 6835SOL     OW21403   3.627   1.533   5.104
 6835SOL    HW121404   3.615   1.468   5.028
 6835SOL    HW221405   3.643   1.625   5.067
 6836SOL     OW21406   1.916   4.392   6.746
 6836SOL    HW121407   1.829   4.427   6.780
 6836SOL    HW221408   1.990   4.420   6.808
 6837SOL     OW21409   1.328   1.317   2.757
 6837SOL    HW121410   1.306   1.406   2.718
 6837SOL    HW221411   1.274   1.303   2.840
 6838SOL     OW21412   3.040   4.319   5.262
 6838SOL    HW121413   2.992   4.310   5.350
 6838SOL    HW221414   3.024   4.411   5.226
 6839SOL     OW21415   5.403   2.103   3.570
 6839SOL    HW121416   5.468   2.053   3.513
 6839SOL    HW221417   5.346   2.162   3.512
 6840SOL     OW21418   2.379   6.528   4.853
 6840SOL    HW121419   2.374   6.552   4.950
 6840SOL    HW221420   2.287   6.516   4.817
 6841SOL     OW21421   4.249   5.212   1.604
 6841SOL    HW121422   4.282   5.218   1.699
 6841SOL    HW221423   4.245   5.116   1.577
 6842SOL     OW21424   1.018   2.516   6.887
 6842SOL    HW121425   1.039   2.602   6.842
 6842SOL    HW221426   0.985   2.450   6.820
 6843SOL     OW21427   5.006   1.040   1.733
 6843SOL    HW121428   4.938   1.018   1.662
 6843SOL    HW221429   4.960   1.082   1.811
 6844SOL     OW21430   5.394   5.749   4.337
 6844SOL    HW121431   5.307   5.712   4.370
 6844SOL    HW221432   5.449   5.780   4.415
 6845SOL     OW21433   4.738   4.267   2.180
 6845SOL    HW121434   4.676   4.343   2.197
 6845SOL    HW221435   4.686   4.184   2.164
 6846SOL     OW21436   3.948   3.095   0.928
 6846SOL    HW121437   4.037   3.140   0.928
 6846SOL    HW221438   3.896   3.123   0.848
 6847SOL     OW21439   5.084   4.034   2.224
 6847SOL    HW121440   5.133   4.066   2.304
 6847SOL    HW221441   5.140   3.968   2.173
 6848SOL     OW21442   1.152   5.008   3.946
 6848SOL    HW121443   1.210   5.058   4.010
 6848SOL    HW221444   1.093   5.072   3.898
 6849SOL     OW21445   3.367   5.961   4.354
 6849SOL    HW121446   3.458   5.954   4.314
 6849SOL    HW221447   3.374   5.992   4.449
 6850SOL     OW21448   5.785   2.627   2.650
 6850SOL    HW121449   5.822   2.534   2.638
 6850SOL    HW221450   5.839   2.675   2.719
 6851SOL     OW21451   1.521   4.586   4.866
 6851SOL    HW121452   1.441   4.630   4.906
 6851SOL    HW221453   1.604   4.622   4.909
 6852SOL     OW21454   1.310   4.376   1.071
 6852SOL    HW121455   1.329   4.369   1.169
 6852SOL    HW221456   1.215   4.350   1.053
 6853SOL     OW21457   6.854   4.712   6.858
 6853SOL    HW121458   6.794   4.637   6.829
 6853SOL    HW221459   6.798   4.793   6.879
 6854SOL     OW21460   5.808   0.828   5.903
 6854SOL    HW121461   5.853   0.917   5.897
 6854SOL    HW221462   5.756   0.823   5.988
 6855SOL     OW21463   3.062   6.582   3.206
 6855SOL    HW121464   3.093   6.543   3.293
 6855SOL    HW221465   3.139   6.588   3.143
 6856SOL     OW21466   5.143   4.797   5.250
 6856SOL    HW121467   5.188   4.750   5.327
 6856SOL    HW221468   5.046   4.770   5.248
 6857SOL     OW21469   3.333   0.930   6.385
 6857SOL    HW121470   3.269   0.888   6.450
 6857SOL    HW221471   3.380   1.006   6.428
 6858SOL     OW21472   4.055   3.305   4.874
 6858SOL    HW121473   3.994   3.383   4.864
 6858SOL    HW221474   4.019   3.228   4.821
 6859SOL     OW21475   1.603   6.443   1.248
 6859SOL    HW121476   1.559   6.518   1.197
 6859SOL    HW221477   1.536   6.401   1.309
 6860SOL     OW21478   6.000   5.094   1.953
 6860SOL    HW121479   5.978   4.998   1.933
 6860SOL    HW221480   6.080   5.121   1.899
 6861SOL     OW21481   5.803   4.127   1.062
 6861SOL    HW121482   5.724   4.066   1.054
 6861SOL    HW221483   5.774   4.214   1.101
 6862SOL     OW21484   2.666   4.779   4.646
 6862SOL    HW121485   2.681   4.682   4.627
 6862SOL    HW221486   2.739   4.813   4.705
 6863SOL     OW21487   5.826   1.293   5.239
 6863SOL    HW121488   5.761   1.338   5.301
 6863SOL    HW221489   5.780   1.217   5.192
 6864SOL     OW21490   3.631   5.908   4.238
 6864SOL    HW121491   3.658   5.838   4.172
 6864SOL    HW221492   3.711   5.939   4.288
 6865SOL     OW21493   6.554   4.947   3.461
 6865SOL    HW121494   6.496   4.883   3.511
 6865SOL    HW221495   6.641   4.958   3.510
 6866SOL     OW21496   6.259   4.625   2.072
 6866SOL    HW121497   6.165   4.616   2.039
 6866SOL    HW221498   6.306   4.696   2.019
 6867SOL     OW21499   1.065   4.921   1.114
 6867SOL    HW121500   0.985   4.971   1.082
 6867SOL    HW221501   1.040   4.865   1.193
 6868SOL     OW21502   1.769   5.363   5.339
 6868SOL    HW121503   1.842   5.399   5.396
 6868SOL    HW221504   1.789   5.268   5.314
 6869SOL     OW21505   5.542   2.653   5.527
 6869SOL    HW121506   5.570   2.569   5.480
 6869SOL    HW221507   5.544   2.729   5.462
 6870SOL     OW21508   6.328   3.950   2.952
 6870SOL    HW121509   6.339   3.858   2.916
 6870SOL    HW221510   6.301   4.012   2.878
 6871SOL     OW21511   6.294   5.006   2.064
 6871SOL    HW121512   6.296   4.941   1.987
 6871SOL    HW221513   6.380   5.058   2.065
 6872SOL     OW21514   2.288   3.593   0.892
 6872SOL    HW121515   2.200   3.640   0.892
 6872SOL    HW221516   2.338   3.617   0.976
 6873SOL     OW21517   6.066   3.301   5.684
 6873SOL    HW121518   6.134   3.239   5.722
 6873SOL    HW221519   5.982   3.251   5.663
 6874SOL     OW21520   0.922   3.666   3.779
 6874SOL    HW121521   0.986   3.722   3.831
 6874SOL    HW221522   0.833   3.663   3.825
 6875SOL     OW21523   1.875   2.194   3.822
 6875SOL    HW121524   1.883   2.189   3.922
 6875SOL    HW221525   1.966   2.211   3.783
 6876SOL     OW21526   3.679   5.175   6.638
 6876SOL    HW121527   3.742   5.169   6.715
 6876SOL    HW221528   3.584   5.171   6.671
 6877SOL     OW21529   2.609   4.195   6.982
 6877SOL    HW121530   2.608   4.257   6.904
 6877SOL    HW221531   2.665   4.115   6.961
 6878SOL     OW21532   2.409   1.642   5.379
 6878SOL    HW121533   2.447   1.732   5.354
 6878SOL    HW221534   2.330   1.623   5.321
 6879SOL     OW21535   1.101   2.322   0.198
 6879SOL    HW121536   1.066   2.337   0.291
 6879SOL    HW221537   1.117   2.410   0.154
 6880SOL     OW21538   2.206   3.421   5.195
 6880SOL    HW121539   2.172   3.481   5.123
 6880SOL    HW221540   2.172   3.328   5.179
 6881SOL     OW21541   6.572   4.432   2.262
 6881SOL    HW121542   6.661   4.404   2.226
 6881SOL    HW221543   6.502   4.369   2.230
 6882SOL     OW21544   1.909   0.242   6.046
 6882SOL    HW121545   1.942   0.153   6.076
 6882SOL    HW221546   1.986   0.296   6.011
 6883SOL     OW21547   3.775   1.123   1.102
 6883SOL    HW121548   3.790   1.220   1.085
 6883SOL    HW221549   3.684   1.097   1.068
 6884SOL     OW21550   2.092   3.881   4.097
 6884SOL    HW121551   2.091   3.939   4.016
 6884SOL    HW221552   2.132   3.932   4.174
 6885SOL     OW21553   2.945   5.284   4.040
 6885SOL    HW121554   3.031   5.326   4.012
 6885SOL    HW221555   2.962   5.218   4.114
 6886SOL     OW21556   6.659   0.910   2.700
 6886SOL    HW121557   6.692   0.987   2.755
 6886SOL    HW221558   6.654   0.828   2.757
 6887SOL     OW21559   5.611   0.057   5.454
 6887SOL    HW121560   5.567   6.997   5.417
 6887SOL    HW221561   5.603   0.057   5.553
 6888SOL     OW21562   5.781   6.379   6.351
 6888SOL    HW121563   5.839   6.427   6.417
 6888SOL    HW221564   5.818   6.391   6.259
 6889SOL     OW21565   0.917   2.832   5.592
 6889SOL    HW121566   0.817   2.831   5.593
 6889SOL    HW221567   0.951   2.836   5.686
 6890SOL     OW21568   2.531   6.168   0.591
 6890SOL    HW121569   2.507   6.253   0.639
 6890SOL    HW221570   2.629   6.169   0.570
 6891SOL     OW21571   1.991   3.846   4.747
 6891SOL    HW121572   1.970   3.827   4.843
 6891SOL    HW221573   1.934   3.789   4.688
 6892SOL     OW21574   3.889   0.474   4.051
 6892SOL    HW121575   3.948   0.520   4.117
 6892SOL    HW221576   3.795   0.473   4.086
 6893SOL     OW21577   5.894   6.537   1.566
 6893SOL    HW121578   5.885   6.594   1.485
 6893SOL    HW221579   5.804   6.526   1.609
 6894SOL     OW21580   6.171   5.899   0.105
 6894SOL    HW121581   6.073   5.897   0.126
 6894SOL    HW221582   6.183   5.910   0.006
 6895SOL     OW21583   2.910   5.287   0.120
 6895SOL    HW121584   2.912   5.266   0.022
 6895SOL    HW221585   3.003   5.286   0.155
 6896SOL     OW21586   3.487   6.856   4.008
 6896SOL    HW121587   3.422   6.790   3.970
 6896SOL    HW221588   3.481   6.941   3.957
 6897SOL     OW21589   2.966   3.765   0.035
 6897SOL    HW121590   3.026   3.835   0.073
 6897SOL    HW221591   2.964   3.685   0.094
 6898SOL     OW21592   3.425   1.966   1.787
 6898SOL    HW121593   3.488   1.888   1.785
 6898SOL    HW221594   3.472   2.047   1.752
 6899SOL     OW21595   4.816   6.759   6.909
 6899SOL    HW121596   4.871   6.679   6.932
 6899SOL    HW221597   4.739   6.766   6.972
 6900SOL     OW21598   6.251   0.430   6.292
 6900SOL    HW121599   6.225   0.514   6.245
 6900SOL    HW221600   6.193   0.418   6.373
 6901SOL     OW21601   0.630   0.146   6.327
 6901SOL    HW121602   0.568   0.100   6.264
 6901SOL    HW221603   0.684   0.214   6.276
 6902SOL     OW21604   0.262   6.107   0.819
 6902SOL    HW121605   0.349   6.126   0.775
 6902SOL    HW221606   0.188   6.112   0.751
 6903SOL     OW21607   3.333   3.783   6.514
 6903SOL    HW121608   3.427   3.763   6.485
 6903SOL    HW221609   3.295   3.856   6.457
 6904SOL     OW21610   0.072   1.417   3.662
 6904SOL    HW121611   0.089   1.365   3.746
 6904SOL    HW221612   0.060   1.513   3.685
 6905SOL     OW21613   6.690   6.532   6.665
 6905SOL    HW121614   6.596   6.559   6.644
 6905SOL    HW221615   6.699   6.433   6.657
 6906SOL     OW21616   4.254   1.176   3.947
 6906SOL    HW121617   4.344   1.140   3.972
 6906SOL    HW221618   4.183   1.111   3.974
 6907SOL     OW21619   4.583   1.866   0.981
 6907SOL    HW121620   4.644   1.792   1.011
 6907SOL    HW221621   4.488   1.836   0.988
 6908SOL     OW21622   1.090   0.007   5.193
 6908SOL    HW121623   1.088   6.930   5.182
 6908SOL    HW221624   1.051   0.032   5.281
 6909SOL     OW21625   5.056   5.068   1.330
 6909SOL    HW121626   5.080   5.115   1.415
 6909SOL    HW221627   5.127   5.086   1.262
 6910SOL     OW21628   6.436   2.350   2.674
 6910SOL    HW121629   6.425   2.290   2.753
 6910SOL    HW221630   6.376   2.320   2.601
 6911SOL     OW21631   3.680   0.551   3.133
 6911SOL    HW121632   3.724   0.640   3.142
 6911SOL    HW221633   3.616   0.553   3.056
 6912SOL     OW21634   4.898   5.112   1.665
 6912SOL    HW121635   4.956   5.181   1.708
 6912SOL    HW221636   4.830   5.079   1.731
 6913SOL     OW21637   4.876   4.414   5.410
 6913SOL    HW121638   4.958   4.414   5.466
 6913SOL    HW221639   4.804   4.465   5.457
 6914SOL     OW21640   6.012   5.023   6.721
 6914SOL    HW121641   6.061   4.984   6.643
 6914SOL    HW221642   6.026   5.122   6.724
 6915SOL     OW21643   0.026   4.777   1.867
 6915SOL    HW121644   0.054   4.863   1.909
 6915SOL    HW221645   6.995   4.795   1.785
 6916SOL     OW21646   6.313   4.058   6.863
 6916SOL    HW121647   6.361   3.981   6.904
 6916SOL    HW221648   6.368   4.096   6.788
 6917SOL     OW21649   3.854   5.109   0.246
 6917SOL    HW121650   3.909   5.190   0.225
 6917SOL    HW221651   3.786   5.096   0.174
 6918SOL     OW21652   0.405   4.329   4.462
 6918SOL    HW121653   0.459   4.357   4.541
 6918SOL    HW221654   0.456   4.348   4.378
 6919SOL     OW21655   1.043   5.871   2.650
 6919SOL    HW121656   1.101   5.832   2.579
 6919SOL    HW221657   1.030   5.969   2.633
 6920SOL     OW21658   4.612   5.179   5.501
 6920SOL    HW121659   4.628   5.098   5.557
 6920SOL    HW221660   4.514   5.199   5.499
 6921SOL     OW21661   4.936   5.757   3.229
 6921SOL    HW121662   4.855   5.765   3.287
 6921SOL    HW221663   4.913   5.703   3.147
 6922SOL     OW21664   1.749   5.663   6.869
 6922SOL    HW121665   1.762   5.641   6.966
 6922SOL    HW221666   1.810   5.606   6.814
 6923SOL     OW21667   5.583   6.725   3.494
 6923SOL    HW121668   5.523   6.680   3.559
 6923SOL    HW221669   5.673   6.680   3.495
 6924SOL     OW21670   0.850   4.180   6.863
 6924SOL    HW121671   0.922   4.219   6.920
 6924SOL    HW221672   0.784   4.132   6.921
 6925SOL     OW21673   3.852   6.156   4.048
 6925SOL    HW121674   3.925   6.092   4.073
 6925SOL    HW221675   3.807   6.190   4.131
 6926SOL     OW21676   3.351   3.191   2.644
 6926SOL    HW121677   3.445   3.157   2.650
 6926SOL    HW221678   3.343   3.253   2.566
 6927SOL     OW21679   6.143   3.271   6.486
 6927SOL    HW121680   6.240   3.246   6.490
 6927SOL    HW221681   6.099   3.242   6.571
 6928SOL     OW21682   5.653   6.689   0.942
 6928SOL    HW121683   5.704   6.755   0.887
 6928SOL    HW221684   5.693   6.686   1.034
 6929SOL     OW21685   4.864   5.259   0.719
 6929SOL    HW121686   4.812   5.337   0.755
 6929SOL    HW221687   4.801   5.187   0.691
 6930SOL     OW21688   0.512   7.001   1.785
 6930SOL    HW121689   0.460   6.975   1.867
 6930SOL    HW221690   0.535   0.076   1.791
 6931SOL     OW21691   0.910   0.755   1.785
 6931SOL    HW121692   0.823   0.785   1.746
 6931SOL    HW221693   0.914   0.782   1.882
 6932SOL     OW21694   3.821   1.156   0.414
 6932SOL    HW121695   3.902   1.150   0.472
 6932SOL    HW221696   3.739   1.152   0.471
 6933SOL     OW21697   3.394   6.303   4.841
 6933SOL    HW121698   3.420   6.374   4.907
 6933SOL    HW221699   3.455   6.308   4.762
 6934SOL     OW21700   4.861   4.205   5.938
 6934SOL    HW121701   4.874   4.228   5.842
 6934SOL    HW221702   4.793   4.132   5.947
 6935SOL     OW21703   4.185   6.742   3.221
 6935SOL    HW121704   4.094   6.721   3.258
 6935SOL    HW221705   4.253   6.735   3.294
 6936SOL     OW21706   6.308   2.285   2.438
 6936SOL    HW121707   6.396   2.315   2.401
 6936SOL    HW221708   6.299   2.186   2.428
 6937SOL     OW21709   6.472   6.612   6.903
 6937SOL    HW121710   6.398   6.600   6.969
 6937SOL    HW221711   6.451   6.562   6.819
 6938SOL     OW21712   4.969   3.977   5.437
 6938SOL    HW121713   5.018   3.937   5.515
 6938SOL    HW221714   4.936   3.903   5.378
 6939SOL     OW21715   6.945   5.389   2.595
 6939SOL    HW121716   6.916   5.471   2.645
 6939SOL    HW221717   6.880   5.371   2.521
 6940SOL     OW21718   5.090   1.256   0.473
 6940SOL    HW121719   5.001   1.276   0.433
 6940SOL    HW221720   5.151   1.220   0.403
 6941SOL     OW21721   4.016   3.177   2.680
 6941SOL    HW121722   3.995   3.189   2.583
 6941SOL    HW221723   3.939   3.131   2.725
 6942SOL     OW21724   6.402   2.895   0.987
 6942SOL    HW121725   6.480   2.925   1.042
 6942SOL    HW221726   6.421   2.912   0.891
 6943SOL     OW21727   5.089   6.268   6.895
 6943SOL    HW121728   5.090   6.353   6.947
 6943SOL    HW221729   5.103   6.191   6.957
 6944SOL     OW21730   1.370   4.301   5.579
 6944SOL    HW121731   1.463   4.264   5.586
 6944SOL    HW221732   1.346   4.312   5.483
 6945SOL     OW21733   6.037   2.724   6.708
 6945SOL    HW121734   6.129   2.687   6.696
 6945SOL    HW221735   6.019   2.741   6.805
 6946SOL     OW21736   6.066   5.556   2.381
 6946SOL    HW121737   6.048   5.630   2.445
 6946SOL    HW221738   6.042   5.469   2.423
 6947SOL     OW21739   3.629   6.974   5.035
 6947SOL    HW121740   3.559   0.008   4.991
 6947SOL    HW221741   3.663   7.022   5.116
 6948SOL     OW21742   5.915   0.415   0.319
 6948SOL    HW121743   5.854   0.355   0.370
 6948SOL    HW221744   5.912   0.392   0.222
 6949SOL     OW21745   5.347   6.591   3.981
 6949SOL    HW121746   5.346   6.681   4.023
 6949SOL    HW221747   5.265   6.579   3.924
 6950SOL     OW21748   2.335   7.013   2.967
 6950SOL    HW121749   2.288   0.047   3.033
 6950SOL    HW221750   2.434   7.022   2.979
 6951SOL     OW21751   6.097   6.049   5.743
 6951SOL    HW121752   6.042   6.030   5.661
 6951SOL    HW221753   6.039   6.086   5.815
 6952SOL     OW21754   0.124   5.778   3.628
 6952SOL    HW121755   0.120   5.812   3.533
 6952SOL    HW221756   0.211   5.731   3.643
 6953SOL     OW21757   4.930   6.775   6.559
 6953SOL    HW121758   4.993   6.823   6.498
 6953SOL    HW221759   4.871   6.842   6.604
 6954SOL     OW21760   0.953   3.555   4.257
 6954SOL    HW121761   1.005   3.519   4.180
 6954SOL    HW221762   0.969   3.654   4.264
 6955SOL     OW21763   6.905   0.189   2.236
 6955SOL    HW121764   6.840   0.127   2.282
 6955SOL    HW221765   6.877   0.201   2.141
 6956SOL     OW21766   4.209   6.157   3.080
 6956SOL    HW121767   4.207   6.253   3.108
 6956SOL    HW221768   4.303   6.129   3.063
 6957SOL     OW21769   6.397   4.861   1.616
 6957SOL    HW121770   6.413   4.809   1.532
 6957SOL    HW221771   6.396   4.959   1.595
 6958SOL     OW21772   3.067   3.732   5.253
 6958SOL    HW121773   3.136   3.804   5.258
 6958SOL    HW221774   3.012   3.745   5.170
 6959SOL     OW21775   2.232   0.975   4.582
 6959SOL    HW121776   2.218   0.881   4.611
 6959SOL    HW221777   2.221   1.036   4.661
 6960SOL     OW21778   0.634   5.345   0.190
 6960SOL    HW121779   0.631   5.321   0.287
 6960SOL    HW221780   0.562   5.413   0.170
 6961SOL     OW21781   0.160   2.620   4.253
 6961SOL    HW121782   0.221   2.636   4.175
 6961SOL    HW221783   0.143   2.522   4.263
 6962SOL     OW21784   5.114   5.294   2.335
 6962SOL    HW121785   5.021   5.264   2.312
 6962SOL    HW221786   5.144   5.245   2.417
 6963SOL     OW21787   0.617   5.682   0.407
 6963SOL    HW121788   0.521   5.655   0.413
 6963SOL    HW221789   0.652   5.701   0.499
 6964SOL     OW21790   5.066   4.981   4.339
 6964SOL    HW121791   5.000   4.959   4.411
 6964SOL    HW221792   5.046   4.928   4.257
 6965SOL     OW21793   0.890   3.744   5.774
 6965SOL    HW121794   0.973   3.763   5.827
 6965SOL    HW221795   0.825   3.695   5.832
 6966SOL     OW21796   6.147   2.444   2.884
 6966SOL    HW121797   6.109   2.495   2.961
 6966SOL    HW221798   6.232   2.487   2.854
 6967SOL     OW21799   1.332   1.394   5.729
 6967SOL    HW121800   1.294   1.302   5.735
 6967SOL    HW221801   1.261   1.458   5.699
 6968SOL     OW21802   3.854   6.405   2.786
 6968SOL    HW121803   3.845   6.350   2.702
 6968SOL    HW221804   3.769   6.399   2.839
 6969SOL     OW21805   3.621   2.294   1.463
 6969SOL    HW121806   3.711   2.308   1.421
 6969SOL    HW221807   3.549   2.306   1.394
 6970SOL     OW21808   4.399   3.707   0.214
 6970SOL    HW121809   4.472   3.729   0.150
 6970SOL    HW221810   4.437   3.694   0.306
 6971SOL     OW21811   6.396   3.965   2.204
 6971SOL    HW121812   6.492   3.976   2.226
 6971SOL    HW221813   6.362   3.880   2.244
 6972SOL     OW21814   5.812   5.139   3.830
 6972SOL    HW121815   5.907   5.111   3.843
 6972SOL    HW221816   5.766   5.076   3.768
 6973SOL     OW21817   1.151   3.978   5.076
 6973SOL    HW121818   1.153   3.888   5.032
 6973SOL    HW221819   1.056   4.010   5.080
 6974SOL     OW21820   3.157   3.028   3.087
 6974SOL    HW121821   3.176   2.997   2.994
 6974SOL    HW221822   3.118   3.120   3.084
 6975SOL     OW21823   2.918   6.719   6.038
 6975SOL    HW121824   2.999   6.742   6.093
 6975SOL    HW221825   2.844   6.783   6.059
 6976SOL     OW21826   4.026   4.480   5.948
 6976SOL    HW121827   4.051   4.388   5.979
 6976SOL    HW221828   3.950   4.515   6.002
 6977SOL     OW21829   5.215   2.569   1.729
 6977SOL    HW121830   5.205   2.662   1.765
 6977SOL    HW221831   5.173   2.563   1.638
 6978SOL     OW21832   6.313   1.937   1.323
 6978SOL    HW121833   6.228   1.952   1.273
 6978SOL    HW221834   6.333   1.839   1.327
 6979SOL     OW21835   1.055   5.220   0.832
 6979SOL    HW121836   0.980   5.228   0.898
 6979SOL    HW221837   1.128   5.164   0.870
 6980SOL     OW21838   1.863   0.491   3.971
 6980SOL    HW121839   1.814   0.500   3.884
 6980SOL    HW221840   1.894   0.581   4.001
 6981SOL     OW21841   2.231   2.805   6.737
 6981SOL    HW121842   2.265   2.874   6.673
 6981SOL    HW221843   2.210   2.721   6.687
 6982SOL     OW21844   1.297   1.658   3.865
 6982SOL    HW121845   1.343   1.724   3.925
 6982SOL    HW221846   1.252   1.589   3.921
 6983SOL     OW21847   5.929   2.539   3.142
 6983SOL    HW121848   6.010   2.561   3.196
 6983SOL    HW221849   5.854   2.516   3.204
 6984SOL     OW21850   2.176   2.530   4.754
 6984SOL    HW121851   2.208   2.475   4.831
 6984SOL    HW221852   2.160   2.471   4.675
 6985SOL     OW21853   3.776   5.305   2.283
 6985SOL    HW121854   3.786   5.262   2.193
 6985SOL    HW221855   3.844   5.379   2.292
 6986SOL     OW21856   1.523   6.116   6.262
 6986SOL    HW121857   1.560   6.195   6.212
 6986SOL    HW221858   1.504   6.144   6.356
 6987SOL     OW21859   1.218   1.895   6.159
 6987SOL    HW121860   1.266   1.979   6.185
 6987SOL    HW221861   1.284   1.829   6.124
 6988SOL     OW21862   6.031   0.900   5.314
 6988SOL    HW121863   6.036   0.998   5.332
 6988SOL    HW221864   5.966   0.858   5.376
 6989SOL     OW21865   0.567   3.101   4.102
 6989SOL    HW121866   0.539   3.195   4.119
 6989SOL    HW221867   0.620   3.098   4.017
 6990SOL     OW21868   5.257   1.864   0.437
 6990SOL    HW121869   5.176   1.810   0.416
 6990SOL    HW221870   5.308   1.883   0.353
 6991SOL     OW21871   2.344   4.314   3.818
 6991SOL    HW121872   2.434   4.295   3.857
 6991SOL    HW221873   2.277   4.323   3.892
 6992SOL     OW21874   6.426   6.139   4.721
 6992SOL    HW121875   6.419   6.043   4.692
 6992SOL    HW221876   6.412   6.198   4.641
 6993SOL     OW21877   6.482   0.637   2.490
 6993SOL    HW121878   6.580   0.659   2.492
 6993SOL    HW221879   6.455   0.598   2.578
 6994SOL     OW21880   0.632   2.938   5.061
 6994SOL    HW121881   0.585   3.011   5.110
 6994SOL    HW221882   0.721   2.922   5.103
 6995SOL     OW21883   5.915   5.357   5.181
 6995SOL    HW121884   5.945   5.452   5.191
 6995SOL    HW221885   5.865   5.329   5.263
 6996SOL     OW21886   2.103   0.759   4.668
 6996SOL    HW121887   2.105   0.692   4.742
 6996SOL    HW221888   2.037   0.831   4.690
 6997SOL     OW21889   5.615   5.896   5.237
 6997SOL    HW121890   5.523   5.928   5.256
 6997SOL    HW221891   5.675   5.975   5.219
 6998SOL     OW21892   1.986   1.943   1.695
 6998SOL    HW121893   2.058   1.885   1.733
 6998SOL    HW221894   1.997   2.036   1.729
 6999SOL     OW21895   2.298   2.133   6.756
 6999SOL    HW121896   2.354   2.093   6.684
 6999SOL    HW221897   2.239   2.204   6.717
 7000SOL     OW21898   6.854   5.842   2.717
 7000SOL    HW121899   6.859   5.759   2.662
 7000SOL    HW221900   6.799   5.911   2.669
 7001SOL     OW21901   2.689   3.098   5.644
 7001SOL    HW121902   2.783   3.131   5.635
 7001SOL    HW221903   2.633   3.134   5.570
 7002SOL     OW21904   2.239   4.830   2.863
 7002SOL    HW121905   2.231   4.776   2.780
 7002SOL    HW221906   2.262   4.925   2.839
 7003SOL     OW21907   3.669   6.155   0.305
 7003SOL    HW121908   3.618   6.219   0.247
 7003SOL    HW221909   3.657   6.179   0.401
 7004SOL     OW21910   2.203   4.994   1.753
 7004SOL    HW121911   2.209   5.049   1.669
 7004SOL    HW221912   2.202   4.897   1.728
 7005SOL     OW21913   0.670   6.177   5.961
 7005SOL    HW121914   0.726   6.238   6.016
 7005SOL    HW221915   0.635   6.102   6.017
 7006SOL     OW21916   5.845   4.786   4.332
 7006SOL    HW121917   5.855   4.687   4.339
 7006SOL    HW221918   5.758   4.815   4.372
 7007SOL     OW21919   4.893   0.010   2.899
 7007SOL    HW121920   4.982   0.054   2.893
 7007SOL    HW221921   4.881   6.995   2.991
 7008SOL     OW21922   1.805   5.282   4.326
 7008SOL    HW121923   1.809   5.196   4.376
 7008SOL    HW221924   1.887   5.337   4.346
 7009SOL     OW21925   5.632   5.493   2.415
 7009SOL    HW121926   5.696   5.538   2.478
 7009SOL    HW221927   5.656   5.396   2.409
 7010SOL     OW21928   4.460   3.805   5.848
 7010SOL    HW121929   4.419   3.774   5.933
 7010SOL    HW221930   4.426   3.749   5.772
 7011SOL     OW21931   1.902   0.615   6.614
 7011SOL    HW121932   1.940   0.658   6.695
 7011SOL    HW221933   1.944   0.654   6.532
 7012SOL     OW21934   2.232   0.920   2.279
 7012SOL    HW121935   2.186   0.979   2.214
 7012SOL    HW221936   2.328   0.909   2.252
 7013SOL     OW21937   0.162   6.702   1.014
 7013SOL    HW121938   0.260   6.684   1.002
 7013SOL    HW221939   0.141   6.793   0.980
 7014SOL     OW21940   4.929   2.990   1.063
 7014SOL    HW121941   4.974   2.983   0.974
 7014SOL    HW221942   4.875   2.908   1.080
 7015SOL     OW21943   5.844   4.823   2.164
 7015SOL    HW121944   5.830   4.867   2.075
 7015SOL    HW221945   5.935   4.844   2.198
 7016SOL     OW21946   3.779   5.023   2.226
 7016SOL    HW121947   3.819   5.055   2.140
 7016SOL    HW221948   3.688   4.985   2.208
 7017SOL     OW21949   1.976   0.022   2.139
 7017SOL    HW121950   2.016   0.113   2.130
 7017SOL    HW221951   2.049   6.977   2.150
 7018SOL     OW21952   6.573   4.172   5.114
 7018SOL    HW121953   6.532   4.261   5.093
 7018SOL    HW221954   6.527   4.132   5.193
 7019SOL     OW21955   3.083   4.565   6.672
 7019SOL    HW121956   3.096   4.485   6.613
 7019SOL    HW221957   3.012   4.545   6.740
 7020SOL     OW21958   6.205   6.930   6.403
 7020SOL    HW121959   6.220   6.922   6.304
 7020SOL    HW221960   6.282   6.888   6.451
 7021SOL     OW21961   2.041   1.230   5.262
 7021SOL    HW121962   1.999   1.266   5.179
 7021SOL    HW221963   2.046   1.302   5.331
 7022SOL     OW21964   4.242   4.761   0.922
 7022SOL    HW121965   4.324   4.704   0.928
 7022SOL    HW221966   4.172   4.727   0.984
 7023SOL     OW21967   0.509   2.010   3.592
 7023SOL    HW121968   0.491   1.940   3.661
 7023SOL    HW221969   0.570   2.079   3.630
 7024SOL     OW21970   1.480   4.980   5.693
 7024SOL    HW121971   1.402   5.031   5.730
 7024SOL    HW221972   1.494   4.896   5.747
 7025SOL     OW21973   2.891   1.055   0.225
 7025SOL    HW121974   2.820   1.118   0.258
 7025SOL    HW221975   2.913   0.989   0.297
 7026SOL     OW21976   2.783   1.553   2.287
 7026SOL    HW121977   2.817   1.639   2.326
 7026SOL    HW221978   2.688   1.540   2.315
 7027SOL     OW21979   2.845   4.752   2.531
 7027SOL    HW121980   2.914   4.820   2.508
 7027SOL    HW221981   2.812   4.708   2.447
 7028SOL     OW21982   6.198   6.910   4.360
 7028SOL    HW121983   6.244   6.999   4.369
 7028SOL    HW221984   6.256   6.848   4.307
 7029SOL     OW21985   4.139   6.877   6.676
 7029SOL    HW121986   4.196   6.955   6.702
 7029SOL    HW221987   4.160   6.799   6.735
 7030SOL     OW21988   6.290   2.380   5.613
 7030SOL    HW121989   6.322   2.456   5.556
 7030SOL    HW221990   6.325   2.391   5.706
 7031SOL     OW21991   2.250   5.636   4.354
 7031SOL    HW121992   2.258   5.651   4.452
 7031SOL    HW221993   2.307   5.702   4.305
 7032SOL     OW21994   3.347   6.630   3.950
 7032SOL    HW121995   3.254   6.620   3.913
 7032SOL    HW221996   3.404   6.554   3.919
 7033SOL     OW21997   7.011   1.683   3.688
 7033SOL    HW121998   0.062   1.750   3.680
 7033SOL    HW221999   6.945   1.713   3.757
 7034SOL     OW22000   6.198   0.785   2.748
 7034SOL    HW122001   6.228   0.821   2.836
 7034SOL    HW222002   6.102   0.758   2.754
 7035SOL     OW22003   1.490   6.863   2.058
 7035SOL    HW122004   1.583   6.863   2.021
 7035SOL    HW222005   1.484   6.930   2.132
 7036SOL     OW22006   0.043   0.455   1.767
 7036SOL    HW122007   0.120   0.497   1.815
 7036SOL    HW222008   6.980   0.475   1.815
 7037SOL     OW22009   1.011   0.428   6.137
 7037SOL    HW122010   1.071   0.367   6.085
 7037SOL    HW222011   1.020   0.408   6.235
 7038SOL     OW22012   1.742   3.537   3.912
 7038SOL    HW122013   1.790   3.624   3.906
 7038SOL    HW222014   1.762   3.494   4.000
 7039SOL     OW22015   2.891   5.720   1.105
 7039SOL    HW122016   2.833   5.789   1.149
 7039SOL    HW222017   2.864   5.709   1.010
 7040SOL     OW22018   5.356   1.730   5.253
 7040SOL    HW122019   5.435   1.744   5.194
 7040SOL    HW222020   5.276   1.707   5.198
 7041SOL     OW22021   0.530   1.874   2.913
 7041SOL    HW122022   0.538   1.775   2.922
 7041SOL    HW222023   0.473   1.896   2.834
 7042SOL     OW22024   5.658   5.443   6.944
 7042SOL    HW122025   5.743   5.492   6.929
 7042SOL    HW222026   5.615   5.423   6.856
 7043SOL     OW22027   2.245   2.784   3.431
 7043SOL    HW122028   2.317   2.765   3.364
 7043SOL    HW222029   2.158   2.798   3.383
 7044SOL     OW22030   4.788   4.555   2.774
 7044SOL    HW122031   4.690   4.573   2.777
 7044SOL    HW222032   4.829   4.576   2.863
 7045SOL     OW22033   5.372   5.581   2.081
 7045SOL    HW122034   5.287   5.575   2.028
 7045SOL    HW222035   5.381   5.501   2.140
 7046SOL     OW22036   3.693   2.006   3.672
 7046SOL    HW122037   3.780   2.049   3.648
 7046SOL    HW222038   3.637   1.997   3.591
 7047SOL     OW22039   0.916   2.371   2.940
 7047SOL    HW122040   0.936   2.285   2.986
 7047SOL    HW222041   0.897   2.442   3.008
 7048SOL     OW22042   0.150   5.306   1.786
 7048SOL    HW122043   0.161   5.225   1.843
 7048SOL    HW222044   0.061   5.302   1.739
 7049SOL     OW22045   2.240   1.497   0.993
 7049SOL    HW122046   2.257   1.582   1.043
 7049SOL    HW222047   2.326   1.446   0.985
 7050SOL     OW22048   3.923   3.864   2.919
 7050SOL    HW122049   3.857   3.910   2.859
 7050SOL    HW222050   3.982   3.805   2.866
 7051SOL     OW22051   0.043   1.087   0.849
 7051SOL    HW122052   0.081   1.063   0.760
 7051SOL    HW222053   0.108   1.061   0.921
 7052SOL     OW22054   6.199   2.772   4.183
 7052SOL    HW122055   6.146   2.802   4.262
 7052SOL    HW222056   6.260   2.698   4.210
 7053SOL     OW22057   0.864   3.192   4.947
 7053SOL    HW122058   0.862   3.104   4.996
 7053SOL    HW222059   0.952   3.203   4.901
 7054SOL     OW22060   1.015   5.700   1.453
 7054SOL    HW122061   1.104   5.654   1.449
 7054SOL    HW222062   1.028   5.793   1.489
 7055SOL     OW22063   3.647   6.431   5.515
 7055SOL    HW122064   3.619   6.413   5.609
 7055SOL    HW222065   3.739   6.396   5.499
 7056SOL     OW22066   6.011   5.787   2.512
 7056SOL    HW122067   5.920   5.817   2.484
 7056SOL    HW222068   6.080   5.851   2.477
 7057SOL     OW22069   1.435   5.213   3.776
 7057SOL    HW122070   1.431   5.273   3.856
 7057SOL    HW222071   1.513   5.151   3.785
 7058SOL     OW22072   6.157   5.548   6.381
 7058SOL    HW122073   6.125   5.469   6.434
 7058SOL    HW222074   6.148   5.529   6.283
 7059SOL     OW22075   0.053   0.751   3.119
 7059SOL    HW122076   0.070   0.847   3.141
 7059SOL    HW222077   0.088   0.692   3.192
 7060SOL     OW22078   3.591   6.931   1.721
 7060SOL    HW122079   3.612   6.839   1.687
 7060SOL    HW222080   3.676   6.978   1.745
 7061SOL     OW22081   0.206   2.771   3.762
 7061SOL    HW122082   0.275   2.749   3.693
 7061SOL    HW222083   0.247   2.831   3.831
 7062SOL     OW22084   5.497   1.182   6.181
 7062SOL    HW122085   5.440   1.178   6.263
 7062SOL    HW222086   5.493   1.275   6.142
 7063SOL     OW22087   0.374   0.225   0.866
 7063SOL    HW122088   0.450   0.260   0.922
 7063SOL    HW222089   0.302   0.192   0.927
 7064SOL     OW22090   4.181   2.145   1.979
 7064SOL    HW122091   4.105   2.205   1.954
 7064SOL    HW222092   4.175   2.060   1.927
 7065SOL     OW22093   4.154   3.422   6.870
 7065SOL    HW122094   4.096   3.503   6.872
 7065SOL    HW222095   4.103   3.343   6.904
 7066SOL     OW22096   4.385   0.281   0.770
 7066SOL    HW122097   4.353   0.376   0.767
 7066SOL    HW222098   4.456   0.272   0.839
 7067SOL     OW22099   1.743   1.919   5.386
 7067SOL    HW122100   1.664   1.887   5.437
 7067SOL    HW222101   1.780   2.001   5.429
 7068SOL     OW22102   0.815   4.239   4.136
 7068SOL    HW122103   0.774   4.190   4.212
 7068SOL    HW222104   0.821   4.337   4.159
 7069SOL     OW22105   5.795   2.428   4.107
 7069SOL    HW122106   5.776   2.333   4.133
 7069SOL    HW222107   5.829   2.478   4.187
 7070SOL     OW22108   0.071   6.580   4.784
 7070SOL    HW122109   0.135   6.566   4.859
 7070SOL    HW222110   0.120   6.580   4.697
 7071SOL     OW22111   1.263   6.423   5.967
 7071SOL    HW122112   1.323   6.470   6.032
 7071SOL    HW222113   1.248   6.481   5.887
 7072SOL     OW22114   0.408   6.248   5.958
 7072SOL    HW122115   0.374   6.342   5.949
 7072SOL    HW222116   0.507   6.246   5.945
 7073SOL     OW22117   5.434   6.954   4.467
 7073SOL    HW122118   5.419   0.027   4.493
 7073SOL    HW222119   5.522   6.946   4.420
 7074SOL     OW22120   4.266   2.538   1.438
 7074SOL    HW122121   4.232   2.578   1.353
 7074SOL    HW222122   4.201   2.469   1.471
 7075SOL     OW22123   1.093   5.743   5.718
 7075SOL    HW122124   1.101   5.791   5.631
 7075SOL    HW222125   1.104   5.645   5.703
 7076SOL     OW22126   4.272   2.306   0.025
 7076SOL    HW122127   4.274   2.210   0.054
 7076SOL    HW222128   4.177   2.336   0.014
 7077SOL     OW22129   2.116   4.334   4.829
 7077SOL    HW122130   2.197   4.377   4.867
 7077SOL    HW222131   2.125   4.234   4.835
 7078SOL     OW22132   5.856   0.483   1.156
 7078SOL    HW122133   5.922   0.535   1.101
 7078SOL    HW222134   5.886   0.388   1.162
 7079SOL     OW22135   6.411   6.567   5.368
 7079SOL    HW122136   6.385   6.626   5.291
 7079SOL    HW222137   6.354   6.485   5.367
 7080SOL     OW22138   3.554   2.124   4.391
 7080SOL    HW122139   3.515   2.206   4.349
 7080SOL    HW222140   3.512   2.108   4.480
 7081SOL     OW22141   3.184   0.878   6.605
 7081SOL    HW122142   3.160   0.784   6.629
 7081SOL    HW222143   3.210   0.928   6.687
 7082SOL     OW22144   6.183   4.904   6.890
 7082SOL    HW122145   6.192   4.804   6.894
 7082SOL    HW222146   6.100   4.928   6.841
 7083SOL     OW22147   3.245   0.924   0.044
 7083SOL    HW122148   3.328   0.876   0.014
 7083SOL    HW222149   3.271   1.008   0.091
 7084SOL     OW22150   0.094   6.802   5.973
 7084SOL    HW122151   0.112   6.858   5.892
 7084SOL    HW222152   0.179   6.791   6.025
 7085SOL     OW22153   2.184   1.700   2.191
 7085SOL    HW122154   2.132   1.700   2.277
 7085SOL    HW222155   2.267   1.755   2.203
 7086SOL     OW22156   4.512   0.569   5.639
 7086SOL    HW122157   4.570   0.628   5.583
 7086SOL    HW222158   4.416   0.586   5.617
 7087SOL     OW22159   5.783   4.578   3.712
 7087SOL    HW122160   5.700   4.525   3.697
 7087SOL    HW222161   5.761   4.663   3.759
 7088SOL     OW22162   5.397   2.531   2.986
 7088SOL    HW122163   5.306   2.573   2.988
 7088SOL    HW222164   5.429   2.516   3.080
 7089SOL     OW22165   3.609   2.101   5.655
 7089SOL    HW122166   3.591   2.003   5.661
 7089SOL    HW222167   3.602   2.129   5.559
 7090SOL     OW22168   2.228   1.552   6.341
 7090SOL    HW122169   2.286   1.487   6.290
 7090SOL    HW222170   2.171   1.502   6.406
 7091SOL     OW22171   0.122   2.065   0.247
 7091SOL    HW122172   0.167   1.979   0.222
 7091SOL    HW222173   0.073   2.101   0.168
 7092SOL     OW22174   4.319   2.735   6.173
 7092SOL    HW122175   4.360   2.755   6.262
 7092SOL    HW222176   4.219   2.742   6.180
 7093SOL     OW22177   3.150   3.318   3.204
 7093SOL    HW122178   3.236   3.365   3.186
 7093SOL    HW222179   3.079   3.353   3.143
 7094SOL     OW22180   0.799   5.360   5.813
 7094SOL    HW122181   0.762   5.296   5.879
 7094SOL    HW222182   0.729   5.383   5.745
 7095SOL     OW22183   3.720   3.275   6.430
 7095SOL    HW122184   3.730   3.211   6.353
 7095SOL    HW222185   3.808   3.288   6.474
 7096SOL     OW22186   6.263   0.443   3.797
 7096SOL    HW122187   6.245   0.520   3.736
 7096SOL    HW222188   6.179   0.392   3.813
 7097SOL     OW22189   6.075   1.180   1.389
 7097SOL    HW122190   6.012   1.135   1.452
 7097SOL    HW222191   6.052   1.155   1.295
 7098SOL     OW22192   0.933   0.700   4.088
 7098SOL    HW122193   0.899   0.633   4.022
 7098SOL    HW222194   0.897   0.678   4.179
 7099SOL     OW22195   2.981   0.687   5.230
 7099SOL    HW122196   2.959   0.598   5.191
 7099SOL    HW222197   3.058   0.678   5.293
 7100SOL     OW22198   5.628   3.120   1.059
 7100SOL    HW122199   5.619   3.158   1.151
 7100SOL    HW222200   5.547   3.144   1.005
 7101SOL     OW22201   1.632   0.171   4.800
 7101SOL    HW122202   1.626   0.164   4.700
 7101SOL    HW222203   1.666   0.086   4.838
 7102SOL     OW22204   4.677   0.917   0.827
 7102SOL    HW122205   4.764   0.890   0.788
 7102SOL    HW222206   4.660   0.864   0.910
 7103SOL     OW22207   4.321   5.207   1.251
 7103SOL    HW122208   4.224   5.200   1.225
 7103SOL    HW222209   4.378   5.193   1.170
 7104SOL     OW22210   1.211   3.719   5.027
 7104SOL    HW122211   1.134   3.664   4.997
 7104SOL    HW222212   1.296   3.666   5.019
 7105SOL     OW22213   2.984   2.548   5.407
 7105SOL    HW122214   3.001   2.450   5.412
 7105SOL    HW222215   3.043   2.589   5.337
 7106SOL     OW22216   2.864   3.616   2.634
 7106SOL    HW122217   2.766   3.635   2.625
 7106SOL    HW222218   2.881   3.518   2.623
 7107SOL     OW22219   3.416   0.899   0.716
 7107SOL    HW122220   3.394   0.996   0.717
 7107SOL    HW222221   3.494   0.881   0.776
 7108SOL     OW22222   4.099   6.361   2.896
 7108SOL    HW122223   4.119   6.281   2.839
 7108SOL    HW222224   4.024   6.413   2.854
 7109SOL     OW22225   3.717   6.926   6.350
 7109SOL    HW122226   3.675   6.841   6.317
 7109SOL    HW222227   3.647   6.984   6.392
 7110SOL     OW22228   3.752   6.386   3.895
 7110SOL    HW122229   3.794   6.401   3.805
 7110SOL    HW222230   3.785   6.301   3.934
 7111SOL     OW22231   2.492   2.238   4.655
 7111SOL    HW122232   2.532   2.147   4.667
 7111SOL    HW222233   2.444   2.265   4.738
 7112SOL     OW22234   2.426   5.795   4.201
 7112SOL    HW122235   2.487   5.716   4.214
 7112SOL    HW222236   2.471   5.862   4.143
 7113SOL     OW22237   3.246   3.641   4.833
 7113SOL    HW122238   3.193   3.646   4.748
 7113SOL    HW222239   3.241   3.728   4.881
 7114SOL     OW22240   3.891   6.617   1.257
 7114SOL    HW122241   3.856   6.652   1.343
 7114SOL    HW222242   3.817   6.612   1.190
 7115SOL     OW22243   5.186   3.263   2.315
 7115SOL    HW122244   5.092   3.294   2.304
 7115SOL    HW222245   5.208   3.195   2.245
 7116SOL     OW22246   5.300   4.200   3.487
 7116SOL    HW122247   5.372   4.264   3.514
 7116SOL    HW222248   5.302   4.186   3.389
 7117SOL     OW22249   6.864   6.346   4.591
 7117SOL    HW122250   6.876   6.428   4.535
 7117SOL    HW222251   6.954   6.314   4.621
 7118SOL     OW22252   2.584   4.086   0.433
 7118SOL    HW122253   2.564   4.059   0.527
 7118SOL    HW222254   2.555   4.012   0.371
 7119SOL     OW22255   5.089   1.436   3.357
 7119SOL    HW122256   5.075   1.337   3.345
 7119SOL    HW222257   5.068   1.483   3.271
 7120SOL     OW22258   4.204   2.053   2.236
 7120SOL    HW122259   4.213   2.093   2.145
 7120SOL    HW222260   4.125   1.991   2.237
 7121SOL     OW22261   2.446   0.097   2.078
 7121SOL    HW122262   2.443   0.194   2.100
 7121SOL    HW222263   2.486   0.083   1.988
 7122SOL     OW22264   0.043   0.674   5.707
 7122SOL    HW122265   7.016   0.761   5.714
 7122SOL    HW222266   0.121   0.674   5.769
 7123SOL     OW22267   2.236   4.726   2.033
 7123SOL    HW122268   2.146   4.698   1.998
 7123SOL    HW222269   2.232   4.733   2.132
 7124SOL     OW22270   0.192   2.723   0.617
 7124SOL    HW122271   0.251   2.759   0.690
 7124SOL    HW222272   0.143   2.798   0.573
 7125SOL     OW22273   6.447   6.551   0.785
 7125SOL    HW122274   6.492   6.639   0.768
 7125SOL    HW222275   6.516   6.480   0.797
 7126SOL     OW22276   3.413   4.520   0.488
 7126SOL    HW122277   3.508   4.547   0.505
 7126SOL    HW222278   3.352   4.582   0.538
 7127SOL     OW22279   2.433   6.149   4.618
 7127SOL    HW122280   2.485   6.077   4.573
 7127SOL    HW222281   2.394   6.114   4.703
 7128SOL     OW22282   2.658   5.628   0.455
 7128SOL    HW122283   2.608   5.601   0.537
 7128SOL    HW222284   2.610   5.593   0.374
 7129SOL     OW22285   2.942   0.290   0.698
 7129SOL    HW122286   3.031   0.331   0.680
 7129SOL    HW222287   2.955   0.203   0.746
 7130SOL     OW22288   3.600   4.593   5.596
 7130SOL    HW122289   3.535   4.579   5.671
 7130SOL    HW222290   3.692   4.566   5.626
 7131SOL     OW22291   2.717   1.507   0.158
 7131SOL    HW122292   2.627   1.547   0.140
 7131SOL    HW222293   2.788   1.576   0.146
 7132SOL     OW22294   3.253   3.726   0.246
 7132SOL    HW122295   3.242   3.723   0.345
 7132SOL    HW222296   3.346   3.755   0.223
 7133SOL     OW22297   4.734   5.961   4.306
 7133SOL    HW122298   4.826   5.929   4.329
 7133SOL    HW222299   4.736   6.060   4.292
 7134SOL     OW22300   5.968   5.887   1.911
 7134SOL    HW122301   5.983   5.845   1.822
 7134SOL    HW222302   5.873   5.872   1.939
 7135SOL     OW22303   1.643   2.282   3.058
 7135SOL    HW122304   1.703   2.270   2.980
 7135SOL    HW222305   1.685   2.242   3.139
 7136SOL     OW22306   1.730   2.380   0.687
 7136SOL    HW122307   1.646   2.360   0.737
 7136SOL    HW222308   1.808   2.373   0.749
 7137SOL     OW22309   4.490   0.450   6.958
 7137SOL    HW122310   4.488   0.398   0.021
 7137SOL    HW222311   4.441   0.537   6.971
 7138SOL     OW22312   1.578   2.906   0.531
 7138SOL    HW122313   1.552   2.854   0.449
 7138SOL    HW222314   1.672   2.883   0.556
 7139SOL     OW22315   5.193   4.349   2.543
 7139SOL    HW122316   5.278   4.321   2.588
 7139SOL    HW222317   5.125   4.375   2.613
 7140SOL     OW22318   5.729   4.056   4.658
 7140SOL    HW122319   5.732   3.987   4.586
 7140SOL    HW222320   5.810   4.047   4.716
 7141SOL     OW22321   3.290   5.986   1.735
 7141SOL    HW122322   3.365   5.994   1.800
 7141SOL    HW222323   3.327   5.982   1.642
 7142SOL     OW22324   4.568   0.295   3.708
 7142SOL    HW122325   4.487   0.244   3.682
 7142SOL    HW222326   4.649   0.250   3.671
 7143SOL     OW22327   1.417   2.831   6.087
 7143SOL    HW122328   1.517   2.838   6.083
 7143SOL    HW222329   1.390   2.735   6.078
 7144SOL     OW22330   1.664   1.690   3.720
 7144SOL    HW122331   1.565   1.697   3.711
 7144SOL    HW222332   1.705   1.782   3.717
 7145SOL     OW22333   4.639   6.863   6.463
 7145SOL    HW122334   4.686   6.788   6.417
 7145SOL    HW222335   4.604   6.832   6.552
 7146SOL     OW22336   2.339   0.652   0.237
 7146SOL    HW122337   2.420   0.610   0.196
 7146SOL    HW222338   2.272   0.580   0.258
 7147SOL     OW22339   6.585   6.371   3.262
 7147SOL    HW122340   6.529   6.422   3.327
 7147SOL    HW222341   6.543   6.376   3.171
 7148SOL     OW22342   0.336   6.940   0.576
 7148SOL    HW122343   0.407   6.899   0.520
 7148SOL    HW222344   0.286   6.869   0.625
 7149SOL     OW22345   6.654   6.796   3.008
 7149SOL    HW122346   6.652   6.777   3.106
 7149SOL    HW222347   6.748   6.813   2.979
 7150SOL     OW22348   4.084   1.767   2.066
 7150SOL    HW122349   3.991   1.731   2.063
 7150SOL    HW222350   4.103   1.816   1.981
 7151SOL     OW22351   1.679   6.368   0.882
 7151SOL    HW122352   1.631   6.434   0.940
 7151SOL    HW222353   1.736   6.309   0.938
 7152SOL     OW22354   0.792   1.622   4.714
 7152SOL    HW122355   0.853   1.701   4.717
 7152SOL    HW222356   0.751   1.615   4.623
 7153SOL     OW22357   2.755   5.566   2.834
 7153SOL    HW122358   2.720   5.657   2.809
 7153SOL    HW222359   2.738   5.549   2.931
 7154SOL     OW22360   3.752   0.427   4.466
 7154SOL    HW122361   3.836   0.420   4.412
 7154SOL    HW222362   3.750   0.354   4.534
 7155SOL     OW22363   2.520   4.804   1.480
 7155SOL    HW122364   2.489   4.883   1.429
 7155SOL    HW222365   2.609   4.774   1.446
 7156SOL     OW22366   0.219   4.141   4.390
 7156SOL    HW122367   0.141   4.140   4.451
 7156SOL    HW222368   0.288   4.205   4.424
 7157SOL     OW22369   6.125   4.794   0.713
 7157SOL    HW122370   6.076   4.733   0.775
 7157SOL    HW222371   6.209   4.750   0.681
 7158SOL     OW22372   1.222   0.284   2.692
 7158SOL    HW122373   1.218   0.266   2.790
 7158SOL    HW222374   1.129   0.283   2.655
 7159SOL     OW22375   0.487   3.821   2.713
 7159SOL    HW122376   0.431   3.849   2.635
 7159SOL    HW222377   0.578   3.861   2.705
 7160SOL     OW22378   5.437   1.017   3.179
 7160SOL    HW122379   5.372   0.949   3.213
 7160SOL    HW222380   5.456   1.084   3.251
 7161SOL     OW22381   2.969   3.807   4.799
 7161SOL    HW122382   3.035   3.882   4.800
 7161SOL    HW222383   2.903   3.822   4.724
 7162SOL     OW22384   2.324   5.711   5.673
 7162SOL    HW122385   2.393   5.782   5.684
 7162SOL    HW222386   2.250   5.725   5.738
 7163SOL     OW22387   2.711   6.524   2.820
 7163SOL    HW122388   2.788   6.483   2.771
 7163SOL    HW222389   2.730   6.621   2.838
 7164SOL     OW22390   1.839   1.089   3.932
 7164SOL    HW122391   1.862   1.124   4.023
 7164SOL    HW222392   1.824   1.166   3.870
 7165SOL     OW22393   6.832   1.356   1.484
 7165SOL    HW122394   6.788   1.269   1.507
 7165SOL    HW222395   6.931   1.345   1.488
 7166SOL     OW22396   5.587   3.017   6.819
 7166SOL    HW122397   5.516   2.950   6.800
 7166SOL    HW222398   5.662   2.973   6.869
 7167SOL     OW22399   5.161   3.724   4.751
 7167SOL    HW122400   5.236   3.742   4.815
 7167SOL    HW222401   5.110   3.643   4.781
 7168SOL     OW22402   1.741   2.896   3.592
 7168SOL    HW122403   1.648   2.928   3.607
 7168SOL    HW222404   1.751   2.864   3.498
 7169SOL     OW22405   0.220   3.487   4.942
 7169SOL    HW122406   0.195   3.580   4.916
 7169SOL    HW222407   0.177   3.422   4.879
 7170SOL     OW22408   4.559   6.582   3.565
 7170SOL    HW122409   4.540   6.490   3.599
 7170SOL    HW222410   4.604   6.635   3.637
 7171SOL     OW22411   6.037   4.298   6.536
 7171SOL    HW122412   6.082   4.372   6.586
 7171SOL    HW222413   5.939   4.313   6.534
 7172SOL     OW22414   1.633   0.949   5.256
 7172SOL    HW122415   1.587   0.876   5.307
 7172SOL    HW222416   1.629   1.034   5.308
 7173SOL     OW22417   0.113   4.896   5.506
 7173SOL    HW122418   0.128   4.977   5.563
 7173SOL    HW222419   0.179   4.825   5.530
 7174SOL     OW22420   0.674   4.623   0.148
 7174SOL    HW122421   0.616   4.549   0.114
 7174SOL    HW222422   0.624   4.675   0.217
 7175SOL     OW22423   5.472   3.484   6.685
 7175SOL    HW122424   5.530   3.562   6.712
 7175SOL    HW222425   5.526   3.400   6.689
 7176SOL     OW22426   0.866   6.223   3.251
 7176SOL    HW122427   0.953   6.255   3.288
 7176SOL    HW222428   0.872   6.125   3.232
 7177SOL     OW22429   2.196   6.760   4.364
 7177SOL    HW122430   2.147   6.782   4.449
 7177SOL    HW222431   2.130   6.738   4.292
 7178SOL     OW22432   2.384   3.389   5.698
 7178SOL    HW122433   2.367   3.352   5.607
 7178SOL    HW222434   2.426   3.479   5.690
 7179SOL     OW22435   1.525   3.876   4.693
 7179SOL    HW122436   1.548   3.970   4.667
 7179SOL    HW222437   1.601   3.815   4.673
 7180SOL     OW22438   1.301   4.312   6.370
 7180SOL    HW122439   1.392   4.336   6.402
 7180SOL    HW222440   1.253   4.395   6.341
 7181SOL     OW22441   2.026   5.682   0.308
 7181SOL    HW122442   2.111   5.696   0.258
 7181SOL    HW222443   2.030   5.730   0.395
 7182SOL     OW22444   2.080   2.911   5.495
 7182SOL    HW122445   2.066   2.989   5.434
 7182SOL    HW222446   2.159   2.858   5.465
 7183SOL     OW22447   1.371   5.989   0.715
 7183SOL    HW122448   1.349   5.931   0.793
 7183SOL    HW222449   1.460   6.031   0.729
 7184SOL     OW22450   0.712   0.011   3.154
 7184SOL    HW122451   0.806   0.011   3.121
 7184SOL    HW222452   0.673   0.103   3.143
 7185SOL     OW22453   5.471   0.818   5.495
 7185SOL    HW122454   5.412   0.811   5.415
 7185SOL    HW222455   5.510   0.910   5.500
 7186SOL     OW22456   6.564   0.102   6.750
 7186SOL    HW122457   6.660   0.127   6.763
 7186SOL    HW222458   6.551   0.007   6.778
 7187SOL     OW22459   3.045   4.420   0.400
 7187SOL    HW122460   3.061   4.512   0.362
 7187SOL    HW222461   2.948   4.397   0.391
 7188SOL     OW22462   6.302   0.120   0.481
 7188SOL    HW122463   6.307   0.126   0.581
 7188SOL    HW222464   6.384   0.161   0.441
 7189SOL     OW22465   6.570   0.767   6.560
 7189SOL    HW122466   6.588   0.865   6.561
 7189SOL    HW222467   6.645   0.719   6.515
 7190SOL     OW22468   0.107   4.052   3.014
 7190SOL    HW122469   0.102   3.953   3.002
 7190SOL    HW222470   0.020   4.086   3.049
 7191SOL     OW22471   0.614   4.094   3.359
 7191SOL    HW122472   0.653   4.047   3.438
 7191SOL    HW222473   0.565   4.176   3.389
 7192SOL     OW22474   3.044   4.807   5.631
 7192SOL    HW122475   3.142   4.822   5.625
 7192SOL    HW222476   3.027   4.718   5.674
 7193SOL     OW22477   2.275   2.287   2.519
 7193SOL    HW122478   2.357   2.259   2.468
 7193SOL    HW222479   2.291   2.273   2.617
 7194SOL     OW22480   2.919   1.803   0.962
 7194SOL    HW122481   3.015   1.828   0.968
 7194SOL    HW222482   2.905   1.713   1.003
 7195SOL     OW22483   0.142   5.184   6.254
 7195SOL    HW122484   0.120   5.127   6.175
 7195SOL    HW222485   0.235   5.221   6.244
 7196SOL     OW22486   3.282   4.239   1.730
 7196SOL    HW122487   3.339   4.193   1.797
 7196SOL    HW222488   3.324   4.326   1.704
 7197SOL     OW22489   6.837   2.078   5.978
 7197SOL    HW122490   6.821   2.125   6.065
 7197SOL    HW222491   6.925   2.109   5.939
 7198SOL     OW22492   0.646   1.054   6.357
 7198SOL    HW122493   0.676   1.009   6.273
 7198SOL    HW222494   0.582   1.127   6.335
 7199SOL     OW22495   2.135   0.458   2.280
 7199SOL    HW122496   2.080   0.532   2.318
 7199SOL    HW222497   2.226   0.460   2.322
 7200SOL     OW22498   2.649   2.020   6.912
 7200SOL    HW122499   2.607   2.060   6.994
 7200SOL    HW222500   2.657   2.089   6.841
 7201SOL     OW22501   1.339   5.422   4.168
 7201SOL    HW122502   1.330   5.457   4.261
 7201SOL    HW222503   1.425   5.372   4.159
 7202SOL     OW22504   4.271   0.352   6.042
 7202SOL    HW122505   4.242   0.333   5.948
 7202SOL    HW222506   4.362   0.392   6.041
 7203SOL     OW22507   0.291   2.166   1.276
 7203SOL    HW122508   0.293   2.181   1.374
 7203SOL    HW222509   0.379   2.192   1.236
 7204SOL     OW22510   6.664   0.004   5.195
 7204SOL    HW122511   6.583   0.039   5.148
 7204SOL    HW222512   6.720   6.975   5.130
 7205SOL     OW22513   1.360   5.746   2.926
 7205SOL    HW122514   1.372   5.796   3.012
 7205SOL    HW222515   1.377   5.649   2.941
 7206SOL     OW22516   1.777   0.172   1.144
 7206SOL    HW122517   1.875   0.193   1.143
 7206SOL    HW222518   1.763   0.080   1.180
 7207SOL     OW22519   3.952   6.957   2.016
 7207SOL    HW122520   3.997   6.986   1.931
 7207SOL    HW222521   3.924   0.016   2.068
 7208SOL     OW22522   4.342   6.364   3.913
 7208SOL    HW122523   4.405   6.399   3.843
 7208SOL    HW222524   4.254   6.343   3.871
 7209SOL     OW22525   3.326   3.220   1.778
 7209SOL    HW122526   3.380   3.139   1.755
 7209SOL    HW222527   3.231   3.193   1.794
 7210SOL     OW22528   4.531   6.991   4.017
 7210SOL    HW122529   4.456   7.015   3.955
 7210SOL    HW222530   4.617   0.001   3.978
 7211SOL     OW22531   2.466   5.500   3.877
 7211SOL    HW122532   2.485   5.588   3.920
 7211SOL    HW222533   2.548   5.468   3.829
 7212SOL     OW22534   0.863   6.523   3.869
 7212SOL    HW122535   0.869   6.514   3.769
 7212SOL    HW222536   0.945   6.569   3.903
 7213SOL     OW22537   6.057   0.360   6.476
 7213SOL    HW122538   6.028   0.275   6.521
 7213SOL    HW222539   5.996   0.435   6.503
 7214SOL     OW22540   1.199   6.018   5.074
 7214SOL    HW122541   1.274   6.075   5.108
 7214SOL    HW222542   1.112   6.057   5.102
 7215SOL     OW22543   0.567   2.853   4.384
 7215SOL    HW122544   0.630   2.926   4.358
 7215SOL    HW222545   0.484   2.893   4.424
 7216SOL     OW22546   2.432   6.451   0.213
 7216SOL    HW122547   2.367   6.448   0.289
 7216SOL    HW222548   2.480   6.539   0.214
 7217SOL     OW22549   2.300   4.126   2.384
 7217SOL    HW122550   2.340   4.201   2.332
 7217SOL    HW222551   2.203   4.117   2.361
 7218SOL     OW22552   4.770   2.554   5.440
 7218SOL    HW122553   4.722   2.633   5.478
 7218SOL    HW222554   4.814   2.580   5.354
 7219SOL     OW22555   4.729   6.257   4.342
 7219SOL    HW122556   4.767   6.348   4.359
 7219SOL    HW222557   4.644   6.265   4.289
 7220SOL     OW22558   0.508   5.372   4.231
 7220SOL    HW122559   0.435   5.419   4.282
 7220SOL    HW222560   0.588   5.432   4.224
 7221SOL     OW22561   5.184   4.954   4.702
 7221SOL    HW122562   5.163   4.942   4.799
 7221SOL    HW222563   5.100   4.944   4.648
 7222SOL     OW22564   6.263   0.293   2.182
 7222SOL    HW122565   6.236   0.303   2.086
 7222SOL    HW222566   6.284   0.383   2.220
 7223SOL     OW22567   3.066   2.044   1.654
 7223SOL    HW122568   3.065   1.974   1.583
 7223SOL    HW222569   2.979   2.093   1.654
 7224SOL     OW22570   5.444   2.441   4.366
 7224SOL    HW122571   5.355   2.401   4.346
 7224SOL    HW222572   5.487   2.470   4.280
 7225SOL     OW22573   1.366   5.723   5.825
 7225SOL    HW122574   1.282   5.774   5.806
 7225SOL    HW222575   1.343   5.638   5.871
 7226SOL     OW22576   0.722   0.907   0.573
 7226SOL    HW122577   0.625   0.882   0.570
 7226SOL    HW222578   0.770   0.848   0.638
 7227SOL     OW22579   0.944   1.958   0.727
 7227SOL    HW122580   0.902   2.030   0.783
 7227SOL    HW222581   0.880   1.929   0.656
 7228SOL     OW22582   0.242   1.081   1.704
 7228SOL    HW122583   0.184   1.008   1.667
 7228SOL    HW222584   0.185   1.150   1.749
 7229SOL     OW22585   0.513   0.557   4.882
 7229SOL    HW122586   0.530   0.656   4.884
 7229SOL    HW222587   0.418   0.541   4.855
 7230SOL     OW22588   5.182   5.652   4.496
 7230SOL    HW122589   5.175   5.750   4.516
 7230SOL    HW222590   5.169   5.600   4.580
 7231SOL     OW22591   4.809   6.382   0.078
 7231SOL    HW122592   4.851   6.408   7.013
 7231SOL    HW222593   4.868   6.318   0.126
 7232SOL     OW22594   4.631   5.187   3.228
 7232SOL    HW122595   4.585   5.226   3.307
 7232SOL    HW222596   4.650   5.090   3.245
 7233SOL     OW22597   0.023   2.374   4.307
 7233SOL    HW122598   7.002   2.337   4.225
 7233SOL    HW222599   7.005   2.331   4.388
 7234SOL     OW22600   5.795   2.727   2.993
 7234SOL    HW122601   5.844   2.646   3.026
 7234SOL    HW222602   5.805   2.801   3.059
 7235SOL     OW22603   6.590   4.204   3.486
 7235SOL    HW122604   6.576   4.107   3.471
 7235SOL    HW222605   6.519   4.239   3.549
 7236SOL     OW22606   3.169   1.670   3.129
 7236SOL    HW122607   3.214   1.650   3.042
 7236SOL    HW222608   3.097   1.603   3.145
 7237SOL     OW22609   6.500   6.870   5.487
 7237SOL    HW122610   6.557   6.825   5.418
 7237SOL    HW222611   6.404   6.863   5.460
 7238SOL     OW22612   2.197   2.124   1.319
 7238SOL    HW122613   2.143   2.057   1.268
 7238SOL    HW222614   2.136   2.189   1.365
 7239SOL     OW22615   3.024   1.110   3.472
 7239SOL    HW122616   3.041   1.104   3.374
 7239SOL    HW222617   3.063   1.195   3.507
 7240SOL     OW22618   2.833   3.627   6.189
 7240SOL    HW122619   2.905   3.632   6.258
 7240SOL    HW222620   2.847   3.546   6.132
 7241SOL     OW22621   3.304   0.337   6.913
 7241SOL    HW122622   3.240   0.395   6.962
 7241SOL    HW222623   3.384   0.390   6.887
 7242SOL     OW22624   6.772   5.649   0.039
 7242SOL    HW122625   6.795   5.684   6.970
 7242SOL    HW222626   6.702   5.578   0.031
 7243SOL     OW22627   0.561   4.313   6.301
 7243SOL    HW122628   0.515   4.234   6.260
 7243SOL    HW222629   0.628   4.349   6.237
 7244SOL     OW22630   5.039   0.953   1.168
 7244SOL    HW122631   5.053   0.854   1.168
 7244SOL    HW222632   4.967   0.977   1.103
 7245SOL     OW22633   0.880   1.846   5.244
 7245SOL    HW122634   0.909   1.842   5.339
 7245SOL    HW222635   0.849   1.755   5.214
 7246SOL     OW22636   5.981   6.741   4.699
 7246SOL    HW122637   5.924   6.661   4.718
 7246SOL    HW222638   5.949   6.787   4.616
 7247SOL     OW22639   3.135   6.552   3.508
 7247SOL    HW122640   3.224   6.563   3.551
 7247SOL    HW222641   3.118   6.629   3.447
 7248SOL     OW22642   3.739   1.253   2.697
 7248SOL    HW122643   3.700   1.216   2.612
 7248SOL    HW222644   3.698   1.341   2.717
 7249SOL     OW22645   6.047   5.317   1.486
 7249SOL    HW122646   6.078   5.254   1.414
 7249SOL    HW222647   6.049   5.270   1.574
 7250SOL     OW22648   3.734   5.459   5.933
 7250SOL    HW122649   3.768   5.399   5.860
 7250SOL    HW222650   3.690   5.403   6.003
 7251SOL     OW22651   6.895   6.761   5.479
 7251SOL    HW122652   6.927   6.671   5.505
 7251SOL    HW222653   6.817   6.752   5.417
 7252SOL     OW22654   3.550   3.109   3.471
 7252SOL    HW122655   3.610   3.080   3.545
 7252SOL    HW222656   3.510   3.028   3.427
 7253SOL     OW22657   1.851   6.587   0.558
 7253SOL    HW122658   1.802   6.545   0.481
 7253SOL    HW222659   1.866   6.684   0.538
 7254SOL     OW22660   4.815   5.356   5.121
 7254SOL    HW122661   4.910   5.330   5.103
 7254SOL    HW222662   4.806   5.390   5.214
 7255SOL     OW22663   3.439   3.694   1.356
 7255SOL    HW122664   3.389   3.654   1.279
 7255SOL    HW222665   3.530   3.653   1.361
 7256SOL     OW22666   5.340   4.873   4.225
 7256SOL    HW122667   5.281   4.942   4.268
 7256SOL    HW222668   5.422   4.916   4.188
 7257SOL     OW22669   5.032   2.990   3.607
 7257SOL    HW122670   4.965   2.973   3.535
 7257SOL    HW222671   5.075   2.903   3.634
 7258SOL     OW22672   4.209   1.285   3.461
 7258SOL    HW122673   4.264   1.364   3.486
 7258SOL    HW222674   4.181   1.235   3.543
 7259SOL     OW22675   3.781   3.874   1.665
 7259SOL    HW122676   3.822   3.826   1.588
 7259SOL    HW222677   3.725   3.811   1.719
 7260SOL     OW22678   3.189   2.148   3.026
 7260SOL    HW122679   3.278   2.163   3.070
 7260SOL    HW222680   3.119   2.137   3.097
 7261SOL     OW22681   2.706   3.048   0.958
 7261SOL    HW122682   2.737   2.973   1.016
 7261SOL    HW222683   2.671   3.123   1.015
 7262SOL     OW22684   5.447   2.161   4.219
 7262SOL    HW122685   5.499   2.163   4.134
 7262SOL    HW222686   5.357   2.202   4.204
 7263SOL     OW22687   0.520   5.877   2.421
 7263SOL    HW122688   0.567   5.842   2.340
 7263SOL    HW222689   0.454   5.809   2.454
 7264SOL     OW22690   6.522   1.424   6.948
 7264SOL    HW122691   6.619   1.415   6.927
 7264SOL    HW222692   6.480   1.491   6.887
 7265SOL     OW22693   5.500   4.954   5.714
 7265SOL    HW122694   5.481   4.886   5.643
 7265SOL    HW222695   5.519   4.907   5.800
 7266SOL     OW22696   4.212   0.512   0.859
 7266SOL    HW122697   4.198   0.425   0.906
 7266SOL    HW222698   4.142   0.577   0.889
 7267SOL     OW22699   6.777   4.959   5.428
 7267SOL    HW122700   6.860   4.963   5.372
 7267SOL    HW222701   6.782   5.029   5.499
 7268SOL     OW22702   4.551   4.920   3.389
 7268SOL    HW122703   4.494   4.856   3.337
 7268SOL    HW222704   4.589   4.874   3.468
 7269SOL     OW22705   6.753   6.117   1.357
 7269SOL    HW122706   6.847   6.112   1.323
 7269SOL    HW222707   6.716   6.024   1.366
 7270SOL     OW22708   1.405   2.472   3.709
 7270SOL    HW122709   1.390   2.403   3.780
 7270SOL    HW222710   1.427   2.428   3.622
 7271SOL     OW22711   0.377   4.665   3.683
 7271SOL    HW122712   0.465   4.630   3.651
 7271SOL    HW222713   0.344   4.608   3.758
 7272SOL     OW22714   6.076   4.176   2.257
 7272SOL    HW122715   6.102   4.117   2.334
 7272SOL    HW222716   6.075   4.122   2.173
 7273SOL     OW22717   5.768   4.280   1.853
 7273SOL    HW122718   5.848   4.324   1.812
 7273SOL    HW222719   5.713   4.238   1.781
 7274SOL     OW22720   0.294   6.762   6.177
 7274SOL    HW122721   0.246   6.797   6.258
 7274SOL    HW222722   0.324   6.669   6.194
 7275SOL     OW22723   6.792   0.730   1.344
 7275SOL    HW122724   6.845   0.752   1.262
 7275SOL    HW222725   6.695   0.729   1.322
 7276SOL     OW22726   3.484   1.355   3.788
 7276SOL    HW122727   3.558   1.305   3.832
 7276SOL    HW222728   3.519   1.406   3.710
 7277SOL     OW22729   5.537   0.876   5.193
 7277SOL    HW122730   5.569   0.800   5.137
 7277SOL    HW222731   5.455   0.849   5.242
 7278SOL     OW22732   3.679   2.055   3.052
 7278SOL    HW122733   3.767   2.092   3.082
 7278SOL    HW222734   3.648   1.985   3.116
 7279SOL     OW22735   4.152   3.741   6.705
 7279SOL    HW122736   4.081   3.716   6.771
 7279SOL    HW222737   4.154   3.674   6.631
 7280SOL     OW22738   5.976   2.438   5.133
 7280SOL    HW122739   5.933   2.496   5.064
 7280SOL    HW222740   5.954   2.473   5.224
 7281SOL     OW22741   3.263   0.094   0.613
 7281SOL    HW122742   3.244   0.121   0.708
 7281SOL    HW222743   3.177   0.078   0.565
 7282SOL     OW22744   6.610   5.932   1.092
 7282SOL    HW122745   6.690   5.992   1.096
 7282SOL    HW222746   6.528   5.987   1.071
 7283SOL     OW22747   2.643   6.708   2.177
 7283SOL    HW122748   2.618   6.786   2.235
 7283SOL    HW222749   2.610   6.624   2.219
 7284SOL     OW22750   6.740   2.617   4.343
 7284SOL    HW122751   6.746   2.652   4.436
 7284SOL    HW222752   6.798   2.672   4.283
 7285SOL     OW22753   5.246   3.765   1.719
 7285SOL    HW122754   5.152   3.763   1.754
 7285SOL    HW222755   5.302   3.700   1.771
 7286SOL     OW22756   0.992   0.978   0.786
 7286SOL    HW122757   1.074   0.981   0.728
 7286SOL    HW222758   0.920   0.929   0.738
 7287SOL     OW22759   6.444   3.105   4.471
 7287SOL    HW122760   6.412   3.195   4.500
 7287SOL    HW222761   6.423   3.091   4.375
 7288SOL     OW22762   1.712   2.928   2.159
 7288SOL    HW122763   1.752   2.947   2.069
 7288SOL    HW222764   1.733   2.834   2.186
 7289SOL     OW22765   5.727   3.554   2.050
 7289SOL    HW122766   5.811   3.606   2.063
 7289SOL    HW222767   5.748   3.463   2.015
 7290SOL     OW22768   3.144   0.818   5.083
 7290SOL    HW122769   3.060   0.773   5.112
 7290SOL    HW222770   3.202   0.837   5.162
 7291SOL     OW22771   4.087   6.933   0.400
 7291SOL    HW122772   4.078   0.010   0.404
 7291SOL    HW222773   4.004   6.890   0.438
 7292SOL     OW22774   1.611   6.833   3.173
 7292SOL    HW122775   1.568   6.784   3.249
 7292SOL    HW222776   1.615   6.931   3.195
 7293SOL     OW22777   1.642   1.382   6.316
 7293SOL    HW122778   1.649   1.288   6.350
 7293SOL    HW222779   1.721   1.403   6.260
 7294SOL     OW22780   3.262   4.599   1.395
 7294SOL    HW122781   3.280   4.666   1.323
 7294SOL    HW222782   3.270   4.507   1.356
 7295SOL     OW22783   6.450   4.107   1.207
 7295SOL    HW122784   6.519   4.148   1.148
 7295SOL    HW222785   6.490   4.033   1.261
 7296SOL     OW22786   3.895   4.885   2.747
 7296SOL    HW122787   3.969   4.933   2.702
 7296SOL    HW222788   3.824   4.950   2.774
 7297SOL     OW22789   3.042   6.632   2.664
 7297SOL    HW122790   3.029   6.533   2.674
 7297SOL    HW222791   2.992   6.664   2.584
 7298SOL     OW22792   5.246   5.344   7.005
 7298SOL    HW122793   5.334   5.306   6.978
 7298SOL    HW222794   5.259   5.416   0.050
 7299SOL     OW22795   0.797   1.320   0.718
 7299SOL    HW122796   0.744   1.270   0.650
 7299SOL    HW222797   0.859   1.257   0.765
 7300SOL     OW22798   1.188   4.931   2.202
 7300SOL    HW122799   1.194   4.867   2.125
 7300SOL    HW222800   1.248   4.901   2.276
 7301SOL     OW22801   6.923   0.297   5.519
 7301SOL    HW122802   6.866   0.224   5.481
 7301SOL    HW222803   6.947   0.362   5.447
 7302SOL     OW22804   6.691   1.798   4.975
 7302SOL    HW122805   6.692   1.725   4.906
 7302SOL    HW222806   6.625   1.775   5.046
 7303SOL     OW22807   3.297   1.058   6.806
 7303SOL    HW122808   3.325   1.145   6.766
 7303SOL    HW222809   3.259   1.074   6.898
 7304SOL     OW22810   2.026   5.244   1.770
 7304SOL    HW122811   2.021   5.160   1.824
 7304SOL    HW222812   2.095   5.304   1.810
 7305SOL     OW22813   5.340   2.778   1.129
 7305SOL    HW122814   5.368   2.692   1.172
 7305SOL    HW222815   5.395   2.853   1.167
 7306SOL     OW22816   3.830   1.460   1.950
 7306SOL    HW122817   3.834   1.549   1.997
 7306SOL    HW222818   3.827   1.476   1.851
 7307SOL     OW22819   3.853   6.615   2.591
 7307SOL    HW122820   3.884   6.543   2.653
 7307SOL    HW222821   3.765   6.589   2.550
 7308SOL     OW22822   6.904   1.604   3.236
 7308SOL    HW122823   6.874   1.685   3.186
 7308SOL    HW222824   6.859   1.602   3.326
 7309SOL     OW22825   2.229   6.277   2.546
 7309SOL    HW122826   2.170   6.283   2.465
 7309SOL    HW222827   2.185   6.219   2.614
 7310SOL     OW22828   1.402   3.426   6.510
 7310SOL    HW122829   1.395   3.441   6.411
 7310SOL    HW222830   1.430   3.331   6.527
 7311SOL     OW22831   1.133   0.248   0.525
 7311SOL    HW122832   1.208   0.260   0.461
 7311SOL    HW222833   1.059   0.197   0.481
 7312SOL     OW22834   0.631   1.329   5.160
 7312SOL    HW122835   0.660   1.422   5.183
 7312SOL    HW222836   0.665   1.304   5.070
 7313SOL     OW22837   2.981   1.309   0.843
 7313SOL    HW122838   3.048   1.260   0.787
 7313SOL    HW222839   2.959   1.396   0.801
 7314SOL     OW22840   0.472   3.391   6.529
 7314SOL    HW122841   0.526   3.424   6.451
 7314SOL    HW222842   0.403   3.459   6.554
 7315SOL     OW22843   6.212   5.489   2.754
 7315SOL    HW122844   6.297   5.493   2.701
 7315SOL    HW222845   6.180   5.394   2.756
 7316SOL     OW22846   3.486   2.032   6.084
 7316SOL    HW122847   3.393   2.020   6.050
 7316SOL    HW222848   3.538   2.089   6.020
 7317SOL     OW22849   3.679   1.275   2.088
 7317SOL    HW122850   3.607   1.343   2.101
 7317SOL    HW222851   3.758   1.317   2.045
 7318SOL     OW22852   3.760   6.751   2.243
 7318SOL    HW122853   3.689   6.718   2.180
 7318SOL    HW222854   3.850   6.727   2.206
 7319SOL     OW22855   6.579   3.176   6.314
 7319SOL    HW122856   6.497   3.224   6.284
 7319SOL    HW222857   6.564   3.137   6.405
 7320SOL     OW22858   0.115   4.039   0.993
 7320SOL    HW122859   0.068   4.086   0.918
 7320SOL    HW222860   0.096   3.941   0.988
 7321SOL     OW22861   1.471   6.469   6.212
 7321SOL    HW122862   1.533   6.403   6.170
 7321SOL    HW222863   1.460   6.547   6.151
 7322SOL     OW22864   0.774   2.800   2.926
 7322SOL    HW122865   0.745   2.782   3.021
 7322SOL    HW222866   0.751   2.894   2.901
 7323SOL     OW22867   2.934   1.558   1.142
 7323SOL    HW122868   2.867   1.485   1.157
 7323SOL    HW222869   2.921   1.630   1.210
 7324SOL     OW22870   6.432   4.569   2.472
 7324SOL    HW122871   6.491   4.530   2.401
 7324SOL    HW222872   6.459   4.533   2.561
 7325SOL     OW22873   2.752   0.312   5.918
 7325SOL    HW122874   2.718   0.222   5.892
 7325SOL    HW222875   2.839   0.302   5.966
 7326SOL     OW22876   4.346   0.444   6.349
 7326SOL    HW122877   4.400   0.361   6.363
 7326SOL    HW222878   4.252   0.419   6.325
 7327SOL     OW22879   5.771   4.168   3.791
 7327SOL    HW122880   5.681   4.135   3.764
 7327SOL    HW222881   5.821   4.200   3.711
 7328SOL     OW22882   4.161   5.820   5.679
 7328SOL    HW122883   4.064   5.829   5.705
 7328SOL    HW222884   4.203   5.748   5.733
 7329SOL     OW22885   1.121   2.598   0.102
 7329SOL    HW122886   1.093   2.570   0.010
 7329SOL    HW222887   1.041   2.632   0.152
 7330SOL     OW22888   3.254   3.125   0.883
 7330SOL    HW122889   3.234   3.028   0.888
 7330SOL    HW222890   3.349   3.141   0.911
 7331SOL     OW22891   4.618   0.126   1.773
 7331SOL    HW122892   4.662   0.100   1.859
 7331SOL    HW222893   4.679   0.107   1.696
 7332SOL     OW22894   3.835   4.256   0.120
 7332SOL    HW122895   3.881   4.216   0.199
 7332SOL    HW222896   3.876   4.345   0.099
 7333SOL     OW22897   5.904   3.321   3.236
 7333SOL    HW122898   5.858   3.359   3.316
 7333SOL    HW222899   5.956   3.240   3.262
 7334SOL     OW22900   2.778   6.075   6.066
 7334SOL    HW122901   2.798   6.092   5.969
 7334SOL    HW222902   2.838   6.132   6.122
 7335SOL     OW22903   0.508   3.472   2.984
 7335SOL    HW122904   0.442   3.532   2.937
 7335SOL    HW222905   0.485   3.469   3.081
 7336SOL     OW22906   2.550   6.560   1.477
 7336SOL    HW122907   2.595   6.474   1.454
 7336SOL    HW222908   2.593   6.599   1.558
 7337SOL     OW22909   3.073   2.931   1.133
 7337SOL    HW122910   3.155   2.946   1.189
 7337SOL    HW222911   3.012   2.868   1.180
 7338SOL     OW22912   6.191   2.354   1.642
 7338SOL    HW122913   6.214   2.441   1.685
 7338SOL    HW222914   6.193   2.364   1.542
 7339SOL     OW22915   0.289   6.479   5.912
 7339SOL    HW122916   0.237   6.485   5.827
 7339SOL    HW222917   0.352   6.557   5.919
 7340SOL     OW22918   3.939   1.191   6.938
 7340SOL    HW122919   3.957   1.097   6.967
 7340SOL    HW222920   3.850   1.196   6.893
 7341SOL     OW22921   1.625   5.316   4.814
 7341SOL    HW122922   1.590   5.283   4.902
 7341SOL    HW222923   1.559   5.380   4.774
 7342SOL     OW22924   6.676   6.922   0.482
 7342SOL    HW122925   6.773   6.931   0.505
 7342SOL    HW222926   6.666   6.916   0.382
 7343SOL     OW22927   5.635   3.952   1.822
 7343SOL    HW122928   5.595   3.881   1.764
 7343SOL    HW222929   5.635   4.039   1.773
 7344SOL     OW22930   1.914   6.995   6.706
 7344SOL    HW122931   1.835   0.026   6.679
 7344SOL    HW222932   1.991   7.016   6.646
 7345SOL     OW22933   4.065   5.119   6.136
 7345SOL    HW122934   3.997   5.161   6.196
 7345SOL    HW222935   4.144   5.090   6.191
 7346SOL     OW22936   4.259   4.164   1.124
 7346SOL    HW122937   4.351   4.154   1.161
 7346SOL    HW222938   4.255   4.247   1.068
 7347SOL     OW22939   6.902   2.607   1.939
 7347SOL    HW122940   6.900   2.678   2.009
 7347SOL    HW222941   6.809   2.572   1.925
 7348SOL     OW22942   1.837   4.086   3.451
 7348SOL    HW122943   1.777   4.163   3.430
 7348SOL    HW222944   1.932   4.117   3.451
 7349SOL     OW22945   3.597   1.762   1.425
 7349SOL    HW122946   3.645   1.674   1.426
 7349SOL    HW222947   3.590   1.796   1.519
 7350SOL     OW22948   0.431   2.963   3.840
 7350SOL    HW122949   0.463   3.046   3.886
 7350SOL    HW222950   0.488   2.885   3.868
 7351SOL     OW22951   4.040   4.612   6.521
 7351SOL    HW122952   3.969   4.673   6.556
 7351SOL    HW222953   4.092   4.574   6.597
 7352SOL     OW22954   1.733   1.970   3.690
 7352SOL    HW122955   1.778   1.996   3.605
 7352SOL    HW222956   1.727   2.049   3.750
 7353SOL     OW22957   0.765   1.624   5.455
 7353SOL    HW122958   0.785   1.537   5.499
 7353SOL    HW222959   0.766   1.612   5.356
 7354SOL     OW22960   0.377   0.613   6.287
 7354SOL    HW122961   0.307   0.576   6.226
 7354SOL    HW222962   0.424   0.539   6.334
 7355SOL     OW22963   1.601   6.167   0.643
 7355SOL    HW122964   1.679   6.114   0.610
 7355SOL    HW222965   1.631   6.226   0.719
 7356SOL     OW22966   5.164   2.777   6.516
 7356SOL    HW122967   5.203   2.797   6.606
 7356SOL    HW222968   5.096   2.704   6.524
 7357SOL     OW22969   4.814   0.997   1.523
 7357SOL    HW122970   4.728   1.033   1.560
 7357SOL    HW222971   4.802   0.901   1.497
 7358SOL     OW22972   2.811   1.984   2.494
 7358SOL    HW122973   2.721   1.943   2.475
 7358SOL    HW222974   2.806   2.083   2.480
 7359SOL     OW22975   3.422   2.500   0.939
 7359SOL    HW122976   3.505   2.492   0.995
 7359SOL    HW222977   3.351   2.547   0.991
 7360SOL     OW22978   2.521   2.122   5.037
 7360SOL    HW122979   2.620   2.131   5.053
 7360SOL    HW222980   2.498   2.025   5.029
 7361SOL     OW22981   4.799   6.443   2.183
 7361SOL    HW122982   4.836   6.455   2.091
 7361SOL    HW222983   4.827   6.354   2.219
 7362SOL     OW22984   0.414   6.509   4.680
 7362SOL    HW122985   0.426   6.432   4.741
 7362SOL    HW222986   0.369   6.584   4.728
 7363SOL     OW22987   4.696   1.920   0.308
 7363SOL    HW122988   4.632   1.904   0.383
 7363SOL    HW222989   4.647   1.959   0.230
 7364SOL     OW22990   4.157   6.820   1.750
 7364SOL    HW122991   4.208   6.740   1.719
 7364SOL    HW222992   4.128   6.874   1.670
 7365SOL     OW22993   1.989   6.278   2.384
 7365SOL    HW122994   1.923   6.337   2.337
 7365SOL    HW222995   1.942   6.221   2.451
 7366SOL     OW22996   1.249   5.459   0.044
 7366SOL    HW122997   1.212   5.500   0.128
 7366SOL    HW222998   1.348   5.473   0.041
 7367SOL     OW22999   4.673   3.847   1.151
 7367SOL    HW123000   4.672   3.848   1.251
 7367SOL    HW223001   4.678   3.753   1.119
 7368SOL     OW23002   3.379   2.889   3.750
 7368SOL    HW123003   3.389   2.805   3.697
 7368SOL    HW223004   3.289   2.929   3.732
 7369SOL     OW23005   4.924   3.587   0.565
 7369SOL    HW123006   4.977   3.672   0.555
 7369SOL    HW223007   4.956   3.538   0.646
 7370SOL     OW23008   2.143   0.449   6.290
 7370SOL    HW123009   2.235   0.487   6.287
 7370SOL    HW223010   2.077   0.522   6.305
 7371SOL     OW23011   3.098   5.656   4.277
 7371SOL    HW123012   3.085   5.591   4.353
 7371SOL    HW223013   3.196   5.666   4.258
 7372SOL     OW23014   3.170   0.615   5.427
 7372SOL    HW123015   3.237   0.659   5.487
 7372SOL    HW223016   3.092   0.585   5.481
 7373SOL     OW23017   4.867   1.577   4.005
 7373SOL    HW123018   4.945   1.516   4.012
 7373SOL    HW223019   4.815   1.574   4.091
 7374SOL     OW23020   2.514   2.452   5.362
 7374SOL    HW123021   2.503   2.533   5.420
 7374SOL    HW223022   2.501   2.478   5.266
 7375SOL     OW23023   1.630   2.212   4.033
 7375SOL    HW123024   1.689   2.229   3.954
 7375SOL    HW223025   1.620   2.296   4.086
 7376SOL     OW23026   3.453   2.371   0.250
 7376SOL    HW123027   3.484   2.427   0.326
 7376SOL    HW223028   3.419   2.430   0.177
 7377SOL     OW23029   4.722   5.854   2.021
 7377SOL    HW123030   4.701   5.888   1.929
 7377SOL    HW223031   4.813   5.885   2.048
 7378SOL     OW23032   7.015   1.977   4.354
 7378SOL    HW123033   0.032   2.028   4.432
 7378SOL    HW223034   6.921   2.006   4.339
 7379SOL     OW23035   3.872   1.773   3.061
 7379SOL    HW123036   3.927   1.723   3.128
 7379SOL    HW223037   3.930   1.838   3.012
 7380SOL     OW23038   0.118   3.193   5.713
 7380SOL    HW123039   0.140   3.233   5.625
 7380SOL    HW223040   0.202   3.180   5.766
 7381SOL     OW23041   4.875   2.994   2.420
 7381SOL    HW123042   4.975   2.994   2.423
 7381SOL    HW223043   4.839   3.045   2.498
 7382SOL     OW23044   7.007   5.686   4.906
 7382SOL    HW123045   0.082   5.687   4.925
 7382SOL    HW223046   6.978   5.593   4.884
 7383SOL     OW23047   6.892   6.787   2.847
 7383SOL    HW123048   6.857   6.860   2.787
 7383SOL    HW223049   6.989   6.773   2.829
 7384SOL     OW23050   5.104   0.908   2.144
 7384SOL    HW123051   5.025   0.958   2.178
 7384SOL    HW223052   5.110   0.918   2.044
 7385SOL     OW23053   3.647   6.387   2.502
 7385SOL    HW123054   3.614   6.471   2.457
 7385SOL    HW223055   3.571   6.322   2.510
 7386SOL     OW23056   0.504   2.761   5.376
 7386SOL    HW123057   0.536   2.756   5.470
 7386SOL    HW223058   0.485   2.669   5.342
 7387SOL     OW23059   4.394   6.602   4.905
 7387SOL    HW123060   4.412   6.572   4.811
 7387SOL    HW223061   4.296   6.617   4.917
 7388SOL     OW23062   0.029   5.949   3.892
 7388SOL    HW123063   0.112   5.944   3.837
 7388SOL    HW223064   7.020   5.857   3.914
 7389SOL     OW23065   0.991   4.679   6.747
 7389SOL    HW123066   1.015   4.666   6.844
 7389SOL    HW223067   0.986   4.590   6.702
 7390SOL     OW23068   1.636   1.881   6.870
 7390SOL    HW123069   1.724   1.917   6.839
 7390SOL    HW223070   1.562   1.937   6.832
 7391SOL     OW23071   4.539   4.197   5.348
 7391SOL    HW123072   4.562   4.191   5.445
 7391SOL    HW223073   4.572   4.116   5.300
 7392SOL     OW23074   2.629   6.416   6.495
 7392SOL    HW123075   2.650   6.321   6.476
 7392SOL    HW223076   2.704   6.458   6.546
 7393SOL     OW23077   5.941   5.798   1.403
 7393SOL    HW123078   5.987   5.865   1.461
 7393SOL    HW223079   5.884   5.845   1.336
 7394SOL     OW23080   2.960   2.593   6.264
 7394SOL    HW123081   2.936   2.680   6.220
 7394SOL    HW223082   2.918   2.588   6.354
 7395SOL     OW23083   1.142   0.985   7.005
 7395SOL    HW123084   1.128   0.891   0.014
 7395SOL    HW223085   1.187   1.037   0.055
 7396SOL     OW23086   1.289   0.894   6.755
 7396SOL    HW123087   1.216   0.829   6.730
 7396SOL    HW223088   1.267   0.937   6.842
 7397SOL     OW23089   5.891   5.173   4.234
 7397SOL    HW123090   5.965   5.163   4.301
 7397SOL    HW223091   5.865   5.082   4.201
 7398SOL     OW23092   3.265   4.963   4.270
 7398SOL    HW123093   3.193   4.900   4.300
 7398SOL    HW223094   3.277   4.957   4.171
 7399SOL     OW23095   0.460   3.589   5.357
 7399SOL    HW123096   0.394   3.538   5.303
 7399SOL    HW223097   0.487   3.535   5.437
 7400SOL     OW23098   3.356   4.093   0.086
 7400SOL    HW123099   3.429   4.159   0.067
 7400SOL    HW223100   3.365   4.059   0.179
 7401SOL     OW23101   0.783   1.490   3.590
 7401SOL    HW123102   0.740   1.399   3.582
 7401SOL    HW223103   0.778   1.537   3.502
 7402SOL     OW23104   2.071   6.003   4.651
 7402SOL    HW123105   1.990   6.059   4.666
 7402SOL    HW223106   2.061   5.951   4.566
 7403SOL     OW23107   1.786   3.221   3.146
 7403SOL    HW123108   1.759   3.317   3.136
 7403SOL    HW223109   1.825   3.189   3.059
 7404SOL     OW23110   2.277   6.144   1.685
 7404SOL    HW123111   2.180   6.138   1.661
 7404SOL    HW223112   2.289   6.209   1.759
 7405SOL     OW23113   1.326   4.828   4.512
 7405SOL    HW123114   1.312   4.748   4.454
 7405SOL    HW223115   1.282   4.908   4.470
 7406SOL     OW23116   1.655   3.993   2.296
 7406SOL    HW123117   1.569   3.961   2.334
 7406SOL    HW223118   1.731   3.961   2.352
 7407SOL     OW23119   0.502   6.306   4.859
 7407SOL    HW123120   0.478   6.223   4.808
 7407SOL    HW223121   0.520   6.282   4.955
 7408SOL     OW23122   0.827   4.317   5.275
 7408SOL    HW123123   0.826   4.243   5.207
 7408SOL    HW223124   0.880   4.394   5.240
 7409SOL     OW23125   0.427   0.910   4.351
 7409SOL    HW123126   0.405   0.825   4.398
 7409SOL    HW223127   0.439   0.892   4.253
 7410SOL     OW23128   6.713   5.066   0.601
 7410SOL    HW123129   6.686   5.049   0.507
 7410SOL    HW223130   6.745   4.980   0.643
 7411SOL     OW23131   3.068   6.859   4.325
 7411SOL    HW123132   3.146   6.918   4.346
 7411SOL    HW223133   3.084   6.813   4.238
 7412SOL     OW23134   4.091   1.514   1.093
 7412SOL    HW123135   4.178   1.564   1.094
 7412SOL    HW223136   4.102   1.426   1.140
 7413SOL     OW23137   0.149   4.582   4.005
 7413SOL    HW123138   0.160   4.497   3.954
 7413SOL    HW223139   0.219   4.587   4.077
 7414SOL     OW23140   0.272   0.174   3.143
 7414SOL    HW123141   0.323   0.115   3.080
 7414SOL    HW223142   0.189   0.206   3.099
 7415SOL     OW23143   0.764   3.877   3.000
 7415SOL    HW123144   0.688   3.923   3.046
 7415SOL    HW223145   0.739   3.783   2.980
 7416SOL     OW23146   3.223   0.574   3.912
 7416SOL    HW123147   3.190   0.586   4.006
 7416SOL    HW223148   3.177   0.639   3.852
 7417SOL     OW23149   1.247   0.037   6.578
 7417SOL    HW123150   1.153   0.037   6.542
 7417SOL    HW223151   1.257   6.986   6.644
 7418SOL     OW23152   3.952   4.901   1.200
 7418SOL    HW123153   4.018   4.886   1.274
 7418SOL    HW223154   3.980   4.846   1.121
 7419SOL     OW23155   6.595   2.550   4.814
 7419SOL    HW123156   6.534   2.585   4.886
 7419SOL    HW223157   6.683   2.525   4.855
 7420SOL     OW23158   6.401   6.148   2.561
 7420SOL    HW123159   6.415   6.061   2.610
 7420SOL    HW223160   6.393   6.222   2.628
 7421SOL     OW23161   3.256   2.908   2.124
 7421SOL    HW123162   3.207   2.986   2.085
 7421SOL    HW223163   3.257   2.833   2.058
 7422SOL     OW23164   0.332   3.473   2.589
 7422SOL    HW123165   0.237   3.443   2.601
 7422SOL    HW223166   0.336   3.547   2.522
 7423SOL     OW23167   6.993   3.683   6.567
 7423SOL    HW123168   6.919   3.667   6.502
 7423SOL    HW223169   0.054   3.638   6.534
 7424SOL     OW23170   6.341   1.428   4.158
 7424SOL    HW123171   6.260   1.401   4.211
 7424SOL    HW223172   6.314   1.490   4.085
 7425SOL     OW23173   4.542   5.043   6.536
 7425SOL    HW123174   4.538   5.132   6.491
 7425SOL    HW223175   4.473   4.983   6.497
 7426SOL     OW23176   1.033   1.737   0.028
 7426SOL    HW123177   1.027   1.738   0.128
 7426SOL    HW223178   1.109   1.794   7.021
 7427SOL     OW23179   2.799   5.927   5.012
 7427SOL    HW123180   2.726   5.956   5.073
 7427SOL    HW223181   2.773   5.843   4.965
 7428SOL     OW23182   3.364   1.206   5.282
 7428SOL    HW123183   3.442   1.254   5.322
 7428SOL    HW223184   3.339   1.249   5.195
 7429SOL     OW23185   5.952   0.450   3.706
 7429SOL    HW123186   5.966   0.548   3.721
 7429SOL    HW223187   5.988   0.399   3.785
 7430SOL     OW23188   6.812   4.452   6.211
 7430SOL    HW123189   6.888   4.403   6.253
 7430SOL    HW223190   6.837   4.477   6.117
 7431SOL     OW23191   0.338   4.005   2.017
 7431SOL    HW123192   0.337   4.089   1.963
 7431SOL    HW223193   0.404   3.941   1.978
 7432SOL     OW23194   0.403   6.849   3.399
 7432SOL    HW123195   0.446   6.840   3.489
 7432SOL    HW223196   0.307   6.820   3.405
 7433SOL     OW23197   6.956   5.561   0.446
 7433SOL    HW123198   0.014   5.547   0.503
 7433SOL    HW223199   6.977   5.626   0.373
 7434SOL     OW23200   4.233   1.211   6.544
 7434SOL    HW123201   4.265   1.195   6.451
 7434SOL    HW223202   4.311   1.233   6.603
 7435SOL     OW23203   3.651   6.139   6.526
 7435SOL    HW123204   3.664   6.196   6.607
 7435SOL    HW223205   3.554   6.133   6.505
 7436SOL     OW23206   6.243   3.116   6.798
 7436SOL    HW123207   6.146   3.107   6.819
 7436SOL    HW223208   6.282   3.026   6.777
 7437SOL     OW23209   6.907   6.068   6.593
 7437SOL    HW123210   6.999   6.107   6.591
 7437SOL    HW223211   6.883   6.035   6.502
 7438SOL     OW23212   0.677   5.323   0.451
 7438SOL    HW123213   0.638   5.248   0.505
 7438SOL    HW223214   0.725   5.386   0.512
 7439SOL     OW23215   1.856   6.198   4.686
 7439SOL    HW123216   1.856   6.249   4.599
 7439SOL    HW223217   1.814   6.254   4.757
 7440SOL     OW23218   0.634   2.918   4.767
 7440SOL    HW123219   0.723   2.961   4.753
 7440SOL    HW223220   0.612   2.919   4.865
 7441SOL     OW23221   5.615   6.586   4.521
 7441SOL    HW123222   5.691   6.541   4.473
 7441SOL    HW223223   5.545   6.518   4.543
 7442SOL     OW23224   1.162   0.982   5.999
 7442SOL    HW123225   1.176   0.945   6.090
 7442SOL    HW223226   1.068   0.966   5.970
 7443SOL     OW23227   0.308   1.330   1.247
 7443SOL    HW123228   0.318   1.242   1.293
 7443SOL    HW223229   0.394   1.354   1.201
 7444SOL     OW23230   6.915   3.181   5.089
 7444SOL    HW123231   6.837   3.195   5.029
 7444SOL    HW223232   6.960   3.094   5.066
 7445SOL     OW23233   4.152   1.027   1.664
 7445SOL    HW123234   4.123   1.104   1.721
 7445SOL    HW223235   4.244   1.046   1.627
 7446SOL     OW23236   5.563   4.070   0.144
 7446SOL    HW123237   5.650   4.118   0.155
 7446SOL    HW223238   5.577   3.973   0.162
 7447SOL     OW23239   2.053   3.392   6.346
 7447SOL    HW123240   1.997   3.327   6.397
 7447SOL    HW223241   2.018   3.485   6.362
 7448SOL     OW23242   5.046   6.500   5.542
 7448SOL    HW123243   4.959   6.455   5.525
 7448SOL    HW223244   5.037   6.559   5.623
 7449SOL     OW23245   5.189   3.008   2.143
 7449SOL    HW123246   5.093   3.027   2.163
 7449SOL    HW223247   5.215   2.920   2.183
 7450SOL     OW23248   4.916   2.162   4.679
 7450SOL    HW123249   4.866   2.146   4.594
 7450SOL    HW223250   4.864   2.125   4.756
 7451SOL     OW23251   1.748   0.035   3.471
 7451SOL    HW123252   1.703   0.064   3.387
 7451SOL    HW223253   1.835   7.014   3.448
 7452SOL     OW23254   0.614   6.707   4.581
 7452SOL    HW123255   0.522   6.672   4.564
 7452SOL    HW223256   0.677   6.631   4.593
 7453SOL     OW23257   5.278   5.602   5.644
 7453SOL    HW123258   5.214   5.526   5.638
 7453SOL    HW223259   5.363   5.571   5.687
 7454SOL     OW23260   1.112   2.748   2.058
 7454SOL    HW123261   1.184   2.714   1.997
 7454SOL    HW223262   1.134   2.842   2.085
 7455SOL     OW23263   6.932   1.138   1.868
 7455SOL    HW123264   7.003   1.204   1.844
 7455SOL    HW223265   6.895   1.096   1.785
 7456SOL     OW23266   0.961   1.856   4.613
 7456SOL    HW123267   0.985   1.788   4.544
 7456SOL    HW223268   0.864   1.878   4.606
 7457SOL     OW23269   3.894   0.699   6.075
 7457SOL    HW123270   3.992   0.703   6.091
 7457SOL    HW223271   3.877   0.668   5.981
 7458SOL     OW23272   1.307   0.302   6.483
 7458SOL    HW123273   1.397   0.338   6.458
 7458SOL    HW223274   1.315   0.205   6.506
 7459SOL     OW23275   4.769   0.131   0.466
 7459SOL    HW123276   4.694   0.079   0.424
 7459SOL    HW223277   4.835   0.068   0.507
 7460SOL     OW23278   1.824   4.072   0.842
 7460SOL    HW123279   1.762   4.107   0.913
 7460SOL    HW223280   1.896   4.139   0.825
 7461SOL     OW23281   5.241   1.309   5.998
 7461SOL    HW123282   5.173   1.346   5.935
 7461SOL    HW223283   5.322   1.367   5.998
 7462SOL     OW23284   2.243   2.943   2.314
 7462SOL    HW123285   2.284   3.011   2.254
 7462SOL    HW223286   2.265   2.851   2.280
 7463SOL     OW23287   3.452   4.051   1.395
 7463SOL    HW123288   3.415   3.984   1.460
 7463SOL    HW223289   3.477   4.134   1.445
 7464SOL     OW23290   3.317   6.789   6.361
 7464SOL    HW123291   3.294   6.821   6.453
 7464SOL    HW223292   3.402   6.833   6.331
 7465SOL     OW23293   1.923   0.588   0.485
 7465SOL    HW123294   1.860   0.613   0.558
 7465SOL    HW223295   1.883   0.513   0.432
 7466SOL     OW23296   0.590   0.399   0.080
 7466SOL    HW123297   0.609   0.337   0.004
 7466SOL    HW223298   0.655   0.383   0.154
 7467SOL     OW23299   6.861   1.562   0.765
 7467SOL    HW123300   6.867   1.478   0.818
 7467SOL    HW223301   6.849   1.541   0.668
 7468SOL     OW23302   5.398   2.601   2.405
 7468SOL    HW123303   5.428   2.542   2.480
 7468SOL    HW223304   5.471   2.606   2.336
 7469SOL     OW23305   0.718   0.281   0.660
 7469SOL    HW123306   0.779   0.209   0.693
 7469SOL    HW223307   0.624   0.246   0.656
 7470SOL     OW23308   0.164   3.251   3.660
 7470SOL    HW123309   0.156   3.302   3.574
 7470SOL    HW223310   0.101   3.172   3.658
 7471SOL     OW23311   6.074   6.852   4.961
 7471SOL    HW123312   6.070   6.785   4.888
 7471SOL    HW223313   5.991   6.907   4.961
 7472SOL     OW23314   5.820   6.702   4.232
 7472SOL    HW123315   5.894   6.652   4.186
 7472SOL    HW223316   5.857   6.750   4.311
 7473SOL     OW23317   0.780   4.201   3.135
 7473SOL    HW123318   0.727   4.152   3.205
 7473SOL    HW223319   0.876   4.204   3.162
 7474SOL     OW23320   2.167   1.101   5.041
 7474SOL    HW123321   2.129   1.138   5.126
 7474SOL    HW223322   2.095   1.058   4.987
 7475SOL     OW23323   3.717   1.684   2.484
 7475SOL    HW123324   3.786   1.719   2.547
 7475SOL    HW223325   3.656   1.758   2.456
 7476SOL     OW23326   3.299   6.349   4.115
 7476SOL    HW123327   3.370   6.384   4.177
 7476SOL    HW223328   3.299   6.403   4.031
 7477SOL     OW23329   5.692   1.815   4.019
 7477SOL    HW123330   5.642   1.741   4.064
 7477SOL    HW223331   5.710   1.889   4.084
 7478SOL     OW23332   3.930   4.515   6.270
 7478SOL    HW123333   3.953   4.561   6.356
 7478SOL    HW223334   3.860   4.569   6.222
 7479SOL     OW23335   4.183   2.679   0.704
 7479SOL    HW123336   4.106   2.615   0.700
 7479SOL    HW223337   4.225   2.688   0.614
 7480SOL     OW23338   6.150   4.819   1.751
 7480SOL    HW123339   6.109   4.759   1.682
 7480SOL    HW223340   6.249   4.822   1.737
 7481SOL     OW23341   6.087   5.613   1.628
 7481SOL    HW123342   6.113   5.706   1.651
 7481SOL    HW223343   6.066   5.562   1.712
 7482SOL     OW23344   4.987   1.571   2.713
 7482SOL    HW123345   5.056   1.632   2.675
 7482SOL    HW223346   5.009   1.477   2.689
 7483SOL     OW23347   4.567   2.223   5.195
 7483SOL    HW123348   4.628   2.178   5.261
 7483SOL    HW223349   4.611   2.306   5.160
 7484SOL     OW23350   0.160   0.061   2.662
 7484SOL    HW123351   0.082   0.115   2.629
 7484SOL    HW223352   0.235   0.066   2.596
 7485SOL     OW23353   3.456   6.055   5.278
 7485SOL    HW123354   3.453   6.153   5.300
 7485SOL    HW223355   3.548   6.021   5.292
 7486SOL     OW23356   2.556   0.603   6.247
 7486SOL    HW123357   2.590   0.579   6.338
 7486SOL    HW223358   2.508   0.524   6.208
 7487SOL     OW23359   2.403   6.351   2.241
 7487SOL    HW123360   2.326   6.323   2.184
 7487SOL    HW223361   2.471   6.396   2.184
 7488SOL     OW23362   2.153   6.822   5.151
 7488SOL    HW123363   2.158   6.903   5.093
 7488SOL    HW223364   2.060   6.784   5.147
 7489SOL     OW23365   5.559   2.254   5.167
 7489SOL    HW123366   5.537   2.297   5.079
 7489SOL    HW223367   5.485   2.190   5.191
 7490SOL     OW23368   0.932   1.456   1.316
 7490SOL    HW123369   0.846   1.466   1.265
 7490SOL    HW223370   0.930   1.369   1.366
 7491SOL     OW23371   7.007   4.189   6.750
 7491SOL    HW123372   7.006   4.093   6.720
 7491SOL    HW223373   6.983   4.248   6.673
 7492SOL     OW23374   2.844   1.528   4.762
 7492SOL    HW123375   2.854   1.436   4.801
 7492SOL    HW223376   2.916   1.544   4.695
 7493SOL     OW23377   6.632   4.564   6.538
 7493SOL    HW123378   6.608   4.537   6.444
 7493SOL    HW223379   6.704   4.634   6.535
 7494SOL     OW23380   6.116   1.163   2.255
 7494SOL    HW123381   6.213   1.158   2.278
 7494SOL    HW223382   6.106   1.192   2.160
 7495SOL     OW23383   2.653   0.956   1.175
 7495SOL    HW123384   2.633   0.964   1.078
 7495SOL    HW223385   2.702   1.037   1.206
 7496SOL     OW23386   0.808   3.378   6.148
 7496SOL    HW123387   0.882   3.311   6.160
 7496SOL    HW223388   0.735   3.358   6.214
 7497SOL     OW23389   2.585   5.159   0.977
 7497SOL    HW123390   2.558   5.069   1.012
 7497SOL    HW223391   2.509   5.223   0.987
 7498SOL     OW23392   1.876   0.927   4.702
 7498SOL    HW123393   1.800   0.866   4.679
 7498SOL    HW223394   1.868   0.955   4.798
 7499SOL     OW23395   5.895   1.129   3.227
 7499SOL    HW123396   5.880   1.120   3.325
 7499SOL    HW223397   5.817   1.176   3.185
 7500SOL     OW23398   3.878   6.091   3.677
 7500SOL    HW123399   3.977   6.094   3.693
 7500SOL    HW223400   3.849   5.997   3.659
 7501SOL     OW23401   6.424   4.141   4.171
 7501SOL    HW123402   6.387   4.180   4.255
 7501SOL    HW223403   6.471   4.212   4.119
 7502SOL     OW23404   1.174   0.834   5.327
 7502SOL    HW123405   1.135   0.788   5.247
 7502SOL    HW223406   1.101   0.880   5.377
 7503SOL     OW23407   1.879   1.385   0.382
 7503SOL    HW123408   1.913   1.364   0.291
 7503SOL    HW223409   1.927   1.466   0.418
 7504SOL     OW23410   2.832   0.601   3.733
 7504SOL    HW123411   2.740   0.631   3.757
 7504SOL    HW223412   2.835   0.579   3.635
 7505SOL     OW23413   1.965   0.789   5.539
 7505SOL    HW123414   1.947   0.719   5.469
 7505SOL    HW223415   1.941   0.879   5.503
 7506SOL     OW23416   4.312   0.120   3.245
 7506SOL    HW123417   4.234   0.059   3.259
 7506SOL    HW223418   4.385   0.071   3.198
 7507SOL     OW23419   0.335   0.593   1.045
 7507SOL    HW123420   0.265   0.523   1.056
 7507SOL    HW223421   0.408   0.578   1.111
 7508SOL     OW23422   5.970   0.058   1.951
 7508SOL    HW123423   5.883   0.105   1.968
 7508SOL    HW223424   6.024   0.112   1.887
 7509SOL     OW23425   5.638   3.901   0.982
 7509SOL    HW123426   5.728   3.933   0.954
 7509SOL    HW223427   5.622   3.809   0.945
 7510SOL     OW23428   2.756   4.204   5.404
 7510SOL    HW123429   2.734   4.134   5.337
 7510SOL    HW223430   2.680   4.214   5.468
 7511SOL     OW23431   1.360   0.127   3.653
 7511SOL    HW123432   1.422   0.159   3.724
 7511SOL    HW223433   1.268   0.161   3.671
 7512SOL     OW23434   3.662   4.303   1.063
 7512SOL    HW123435   3.745   4.336   1.018
 7512SOL    HW223436   3.592   4.374   1.058
 7513SOL     OW23437   1.881   1.643   1.714
 7513SOL    HW123438   1.940   1.687   1.782
 7513SOL    HW223439   1.816   1.710   1.679
 7514SOL     OW23440   2.787   5.414   2.495
 7514SOL    HW123441   2.690   5.389   2.484
 7514SOL    HW223442   2.821   5.379   2.582
 7515SOL     OW23443   1.427   6.254   2.314
 7515SOL    HW123444   1.455   6.325   2.378
 7515SOL    HW223445   1.508   6.206   2.281
 7516SOL     OW23446   0.118   5.945   4.257
 7516SOL    HW123447   0.113   6.025   4.317
 7516SOL    HW223448   0.145   5.973   4.165
 7517SOL     OW23449   6.742   3.178   1.200
 7517SOL    HW123450   6.751   3.271   1.164
 7517SOL    HW223451   6.833   3.140   1.217
 7518SOL     OW23452   3.861   5.429   3.709
 7518SOL    HW123453   3.791   5.486   3.754
 7518SOL    HW223454   3.849   5.334   3.738
 7519SOL     OW23455   0.288   6.404   3.600
 7519SOL    HW123456   0.275   6.493   3.556
 7519SOL    HW223457   0.227   6.338   3.558
 7520SOL     OW23458   3.472   6.872   1.991
 7520SOL    HW123459   3.508   6.790   2.036
 7520SOL    HW223460   3.527   6.892   1.910
 7521SOL     OW23461   4.451   4.707   6.146
 7521SOL    HW123462   4.382   4.728   6.078
 7521SOL    HW223463   4.426   4.624   6.196
 7522SOL     OW23464   2.704   0.211   6.556
 7522SOL    HW123465   2.671   0.170   6.471
 7522SOL    HW223466   2.627   0.237   6.614
 7523SOL     OW23467   5.372   0.387   5.854
 7523SOL    HW123468   5.280   0.375   5.889
 7523SOL    HW223469   5.374   0.364   5.756
 7524SOL     OW23470   1.428   2.043   6.821
 7524SOL    HW123471   1.334   2.024   6.850
 7524SOL    HW223472   1.426   2.094   6.735
 7525SOL     OW23473   2.756   6.825   0.298
 7525SOL    HW123474   2.781   6.767   0.221
 7525SOL    HW223475   2.792   6.786   0.382
 7526SOL     OW23476   3.630   3.099   2.636
 7526SOL    HW123477   3.598   3.019   2.585
 7526SOL    HW223478   3.689   3.154   2.578
 7527SOL     OW23479   3.831   5.575   3.274
 7527SOL    HW123480   3.734   5.561   3.292
 7527SOL    HW223481   3.876   5.607   3.357
 7528SOL     OW23482   3.663   2.056   6.588
 7528SOL    HW123483   3.591   2.115   6.625
 7528SOL    HW223484   3.718   2.020   6.663
 7529SOL     OW23485   5.606   0.593   4.308
 7529SOL    HW123486   5.544   0.532   4.259
 7529SOL    HW223487   5.629   0.553   4.397
 7530SOL     OW23488   6.233   4.364   2.481
 7530SOL    HW123489   6.269   4.446   2.435
 7530SOL    HW223490   6.285   4.284   2.451
 7531SOL     OW23491   4.735   2.612   4.140
 7531SOL    HW123492   4.712   2.691   4.196
 7531SOL    HW223493   4.657   2.550   4.136
 7532SOL     OW23494   5.780   5.562   1.546
 7532SOL    HW123495   5.802   5.489   1.611
 7532SOL    HW223496   5.685   5.589   1.557
 7533SOL     OW23497   2.649   0.602   3.003
 7533SOL    HW123498   2.709   0.660   3.058
 7533SOL    HW223499   2.647   0.636   2.909
 7534SOL     OW23500   3.386   6.836   5.622
 7534SOL    HW123501   3.479   6.826   5.658
 7534SOL    HW223502   3.330   6.886   5.688
 7535SOL     OW23503   2.671   0.900   5.889
 7535SOL    HW123504   2.769   0.919   5.897
 7535SOL    HW223505   2.639   0.925   5.797
 7536SOL     OW23506   5.500   4.975   4.835
 7536SOL    HW123507   5.448   4.997   4.753
 7536SOL    HW223508   5.597   4.986   4.817
 7537SOL     OW23509   2.872   5.484   4.461
 7537SOL    HW123510   2.902   5.526   4.376
 7537SOL    HW223511   2.937   5.506   4.534
 7538SOL     OW23512   3.436   2.918   1.620
 7538SOL    HW123513   3.443   2.997   1.559
 7538SOL    HW223514   3.340   2.897   1.637
 7539SOL     OW23515   2.302   2.339   4.227
 7539SOL    HW123516   2.248   2.301   4.152
 7539SOL    HW223517   2.326   2.434   4.206
 7540SOL     OW23518   2.577   0.630   5.593
 7540SOL    HW123519   2.618   0.697   5.531
 7540SOL    HW223520   2.641   0.609   5.667
 7541SOL     OW23521   6.845   3.674   4.493
 7541SOL    HW123522   6.912   3.603   4.471
 7541SOL    HW223523   6.878   3.763   4.461
 7542SOL     OW23524   0.972   5.706   6.929
 7542SOL    HW123525   0.976   5.606   6.930
 7542SOL    HW223526   0.879   5.736   6.949
 7543SOL     OW23527   4.113   2.185   0.904
 7543SOL    HW123528   4.041   2.117   0.911
 7543SOL    HW223529   4.174   2.177   0.983
 7544SOL     OW23530   0.295   2.353   3.684
 7544SOL    HW123531   0.213   2.404   3.709
 7544SOL    HW223532   0.307   2.355   3.585
 7545SOL     OW23533   5.703   6.474   3.021
 7545SOL    HW123534   5.734   6.433   2.935
 7545SOL    HW223535   5.751   6.561   3.035
 7546SOL     OW23536   4.215   0.757   1.733
 7546SOL    HW123537   4.257   0.794   1.815
 7546SOL    HW223538   4.140   0.817   1.703
 7547SOL     OW23539   4.695   0.476   0.809
 7547SOL    HW123540   4.790   0.485   0.780
 7547SOL    HW223541   4.636   0.531   0.750
 7548SOL     OW23542   2.788   2.095   0.195
 7548SOL    HW123543   2.709   2.125   0.141
 7548SOL    HW223544   2.873   2.126   0.151
 7549SOL     OW23545   5.485   1.593   1.391
 7549SOL    HW123546   5.550   1.593   1.316
 7549SOL    HW223547   5.392   1.582   1.356
 7550SOL     OW23548   2.190   4.732   1.684
 7550SOL    HW123549   2.213   4.680   1.602
 7550SOL    HW223550   2.209   4.678   1.765
 7551SOL     OW23551   4.682   3.911   6.790
 7551SOL    HW123552   4.751   3.874   6.852
 7551SOL    HW223553   4.591   3.878   6.817
 7552SOL     OW23554   1.978   5.416   3.792
 7552SOL    HW123555   2.052   5.481   3.811
 7552SOL    HW223556   1.928   5.397   3.876
 7553SOL     OW23557   4.321   5.211   5.675
 7553SOL    HW123558   4.262   5.166   5.607
 7553SOL    HW223559   4.372   5.141   5.725
 7554SOL     OW23560   4.946   0.452   0.702
 7554SOL    HW123561   5.036   0.467   0.660
 7554SOL    HW223562   4.959   0.422   0.797
 7555SOL     OW23563   1.832   4.942   5.062
 7555SOL    HW123564   1.776   4.977   4.986
 7555SOL    HW223565   1.919   4.991   5.064
 7556SOL     OW23566   0.370   2.505   5.621
 7556SOL    HW123567   0.364   2.482   5.524
 7556SOL    HW223568   0.466   2.500   5.650
 7557SOL     OW23569   5.125   2.855   6.259
 7557SOL    HW123570   5.153   2.841   6.354
 7557SOL    HW223571   5.066   2.780   6.230
 7558SOL     OW23572   2.485   2.473   3.352
 7558SOL    HW123573   2.518   2.410   3.282
 7558SOL    HW223574   2.446   2.554   3.309
 7559SOL     OW23575   6.048   5.734   0.407
 7559SOL    HW123576   6.147   5.729   0.416
 7559SOL    HW223577   6.007   5.647   0.437
 7560SOL     OW23578   5.172   5.866   0.303
 7560SOL    HW123579   5.161   5.903   0.396
 7560SOL    HW223580   5.202   5.939   0.242
 7561SOL     OW23581   0.856   3.167   0.413
 7561SOL    HW123582   0.843   3.251   0.360
 7561SOL    HW223583   0.949   3.165   0.449
 7562SOL     OW23584   5.663   6.422   4.972
 7562SOL    HW123585   5.680   6.361   4.895
 7562SOL    HW223586   5.592   6.383   5.031
 7563SOL     OW23587   2.761   6.443   0.940
 7563SOL    HW123588   2.749   6.345   0.950
 7563SOL    HW223589   2.789   6.483   1.027
 7564SOL     OW23590   5.565   1.560   2.610
 7564SOL    HW123591   5.620   1.579   2.529
 7564SOL    HW223592   5.623   1.526   2.683
 7565SOL     OW23593   5.253   4.616   0.203
 7565SOL    HW123594   5.185   4.684   0.176
 7565SOL    HW223595   5.207   4.542   0.252
 7566SOL     OW23596   0.486   5.384   3.297
 7566SOL    HW123597   0.388   5.371   3.313
 7566SOL    HW223598   0.513   5.339   3.212
 7567SOL     OW23599   1.897   2.537   4.874
 7567SOL    HW123600   1.945   2.579   4.950
 7567SOL    HW223601   1.959   2.527   4.796
 7568SOL     OW23602   5.558   6.353   3.255
 7568SOL    HW123603   5.591   6.406   3.178
 7568SOL    HW223604   5.470   6.311   3.233
 7569SOL     OW23605   4.227   4.935   6.700
 7569SOL    HW123606   4.139   4.981   6.713
 7569SOL    HW223607   4.262   4.904   6.789
 7570SOL     OW23608   5.471   4.513   5.285
 7570SOL    HW123609   5.537   4.456   5.334
 7570SOL    HW223610   5.378   4.494   5.319
 7571SOL     OW23611   5.094   4.846   2.131
 7571SOL    HW123612   5.061   4.866   2.223
 7571SOL    HW223613   5.176   4.788   2.137
 7572SOL     OW23614   5.130   0.650   3.188
 7572SOL    HW123615   5.037   0.637   3.222
 7572SOL    HW223616   5.156   0.573   3.131
 7573SOL     OW23617   6.111   6.428   4.470
 7573SOL    HW123618   6.203   6.390   4.470
 7573SOL    HW223619   6.078   6.436   4.564
 7574SOL     OW23620   6.595   1.028   4.603
 7574SOL    HW123621   6.666   0.967   4.568
 7574SOL    HW223622   6.609   1.042   4.701
 7575SOL     OW23623   4.194   6.908   5.850
 7575SOL    HW123624   4.128   6.844   5.888
 7575SOL    HW223625   4.250   6.947   5.923
 7576SOL     OW23626   6.400   5.735   6.944
 7576SOL    HW123627   6.320   5.675   6.942
 7576SOL    HW223628   6.429   5.750   0.016
 7577SOL     OW23629   6.732   6.718   5.753
 7577SOL    HW123630   6.687   6.806   5.738
 7577SOL    HW223631   6.731   6.665   5.669
 7578SOL     OW23632   2.487   6.038   3.180
 7578SOL    HW123633   2.388   6.051   3.174
 7578SOL    HW223634   2.521   6.077   3.266
 7579SOL     OW23635   5.209   2.072   2.227
 7579SOL    HW123636   5.156   2.121   2.158
 7579SOL    HW223637   5.294   2.121   2.245
 7580SOL     OW23638   1.029   3.923   4.152
 7580SOL    HW123639   1.066   3.969   4.071
 7580SOL    HW223640   1.104   3.891   4.209
 7581SOL     OW23641   5.273   0.127   1.304
 7581SOL    HW123642   5.268   0.105   1.207
 7581SOL    HW223643   5.238   0.051   1.358
 7582SOL     OW23644   3.162   1.368   0.566
 7582SOL    HW123645   3.189   1.449   0.618
 7582SOL    HW223646   3.089   1.392   0.502
 7583SOL     OW23647   6.279   2.586   1.774
 7583SOL    HW123648   6.235   2.608   1.686
 7583SOL    HW223649   6.270   2.664   1.836
 7584SOL     OW23650   3.077   6.687   0.504
 7584SOL    HW123651   2.980   6.703   0.486
 7584SOL    HW223652   3.088   6.652   0.598
 7585SOL     OW23653   1.725   3.220   6.213
 7585SOL    HW123654   1.673   3.295   6.173
 7585SOL    HW223655   1.819   3.223   6.179
 7586SOL     OW23656   3.751   0.503   3.547
 7586SOL    HW123657   3.705   0.431   3.599
 7586SOL    HW223658   3.691   0.537   3.476
 7587SOL     OW23659   2.960   1.190   6.843
 7587SOL    HW123660   2.882   1.243   6.876
 7587SOL    HW223661   3.021   1.248   6.790
 7588SOL     OW23662   1.617   3.307   2.183
 7588SOL    HW123663   1.709   3.290   2.147
 7588SOL    HW223664   1.550   3.258   2.127
 7589SOL     OW23665   6.663   7.009   0.969
 7589SOL    HW123666   6.636   6.923   1.011
 7589SOL    HW223667   6.652   7.003   0.870
 7590SOL     OW23668   3.174   2.062   6.535
 7590SOL    HW123669   3.219   2.097   6.617
 7590SOL    HW223670   3.212   1.972   6.512
 7591SOL     OW23671   7.017   4.618   0.714
 7591SOL    HW123672   6.925   4.623   0.675
 7591SOL    HW223673   7.012   4.590   0.809
 7592SOL     OW23674   6.644   4.254   6.117
 7592SOL    HW123675   6.604   4.266   6.208
 7592SOL    HW223676   6.711   4.327   6.100
 7593SOL     OW23677   5.485   2.552   0.888
 7593SOL    HW123678   5.410   2.618   0.897
 7593SOL    HW223679   5.510   2.543   0.792
 7594SOL     OW23680   0.141   4.739   2.334
 7594SOL    HW123681   0.186   4.671   2.392
 7594SOL    HW223682   0.156   4.830   2.371
 7595SOL     OW23683   6.886   2.472   5.987
 7595SOL    HW123684   6.923   2.565   5.988
 7595SOL    HW223685   6.787   2.476   5.997
 7596SOL     OW23686   4.038   5.552   3.073
 7596SOL    HW123687   4.025   5.494   2.993
 7596SOL    HW223688   3.955   5.551   3.129
 7597SOL     OW23689   2.698   5.891   2.218
 7597SOL    HW123690   2.681   5.903   2.316
 7597SOL    HW223691   2.728   5.978   2.178
 7598SOL     OW23692   6.997   1.550   2.805
 7598SOL    HW123693   6.941   1.550   2.722
 7598SOL    HW223694   0.031   1.632   2.808
 7599SOL     OW23695   5.735   1.723   3.096
 7599SOL    HW123696   5.753   1.707   3.193
 7599SOL    HW223697   5.822   1.734   3.047
 7600SOL     OW23698   1.864   1.157   2.215
 7600SOL    HW123699   1.840   1.244   2.173
 7600SOL    HW223700   1.789   1.092   2.205
 7601SOL     OW23701   1.822   5.872   2.662
 7601SOL    HW123702   1.912   5.829   2.656
 7601SOL    HW223703   1.762   5.834   2.592
 7602SOL     OW23704   1.180   4.248   6.640
 7602SOL    HW123705   1.221   4.244   6.549
 7602SOL    HW223706   1.150   4.156   6.667
 7603SOL     OW23707   1.413   5.057   6.096
 7603SOL    HW123708   1.394   5.081   6.001
 7603SOL    HW223709   1.487   5.115   6.132
 7604SOL     OW23710   1.805   4.050   4.301
 7604SOL    HW123711   1.831   4.044   4.397
 7604SOL    HW223712   1.803   3.959   4.261
 7605SOL     OW23713   0.470   6.742   0.434
 7605SOL    HW123714   0.483   6.681   0.356
 7605SOL    HW223715   0.522   6.708   0.512
 7606SOL     OW23716   6.776   3.070   3.925
 7606SOL    HW123717   6.751   2.975   3.909
 7606SOL    HW223718   6.808   3.111   3.839
 7607SOL     OW23719   4.477   5.588   0.472
 7607SOL    HW123720   4.474   5.547   0.563
 7607SOL    HW223721   4.384   5.612   0.444
 7608SOL     OW23722   3.128   3.937   2.852
 7608SOL    HW123723   3.123   3.921   2.753
 7608SOL    HW223724   3.201   3.882   2.891
 7609SOL     OW23725   0.443   3.989   3.914
 7609SOL    HW123726   0.490   4.072   3.946
 7609SOL    HW223727   0.347   3.993   3.942
 7610SOL     OW23728   5.868   0.125   6.790
 7610SOL    HW123729   5.917   0.081   6.866
 7610SOL    HW223730   5.904   0.092   6.703
 7611SOL     OW23731   0.772   1.853   0.234
 7611SOL    HW123732   0.704   1.927   0.240
 7611SOL    HW223733   0.727   1.770   0.201
 7612SOL     OW23734   5.116   3.323   4.582
 7612SOL    HW123735   5.045   3.350   4.518
 7612SOL    HW223736   5.206   3.338   4.540
 7613SOL     OW23737   5.840   3.283   1.359
 7613SOL    HW123738   5.906   3.305   1.431
 7613SOL    HW223739   5.758   3.339   1.372
 7614SOL     OW23740   5.350   3.679   1.215
 7614SOL    HW123741   5.331   3.713   1.307
 7614SOL    HW223742   5.264   3.655   1.169
 7615SOL     OW23743   4.666   4.050   6.257
 7615SOL    HW123744   4.765   4.032   6.262
 7615SOL    HW223745   4.623   3.982   6.199
 7616SOL     OW23746   0.092   4.486   4.625
 7616SOL    HW123747   0.042   4.554   4.679
 7616SOL    HW223748   0.066   4.394   4.654
 7617SOL     OW23749   3.067   5.460   2.941
 7617SOL    HW123750   2.999   5.388   2.960
 7617SOL    HW223751   3.022   5.538   2.899
 7618SOL     OW23752   0.623   2.153   6.623
 7618SOL    HW123753   0.708   2.198   6.596
 7618SOL    HW223754   0.632   2.115   6.715
 7619SOL     OW23755   5.485   3.624   5.439
 7619SOL    HW123756   5.411   3.606   5.504
 7619SOL    HW223757   5.447   3.635   5.347
 7620SOL     OW23758   3.466   5.283   0.017
 7620SOL    HW123759   3.483   5.335   6.955
 7620SOL    HW223760   3.433   5.345   0.088
 7621SOL     OW23761   0.452   1.898   0.364
 7621SOL    HW123762   0.479   1.969   0.429
 7621SOL    HW223763   0.490   1.810   0.394
 7622SOL     OW23764   5.181   5.794   1.914
 7622SOL    HW123765   5.137   5.800   1.825
 7622SOL    HW223766   5.281   5.795   1.902
 7623SOL     OW23767   4.704   4.660   6.841
 7623SOL    HW123768   4.614   4.633   6.809
 7623SOL    HW223769   4.726   4.752   6.806
 7624SOL     OW23770   6.867   2.540   4.866
 7624SOL    HW123771   6.872   2.524   4.767
 7624SOL    HW223772   6.858   2.638   4.883
 7625SOL     OW23773   4.688   0.473   1.098
 7625SOL    HW123774   4.641   0.405   1.041
 7625SOL    HW223775   4.676   0.564   1.058
 7626SOL     OW23776   6.607   6.538   4.210
 7626SOL    HW123777   6.591   6.440   4.195
 7626SOL    HW223778   6.635   6.581   4.124
 7627SOL     OW23779   5.343   3.060   6.572
 7627SOL    HW123780   5.243   3.068   6.574
 7627SOL    HW223781   5.372   2.989   6.637
 7628SOL     OW23782   3.731   0.466   2.335
 7628SOL    HW123783   3.714   0.442   2.240
 7628SOL    HW223784   3.644   0.484   2.381
 7629SOL     OW23785   0.083   0.201   2.958
 7629SOL    HW123786   0.014   0.258   2.912
 7629SOL    HW223787   0.109   0.126   2.898
 7630SOL     OW23788   6.257   6.924   1.415
 7630SOL    HW123789   6.215   7.005   1.456
 7630SOL    HW223790   6.302   6.870   1.487
 7631SOL     OW23791   0.489   0.984   5.652
 7631SOL    HW123792   0.482   1.079   5.621
 7631SOL    HW223793   0.461   0.923   5.578
 7632SOL     OW23794   3.778   2.809   1.787
 7632SOL    HW123795   3.793   2.844   1.694
 7632SOL    HW223796   3.790   2.709   1.787
 7633SOL     OW23797   4.546   2.452   0.585
 7633SOL    HW123798   4.459   2.443   0.634
 7633SOL    HW223799   4.534   2.516   0.509
 7634SOL     OW23800   0.720   1.747   2.478
 7634SOL    HW123801   0.715   1.779   2.383
 7634SOL    HW223802   0.641   1.781   2.529
 7635SOL     OW23803   2.762   6.142   5.347
 7635SOL    HW123804   2.811   6.196   5.279
 7635SOL    HW223805   2.678   6.106   5.307
 7636SOL     OW23806   1.773   2.237   3.418
 7636SOL    HW123807   1.676   2.243   3.395
 7636SOL    HW223808   1.797   2.313   3.479
 7637SOL     OW23809   2.636   6.393   3.059
 7637SOL    HW123810   2.685   6.433   2.982
 7637SOL    HW223811   2.696   6.331   3.109
 7638SOL     OW23812   4.018   5.986   1.582
 7638SOL    HW123813   4.011   5.993   1.482
 7638SOL    HW223814   4.104   5.940   1.605
 7639SOL     OW23815   1.559   2.067   0.804
 7639SOL    HW123816   1.461   2.052   0.818
 7639SOL    HW223817   1.611   2.025   0.878
 7640SOL     OW23818   3.291   1.935   0.288
 7640SOL    HW123819   3.326   1.848   0.253
 7640SOL    HW223820   3.193   1.926   0.306
 7641SOL     OW23821   0.920   4.148   1.716
 7641SOL    HW123822   0.924   4.222   1.648
 7641SOL    HW223823   1.004   4.094   1.710
 7642SOL     OW23824   2.728   1.317   2.000
 7642SOL    HW123825   2.794   1.388   2.023
 7642SOL    HW223826   2.710   1.319   1.902
 7643SOL     OW23827   4.792   2.813   4.307
 7643SOL    HW123828   4.799   2.901   4.260
 7643SOL    HW223829   4.884   2.781   4.332
 7644SOL     OW23830   5.835   2.441   2.136
 7644SOL    HW123831   5.853   2.376   2.210
 7644SOL    HW223832   5.840   2.394   2.048
 7645SOL     OW23833   4.327   4.037   5.692
 7645SOL    HW123834   4.342   3.940   5.674
 7645SOL    HW223835   4.416   4.083   5.699
 7646SOL     OW23836   2.295   2.658   2.382
 7646SOL    HW123837   2.233   2.651   2.304
 7646SOL    HW223838   2.257   2.610   2.460
 7647SOL     OW23839   0.058   3.616   2.156
 7647SOL    HW123840   0.077   3.523   2.126
 7647SOL    HW223841   6.996   3.649   2.114
 7648SOL     OW23842   3.653   1.545   3.676
 7648SOL    HW123843   3.618   1.623   3.727
 7648SOL    HW223844   3.728   1.574   3.618
 7649SOL     OW23845   1.027   1.151   2.691
 7649SOL    HW123846   1.068   1.062   2.674
 7649SOL    HW223847   1.087   1.223   2.656
 7650SOL     OW23848   5.116   2.791   1.357
 7650SOL    HW123849   5.089   2.867   1.417
 7650SOL    HW223850   5.192   2.820   1.299
 7651SOL     OW23851   2.370   6.792   5.293
 7651SOL    HW123852   2.447   6.848   5.263
 7651SOL    HW223853   2.297   6.797   5.225
 7652SOL     OW23854   6.810   4.148   4.649
 7652SOL    HW123855   6.786   4.051   4.638
 7652SOL    HW223856   6.731   4.205   4.629
 7653SOL     OW23857   2.945   1.406   0.412
 7653SOL    HW123858   2.874   1.353   0.366
 7653SOL    HW223859   2.997   1.457   0.343
 7654SOL     OW23860   5.423   3.512   3.932
 7654SOL    HW123861   5.458   3.437   3.876
 7654SOL    HW223862   5.350   3.560   3.882
 7655SOL     OW23863   3.547   0.585   3.355
 7655SOL    HW123864   3.460   0.624   3.323
 7655SOL    HW223865   3.605   0.565   3.276
 7656SOL     OW23866   1.892   4.778   6.372
 7656SOL    HW123867   1.907   4.735   6.284
 7656SOL    HW223868   1.967   4.756   6.434
 7657SOL     OW23869   2.736   2.397   3.468
 7657SOL    HW123870   2.655   2.449   3.441
 7657SOL    HW223871   2.734   2.382   3.567
 7658SOL     OW23872   3.619   0.120   5.732
 7658SOL    HW123873   3.627   0.069   5.818
 7658SOL    HW223874   3.625   0.218   5.751
 7659SOL     OW23875   5.755   5.648   6.669
 7659SOL    HW123876   5.764   5.742   6.636
 7659SOL    HW223877   5.831   5.627   6.731
 7660SOL     OW23878   0.131   6.393   4.066
 7660SOL    HW123879   0.146   6.295   4.055
 7660SOL    HW223880   0.174   6.442   3.989
 7661SOL     OW23881   5.558   2.361   4.913
 7661SOL    HW123882   5.616   2.441   4.923
 7661SOL    HW223883   5.478   2.383   4.857
 7662SOL     OW23884   0.777   2.326   2.314
 7662SOL    HW123885   0.698   2.387   2.310
 7662SOL    HW223886   0.848   2.367   2.372
 7663SOL     OW23887   0.453   6.671   5.956
 7663SOL    HW123888   0.546   6.634   5.967
 7663SOL    HW223889   0.417   6.695   6.046
 7664SOL     OW23890   3.877   0.111   2.655
 7664SOL    HW123891   3.963   0.062   2.645
 7664SOL    HW223892   3.849   0.110   2.751
 7665SOL     OW23893   4.954   6.932   5.282
 7665SOL    HW123894   4.911   6.877   5.354
 7665SOL    HW223895   5.031   6.881   5.243
 7666SOL     OW23896   0.889   6.438   1.747
 7666SOL    HW123897   0.821   6.487   1.801
 7666SOL    HW223898   0.977   6.486   1.754
 7667SOL     OW23899   4.487   6.312   2.054
 7667SOL    HW123900   4.581   6.340   2.073
 7667SOL    HW223901   4.450   6.367   1.979
 7668SOL     OW23902   3.560   4.080   1.147
 7668SOL    HW123903   3.502   4.070   1.228
 7668SOL    HW223904   3.596   4.173   1.143
 7669SOL     OW23905   5.767   1.519   6.080
 7669SOL    HW123906   5.749   1.593   6.015
 7669SOL    HW223907   5.826   1.553   6.153
 7670SOL     OW23908   0.550   4.459   6.723
 7670SOL    HW123909   0.624   4.432   6.661
 7670SOL    HW223910   0.468   4.481   6.669
 7671SOL     OW23911   4.076   0.583   4.207
 7671SOL    HW123912   4.060   0.517   4.280
 7671SOL    HW223913   4.105   0.670   4.247
 7672SOL     OW23914   5.861   6.675   3.434
 7672SOL    HW123915   5.935   6.739   3.412
 7672SOL    HW223916   5.894   6.609   3.503
 7673SOL     OW23917   1.963   5.245   6.892
 7673SOL    HW123918   1.866   5.258   6.873
 7673SOL    HW223919   1.983   5.148   6.898
 7674SOL     OW23920   6.027   2.313   3.838
 7674SOL    HW123921   6.060   2.387   3.780
 7674SOL    HW223922   6.037   2.338   3.934
 7675SOL     OW23923   5.064   6.819   2.680
 7675SOL    HW123924   4.967   6.829   2.658
 7675SOL    HW223925   5.101   6.738   2.635
 7676SOL     OW23926   1.708   1.745   0.534
 7676SOL    HW123927   1.693   1.842   0.554
 7676SOL    HW223928   1.794   1.734   0.484
 7677SOL     OW23929   0.041   3.924   2.094
 7677SOL    HW123930   0.105   3.878   2.032
 7677SOL    HW223931   0.050   4.023   2.083
 7678SOL     OW23932   2.367   1.485   4.831
 7678SOL    HW123933   2.420   1.410   4.791
 7678SOL    HW223934   2.421   1.531   4.901
 7679SOL     OW23935   2.460   6.032   6.237
 7679SOL    HW123936   2.532   5.970   6.269
 7679SOL    HW223937   2.378   6.020   6.293
 7680SOL     OW23938   1.456   1.685   0.377
 7680SOL    HW123939   1.456   1.628   0.295
 7680SOL    HW223940   1.550   1.692   0.412
 7681SOL     OW23941   3.109   6.677   0.247
 7681SOL    HW123942   3.197   6.649   0.209
 7681SOL    HW223943   3.105   6.652   0.344
 7682SOL     OW23944   3.123   0.281   1.880
 7682SOL    HW123945   3.035   0.285   1.929
 7682SOL    HW223946   3.169   0.195   1.901
 7683SOL     OW23947   6.482   2.079   3.845
 7683SOL    HW123948   6.424   2.145   3.797
 7683SOL    HW223949   6.576   2.112   3.846
 7684SOL     OW23950   4.316   2.139   1.149
 7684SOL    HW123951   4.237   2.094   1.191
 7684SOL    HW223952   4.357   2.203   1.214
 7685SOL     OW23953   3.229   3.567   6.846
 7685SOL    HW123954   3.259   3.506   6.773
 7685SOL    HW223955   3.157   3.628   6.812
 7686SOL     OW23956   5.815   6.915   2.961
 7686SOL    HW123957   5.783   6.848   3.028
 7686SOL    HW223958   5.737   6.952   2.912
 7687SOL     OW23959   5.794   5.160   4.998
 7687SOL    HW123960   5.859   5.209   5.056
 7687SOL    HW223961   5.738   5.225   4.948
 7688SOL     OW23962   0.214   6.715   5.421
 7688SOL    HW123963   0.176   6.750   5.335
 7688SOL    HW223964   0.261   6.789   5.470
 7689SOL     OW23965   5.046   6.393   2.893
 7689SOL    HW123966   5.113   6.467   2.879
 7689SOL    HW223967   5.095   6.305   2.897
 7690SOL     OW23968   6.402   5.014   1.108
 7690SOL    HW123969   6.410   4.921   1.142
 7690SOL    HW223970   6.307   5.032   1.083
 7691SOL     OW23971   5.177   3.134   3.993
 7691SOL    HW123972   5.116   3.058   3.969
 7691SOL    HW223973   5.252   3.100   4.049
 7692SOL     OW23974   1.088   6.347   2.035
 7692SOL    HW123975   1.011   6.298   1.993
 7692SOL    HW223976   1.054   6.430   2.078
 7693SOL     OW23977   3.514   0.029   1.473
 7693SOL    HW123978   3.522   7.017   1.566
 7693SOL    HW223979   3.562   0.117   1.466
 7694SOL     OW23980   0.211   4.309   4.164
 7694SOL    HW123981   0.208   4.269   4.256
 7694SOL    HW223982   0.121   4.303   4.122
 7695SOL     OW23983   4.279   6.339   0.286
 7695SOL    HW123984   4.203   6.321   0.348
 7695SOL    HW223985   4.273   6.432   0.251
 7696SOL     OW23986   6.821   1.381   4.649
 7696SOL    HW123987   6.859   1.307   4.704
 7696SOL    HW223988   6.775   1.344   4.569
 7697SOL     OW23989   3.017   0.006   1.669
 7697SOL    HW123990   3.108   0.049   1.668
 7697SOL    HW223991   3.021   6.941   1.621
 7698SOL     OW23992   6.584   1.910   4.055
 7698SOL    HW123993   6.486   1.929   4.057
 7698SOL    HW223994   6.632   1.975   4.114
 7699SOL     OW23995   3.465   6.157   0.608
 7699SOL    HW123996   3.484   6.061   0.626
 7699SOL    HW223997   3.550   6.204   0.585
 7700SOL     OW23998   4.786   6.498   4.649
 7700SOL    HW123999   4.816   6.422   4.706
 7700SOL    HW224000   4.826   6.489   4.558
 7701SOL     OW24001   0.103   1.561   6.780
 7701SOL    HW124002   0.197   1.571   6.746
 7701SOL    HW224003   0.103   1.501   6.860
 7702SOL     OW24004   2.856   6.526   6.227
 7702SOL    HW124005   2.876   6.601   6.164
 7702SOL    HW224006   2.762   6.534   6.261
 7703SOL     OW24007   6.284   0.855   5.216
 7703SOL    HW124008   6.189   0.864   5.245
 7703SOL    HW224009   6.320   0.765   5.242
 7704SOL     OW24010   5.473   4.752   5.558
 7704SOL    HW124011   5.457   4.661   5.521
 7704SOL    HW224012   5.561   4.786   5.526
 7705SOL     OW24013   3.807   4.994   5.800
 7705SOL    HW124014   3.748   5.040   5.733
 7705SOL    HW224015   3.874   4.938   5.752
 7706SOL     OW24016   4.601   2.406   4.696
 7706SOL    HW124017   4.552   2.353   4.627
 7706SOL    HW224018   4.537   2.462   4.748
 7707SOL     OW24019   1.052   5.300   6.255
 7707SOL    HW124020   0.975   5.252   6.298
 7707SOL    HW224021   1.093   5.241   6.186
 7708SOL     OW24022   5.709   6.672   5.613
 7708SOL    HW124023   5.690   6.743   5.681
 7708SOL    HW224024   5.685   6.705   5.522
 7709SOL     OW24025   5.862   4.456   1.412
 7709SOL    HW124026   5.777   4.402   1.411
 7709SOL    HW224027   5.851   4.537   1.354
 7710SOL     OW24028   4.041   0.719   0.979
 7710SOL    HW124029   3.958   0.725   0.924
 7710SOL    HW224030   4.054   0.805   1.029
 7711SOL     OW24031   5.973   6.248   5.043
 7711SOL    HW124032   5.997   6.204   4.956
 7711SOL    HW224033   5.974   6.348   5.031
 7712SOL     OW24034   5.389   5.360   2.235
 7712SOL    HW124035   5.433   5.303   2.305
 7712SOL    HW224036   5.299   5.389   2.268
 7713SOL     OW24037   1.273   5.094   0.326
 7713SOL    HW124038   1.334   5.120   0.401
 7713SOL    HW224039   1.319   5.111   0.238
 7714SOL     OW24040   6.598   4.563   5.464
 7714SOL    HW124041   6.688   4.607   5.459
 7714SOL    HW224042   6.594   4.507   5.547
 7715SOL     OW24043   4.647   2.055   6.912
 7715SOL    HW124044   4.598   2.059   6.999
 7715SOL    HW224045   4.734   2.103   6.920
 7716SOL     OW24046   6.448   4.440   4.105
 7716SOL    HW124047   6.506   4.417   4.027
 7716SOL    HW224048   6.504   4.441   4.188
 7717SOL     OW24049   1.704   1.191   4.880
 7717SOL    HW124050   1.665   1.122   4.819
 7717SOL    HW224051   1.722   1.274   4.828
 7718SOL     OW24052   2.127   1.924   3.148
 7718SOL    HW124053   2.057   1.882   3.206
 7718SOL    HW224054   2.211   1.871   3.155
 7719SOL     OW24055   6.914   3.374   4.221
 7719SOL    HW124056   6.979   3.315   4.270
 7719SOL    HW224057   6.835   3.392   4.280
 7720SOL     OW24058   0.350   0.286   0.176
 7720SOL    HW124059   0.407   0.214   0.215
 7720SOL    HW224060   0.406   0.347   0.119
 7721SOL     OW24061   0.828   4.916   2.326
 7721SOL    HW124062   0.755   4.866   2.280
 7721SOL    HW224063   0.876   4.856   2.389
 7722SOL     OW24064   0.233   5.856   3.162
 7722SOL    HW124065   0.144   5.857   3.207
 7722SOL    HW224066   0.277   5.945   3.173
 7723SOL     OW24067   6.667   3.933   6.765
 7723SOL    HW124068   6.618   3.929   6.678
 7723SOL    HW224069   6.766   3.933   6.747
 7724SOL     OW24070   2.398   4.474   1.845
 7724SOL    HW124071   2.435   4.551   1.898
 7724SOL    HW224072   2.459   4.455   1.768
 7725SOL     OW24073   5.434   3.317   3.473
 7725SOL    HW124074   5.374   3.320   3.393
 7725SOL    HW224075   5.380   3.329   3.556
 7726SOL     OW24076   1.421   6.237   4.890
 7726SOL    HW124077   1.362   6.158   4.874
 7726SOL    HW224078   1.366   6.314   4.922
 7727SOL     OW24079   0.430   0.911   2.825
 7727SOL    HW124080   0.446   0.831   2.884
 7727SOL    HW224081   0.378   0.979   2.876
 7728SOL     OW24082   0.856   5.226   3.316
 7728SOL    HW124083   0.802   5.179   3.385
 7728SOL    HW224084   0.945   5.251   3.354
 7729SOL     OW24085   5.790   3.042   0.864
 7729SOL    HW124086   5.735   3.085   0.793
 7729SOL    HW224087   5.750   3.061   0.953
 7730SOL     OW24088   6.011   6.135   1.733
 7730SOL    HW124089   6.004   6.235   1.736
 7730SOL    HW224090   5.992   6.099   1.825
 7731SOL     OW24091   6.114   0.746   0.932
 7731SOL    HW124092   6.163   0.820   0.886
 7731SOL    HW224093   6.160   0.659   0.913
 7732SOL     OW24094   4.619   6.524   0.630
 7732SOL    HW124095   4.588   6.436   0.594
 7732SOL    HW224096   4.540   6.578   0.660
 7733SOL     OW24097   4.315   0.185   2.584
 7733SOL    HW124098   4.299   0.199   2.682
 7733SOL    HW224099   4.401   0.228   2.558
 7734SOL     OW24100   2.389   5.258   3.485
 7734SOL    HW124101   2.398   5.169   3.530
 7734SOL    HW224102   2.319   5.253   3.414
 7735SOL     OW24103   4.837   6.234   5.998
 7735SOL    HW124104   4.745   6.234   5.958
 7735SOL    HW224105   4.831   6.220   6.096
 7736SOL     OW24106   3.955   3.970   6.859
 7736SOL    HW124107   4.010   3.890   6.839
 7736SOL    HW224108   3.864   3.959   6.820
 7737SOL     OW24109   4.092   0.831   2.448
 7737SOL    HW124110   4.063   0.748   2.494
 7737SOL    HW224111   4.149   0.886   2.510
 7738SOL     OW24112   2.322   5.634   6.781
 7738SOL    HW124113   2.236   5.680   6.805
 7738SOL    HW224114   2.380   5.697   6.730
 7739SOL     OW24115   1.058   2.148   1.872
 7739SOL    HW124116   1.086   2.057   1.903
 7739SOL    HW224117   0.992   2.187   1.936
 7740SOL     OW24118   1.860   1.099   3.334
 7740SOL    HW124119   1.837   1.004   3.353
 7740SOL    HW224120   1.871   1.112   3.236
 7741SOL     OW24121   1.048   5.562   4.506
 7741SOL    HW124122   0.953   5.580   4.482
 7741SOL    HW224123   1.058   5.565   4.606
 7742SOL     OW24124   5.697   2.536   3.355
 7742SOL    HW124125   5.649   2.481   3.423
 7742SOL    HW224126   5.744   2.612   3.401
 7743SOL     OW24127   4.710   1.594   0.168
 7743SOL    HW124128   4.799   1.593   0.213
 7743SOL    HW224129   4.722   1.602   0.070
 7744SOL     OW24130   1.020   6.032   3.526
 7744SOL    HW124131   0.974   6.021   3.614
 7744SOL    HW224132   0.958   6.005   3.452
 7745SOL     OW24133   3.030   1.072   5.439
 7745SOL    HW124134   3.129   1.059   5.440
 7745SOL    HW224135   3.000   1.111   5.527
 7746SOL     OW24136   2.768   6.445   0.438
 7746SOL    HW124137   2.851   6.413   0.484
 7746SOL    HW224138   2.744   6.382   0.364
 7747SOL     OW24139   4.574   5.646   1.805
 7747SOL    HW124140   4.628   5.572   1.766
 7747SOL    HW224141   4.602   5.733   1.765
 7748SOL     OW24142   3.634   3.166   5.341
 7748SOL    HW124143   3.699   3.122   5.279
 7748SOL    HW224144   3.599   3.099   5.406
 7749SOL     OW24145   2.795   2.762   5.380
 7749SOL    HW124146   2.844   2.675   5.385
 7749SOL    HW224147   2.859   2.836   5.364
 7750SOL     OW24148   6.655   6.483   1.384
 7750SOL    HW124149   6.623   6.431   1.463
 7750SOL    HW224150   6.677   6.421   1.309
 7751SOL     OW24151   1.549   2.116   2.430
 7751SOL    HW124152   1.504   2.108   2.341
 7751SOL    HW224153   1.574   2.212   2.446
 7752SOL     OW24154   5.195   6.928   5.542
 7752SOL    HW124155   5.251   6.864   5.595
 7752SOL    HW224156   5.099   6.900   5.546
 7753SOL     OW24157   2.502   1.026   4.538
 7753SOL    HW124158   2.572   0.955   4.535
 7753SOL    HW224159   2.415   0.986   4.566
 7754SOL     OW24160   3.678   6.186   1.297
 7754SOL    HW124161   3.723   6.228   1.376
 7754SOL    HW224162   3.622   6.253   1.250
 7755SOL     OW24163   1.500   2.210   6.015
 7755SOL    HW124164   1.546   2.298   6.026
 7755SOL    HW224165   1.531   2.147   6.086
 7756SOL     OW24166   3.039   6.689   1.915
 7756SOL    HW124167   3.096   6.771   1.902
 7756SOL    HW224168   3.040   6.634   1.831
 7757SOL     OW24169   6.196   4.726   1.390
 7757SOL    HW124170   6.223   4.661   1.461
 7757SOL    HW224171   6.206   4.683   1.300
 7758SOL     OW24172   1.717   6.787   5.982
 7758SOL    HW124173   1.688   6.877   6.016
 7758SOL    HW224174   1.773   6.742   6.051
 7759SOL     OW24175   2.592   1.436   5.437
 7759SOL    HW124176   2.537   1.516   5.413
 7759SOL    HW224177   2.606   1.379   5.356
 7760SOL     OW24178   5.153   2.385   2.325
 7760SOL    HW124179   5.204   2.471   2.333
 7760SOL    HW224180   5.209   2.317   2.277
 7761SOL     OW24181   6.969   6.266   4.863
 7761SOL    HW124182   7.017   6.230   4.783
 7761SOL    HW224183   6.880   6.220   4.871
 7762SOL     OW24184   2.408   0.235   3.673
 7762SOL    HW124185   2.473   0.310   3.684
 7762SOL    HW224186   2.452   0.149   3.701
 7763SOL     OW24187   2.614   6.822   6.768
 7763SOL    HW124188   2.529   6.783   6.804
 7763SOL    HW224189   2.594   6.907   6.719
 7764SOL     OW24190   3.485   3.816   5.955
 7764SOL    HW124191   3.578   3.845   5.936
 7764SOL    HW224192   3.421   3.874   5.904
 7765SOL     OW24193   6.228   2.749   5.137
 7765SOL    HW124194   6.182   2.747   5.048
 7765SOL    HW224195   6.241   2.844   5.166
 7766SOL     OW24196   6.855   3.929   1.092
 7766SOL    HW124197   6.771   3.900   1.138
 7766SOL    HW224198   6.914   3.850   1.077
 7767SOL     OW24199   4.662   6.388   2.668
 7767SOL    HW124200   4.647   6.375   2.571
 7767SOL    HW224201   4.575   6.401   2.714
 7768SOL     OW24202   4.766   4.894   3.817
 7768SOL    HW124203   4.820   4.964   3.864
 7768SOL    HW224204   4.721   4.836   3.885
 7769SOL     OW24205   4.554   1.622   5.288
 7769SOL    HW124206   4.558   1.677   5.205
 7769SOL    HW224207   4.504   1.537   5.270
 7770SOL     OW24208   0.042   3.492   4.492
 7770SOL    HW124209   0.060   3.404   4.447
 7770SOL    HW224210   7.011   3.475   4.575
 7771SOL     OW24211   2.771   1.313   5.838
 7771SOL    HW124212   2.814   1.358   5.917
 7771SOL    HW224213   2.755   1.381   5.766
 7772SOL     OW24214   5.644   6.449   0.809
 7772SOL    HW124215   5.592   6.468   0.725
 7772SOL    HW224216   5.635   6.525   0.872
 7773SOL     OW24217   1.987   5.981   5.870
 7773SOL    HW124218   1.950   5.938   5.953
 7773SOL    HW224219   1.997   5.911   5.799
 7774SOL     OW24220   4.779   2.796   4.801
 7774SOL    HW124221   4.705   2.781   4.736
 7774SOL    HW224222   4.833   2.712   4.811
 7775SOL     OW24223   4.255   6.590   0.215
 7775SOL    HW124224   4.237   6.645   0.134
 7775SOL    HW224225   4.277   6.651   0.292
 7776SOL     OW24226   0.834   6.182   6.581
 7776SOL    HW124227   0.884   6.111   6.631
 7776SOL    HW224228   0.862   6.272   6.613
 7777SOL     OW24229   6.219   5.425   4.759
 7777SOL    HW124230   6.287   5.453   4.691
 7777SOL    HW224231   6.170   5.506   4.791
 7778SOL     OW24232   5.539   4.055   2.064
 7778SOL    HW124233   5.579   4.000   1.992
 7778SOL    HW224234   5.569   4.150   2.054
 7779SOL     OW24235   2.673   1.028   2.736
 7779SOL    HW124236   2.718   0.964   2.674
 7779SOL    HW224237   2.607   1.083   2.686
 7780SOL     OW24238   1.052   5.065   5.341
 7780SOL    HW124239   0.989   5.067   5.419
 7780SOL    HW224240   1.086   4.972   5.328
 7781SOL     OW24241   0.585   3.437   1.206
 7781SOL    HW124242   0.655   3.378   1.165
 7781SOL    HW224243   0.629   3.507   1.262
 7782SOL     OW24244   5.148   5.578   3.900
 7782SOL    HW124245   5.217   5.647   3.880
 7782SOL    HW224246   5.191   5.498   3.940
 7783SOL     OW24247   0.449   0.341   5.690
 7783SOL    HW124248   0.462   0.265   5.627
 7783SOL    HW224249   0.368   0.325   5.746
 7784SOL     OW24250   3.243   2.559   1.763
 7784SOL    HW124251   3.167   2.506   1.800
 7784SOL    HW224252   3.325   2.502   1.758
 7785SOL     OW24253   2.077   6.492   3.739
 7785SOL    HW124254   2.060   6.393   3.747
 7785SOL    HW224255   2.129   6.523   3.819
 7786SOL     OW24256   4.537   0.595   6.522
 7786SOL    HW124257   4.457   0.539   6.499
 7786SOL    HW224258   4.596   0.544   6.584
 7787SOL     OW24259   1.868   2.972   0.350
 7787SOL    HW124260   1.912   2.988   0.262
 7787SOL    HW224261   1.769   2.972   0.339
 7788SOL     OW24262   0.977   5.547   2.152
 7788SOL    HW124263   0.966   5.642   2.181
 7788SOL    HW224264   1.060   5.509   2.194
 7789SOL     OW24265   3.265   6.837   6.628
 7789SOL    HW124266   3.294   6.750   6.667
 7789SOL    HW224267   3.236   6.899   6.701
 7790SOL     OW24268   5.725   4.886   2.591
 7790SOL    HW124269   5.629   4.882   2.563
 7790SOL    HW224270   5.757   4.794   2.611
 7791SOL     OW24271   2.123   5.413   2.412
 7791SOL    HW124272   2.099   5.450   2.501
 7791SOL    HW224273   2.142   5.315   2.421
 7792SOL     OW24274   1.429   6.588   3.741
 7792SOL    HW124275   1.430   6.503   3.793
 7792SOL    HW224276   1.352   6.587   3.677
 7793SOL     OW24277   4.642   1.163   0.369
 7793SOL    HW124278   4.664   1.090   0.303
 7793SOL    HW224279   4.622   1.122   0.458
 7794SOL     OW24280   0.183   4.267   2.023
 7794SOL    HW124281   0.217   4.287   2.115
 7794SOL    HW224282   0.215   4.338   1.960
 7795SOL     OW24283   3.370   5.501   5.246
 7795SOL    HW124284   3.415   5.413   5.231
 7795SOL    HW224285   3.276   5.496   5.210
 7796SOL     OW24286   3.513   2.654   5.773
 7796SOL    HW124287   3.572   2.580   5.740
 7796SOL    HW224288   3.423   2.648   5.728
 7797SOL     OW24289   0.729   5.560   1.431
 7797SOL    HW124290   0.826   5.536   1.430
 7797SOL    HW224291   0.682   5.508   1.502
 7798SOL     OW24292   1.699   1.495   2.611
 7798SOL    HW124293   1.785   1.503   2.662
 7798SOL    HW224294   1.635   1.565   2.642
 7799SOL     OW24295   2.174   5.847   2.963
 7799SOL    HW124296   2.225   5.826   2.880
 7799SOL    HW224297   2.093   5.789   2.968
 7800SOL     OW24298   0.299   6.126   3.244
 7800SOL    HW124299   0.204   6.120   3.212
 7800SOL    HW224300   0.304   6.093   3.338
 7801SOL     OW24301   1.814   1.412   3.143
 7801SOL    HW124302   1.783   1.474   3.070
 7801SOL    HW224303   1.839   1.323   3.103
 7802SOL     OW24304   6.992   3.532   0.151
 7802SOL    HW124305   6.970   3.472   0.228
 7802SOL    HW224306   6.909   3.552   0.099
 7803SOL     OW24307   4.791   1.812   0.016
 7803SOL    HW124308   4.769   1.891   6.981
 7803SOL    HW224309   4.796   1.841   0.112
 7804SOL     OW24310   3.836   2.263   5.185
 7804SOL    HW124311   3.853   2.191   5.117
 7804SOL    HW224312   3.923   2.295   5.222
 7805SOL     OW24313   4.892   3.723   2.378
 7805SOL    HW124314   4.988   3.697   2.374
 7805SOL    HW224315   4.842   3.661   2.438
 7806SOL     OW24316   6.349   1.506   6.564
 7806SOL    HW124317   6.287   1.484   6.489
 7806SOL    HW224318   6.355   1.605   6.575
 7807SOL     OW24319   0.867   4.034   5.092
 7807SOL    HW124320   0.862   3.963   5.162
 7807SOL    HW224321   0.783   4.034   5.038
 7808SOL     OW24322   5.122   3.664   2.986
 7808SOL    HW124323   5.116   3.742   3.049
 7808SOL    HW224324   5.173   3.691   2.904
 7809SOL     OW24325   5.347   5.170   4.328
 7809SOL    HW124326   5.402   5.252   4.311
 7809SOL    HW224327   5.371   5.131   4.417
 7810SOL     OW24328   3.057   6.357   5.291
 7810SOL    HW124329   3.015   6.328   5.205
 7810SOL    HW224330   3.134   6.417   5.272
 7811SOL     OW24331   1.334   5.617   2.316
 7811SOL    HW124332   1.289   5.539   2.360
 7811SOL    HW224333   1.405   5.585   2.255
 7812SOL     OW24334   2.302   2.841   5.281
 7812SOL    HW124335   2.390   2.824   5.324
 7812SOL    HW224336   2.309   2.920   5.220
 7813SOL     OW24337   4.330   2.592   1.171
 7813SOL    HW124338   4.400   2.603   1.241
 7813SOL    HW224339   4.370   2.551   1.089
 7814SOL     OW24340   0.072   3.773   2.933
 7814SOL    HW124341   7.009   3.738   2.896
 7814SOL    HW224342   0.149   3.733   2.883
 7815SOL     OW24343   5.732   2.014   4.578
 7815SOL    HW124344   5.809   1.951   4.583
 7815SOL    HW224345   5.656   1.977   4.632
 7816SOL     OW24346   0.315   2.507   5.909
 7816SOL    HW124347   0.408   2.524   5.876
 7816SOL    HW224348   0.259   2.471   5.835
 7817SOL     OW24349   4.628   3.937   5.333
 7817SOL    HW124350   4.531   3.913   5.326
 7817SOL    HW224351   4.653   3.946   5.429
 7818SOL     OW24352   4.574   0.815   3.011
 7818SOL    HW124353   4.547   0.810   2.915
 7818SOL    HW224354   4.494   0.804   3.069
 7819SOL     OW24355   0.131   3.734   3.834
 7819SOL    HW124356   0.127   3.637   3.860
 7819SOL    HW224357   0.183   3.784   3.902
 7820SOL     OW24358   2.012   1.066   5.698
 7820SOL    HW124359   1.932   1.050   5.755
 7820SOL    HW224360   1.985   1.065   5.601
 7821SOL     OW24361   5.575   5.466   0.929
 7821SOL    HW124362   5.574   5.483   0.831
 7821SOL    HW224363   5.569   5.552   0.979
 7822SOL     OW24364   1.442   1.566   6.259
 7822SOL    HW124365   1.391   1.531   6.180
 7822SOL    HW224366   1.526   1.513   6.271
 7823SOL     OW24367   2.022   4.060   6.181
 7823SOL    HW124368   2.051   4.140   6.129
 7823SOL    HW224369   2.102   4.004   6.203
 7824SOL     OW24370   5.960   0.712   4.772
 7824SOL    HW124371   5.926   0.782   4.834
 7824SOL    HW224372   6.022   0.753   4.706
 7825SOL     OW24373   1.943   3.245   1.335
 7825SOL    HW124374   2.033   3.228   1.293
 7825SOL    HW224375   1.885   3.295   1.271
 7826SOL     OW24376   5.063   1.841   6.192
 7826SOL    HW124377   4.983   1.846   6.252
 7826SOL    HW224378   5.135   1.788   6.237
 7827SOL     OW24379   3.019   4.765   1.202
 7827SOL    HW124380   2.951   4.721   1.143
 7827SOL    HW224381   3.069   4.833   1.149
 7828SOL     OW24382   0.204   5.472   0.499
 7828SOL    HW124383   0.237   5.497   0.590
 7828SOL    HW224384   0.214   5.373   0.487
 7829SOL     OW24385   2.125   2.989   0.823
 7829SOL    HW124386   2.224   2.991   0.829
 7829SOL    HW224387   2.096   3.018   0.732
 7830SOL     OW24388   5.489   3.896   6.276
 7830SOL    HW124389   5.535   3.893   6.364
 7830SOL    HW224390   5.549   3.859   6.205
 7831SOL     OW24391   1.406   5.188   0.096
 7831SOL    HW124392   1.380   5.284   0.085
 7831SOL    HW224393   1.396   5.140   0.009
 7832SOL     OW24394   3.388   1.403   4.318
 7832SOL    HW124395   3.344   1.411   4.229
 7832SOL    HW224396   3.391   1.494   4.361
 7833SOL     OW24397   0.197   0.598   0.360
 7833SOL    HW124398   0.219   0.616   0.264
 7833SOL    HW224399   0.279   0.569   0.409
 7834SOL     OW24400   0.931   1.610   2.569
 7834SOL    HW124401   0.857   1.674   2.551
 7834SOL    HW224402   0.991   1.645   2.641
 7835SOL     OW24403   2.162   2.381   5.071
 7835SOL    HW124404   2.218   2.376   5.154
 7835SOL    HW224405   2.069   2.408   5.096
 7836SOL     OW24406   3.671   1.627   6.437
 7836SOL    HW124407   3.636   1.721   6.437
 7836SOL    HW224408   3.771   1.628   6.431
 7837SOL     OW24409   6.748   6.335   1.173
 7837SOL    HW124410   6.780   6.272   1.244
 7837SOL    HW224411   6.759   6.292   1.084
 7838SOL     OW24412   4.538   6.524   6.243
 7838SOL    HW124413   4.490   6.495   6.326
 7838SOL    HW224414   4.615   6.583   6.268
 7839SOL     OW24415   6.369   4.632   5.350
 7839SOL    HW124416   6.376   4.732   5.353
 7839SOL    HW224417   6.455   4.592   5.380
 7840SOL     OW24418   5.137   3.740   3.607
 7840SOL    HW124419   5.041   3.713   3.605
 7840SOL    HW224420   5.173   3.740   3.514
 7841SOL     OW24421   5.770   1.492   6.725
 7841SOL    HW124422   5.731   1.578   6.756
 7841SOL    HW224423   5.827   1.453   6.798
 7842SOL     OW24424   1.502   1.111   3.280
 7842SOL    HW124425   1.556   1.192   3.303
 7842SOL    HW224426   1.516   1.087   3.184
 7843SOL     OW24427   5.682   4.655   1.762
 7843SOL    HW124428   5.658   4.558   1.760
 7843SOL    HW224429   5.612   4.706   1.812
 7844SOL     OW24430   4.642   0.541   3.582
 7844SOL    HW124431   4.730   0.585   3.599
 7844SOL    HW224432   4.629   0.467   3.648
 7845SOL     OW24433   0.627   1.196   3.873
 7845SOL    HW124434   0.598   1.101   3.862
 7845SOL    HW224435   0.550   1.252   3.904
 7846SOL     OW24436   1.988   0.390   1.527
 7846SOL    HW124437   2.028   0.299   1.525
 7846SOL    HW224438   1.902   0.390   1.476
 7847SOL     OW24439   7.017   2.005   1.737
 7847SOL    HW124440   0.016   2.016   1.834
 7847SOL    HW224441   6.954   2.077   1.708
 7848SOL     OW24442   2.979   4.252   1.139
 7848SOL    HW124443   3.074   4.248   1.106
 7848SOL    HW224444   2.979   4.261   1.239
 7849SOL     OW24445   5.188   3.750   4.195
 7849SOL    HW124446   5.108   3.799   4.162
 7849SOL    HW224447   5.206   3.671   4.136
 7850SOL     OW24448   0.696   1.213   3.602
 7850SOL    HW124449   0.670   1.222   3.698
 7850SOL    HW224450   0.686   1.118   3.574
 7851SOL     OW24451   6.840   0.199   0.723
 7851SOL    HW124452   6.742   0.213   0.730
 7851SOL    HW224453   6.874   0.157   0.808
 7852SOL     OW24454   3.118   0.034   5.895
 7852SOL    HW124455   3.047   6.996   5.860
 7852SOL    HW224456   3.107   0.126   5.856
 7853SOL     OW24457   3.865   1.617   1.687
 7853SOL    HW124458   3.816   1.702   1.710
 7853SOL    HW224459   3.963   1.636   1.681
 7854SOL     OW24460   3.649   5.079   0.717
 7854SOL    HW124461   3.591   5.051   0.641
 7854SOL    HW224462   3.608   5.050   0.803
 7855SOL     OW24463   4.107   5.543   5.823
 7855SOL    HW124464   4.126   5.445   5.835
 7855SOL    HW224465   4.045   5.574   5.895
 7856SOL     OW24466   6.112   4.979   3.626
 7856SOL    HW124467   6.106   5.018   3.718
 7856SOL    HW224468   6.071   4.888   3.626
 7857SOL     OW24469   6.778   2.869   5.752
 7857SOL    HW124470   6.761   2.848   5.656
 7857SOL    HW224471   6.875   2.886   5.766
 7858SOL     OW24472   5.104   5.224   3.824
 7858SOL    HW124473   5.195   5.197   3.854
 7858SOL    HW224474   5.083   5.316   3.856
 7859SOL     OW24475   6.973   4.541   5.687
 7859SOL    HW124476   7.001   4.447   5.667
 7859SOL    HW224477   6.948   4.587   5.602
 7860SOL     OW24478   4.173   6.181   2.715
 7860SOL    HW124479   4.248   6.149   2.656
 7860SOL    HW224480   4.163   6.118   2.792
 7861SOL     OW24481   4.222   5.470   2.291
 7861SOL    HW124482   4.203   5.380   2.331
 7861SOL    HW224483   4.149   5.533   2.316
 7862SOL     OW24484   3.042   4.447   1.573
 7862SOL    HW124485   3.019   4.406   1.662
 7862SOL    HW224486   3.050   4.374   1.505
 7863SOL     OW24487   6.780   6.023   3.763
 7863SOL    HW124488   6.762   6.100   3.824
 7863SOL    HW224489   6.871   5.985   3.783
 7864SOL     OW24490   6.754   6.204   5.786
 7864SOL    HW124491   6.801   6.278   5.835
 7864SOL    HW224492   6.757   6.120   5.840
 7865SOL     OW24493   5.008   6.886   4.108
 7865SOL    HW124494   5.020   6.886   4.009
 7865SOL    HW224495   4.912   6.870   4.131
 7866SOL     OW24496   2.600   1.940   1.008
 7866SOL    HW124497   2.561   1.884   1.082
 7866SOL    HW224498   2.632   2.027   1.045
 7867SOL     OW24499   5.304   5.250   2.558
 7867SOL    HW124500   5.354   5.193   2.493
 7867SOL    HW224501   5.227   5.199   2.596
 7868SOL     OW24502   5.936   6.865   2.718
 7868SOL    HW124503   5.860   6.811   2.683
 7868SOL    HW224504   5.912   6.902   2.808
 7869SOL     OW24505   6.613   3.453   0.323
 7869SOL    HW124506   6.517   3.474   0.335
 7869SOL    HW224507   6.624   3.392   0.244
 7870SOL     OW24508   5.338   5.759   3.845
 7870SOL    HW124509   5.333   5.797   3.938
 7870SOL    HW224510   5.425   5.785   3.803
 7871SOL     OW24511   6.205   3.718   2.643
 7871SOL    HW124512   6.292   3.708   2.692
 7871SOL    HW224513   6.134   3.745   2.708
 7872SOL     OW24514   0.849   4.500   2.130
 7872SOL    HW124515   0.789   4.572   2.164
 7872SOL    HW224516   0.909   4.469   2.205
 7873SOL     OW24517   5.509   0.098   5.103
 7873SOL    HW124518   5.547   0.021   5.153
 7873SOL    HW224519   5.420   0.122   5.142
 7874SOL     OW24520   5.865   1.515   0.174
 7874SOL    HW124521   5.915   1.483   0.254
 7874SOL    HW224522   5.854   1.440   0.109
 7875SOL     OW24523   3.788   3.396   0.107
 7875SOL    HW124524   3.860   3.445   0.058
 7875SOL    HW224525   3.816   3.301   0.120
 7876SOL     OW24526   0.035   6.829   4.899
 7876SOL    HW124527   0.023   6.731   4.915
 7876SOL    HW224528   0.131   6.848   4.879
 7877SOL     OW24529   0.536   3.224   2.547
 7877SOL    HW124530   0.539   3.182   2.638
 7877SOL    HW224531   0.488   3.311   2.552
 7878SOL     OW24532   4.916   5.079   3.954
 7878SOL    HW124533   4.955   5.152   3.898
 7878SOL    HW224534   4.978   5.001   3.955
 7879SOL     OW24535   4.427   6.245   3.380
 7879SOL    HW124536   4.492   6.267   3.308
 7879SOL    HW224537   4.422   6.145   3.391
 7880SOL     OW24538   0.215   5.634   1.493
 7880SOL    HW124539   0.185   5.585   1.410
 7880SOL    HW224540   0.312   5.615   1.509
 7881SOL     OW24541   6.347   3.349   4.521
 7881SOL    HW124542   6.387   3.394   4.441
 7881SOL    HW224543   6.340   3.415   4.596
 7882SOL     OW24544   2.001   2.795   3.305
 7882SOL    HW124545   2.052   2.819   3.223
 7882SOL    HW224546   1.918   2.850   3.310
 7883SOL     OW24547   2.098   0.102   1.148
 7883SOL    HW124548   2.074   0.117   1.053
 7883SOL    HW224549   2.110   0.005   1.166
 7884SOL     OW24550   1.761   3.953   3.709
 7884SOL    HW124551   1.838   4.002   3.667
 7884SOL    HW224552   1.676   3.979   3.662
 7885SOL     OW24553   5.907   6.146   2.593
 7885SOL    HW124554   5.821   6.190   2.566
 7885SOL    HW224555   5.911   6.142   2.693
 7886SOL     OW24556   4.699   3.606   1.354
 7886SOL    HW124557   4.782   3.654   1.328
 7886SOL    HW224558   4.676   3.628   1.449
 7887SOL     OW24559   3.592   2.611   5.286
 7887SOL    HW124560   3.495   2.596   5.305
 7887SOL    HW224561   3.602   2.687   5.221
 7888SOL     OW24562   0.012   0.305   4.701
 7888SOL    HW124563   0.096   0.313   4.754
 7888SOL    HW224564   6.996   0.214   4.712
 7889SOL     OW24565   0.599   5.201   6.336
 7889SOL    HW124566   0.525   5.190   6.402
 7889SOL    HW224567   0.593   5.128   6.268
 7890SOL     OW24568   0.522   3.339   3.826
 7890SOL    HW124569   0.552   3.305   3.736
 7890SOL    HW224570   0.596   3.395   3.866
 7891SOL     OW24571   1.202   3.834   4.339
 7891SOL    HW124572   1.232   3.906   4.401
 7891SOL    HW224573   1.171   3.755   4.392
 7892SOL     OW24574   0.906   2.057   4.221
 7892SOL    HW124575   0.964   1.975   4.217
 7892SOL    HW224576   0.961   2.136   4.248
 7893SOL     OW24577   5.683   6.441   2.245
 7893SOL    HW124578   5.662   6.536   2.224
 7893SOL    HW224579   5.703   6.392   2.160
 7894SOL     OW24580   3.536   1.019   1.000
 7894SOL    HW124581   3.536   0.920   0.990
 7894SOL    HW224582   3.455   1.048   1.051
 7895SOL     OW24583   3.929   6.380   4.861
 7895SOL    HW124584   3.996   6.307   4.854
 7895SOL    HW224585   3.848   6.356   4.808
 7896SOL     OW24586   5.639   3.493   1.380
 7896SOL    HW124587   5.647   3.520   1.284
 7896SOL    HW224588   5.624   3.574   1.437
 7897SOL     OW24589   3.152   3.085   0.350
 7897SOL    HW124590   3.104   3.050   0.430
 7897SOL    HW224591   3.164   3.184   0.358
 7898SOL     OW24592   4.250   7.000   4.320
 7898SOL    HW124593   4.325   0.043   4.327
 7898SOL    HW224594   4.260   6.930   4.391
 7899SOL     OW24595   5.452   6.807   1.957
 7899SOL    HW124596   5.456   6.709   1.935
 7899SOL    HW224597   5.478   6.860   1.877
 7900SOL     OW24598   0.565   4.453   1.116
 7900SOL    HW124599   0.586   4.516   1.192
 7900SOL    HW224600   0.468   4.427   1.121
 7901SOL     OW24601   4.991   0.967   5.953
 7901SOL    HW124602   5.071   0.915   5.983
 7901SOL    HW224603   4.969   1.037   6.021
 7902SOL     OW24604   6.516   5.831   3.415
 7902SOL    HW124605   6.473   5.755   3.367
 7902SOL    HW224606   6.586   5.795   3.477
 7903SOL     OW24607   4.685   1.855   3.363
 7903SOL    HW124608   4.704   1.757   3.354
 7903SOL    HW224609   4.586   1.870   3.358
 7904SOL     OW24610   5.428   0.582   3.249
 7904SOL    HW124611   5.514   0.577   3.301
 7904SOL    HW224612   5.429   0.662   3.190
 7905SOL     OW24613   6.171   1.631   0.789
 7905SOL    HW124614   6.170   1.588   0.879
 7905SOL    HW224615   6.157   1.562   0.718
 7906SOL     OW24616   1.145   5.607   0.283
 7906SOL    HW124617   1.046   5.598   0.276
 7906SOL    HW224618   1.179   5.546   0.354
 7907SOL     OW24619   6.500   1.302   2.947
 7907SOL    HW124620   6.446   1.260   2.874
 7907SOL    HW224621   6.577   1.351   2.908
 7908SOL     OW24622   1.341   1.464   5.993
 7908SOL    HW124623   1.350   1.395   6.065
 7908SOL    HW224624   1.345   1.420   5.904
 7909SOL     OW24625   4.692   4.180   3.584
 7909SOL    HW124626   4.748   4.131   3.517
 7909SOL    HW224627   4.655   4.115   3.650
 7910SOL     OW24628   1.465   3.546   1.093
 7910SOL    HW124629   1.443   3.474   1.027
 7910SOL    HW224630   1.560   3.575   1.080
 7911SOL     OW24631   0.802   3.930   1.578
 7911SOL    HW124632   0.803   4.003   1.646
 7911SOL    HW224633   0.709   3.895   1.567
 7912SOL     OW24634   5.319   4.089   0.525
 7912SOL    HW124635   5.285   4.051   0.611
 7912SOL    HW224636   5.394   4.032   0.491
 7913SOL     OW24637   1.111   4.576   1.438
 7913SOL    HW124638   1.129   4.483   1.471
 7913SOL    HW224639   1.114   4.640   1.515
 7914SOL     OW24640   0.503   4.639   0.892
 7914SOL    HW124641   0.541   4.581   0.964
 7914SOL    HW224642   0.565   4.639   0.813
 7915SOL     OW24643   4.790   2.067   3.030
 7915SOL    HW124644   4.795   1.972   3.001
 7915SOL    HW224645   4.824   2.126   2.957
 7916SOL     OW24646   0.544   6.655   5.175
 7916SOL    HW124647   0.626   6.643   5.231
 7916SOL    HW224648   0.471   6.597   5.209
 7917SOL     OW24649   4.298   3.093   5.346
 7917SOL    HW124650   4.326   3.184   5.318
 7917SOL    HW224651   4.286   3.035   5.265
 7918SOL     OW24652   6.891   0.961   5.034
 7918SOL    HW124653   6.948   0.895   5.083
 7918SOL    HW224654   6.903   0.949   4.936
 7919SOL     OW24655   0.874   4.420   1.857
 7919SOL    HW124656   0.784   4.391   1.827
 7919SOL    HW224657   0.873   4.435   1.956
 7920SOL     OW24658   5.659   0.417   1.543
 7920SOL    HW124659   5.735   0.466   1.586
 7920SOL    HW224660   5.583   0.410   1.608
 7921SOL     OW24661   5.397   0.093   2.032
 7921SOL    HW124662   5.394   0.002   1.989
 7921SOL    HW224663   5.455   0.089   2.113
 7922SOL     OW24664   1.061   6.010   0.110
 7922SOL    HW124665   1.106   6.070   0.177
 7922SOL    HW224666   1.128   5.947   0.072
 7923SOL     OW24667   3.306   1.574   6.025
 7923SOL    HW124668   3.315   1.607   5.931
 7923SOL    HW224669   3.246   1.635   6.077
 7924SOL     OW24670   4.574   0.274   0.956
 7924SOL    HW124671   4.612   0.184   0.933
 7924SOL    HW224672   4.623   0.345   0.904
 7925SOL     OW24673   0.821   0.098   1.024
 7925SOL    HW124674   0.832   0.191   0.989
 7925SOL    HW224675   0.834   0.099   1.124
 7926SOL     OW24676   5.099   1.730   6.890
 7926SOL    HW124677   5.070   1.720   6.985
 7926SOL    HW224678   5.039   1.795   6.844
 7927SOL     OW24679   4.789   6.769   1.687
 7927SOL    HW124680   4.749   6.725   1.606
 7927SOL    HW224681   4.736   6.744   1.768
 7928SOL     OW24682   6.975   1.763   4.191
 7928SOL    HW124683   7.006   1.847   4.236
 7928SOL    HW224684   6.951   1.695   4.261
 7929SOL     OW24685   3.917   4.168   5.910
 7929SOL    HW124686   3.908   4.184   6.008
 7929SOL    HW224687   3.989   4.102   5.893
 7930SOL     OW24688   3.833   5.264   6.405
 7930SOL    HW124689   3.769   5.252   6.481
 7930SOL    HW224690   3.921   5.224   6.429
 7931SOL     OW24691   4.304   3.116   0.731
 7931SOL    HW124692   4.334   3.194   0.786
 7931SOL    HW224693   4.315   3.032   0.783
 7932SOL     OW24694   1.073   5.281   0.324
 7932SOL    HW124695   1.033   5.282   0.415
 7932SOL    HW224696   1.158   5.228   0.325
 7933SOL     OW24697   6.589   0.244   5.890
 7933SOL    HW124698   6.681   0.221   5.922
 7933SOL    HW224699   6.522   0.185   5.936
 7934SOL     OW24700   1.670   5.324   6.888
 7934SOL    HW124701   1.616   5.294   6.809
 7934SOL    HW224702   1.613   5.381   6.948
 7935SOL     OW24703   5.462   6.047   1.937
 7935SOL    HW124704   5.467   5.974   1.869
 7935SOL    HW224705   5.525   6.120   1.912
 7936SOL     OW24706   3.179   5.144   3.498
 7936SOL    HW124707   3.153   5.051   3.473
 7936SOL    HW224708   3.100   5.205   3.488
 7937SOL     OW24709   1.377   6.010   4.283
 7937SOL    HW124710   1.407   6.024   4.188
 7937SOL    HW224711   1.357   6.098   4.325
 7938SOL     OW24712   5.648   5.676   5.408
 7938SOL    HW124713   5.625   5.759   5.357
 7938SOL    HW224714   5.747   5.670   5.419
 7939SOL     OW24715   1.388   1.749   5.986
 7939SOL    HW124716   1.431   1.658   5.983
 7939SOL    HW224717   1.298   1.745   5.942
 7940SOL     OW24718   3.007   2.242   2.831
 7940SOL    HW124719   2.996   2.183   2.750
 7940SOL    HW224720   3.083   2.208   2.886
 7941SOL     OW24721   5.257   6.562   2.858
 7941SOL    HW124722   5.325   6.564   2.931
 7941SOL    HW224723   5.242   6.654   2.824
 7942SOL     OW24724   1.046   3.023   2.926
 7942SOL    HW124725   1.019   2.933   2.893
 7942SOL    HW224726   1.116   3.061   2.866
 7943SOL     OW24727   0.708   4.258   5.722
 7943SOL    HW124728   0.721   4.168   5.764
 7943SOL    HW224729   0.755   4.259   5.633
 7944SOL     OW24730   0.787   2.647   1.587
 7944SOL    HW124731   0.698   2.691   1.597
 7944SOL    HW224732   0.851   2.709   1.542
 7945SOL     OW24733   6.368   5.744   2.360
 7945SOL    HW124734   6.273   5.723   2.384
 7945SOL    HW224735   6.424   5.662   2.367
 7946SOL     OW24736   3.491   0.417   5.861
 7946SOL    HW124737   3.467   0.387   5.954
 7946SOL    HW224738   3.586   0.446   5.859
 7947SOL     OW24739   2.605   1.827   5.281
 7947SOL    HW124740   2.628   1.861   5.373
 7947SOL    HW224741   2.690   1.804   5.233
 7948SOL     OW24742   0.815   5.550   1.111
 7948SOL    HW124743   0.902   5.504   1.128
 7948SOL    HW224744   0.807   5.630   1.172
 7949SOL     OW24745   4.560   4.326   6.304
 7949SOL    HW124746   4.622   4.387   6.353
 7949SOL    HW224747   4.596   4.233   6.305
 7950SOL     OW24748   4.488   6.053   4.545
 7950SOL    HW124749   4.409   6.000   4.514
 7950SOL    HW224750   4.554   5.992   4.589
 7951SOL     OW24751   1.968   5.037   2.258
 7951SOL    HW124752   1.895   5.100   2.232
 7951SOL    HW224753   2.010   4.999   2.175
 7952SOL     OW24754   0.263   3.458   0.453
 7952SOL    HW124755   0.285   3.444   0.356
 7952SOL    HW224756   0.300   3.381   0.506
 7953SOL     OW24757   4.790   2.245   1.914
 7953SOL    HW124758   4.782   2.266   1.816
 7953SOL    HW224759   4.730   2.305   1.966
 7954SOL     OW24760   3.604   4.368   6.147
 7954SOL    HW124761   3.589   4.294   6.081
 7954SOL    HW224762   3.685   4.348   6.202
 7955SOL     OW24763   2.304   1.440   6.613
 7955SOL    HW124764   2.378   1.418   6.550
 7955SOL    HW224765   2.217   1.407   6.576
 7956SOL     OW24766   5.175   0.834   1.859
 7956SOL    HW124767   5.143   0.916   1.810
 7956SOL    HW224768   5.118   0.756   1.833
 7957SOL     OW24769   1.904   1.104   0.491
 7957SOL    HW124770   1.807   1.130   0.492
 7957SOL    HW224771   1.957   1.175   0.444
 7958SOL     OW24772   5.173   4.247   5.962
 7958SOL    HW124773   5.159   4.340   5.997
 7958SOL    HW224774   5.101   4.187   5.996
 7959SOL     OW24775   5.211   0.024   6.932
 7959SOL    HW124776   5.224   0.123   6.923
 7959SOL    HW224777   5.121   7.021   6.896
 7960SOL     OW24778   1.438   1.005   6.109
 7960SOL    HW124779   1.466   0.935   6.174
 7960SOL    HW224780   1.425   0.964   6.019
 7961SOL     OW24781   6.626   0.286   1.085
 7961SOL    HW124782   6.701   0.309   1.147
 7961SOL    HW224783   6.605   0.188   1.092
 7962SOL     OW24784   0.596   1.683   5.652
 7962SOL    HW124785   0.660   1.662   5.578
 7962SOL    HW224786   0.585   1.603   5.711
 7963SOL     OW24787   6.351   5.768   4.338
 7963SOL    HW124788   6.300   5.689   4.371
 7963SOL    HW224789   6.417   5.738   4.269
 7964SOL     OW24790   6.079   3.339   2.737
 7964SOL    HW124791   6.114   3.246   2.732
 7964SOL    HW224792   5.990   3.339   2.781
 7965SOL     OW24793   3.952   2.321   6.299
 7965SOL    HW124794   3.914   2.414   6.295
 7965SOL    HW224795   3.893   2.259   6.249
 7966SOL     OW24796   3.290   2.940   6.047
 7966SOL    HW124797   3.333   2.987   5.970
 7966SOL    HW224798   3.213   2.886   6.015
 7967SOL     OW24799   2.666   5.474   1.949
 7967SOL    HW124800   2.698   5.562   1.983
 7967SOL    HW224801   2.693   5.402   2.012
 7968SOL     OW24802   6.253   2.272   4.739
 7968SOL    HW124803   6.277   2.360   4.780
 7968SOL    HW224804   6.167   2.239   4.778
 7969SOL     OW24805   5.965   6.243   0.809
 7969SOL    HW124806   6.017   6.278   0.731
 7969SOL    HW224807   5.993   6.291   0.892
 7970SOL     OW24808   6.339   3.739   2.320
 7970SOL    HW124809   6.244   3.759   2.347
 7970SOL    HW224810   6.367   3.653   2.361
 7971SOL     OW24811   3.226   1.394   0.990
 7971SOL    HW124812   3.253   1.462   0.921
 7971SOL    HW224813   3.137   1.419   1.028
 7972SOL     OW24814   3.234   3.321   1.322
 7972SOL    HW124815   3.144   3.284   1.298
 7972SOL    HW224816   3.271   3.370   1.244
 7973SOL     OW24817   4.819   4.628   4.265
 7973SOL    HW124818   4.835   4.565   4.189
 7973SOL    HW224819   4.893   4.617   4.333
 7974SOL     OW24820   6.099   0.921   6.067
 7974SOL    HW124821   6.131   1.008   6.031
 7974SOL    HW224822   6.017   0.936   6.123
 7975SOL     OW24823   5.566   7.018   0.947
 7975SOL    HW124824   5.544   0.086   0.910
 7975SOL    HW224825   5.654   6.988   0.911
 7976SOL     OW24826   0.877   0.424   5.832
 7976SOL    HW124827   0.937   0.385   5.903
 7976SOL    HW224828   0.810   0.484   5.876
 7977SOL     OW24829   4.240   5.972   2.385
 7977SOL    HW124830   4.282   6.054   2.424
 7977SOL    HW224831   4.260   5.968   2.287
 7978SOL     OW24832   0.221   2.547   6.235
 7978SOL    HW124833   0.298   2.531   6.297
 7978SOL    HW224834   0.250   2.529   6.141
 7979SOL     OW24835   2.325   4.929   5.630
 7979SOL    HW124836   2.402   4.971   5.680
 7979SOL    HW224837   2.343   4.932   5.532
 7980SOL     OW24838   3.243   5.372   6.515
 7980SOL    HW124839   3.292   5.459   6.522
 7980SOL    HW224840   3.229   5.348   6.418
 7981SOL     OW24841   0.595   4.486   1.808
 7981SOL    HW124842   0.517   4.426   1.826
 7981SOL    HW224843   0.563   4.577   1.784
 7982SOL     OW24844   1.576   1.821   6.334
 7982SOL    HW124845   1.526   1.737   6.314
 7982SOL    HW224846   1.629   1.808   6.418
 7983SOL     OW24847   6.402   2.269   0.654
 7983SOL    HW124848   6.392   2.193   0.590
 7983SOL    HW224849   6.326   2.333   0.642
 7984SOL     OW24850   0.366   1.313   0.419
 7984SOL    HW124851   0.333   1.376   0.489
 7984SOL    HW224852   0.458   1.282   0.444
 7985SOL     OW24853   2.408   1.878   4.499
 7985SOL    HW124854   2.464   1.839   4.427
 7985SOL    HW224855   2.350   1.951   4.461
 7986SOL     OW24856   2.901   0.710   6.300
 7986SOL    HW124857   2.832   0.735   6.232
 7986SOL    HW224858   2.922   0.790   6.357
 7987SOL     OW24859   1.950   2.687   0.305
 7987SOL    HW124860   1.866   2.738   0.288
 7987SOL    HW224861   1.977   2.697   0.401
 7988SOL     OW24862   1.361   1.028   2.603
 7988SOL    HW124863   1.317   1.109   2.565
 7988SOL    HW224864   1.450   1.014   2.558
 7989SOL     OW24865   2.657   3.214   0.175
 7989SOL    HW124866   2.578   3.205   0.237
 7989SOL    HW224867   2.624   3.230   0.082
 7990SOL     OW24868   2.473   4.949   4.608
 7990SOL    HW124869   2.441   4.927   4.515
 7990SOL    HW224870   2.558   4.900   4.626
 7991SOL     OW24871   5.926   1.869   3.877
 7991SOL    HW124872   5.938   1.959   3.835
 7991SOL    HW224873   5.829   1.851   3.890
 7992SOL     OW24874   1.354   0.491   0.513
 7992SOL    HW124875   1.428   0.552   0.484
 7992SOL    HW224876   1.388   0.431   0.585
 7993SOL     OW24877   0.332   6.987   1.330
 7993SOL    HW124878   0.264   0.030   1.298
 7993SOL    HW224879   0.414   6.993   1.274
 7994SOL     OW24880   4.382   0.247   3.483
 7994SOL    HW124881   4.356   0.201   3.398
 7994SOL    HW224882   4.376   0.346   3.470
 7995SOL     OW24883   5.982   5.444   3.245
 7995SOL    HW124884   6.009   5.508   3.317
 7995SOL    HW224885   6.049   5.371   3.237
 7996SOL     OW24886   3.749   6.214   4.294
 7996SOL    HW124887   3.810   6.291   4.316
 7996SOL    HW224888   3.696   6.190   4.375
 7997SOL     OW24889   6.878   1.683   0.006
 7997SOL    HW124890   6.923   1.743   0.073
 7997SOL    HW224891   6.901   1.714   6.936
 7998SOL     OW24892   3.575   0.083   0.119
 7998SOL    HW124893   3.523   0.112   0.038
 7998SOL    HW224894   3.633   0.159   0.149
 7999SOL     OW24895   0.757   1.116   5.863
 7999SOL    HW124896   0.685   1.177   5.828
 7999SOL    HW224897   0.732   1.084   5.954
 8000SOL     OW24898   5.448   6.218   6.574
 8000SOL    HW124899   5.425   6.209   6.671
 8000SOL    HW224900   5.370   6.191   6.518
 8001SOL     OW24901   4.102   6.204   2.088
 8001SOL    HW124902   4.052   6.119   2.102
 8001SOL    HW224903   4.066   6.275   2.149
 8002SOL     OW24904   0.796   0.652   6.223
 8002SOL    HW124905   0.702   0.635   6.191
 8002SOL    HW224906   0.837   0.566   6.252
 8003SOL     OW24907   2.436   5.502   1.811
 8003SOL    HW124908   2.446   5.414   1.764
 8003SOL    HW224909   2.514   5.515   1.872
 8004SOL     OW24910   1.508   3.864   3.542
 8004SOL    HW124911   1.410   3.880   3.556
 8004SOL    HW224912   1.534   3.895   3.451
 8005SOL     OW24913   2.536   0.458   3.553
 8005SOL    HW124914   2.552   0.406   3.469
 8005SOL    HW224915   2.565   0.553   3.538
 8006SOL     OW24916   2.049   5.911   5.420
 8006SOL    HW124917   2.055   6.010   5.425
 8006SOL    HW224918   2.137   5.874   5.390
 8007SOL     OW24919   6.157   1.768   6.342
 8007SOL    HW124920   6.099   1.805   6.415
 8007SOL    HW224921   6.150   1.668   6.341
 8008SOL     OW24922   4.066   5.990   6.649
 8008SOL    HW124923   4.038   6.001   6.744
 8008SOL    HW224924   3.989   6.008   6.589
 8009SOL     OW24925   4.862   0.930   0.623
 8009SOL    HW124926   4.915   0.982   0.556
 8009SOL    HW224927   4.790   0.879   0.577
 8010SOL     OW24928   2.332   2.264   4.882
 8010SOL    HW124929   2.411   2.212   4.914
 8010SOL    HW224930   2.283   2.302   4.960
 8011SOL     OW24931   3.507   2.107   1.197
 8011SOL    HW124932   3.437   2.065   1.254
 8011SOL    HW224933   3.478   2.199   1.170
 8012SOL     OW24934   1.369   2.938   0.068
 8012SOL    HW124935   1.308   2.932   0.146
 8012SOL    HW224936   1.328   2.996   7.020
 8013SOL     OW24937   1.372   4.663   3.621
 8013SOL    HW124938   1.428   4.613   3.687
 8013SOL    HW224939   1.283   4.619   3.614
 8014SOL     OW24940   1.674   0.226   4.508
 8014SOL    HW124941   1.685   0.286   4.429
 8014SOL    HW224942   1.670   0.131   4.478
 8015SOL     OW24943   1.685   0.407   6.209
 8015SOL    HW124944   1.771   0.379   6.168
 8015SOL    HW224945   1.611   0.351   6.172
 8016SOL     OW24946   4.297   0.900   5.516
 8016SOL    HW124947   4.281   0.944   5.605
 8016SOL    HW224948   4.377   0.942   5.473
 8017SOL     OW24949   6.309   0.154   6.689
 8017SOL    HW124950   6.408   0.161   6.703
 8017SOL    HW224951   6.263   0.226   6.742
 8018SOL     OW24952   3.214   2.591   0.512
 8018SOL    HW124953   3.202   2.637   0.424
 8018SOL    HW224954   3.311   2.594   0.538
 8019SOL     OW24955   2.005   4.516   1.148
 8019SOL    HW124956   1.944   4.491   1.073
 8019SOL    HW224957   2.097   4.531   1.112
 8020SOL     OW24958   6.453   6.806   6.424
 8020SOL    HW124959   6.481   6.763   6.339
 8020SOL    HW224960   6.528   6.799   6.491
 8021SOL     OW24961   1.427   3.110   1.611
 8021SOL    HW124962   1.459   3.093   1.518
 8021SOL    HW224963   1.505   3.139   1.667
 8022SOL     OW24964   6.106   0.778   1.704
 8022SOL    HW124965   6.072   0.826   1.785
 8022SOL    HW224966   6.046   0.797   1.626
 8023SOL     OW24967   5.759   4.536   2.205
 8023SOL    HW124968   5.764   4.636   2.202
 8023SOL    HW224969   5.799   4.504   2.291
 8024SOL     OW24970   1.151   5.358   6.498
 8024SOL    HW124971   1.135   5.342   6.401
 8024SOL    HW224972   1.082   5.421   6.534
 8025SOL     OW24973   2.089   5.794   0.595
 8025SOL    HW124974   2.168   5.777   0.654
 8025SOL    HW224975   2.098   5.885   0.554
 8026SOL     OW24976   6.872   4.191   1.164
 8026SOL    HW124977   6.865   4.091   1.158
 8026SOL    HW224978   6.956   4.221   1.118
 8027SOL     OW24979   3.360   0.134   5.613
 8027SOL    HW124980   3.350   0.085   5.526
 8027SOL    HW224981   3.444   0.105   5.658
 8028SOL     OW24982   3.675   4.942   5.063
 8028SOL    HW124983   3.602   4.955   4.996
 8028SOL    HW224984   3.646   4.874   5.131
 8029SOL     OW24985   5.520   2.941   1.813
 8029SOL    HW124986   5.425   2.931   1.845
 8029SOL    HW224987   5.565   2.852   1.814
 8030SOL     OW24988   5.625   5.899   0.535
 8030SOL    HW124989   5.659   5.977   0.482
 8030SOL    HW224990   5.681   5.819   0.517
 8031SOL     OW24991   0.046   6.443   2.768
 8031SOL    HW124992   0.042   6.369   2.701
 8031SOL    HW224993   0.142   6.470   2.781
 8032SOL     OW24994   5.579   4.171   1.694
 8032SOL    HW124995   5.580   4.265   1.661
 8032SOL    HW224996   5.543   4.110   1.623
 8033SOL     OW24997   4.411   2.881   6.772
 8033SOL    HW124998   4.506   2.909   6.786
 8033SOL    HW224999   4.406   2.782   6.765
 8034SOL     OW25000   4.758   7.018   6.025
 8034SOL    HW125001   4.751   0.019   6.122
 8034SOL    HW225002   4.817   0.061   5.978
 8035SOL     OW25003   5.099   1.995   1.926
 8035SOL    HW125004   5.080   2.079   1.977
 8035SOL    HW225005   5.112   1.920   1.990
 8036SOL     OW25006   6.662   3.743   3.750
 8036SOL    HW125007   6.573   3.698   3.759
 8036SOL    HW225008   6.686   3.787   3.836
 8037SOL     OW25009   2.089   3.223   6.927
 8037SOL    HW125010   2.107   3.315   6.891
 8037SOL    HW225011   2.174   3.183   6.960
 8038SOL     OW25012   4.559   6.831   2.956
 8038SOL    HW125013   4.604   6.884   2.884
 8038SOL    HW225014   4.602   6.741   2.962
 8039SOL     OW25015   6.839   1.594   4.793
 8039SOL    HW125016   6.915   1.637   4.744
 8039SOL    HW225017   6.814   1.508   4.748
 8040SOL     OW25018   1.517   5.735   6.724
 8040SOL    HW125019   1.430   5.688   6.739
 8040SOL    HW225020   1.573   5.728   6.806
 8041SOL     OW25021   2.998   0.688   2.562
 8041SOL    HW125022   2.929   0.630   2.518
 8041SOL    HW225023   2.959   0.777   2.582
 8042SOL     OW25024   4.058   3.816   5.641
 8042SOL    HW125025   4.017   3.755   5.574
 8042SOL    HW225026   4.003   3.900   5.647
 8043SOL     OW25027   3.352   5.315   0.613
 8043SOL    HW125028   3.392   5.352   0.697
 8043SOL    HW225029   3.259   5.284   0.632
 8044SOL     OW25030   3.867   3.899   0.734
 8044SOL    HW125031   3.937   3.954   0.688
 8044SOL    HW225032   3.785   3.955   0.749
 8045SOL     OW25033   5.912   2.208   2.271
 8045SOL    HW125034   5.826   2.158   2.278
 8045SOL    HW225035   5.985   2.145   2.244
 8046SOL     OW25036   0.632   4.043   2.441
 8046SOL    HW125037   0.595   4.025   2.350
 8046SOL    HW225038   0.677   4.132   2.442
 8047SOL     OW25039   3.391   6.132   6.449
 8047SOL    HW125040   3.368   6.069   6.375
 8047SOL    HW225041   3.308   6.174   6.484
 8048SOL     OW25042   3.339   2.189   0.395
 8048SOL    HW125043   3.309   2.104   0.352
 8048SOL    HW225044   3.377   2.250   0.325
 8049SOL     OW25045   0.991   0.021   0.416
 8049SOL    HW125046   0.918   7.021   0.479
 8049SOL    HW225047   0.953   0.039   0.325
 8050SOL     OW25048   1.647   3.148   3.906
 8050SOL    HW125049   1.718   3.155   3.976
 8050SOL    HW225050   1.664   3.214   3.833
 8051SOL     OW25051   4.807   6.236   4.770
 8051SOL    HW125052   4.890   6.248   4.824
 8051SOL    HW225053   4.829   6.190   4.684
 8052SOL     OW25054   2.937   1.758   1.320
 8052SOL    HW125055   3.003   1.767   1.394
 8052SOL    HW225056   2.929   1.845   1.271
 8053SOL     OW25057   3.612   2.843   4.888
 8053SOL    HW125058   3.568   2.842   4.977
 8053SOL    HW225059   3.562   2.783   4.825
 8054SOL     OW25060   6.852   4.127   5.026
 8054SOL    HW125061   6.755   4.147   5.036
 8054SOL    HW225062   6.863   4.034   4.991
 8055SOL     OW25063   6.576   0.715   5.785
 8055SOL    HW125064   6.545   0.623   5.807
 8055SOL    HW225065   6.566   0.731   5.686
 8056SOL     OW25066   2.856   0.688   4.804
 8056SOL    HW125067   2.825   0.598   4.776
 8056SOL    HW225068   2.814   0.758   4.746
 8057SOL     OW25069   2.707   2.323   2.774
 8057SOL    HW125070   2.715   2.255   2.847
 8057SOL    HW225071   2.797   2.366   2.759
 8058SOL     OW25072   3.569   6.979   3.150
 8058SOL    HW125073   3.606   6.991   3.057
 8058SOL    HW225074   3.535   0.044   3.184
 8059SOL     OW25075   2.248   1.187   4.781
 8059SOL    HW125076   2.345   1.212   4.777
 8059SOL    HW225077   2.217   1.190   4.876
 8060SOL     OW25078   0.155   2.245   6.259
 8060SOL    HW125079   0.140   2.298   6.342
 8060SOL    HW225080   0.240   2.192   6.268
 8061SOL     OW25081   0.548   0.145   2.352
 8061SOL    HW125082   0.601   0.213   2.402
 8061SOL    HW225083   0.489   0.094   2.415
 8062SOL     OW25084   3.861   5.145   3.847
 8062SOL    HW125085   3.944   5.145   3.792
 8062SOL    HW225086   3.834   5.051   3.867
 8063SOL     OW25087   2.513   1.204   3.120
 8063SOL    HW125088   2.449   1.281   3.119
 8063SOL    HW225089   2.522   1.170   3.214
 8064SOL     OW25090   5.898   2.266   0.341
 8064SOL    HW125091   5.859   2.188   0.292
 8064SOL    HW225092   5.900   2.246   0.439
 8065SOL     OW25093   2.810   6.339   4.293
 8065SOL    HW125094   2.771   6.341   4.201
 8065SOL    HW225095   2.807   6.245   4.328
 8066SOL     OW25096   6.740   0.131   5.405
 8066SOL    HW125097   6.664   0.167   5.459
 8066SOL    HW225098   6.705   0.074   5.331
 8067SOL     OW25099   5.218   2.779   2.650
 8067SOL    HW125100   5.316   2.797   2.645
 8067SOL    HW225101   5.167   2.861   2.625
 8068SOL     OW25102   0.043   4.651   1.490
 8068SOL    HW125103   6.991   4.615   1.433
 8068SOL    HW225104   0.108   4.701   1.433
 8069SOL     OW25105   1.809   4.838   1.142
 8069SOL    HW125106   1.829   4.753   1.094
 8069SOL    HW225107   1.725   4.878   1.106
 8070SOL     OW25108   4.156   3.135   0.523
 8070SOL    HW125109   4.206   3.179   0.449
 8070SOL    HW225110   4.213   3.134   0.606
 8071SOL     OW25111   2.805   6.978   5.434
 8071SOL    HW125112   2.756   6.912   5.492
 8071SOL    HW225113   2.898   6.946   5.419
 8072SOL     OW25114   3.306   1.876   0.990
 8072SOL    HW125115   3.377   1.817   1.028
 8072SOL    HW225116   3.267   1.835   0.908
 8073SOL     OW25117   3.839   6.137   5.142
 8073SOL    HW125118   3.772   6.148   5.069
 8073SOL    HW225119   3.847   6.222   5.194
 8074SOL     OW25120   2.859   2.018   0.441
 8074SOL    HW125121   2.789   1.998   0.510
 8074SOL    HW225122   2.814   2.047   0.356
 8075SOL     OW25123   6.548   6.788   0.678
 8075SOL    HW125124   6.584   6.843   0.603
 8075SOL    HW225125   6.623   6.739   0.723
 8076SOL     OW25126   6.156   7.000   5.207
 8076SOL    HW125127   6.091   0.053   5.197
 8076SOL    HW225128   6.155   6.944   5.124
 8077SOL     OW25129   3.412   5.643   2.721
 8077SOL    HW125130   3.443   5.562   2.771
 8077SOL    HW225131   3.491   5.701   2.699
 8078SOL     OW25132   0.749   1.894   1.343
 8078SOL    HW125133   0.688   1.973   1.351
 8078SOL    HW225134   0.831   1.921   1.292
 8079SOL     OW25135   6.544   1.697   3.159
 8079SOL    HW125136   6.522   1.685   3.062
 8079SOL    HW225137   6.551   1.607   3.203
 8080SOL     OW25138   1.059   1.706   2.797
 8080SOL    HW125139   1.085   1.686   2.891
 8080SOL    HW225140   1.043   1.804   2.787
 8081SOL     OW25141   6.218   5.445   6.105
 8081SOL    HW125142   6.314   5.470   6.094
 8081SOL    HW225143   6.212   5.350   6.137
 8082SOL     OW25144   3.600   0.903   2.778
 8082SOL    HW125145   3.557   0.981   2.733
 8082SOL    HW225146   3.684   0.878   2.730
 8083SOL     OW25147   5.127   2.725   3.638
 8083SOL    HW125148   5.044   2.681   3.603
 8083SOL    HW225149   5.156   2.679   3.723
 8084SOL     OW25150   3.562   0.182   6.794
 8084SOL    HW125151   3.466   0.153   6.800
 8084SOL    HW225152   3.614   0.113   6.744
 8085SOL     OW25153   5.714   5.655   2.218
 8085SOL    HW125154   5.741   5.729   2.279
 8085SOL    HW225155   5.664   5.586   2.270
 8086SOL     OW25156   6.836   0.715   2.097
 8086SOL    HW125157   6.884   0.798   2.067
 8086SOL    HW225158   6.903   0.650   2.134
 8087SOL     OW25159   1.755   6.993   0.302
 8087SOL    HW125160   1.736   6.907   0.255
 8087SOL    HW225161   1.692   7.004   0.379
 8088SOL     OW25162   5.641   0.610   0.869
 8088SOL    HW125163   5.735   0.643   0.860
 8088SOL    HW225164   5.598   0.653   0.948
 8089SOL     OW25165   5.265   2.763   0.127
 8089SOL    HW125166   5.171   2.787   0.153
 8089SOL    HW225167   5.275   2.768   0.028
 8090SOL     OW25168   3.705   1.104   6.114
 8090SOL    HW125169   3.741   1.189   6.153
 8090SOL    HW225170   3.772   1.031   6.124
 8091SOL     OW25171   1.628   3.768   4.975
 8091SOL    HW125172   1.571   3.755   5.056
 8091SOL    HW225173   1.645   3.680   4.931
 8092SOL     OW25174   5.175   1.970   5.131
 8092SOL    HW125175   5.167   2.069   5.140
 8092SOL    HW225176   5.270   1.943   5.142
 8093SOL     OW25177   2.627   5.475   3.506
 8093SOL    HW125178   2.659   5.462   3.599
 8093SOL    HW225179   2.556   5.407   3.484
 8094SOL     OW25180   6.917   2.860   4.556
 8094SOL    HW125181   6.984   2.926   4.588
 8094SOL    HW225182   6.871   2.896   4.475
 8095SOL     OW25183   0.609   4.528   5.090
 8095SOL    HW125184   0.550   4.448   5.096
 8095SOL    HW225185   0.575   4.599   5.151
 8096SOL     OW25186   2.445   0.462   2.384
 8096SOL    HW125187   2.447   0.368   2.349
 8096SOL    HW225188   2.390   0.465   2.467
 8097SOL     OW25189   4.479   6.900   5.245
 8097SOL    HW125190   4.578   6.905   5.246
 8097SOL    HW225191   4.443   6.931   5.333
 8098SOL     OW25192   1.880   6.520   3.370
 8098SOL    HW125193   1.883   6.421   3.355
 8098SOL    HW225194   1.835   6.538   3.457
 8099SOL     OW25195   4.418   6.611   4.005
 8099SOL    HW125196   4.345   6.667   4.043
 8099SOL    HW225197   4.384   6.519   3.985
 8100SOL     OW25198   6.951   0.686   6.926
 8100SOL    HW125199   6.928   0.705   6.830
 8100SOL    HW225200   0.000   0.617   6.930
 8101SOL     OW25201   1.604   5.743   1.439
 8101SOL    HW125202   1.515   5.738   1.486
 8101SOL    HW225203   1.630   5.651   1.409
 8102SOL     OW25204   0.431   3.253   3.508
 8102SOL    HW125205   0.399   3.235   3.416
 8102SOL    HW225206   0.354   3.278   3.566
 8103SOL     OW25207   2.908   6.984   1.312
 8103SOL    HW125208   2.833   6.921   1.290
 8103SOL    HW225209   2.993   6.934   1.320
 8104SOL     OW25210   1.696   0.841   6.395
 8104SOL    HW125211   1.678   0.750   6.358
 8104SOL    HW225212   1.643   0.855   6.478
 8105SOL     OW25213   6.985   3.444   2.939
 8105SOL    HW125214   0.011   3.473   3.021
 8105SOL    HW225215   6.906   3.503   2.924
 8106SOL     OW25216   3.222   5.445   3.675
 8106SOL    HW125217   3.215   5.404   3.584
 8106SOL    HW225218   3.285   5.522   3.671
 8107SOL     OW25219   0.985   5.720   3.632
 8107SOL    HW125220   0.909   5.785   3.639
 8107SOL    HW225221   0.949   5.627   3.624
 8108SOL     OW25222   6.705   2.871   6.615
 8108SOL    HW125223   6.665   2.829   6.534
 8108SOL    HW225224   6.794   2.829   6.635
 8109SOL     OW25225   6.861   3.818   6.206
 8109SOL    HW125226   6.783   3.866   6.165
 8109SOL    HW225227   6.891   3.867   6.288
 8110SOL     OW25228   3.890   5.606   2.339
 8110SOL    HW125229   3.969   5.665   2.321
 8110SOL    HW225230   3.903   5.560   2.427
 8111SOL     OW25231   4.980   1.187   4.714
 8111SOL    HW125232   4.998   1.281   4.744
 8111SOL    HW225233   5.060   1.153   4.664
 8112SOL     OW25234   2.242   2.834   4.532
 8112SOL    HW125235   2.238   2.886   4.446
 8112SOL    HW225236   2.322   2.775   4.532
 8113SOL     OW25237   0.897   3.818   1.150
 8113SOL    HW125238   0.943   3.905   1.136
 8113SOL    HW225239   0.873   3.778   1.061
 8114SOL     OW25240   1.399   3.892   2.371
 8114SOL    HW125241   1.318   3.936   2.334
 8114SOL    HW225242   1.379   3.857   2.463
 8115SOL     OW25243   3.595   6.700   6.534
 8115SOL    HW125244   3.527   6.634   6.565
 8115SOL    HW225245   3.640   6.742   6.613
 8116SOL     OW25246   4.086   4.843   0.475
 8116SOL    HW125247   4.150   4.903   0.525
 8116SOL    HW225248   4.057   4.769   0.535
 8117SOL     OW25249   1.579   6.968   3.656
 8117SOL    HW125250   1.495   7.019   3.674
 8117SOL    HW225251   1.627   7.007   3.578
 8118SOL     OW25252   4.925   4.322   6.234
 8118SOL    HW125253   4.900   4.285   6.324
 8118SOL    HW225254   4.943   4.246   6.171
 8119SOL     OW25255   5.263   5.705   6.311
 8119SOL    HW125256   5.217   5.632   6.261
 8119SOL    HW225257   5.292   5.671   6.401
 8120SOL     OW25258   3.465   4.509   1.035
 8120SOL    HW125259   3.376   4.464   1.038
 8120SOL    HW225260   3.457   4.595   0.984
 8121SOL     OW25261   0.625   4.896   1.601
 8121SOL    HW125262   0.576   4.947   1.672
 8121SOL    HW225263   0.577   4.905   1.514
 8122SOL     OW25264   0.266   4.383   3.365
 8122SOL    HW125265   0.273   4.293   3.322
 8122SOL    HW225266   0.239   4.451   3.297
 8123SOL     OW25267   6.781   1.943   6.474
 8123SOL    HW125268   6.799   2.013   6.544
 8123SOL    HW225269   6.695   1.964   6.428
 8124SOL     OW25270   4.979   5.914   2.109
 8124SOL    HW125271   5.028   6.000   2.110
 8124SOL    HW225272   5.032   5.845   2.059
 8125SOL     OW25273   1.755   1.769   3.368
 8125SOL    HW125274   1.803   1.690   3.406
 8125SOL    HW225275   1.810   1.851   3.382
 8126SOL     OW25276   5.366   4.592   3.195
 8126SOL    HW125277   5.440   4.605   3.128
 8126SOL    HW225278   5.295   4.534   3.155
 8127SOL     OW25279   2.884   3.502   5.968
 8127SOL    HW125280   2.961   3.468   6.023
 8127SOL    HW225281   2.908   3.496   5.871
 8128SOL     OW25282   2.988   2.171   2.270
 8128SOL    HW125283   2.989   2.199   2.174
 8128SOL    HW225284   2.903   2.200   2.312
 8129SOL     OW25285   3.807   1.523   6.045
 8129SOL    HW125286   3.724   1.515   6.100
 8129SOL    HW225287   3.829   1.620   6.031
 8130SOL     OW25288   0.342   4.168   6.911
 8130SOL    HW125289   0.411   4.179   6.982
 8130SOL    HW225290   0.262   4.224   6.933
 8131SOL     OW25291   2.337   2.180   1.685
 8131SOL    HW125292   2.335   2.171   1.585
 8131SOL    HW225293   2.259   2.235   1.715
 8132SOL     OW25294   5.437   6.790   5.093
 8132SOL    HW125295   5.536   6.785   5.104
 8132SOL    HW225296   5.397   6.835   5.174
 8133SOL     OW25297   3.304   5.198   2.627
 8133SOL    HW125298   3.288   5.112   2.578
 8133SOL    HW225299   3.236   5.266   2.597
 8134SOL     OW25300   6.855   2.190   6.224
 8134SOL    HW125301   6.953   2.177   6.234
 8134SOL    HW225302   6.822   2.255   6.293
 8135SOL     OW25303   2.709   6.814   1.263
 8135SOL    HW125304   2.611   6.820   1.284
 8135SOL    HW225305   2.722   6.763   1.178
 8136SOL     OW25306   4.539   5.536   3.090
 8136SOL    HW125307   4.523   5.633   3.071
 8136SOL    HW225308   4.601   5.498   3.021
 8137SOL     OW25309   3.296   1.500   5.353
 8137SOL    HW125310   3.314   1.481   5.449
 8137SOL    HW225311   3.282   1.414   5.304
 8138SOL     OW25312   5.244   1.138   0.649
 8138SOL    HW125313   5.189   1.179   0.576
 8138SOL    HW225314   5.193   1.062   0.690
 8139SOL     OW25315   0.282   0.545   1.911
 8139SOL    HW125316   0.316   0.634   1.940
 8139SOL    HW225317   0.345   0.474   1.944
 8140SOL     OW25318   5.729   0.423   6.227
 8140SOL    HW125319   5.650   0.391   6.280
 8140SOL    HW225320   5.699   0.453   6.137
 8141SOL     OW25321   4.248   5.094   4.669
 8141SOL    HW125322   4.155   5.129   4.657
 8141SOL    HW225323   4.303   5.117   4.589
 8142SOL     OW25324   0.221   5.223   6.946
 8142SOL    HW125325   0.185   5.140   6.904
 8142SOL    HW225326   0.291   5.198   7.014
 8143SOL     OW25327   5.950   3.731   0.603
 8143SOL    HW125328   5.894   3.657   0.566
 8143SOL    HW225329   5.900   3.817   0.597
 8144SOL     OW25330   6.052   6.188   6.369
 8144SOL    HW125331   6.024   6.092   6.371
 8144SOL    HW225332   5.971   6.247   6.365
 8145SOL     OW25333   5.667   6.035   1.020
 8145SOL    HW125334   5.653   6.134   1.028
 8145SOL    HW225335   5.657   6.008   0.925
 8146SOL     OW25336   3.547   1.086   4.685
 8146SOL    HW125337   3.631   1.030   4.690
 8146SOL    HW225338   3.484   1.044   4.619
 8147SOL     OW25339   6.130   1.866   1.735
 8147SOL    HW125340   6.163   1.961   1.735
 8147SOL    HW225341   6.159   1.821   1.651
 8148SOL     OW25342   5.111   4.556   1.180
 8148SOL    HW125343   5.112   4.456   1.180
 8148SOL    HW225344   5.061   4.589   1.260
 8149SOL     OW25345   2.546   6.119   1.957
 8149SOL    HW125346   2.473   6.051   1.956
 8149SOL    HW225347   2.546   6.166   2.045
 8150SOL     OW25348   0.580   4.688   0.397
 8150SOL    HW125349   0.530   4.610   0.434
 8150SOL    HW225350   0.677   4.664   0.388
 8151SOL     OW25351   6.470   2.001   1.542
 8151SOL    HW125352   6.514   1.917   1.573
 8151SOL    HW225353   6.414   1.982   1.462
 8152SOL     OW25354   0.424   1.491   2.744
 8152SOL    HW125355   0.331   1.467   2.770
 8152SOL    HW225356   0.469   1.540   2.819
 8153SOL     OW25357   3.457   0.231   3.152
 8153SOL    HW125358   3.382   0.267   3.208
 8153SOL    HW225359   3.535   0.293   3.156
 8154SOL     OW25360   2.942   5.756   3.672
 8154SOL    HW125361   2.954   5.659   3.692
 8154SOL    HW225362   2.879   5.766   3.595
 8155SOL     OW25363   2.429   4.012   1.666
 8155SOL    HW125364   2.421   3.985   1.570
 8155SOL    HW225365   2.379   4.097   1.681
 8156SOL     OW25366   5.080   6.598   6.722
 8156SOL    HW125367   5.043   6.672   6.665
 8156SOL    HW225368   5.052   6.510   6.683
 8157SOL     OW25369   6.180   4.928   6.517
 8157SOL    HW125370   6.261   4.906   6.571
 8157SOL    HW225371   6.195   4.903   6.422
 8158SOL     OW25372   6.683   5.306   1.416
 8158SOL    HW125373   6.597   5.256   1.419
 8158SOL    HW225374   6.665   5.405   1.420
 8159SOL     OW25375   2.918   6.126   2.951
 8159SOL    HW125376   2.894   6.169   3.039
 8159SOL    HW225377   3.016   6.107   2.949
 8160SOL     OW25378   4.784   1.254   2.338
 8160SOL    HW125379   4.725   1.312   2.282
 8160SOL    HW225380   4.753   1.255   2.433
 8161SOL     OW25381   5.063   1.490   6.728
 8161SOL    HW125382   5.074   1.572   6.784
 8161SOL    HW225383   5.106   1.412   6.773
 8162SOL     OW25384   6.255   6.436   5.605
 8162SOL    HW125385   6.293   6.349   5.636
 8162SOL    HW225386   6.227   6.428   5.510
 8163SOL     OW25387   2.942   3.632   5.496
 8163SOL    HW125388   2.995   3.646   5.412
 8163SOL    HW225389   2.991   3.570   5.557
 8164SOL     OW25390   5.985   3.137   0.609
 8164SOL    HW125391   5.956   3.211   0.548
 8164SOL    HW225392   5.949   3.154   0.700
 8165SOL     OW25393   0.933   4.906   6.519
 8165SOL    HW125394   0.954   4.825   6.573
 8165SOL    HW225395   0.879   4.971   6.574
 8166SOL     OW25396   2.434   0.656   2.204
 8166SOL    HW125397   2.452   0.748   2.237
 8166SOL    HW225398   2.473   0.589   2.268
 8167SOL     OW25399   5.961   1.128   3.892
 8167SOL    HW125400   6.025   1.158   3.962
 8167SOL    HW225401   5.933   1.034   3.910
 8168SOL     OW25402   3.346   1.683   3.719
 8168SOL    HW125403   3.336   1.588   3.749
 8168SOL    HW225404   3.264   1.734   3.741
 8169SOL     OW25405   5.022   3.177   1.259
 8169SOL    HW125406   4.985   3.109   1.197
 8169SOL    HW225407   4.955   3.197   1.330
 8170SOL     OW25408   1.540   6.112   2.922
 8170SOL    HW125409   1.516   6.104   2.825
 8170SOL    HW225410   1.625   6.164   2.931
 8171SOL     OW25411   1.192   1.460   0.226
 8171SOL    HW125412   1.115   1.476   0.165
 8171SOL    HW225413   1.163   1.471   0.321
 8172SOL     OW25414   0.910   1.134   1.904
 8172SOL    HW125415   1.003   1.166   1.918
 8172SOL    HW225416   0.870   1.104   1.991
 8173SOL     OW25417   3.813   1.728   0.709
 8173SOL    HW125418   3.854   1.741   0.800
 8173SOL    HW225419   3.741   1.797   0.695
 8174SOL     OW25420   5.192   2.101   0.845
 8174SOL    HW125421   5.111   2.051   0.812
 8174SOL    HW225422   5.182   2.198   0.822
 8175SOL     OW25423   0.004   2.930   5.810
 8175SOL    HW125424   0.087   2.888   5.847
 8175SOL    HW225425   0.026   3.020   5.774
 8176SOL     OW25426   2.375   5.181   2.413
 8176SOL    HW125427   2.291   5.173   2.467
 8176SOL    HW225428   2.423   5.094   2.414
 8177SOL     OW25429   2.250   6.295   4.473
 8177SOL    HW125430   2.317   6.247   4.529
 8177SOL    HW225431   2.266   6.394   4.478
 8178SOL     OW25432   2.180   6.583   6.833
 8178SOL    HW125433   2.118   6.661   6.817
 8178SOL    HW225434   2.130   6.510   6.879
 8179SOL     OW25435   3.772   2.719   6.743
 8179SOL    HW125436   3.781   2.641   6.682
 8179SOL    HW225437   3.676   2.732   6.767
 8180SOL     OW25438   6.756   0.158   4.494
 8180SOL    HW125439   6.704   0.242   4.479
 8180SOL    HW225440   6.724   0.088   4.430
 8181SOL     OW25441   2.510   1.728   2.199
 8181SOL    HW125442   2.551   1.682   2.120
 8181SOL    HW225443   2.497   1.663   2.273
 8182SOL     OW25444   3.723   1.656   0.071
 8182SOL    HW125445   3.819   1.674   0.091
 8182SOL    HW225446   3.708   1.558   0.063
 8183SOL     OW25447   0.676   2.355   4.709
 8183SOL    HW125448   0.667   2.448   4.673
 8183SOL    HW225449   0.593   2.304   4.691
 8184SOL     OW25450   5.032   1.430   5.832
 8184SOL    HW125451   5.044   1.522   5.869
 8184SOL    HW225452   5.061   1.429   5.736
 8185SOL     OW25453   3.357   0.396   0.397
 8185SOL    HW125454   3.394   0.446   0.319
 8185SOL    HW225455   3.360   0.298   0.378
 8186SOL     OW25456   3.395   5.924   6.245
 8186SOL    HW125457   3.344   5.935   6.159
 8186SOL    HW225458   3.483   5.880   6.226
 8187SOL     OW25459   1.618   2.339   5.322
 8187SOL    HW125460   1.632   2.325   5.224
 8187SOL    HW225461   1.533   2.295   5.351
 8188SOL     OW25462   5.417   1.781   2.550
 8188SOL    HW125463   5.451   1.855   2.607
 8188SOL    HW225464   5.448   1.693   2.587
 8189SOL     OW25465   5.075   4.445   2.085
 8189SOL    HW125466   5.171   4.438   2.060
 8189SOL    HW225467   5.062   4.413   2.179
 8190SOL     OW25468   4.952   5.772   4.349
 8190SOL    HW125469   4.911   5.701   4.291
 8190SOL    HW225470   4.993   5.729   4.429
 8191SOL     OW25471   2.781   5.195   3.842
 8191SOL    HW125472   2.693   5.184   3.887
 8191SOL    HW225473   2.849   5.224   3.909
 8192SOL     OW25474   3.226   6.045   0.159
 8192SOL    HW125475   3.251   6.079   0.249
 8192SOL    HW225476   3.233   5.945   0.157
 8193SOL     OW25477   6.921   0.006   3.908
 8193SOL    HW125478   6.909   6.945   3.854
 8193SOL    HW225479   7.011   0.004   3.953
 8194SOL     OW25480   6.143   2.597   0.477
 8194SOL    HW125481   6.066   2.589   0.414
 8194SOL    HW225482   6.147   2.515   0.535
 8195SOL     OW25483   0.638   0.543   0.817
 8195SOL    HW125484   0.540   0.549   0.799
 8195SOL    HW225485   0.672   0.455   0.785
 8196SOL     OW25486   3.530   0.499   5.371
 8196SOL    HW125487   3.541   0.530   5.276
 8196SOL    HW225488   3.446   0.444   5.378
 8197SOL     OW25489   4.659   1.505   6.168
 8197SOL    HW125490   4.568   1.468   6.150
 8197SOL    HW225491   4.683   1.490   6.264
 8198SOL     OW25492   2.692   6.814   2.833
 8198SOL    HW125493   2.696   6.893   2.773
 8198SOL    HW225494   2.759   6.825   2.907
 8199SOL     OW25495   6.915   4.062   0.818
 8199SOL    HW125496   6.860   4.002   0.876
 8199SOL    HW225497   6.906   4.032   0.722
 8200SOL     OW25498   4.544   4.231   1.476
 8200SOL    HW125499   4.508   4.272   1.559
 8200SOL    HW225500   4.638   4.201   1.492
 8201SOL     OW25501   5.279   0.846   4.576
 8201SOL    HW125502   5.221   0.866   4.655
 8201SOL    HW225503   5.374   0.835   4.607
 8202SOL     OW25504   1.193   5.761   3.806
 8202SOL    HW125505   1.269   5.712   3.763
 8202SOL    HW225506   1.106   5.720   3.776
 8203SOL     OW25507   4.784   3.512   0.300
 8203SOL    HW125508   4.815   3.607   0.305
 8203SOL    HW225509   4.764   3.488   0.205
 8204SOL     OW25510   3.394   5.381   1.195
 8204SOL    HW125511   3.472   5.343   1.147
 8204SOL    HW225512   3.398   5.481   1.192
 8205SOL     OW25513   6.455   4.888   2.481
 8205SOL    HW125514   6.535   4.828   2.492
 8205SOL    HW225515   6.372   4.833   2.475
 8206SOL     OW25516   3.030   2.078   5.532
 8206SOL    HW125517   3.008   2.111   5.624
 8206SOL    HW225518   3.028   2.154   5.468
 8207SOL     OW25519   3.586   4.494   5.328
 8207SOL    HW125520   3.647   4.415   5.332
 8207SOL    HW225521   3.595   4.546   5.413
 8208SOL     OW25522   2.925   6.450   1.376
 8208SOL    HW125523   2.858   6.511   1.418
 8208SOL    HW225524   2.894   6.355   1.386
 8209SOL     OW25525   0.765   1.556   5.189
 8209SOL    HW125526   0.738   1.593   5.100
 8209SOL    HW225527   0.863   1.535   5.189
 8210SOL     OW25528   3.479   0.467   0.139
 8210SOL    HW125529   3.400   0.427   0.091
 8210SOL    HW225530   3.490   0.562   0.111
 8211SOL     OW25531   3.637   4.171   4.023
 8211SOL    HW125532   3.720   4.175   4.078
 8211SOL    HW225533   3.660   4.149   3.929
 8212SOL     OW25534   3.320   0.619   0.775
 8212SOL    HW125535   3.305   0.607   0.873
 8212SOL    HW225536   3.340   0.715   0.756
 8213SOL     OW25537   5.045   5.078   3.351
 8213SOL    HW125538   4.954   5.090   3.391
 8213SOL    HW225539   5.111   5.133   3.402
 8214SOL     OW25540   2.032   6.220   3.825
 8214SOL    HW125541   1.968   6.151   3.790
 8214SOL    HW225542   2.049   6.204   3.922
 8215SOL     OW25543   4.059   5.166   0.765
 8215SOL    HW125544   4.039   5.234   0.694
 8215SOL    HW225545   4.134   5.199   0.822
 8216SOL     OW25546   5.235   6.912   2.867
 8216SOL    HW125547   5.278   6.998   2.838
 8216SOL    HW225548   5.168   6.884   2.798
 8217SOL     OW25549   2.234   4.294   1.981
 8217SOL    HW125550   2.254   4.205   1.939
 8217SOL    HW225551   2.304   4.359   1.954
 8218SOL     OW25552   1.473   0.404   4.676
 8218SOL    HW125553   1.485   0.443   4.585
 8218SOL    HW225554   1.535   0.327   4.688
 8219SOL     OW25555   2.724   4.470   1.240
 8219SOL    HW125556   2.671   4.431   1.315
 8219SOL    HW225557   2.697   4.426   1.154
 8220SOL     OW25558   3.411   4.134   5.368
 8220SOL    HW125559   3.371   4.225   5.362
 8220SOL    HW225560   3.505   4.137   5.333
 8221SOL     OW25561   6.343   4.330   3.370
 8221SOL    HW125562   6.359   4.428   3.378
 8221SOL    HW225563   6.430   4.281   3.382
 8222SOL     OW25564   5.460   2.081   0.797
 8222SOL    HW125565   5.368   2.052   0.823
 8222SOL    HW225566   5.493   2.149   0.862
 8223SOL     OW25567   0.417   5.120   5.957
 8223SOL    HW125568   0.463   5.169   5.883
 8223SOL    HW225569   0.322   5.102   5.933
 8224SOL     OW25570   4.671   2.114   1.279
 8224SOL    HW125571   4.575   2.113   1.250
 8224SOL    HW225572   4.694   2.026   1.320
 8225SOL     OW25573   4.113   0.349   1.058
 8225SOL    HW125574   4.106   0.254   1.090
 8225SOL    HW225575   4.027   0.377   1.018
 8226SOL     OW25576   3.538   0.483   0.592
 8226SOL    HW125577   3.482   0.439   0.522
 8226SOL    HW225578   3.489   0.561   0.630
 8227SOL     OW25579   6.518   1.441   2.611
 8227SOL    HW125580   6.567   1.473   2.692
 8227SOL    HW225581   6.529   1.506   2.536
 8228SOL     OW25582   0.148   1.080   5.638
 8228SOL    HW125583   0.150   1.152   5.708
 8228SOL    HW225584   0.241   1.046   5.621
 8229SOL     OW25585   4.702   4.479   1.219
 8229SOL    HW125586   4.657   4.407   1.167
 8229SOL    HW225587   4.641   4.512   1.290
 8230SOL     OW25588   3.589   6.904   5.906
 8230SOL    HW125589   3.492   6.929   5.916
 8230SOL    HW225590   3.596   6.814   5.864
 8231SOL     OW25591   3.313   1.931   2.519
 8231SOL    HW125592   3.236   1.869   2.537
 8231SOL    HW225593   3.313   1.957   2.423
 8232SOL     OW25594   5.496   1.501   2.269
 8232SOL    HW125595   5.502   1.439   2.191
 8232SOL    HW225596   5.573   1.566   2.265
 8233SOL     OW25597   1.058   0.630   5.740
 8233SOL    HW125598   1.099   0.690   5.808
 8233SOL    HW225599   1.005   0.558   5.787
 8234SOL     OW25600   3.168   2.788   0.315
 8234SOL    HW125601   3.198   2.810   0.222
 8234SOL    HW225602   3.179   2.868   0.374
 8235SOL     OW25603   0.344   4.502   0.224
 8235SOL    HW125604   0.390   4.496   0.313
 8235SOL    HW225605   0.246   4.484   0.236
 8236SOL     OW25606   0.274   6.008   5.968
 8236SOL    HW125607   0.202   6.022   5.899
 8236SOL    HW225608   0.324   6.093   5.981
 8237SOL     OW25609   4.097   5.253   5.864
 8237SOL    HW125610   4.087   5.200   5.948
 8237SOL    HW225611   4.194   5.258   5.839
 8238SOL     OW25612   0.966   5.495   6.659
 8238SOL    HW125613   0.994   5.589   6.675
 8238SOL    HW225614   0.989   5.439   6.739
 8239SOL     OW25615   0.165   1.250   4.835
 8239SOL    HW125616   0.083   1.229   4.782
 8239SOL    HW225617   0.142   1.250   4.932
 8240SOL     OW25618   2.970   3.678   2.906
 8240SOL    HW125619   2.929   3.645   2.821
 8240SOL    HW225620   2.972   3.778   2.906
 8241SOL     OW25621   1.457   3.787   6.873
 8241SOL    HW125622   1.409   3.708   6.909
 8241SOL    HW225623   1.468   3.778   6.774
 8242SOL     OW25624   1.466   3.553   4.570
 8242SOL    HW125625   1.520   3.631   4.600
 8242SOL    HW225626   1.500   3.470   4.613
 8243SOL     OW25627   0.493   4.135   6.648
 8243SOL    HW125628   0.427   4.171   6.714
 8243SOL    HW225629   0.519   4.042   6.674
 8244SOL     OW25630   1.145   0.262   3.752
 8244SOL    HW125631   1.171   0.301   3.840
 8244SOL    HW225632   1.121   0.336   3.688
 8245SOL     OW25633   4.300   2.067   3.562
 8245SOL    HW125634   4.361   2.139   3.595
 8245SOL    HW225635   4.273   2.009   3.639
 8246SOL     OW25636   1.006   4.409   6.168
 8246SOL    HW125637   1.034   4.469   6.243
 8246SOL    HW225638   1.060   4.430   6.086
 8247SOL     OW25639   2.927   5.278   3.534
 8247SOL    HW125640   2.854   5.213   3.554
 8247SOL    HW225641   2.969   5.309   3.620
 8248SOL     OW25642   1.019   5.854   4.051
 8248SOL    HW125643   1.038   5.859   3.953
 8248SOL    HW225644   1.061   5.933   4.097
 8249SOL     OW25645   2.547   1.620   4.991
 8249SOL    HW125646   2.583   1.596   5.081
 8249SOL    HW225647   2.622   1.653   4.933
 8250SOL     OW25648   3.158   1.849   0.763
 8250SOL    HW125649   3.065   1.815   0.747
 8250SOL    HW225650   3.168   1.940   0.722
 8251SOL     OW25651   6.162   1.994   4.401
 8251SOL    HW125652   6.258   1.970   4.409
 8251SOL    HW225653   6.107   1.930   4.455
 8252SOL     OW25654   2.948   2.122   6.810
 8252SOL    HW125655   2.943   2.139   6.909
 8252SOL    HW225656   3.044   2.112   6.784
 8253SOL     OW25657   4.098   5.662   6.385
 8253SOL    HW125658   4.133   5.747   6.422
 8253SOL    HW225659   3.999   5.670   6.370
 8254SOL     OW25660   5.841   4.888   6.232
 8254SOL    HW125661   5.782   4.807   6.226
 8254SOL    HW225662   5.834   4.927   6.323
 8255SOL     OW25663   0.705   6.857   5.924
 8255SOL    HW125664   0.682   6.918   6.000
 8255SOL    HW225665   0.757   6.779   5.958
 8256SOL     OW25666   0.063   7.001   3.307
 8256SOL    HW125667   0.112   0.059   3.342
 8256SOL    HW225668   7.011   0.008   3.247
 8257SOL     OW25669   5.577   4.196   4.141
 8257SOL    HW125670   5.530   4.195   4.229
 8257SOL    HW225671   5.655   4.133   4.144
 8258SOL     OW25672   5.656   2.541   1.087
 8258SOL    HW125673   5.600   2.543   1.005
 8258SOL    HW225674   5.690   2.633   1.107
 8259SOL     OW25675   4.061   1.907   5.045
 8259SOL    HW125676   4.032   1.811   5.040
 8259SOL    HW225677   3.981   1.967   5.040
 8260SOL     OW25678   2.043   6.348   0.889
 8260SOL    HW125679   1.967   6.413   0.898
 8260SOL    HW225680   2.095   6.345   0.974
 8261SOL     OW25681   5.451   6.719   3.256
 8261SOL    HW125682   5.387   6.789   3.224
 8261SOL    HW225683   5.486   6.744   3.347
 8262SOL     OW25684   0.578   4.969   0.492
 8262SOL    HW125685   0.555   4.872   0.485
 8262SOL    HW225686   0.646   4.993   0.423
 8263SOL     OW25687   6.942   2.784   6.725
 8263SOL    HW125688   6.974   2.781   6.820
 8263SOL    HW225689   6.977   2.866   6.680
 8264SOL     OW25690   1.186   6.596   1.311
 8264SOL    HW125691   1.218   6.595   1.217
 8264SOL    HW225692   1.243   6.535   1.366
 8265SOL     OW25693   4.222   0.226   1.449
 8265SOL    HW125694   4.164   0.308   1.453
 8265SOL    HW225695   4.270   0.224   1.361
 8266SOL     OW25696   2.534   0.157   4.760
 8266SOL    HW125697   2.452   0.105   4.786
 8266SOL    HW225698   2.616   0.105   4.785
 8267SOL     OW25699   1.561   5.131   2.204
 8267SOL    HW125700   1.541   5.033   2.208
 8267SOL    HW225701   1.505   5.179   2.272
 8268SOL     OW25702   2.404   3.799   6.712
 8268SOL    HW125703   2.312   3.814   6.675
 8268SOL    HW225704   2.398   3.790   6.811
 8269SOL     OW25705   4.795   2.832   2.850
 8269SOL    HW125706   4.788   2.819   2.751
 8269SOL    HW225707   4.827   2.924   2.870
 8270SOL     OW25708   2.330   6.421   5.706
 8270SOL    HW125709   2.317   6.328   5.671
 8270SOL    HW225710   2.373   6.478   5.636
 8271SOL     OW25711   6.309   6.775   4.165
 8271SOL    HW125712   6.323   6.678   4.145
 8271SOL    HW225713   6.322   6.828   4.082
 8272SOL     OW25714   0.621   0.616   2.436
 8272SOL    HW125715   0.655   0.709   2.425
 8272SOL    HW225716   0.572   0.608   2.523
 8273SOL     OW25717   3.389   6.971   0.278
 8273SOL    HW125718   3.428   6.922   0.355
 8273SOL    HW225719   3.446   0.027   0.254
 8274SOL     OW25720   3.777   4.625   6.631
 8274SOL    HW125721   3.695   4.667   6.591
 8274SOL    HW225722   3.778   4.527   6.610
 8275SOL     OW25723   5.809   0.316   4.519
 8275SOL    HW125724   5.895   0.361   4.542
 8275SOL    HW225725   5.734   0.382   4.525
 8276SOL     OW25726   6.579   2.822   5.960
 8276SOL    HW125727   6.649   2.837   5.890
 8276SOL    HW225728   6.569   2.724   5.976
 8277SOL     OW25729   2.512   5.487   5.121
 8277SOL    HW125730   2.552   5.452   5.037
 8277SOL    HW225731   2.575   5.553   5.163
 8278SOL     OW25732   3.212   1.500   6.431
 8278SOL    HW125733   3.148   1.570   6.462
 8278SOL    HW225734   3.171   1.446   6.358
 8279SOL     OW25735   5.466   5.184   6.887
 8279SOL    HW125736   5.431   5.114   6.948
 8279SOL    HW225737   5.553   5.154   6.848
 8280SOL     OW25738   4.713   2.685   6.915
 8280SOL    HW125739   4.726   2.610   6.981
 8280SOL    HW225740   4.694   2.646   6.825
 8281SOL     OW25741   1.950   4.289   0.713
 8281SOL    HW125742   1.915   4.381   0.694
 8281SOL    HW225743   1.986   4.249   0.628
 8282SOL     OW25744   2.802   2.231   1.291
 8282SOL    HW125745   2.735   2.290   1.336
 8282SOL    HW225746   2.789   2.236   1.192
 8283SOL     OW25747   0.055   5.442   3.590
 8283SOL    HW125748   0.131   5.495   3.554
 8283SOL    HW225749   7.005   5.436   3.520
 8284SOL     OW25750   1.711   2.887   2.538
 8284SOL    HW125751   1.739   2.957   2.472
 8284SOL    HW225752   1.791   2.836   2.569
 8285SOL     OW25753   3.362   3.590   6.089
 8285SOL    HW125754   3.375   3.522   6.017
 8285SOL    HW225755   3.377   3.681   6.052
 8286SOL     OW25756   5.537   1.244   5.028
 8286SOL    HW125757   5.445   1.206   5.039
 8286SOL    HW225758   5.544   1.287   4.938
 8287SOL     OW25759   1.659   6.984   4.427
 8287SOL    HW125760   1.575   6.949   4.469
 8287SOL    HW225761   1.665   6.952   4.333
 8288SOL     OW25762   1.920   2.423   2.600
 8288SOL    HW125763   1.944   2.455   2.692
 8288SOL    HW225764   1.879   2.499   2.548
 8289SOL     OW25765   6.238   0.691   6.176
 8289SOL    HW125766   6.316   0.653   6.126
 8289SOL    HW225767   6.250   0.789   6.187
 8290SOL     OW25768   3.958   3.146   1.738
 8290SOL    HW125769   3.988   3.162   1.643
 8290SOL    HW225770   3.862   3.171   1.747
 8291SOL     OW25771   5.585   6.719   6.578
 8291SOL    HW125772   5.648   6.780   6.530
 8291SOL    HW225773   5.493   6.730   6.540
 8292SOL     OW25774   2.358   5.280   5.893
 8292SOL    HW125775   2.262   5.269   5.917
 8292SOL    HW225776   2.414   5.278   5.976
 8293SOL     OW25777   2.044   4.640   1.392
 8293SOL    HW125778   2.142   4.633   1.409
 8293SOL    HW225779   2.022   4.593   1.306
 8294SOL     OW25780   6.317   3.725   5.555
 8294SOL    HW125781   6.415   3.742   5.553
 8294SOL    HW225782   6.296   3.645   5.497
 8295SOL     OW25783   4.953   3.943   2.800
 8295SOL    HW125784   4.922   3.977   2.711
 8295SOL    HW225785   4.978   3.847   2.791
 8296SOL     OW25786   4.111   5.632   6.868
 8296SOL    HW125787   4.125   5.574   6.788
 8296SOL    HW225788   4.200   5.665   6.901
 8297SOL     OW25789   6.121   4.045   2.016
 8297SOL    HW125790   6.041   4.021   1.962
 8297SOL    HW225791   6.200   3.994   1.983
 8298SOL     OW25792   0.776   0.897   6.539
 8298SOL    HW125793   0.870   0.927   6.552
 8298SOL    HW225794   0.730   0.956   6.473
 8299SOL     OW25795   6.968   3.659   1.176
 8299SOL    HW125796   6.882   3.608   1.170
 8299SOL    HW225797   0.008   3.612   1.239
 8300SOL     OW25798   6.315   6.425   5.041
 8300SOL    HW125799   6.233   6.459   5.086
 8300SOL    HW225800   6.332   6.478   4.958
 8301SOL     OW25801   4.388   0.173   6.393
 8301SOL    HW125802   4.298   0.207   6.364
 8301SOL    HW225803   4.405   0.084   6.351
 8302SOL     OW25804   3.307   0.039   5.099
 8302SOL    HW125805   3.226   0.020   5.044
 8302SOL    HW225806   3.381   0.071   5.040
 8303SOL     OW25807   6.904   0.356   2.851
 8303SOL    HW125808   6.934   0.446   2.884
 8303SOL    HW225809   6.811   0.363   2.816
 8304SOL     OW25810   6.028   4.217   2.802
 8304SOL    HW125811   6.088   4.241   2.726
 8304SOL    HW225812   6.074   4.238   2.889
 8305SOL     OW25813   4.545   5.455   3.990
 8305SOL    HW125814   4.457   5.409   3.990
 8305SOL    HW225815   4.531   5.554   3.985
 8306SOL     OW25816   6.602   1.212   2.444
 8306SOL    HW125817   6.579   1.288   2.506
 8306SOL    HW225818   6.694   1.179   2.466
 8307SOL     OW25819   1.546   5.251   0.992
 8307SOL    HW125820   1.558   5.343   0.956
 8307SOL    HW225821   1.516   5.256   1.087
 8308SOL     OW25822   1.365   4.538   0.103
 8308SOL    HW125823   1.298   4.489   0.047
 8308SOL    HW225824   1.354   4.636   0.090
 8309SOL     OW25825   6.406   5.043   4.517
 8309SOL    HW125826   6.411   4.944   4.504
 8309SOL    HW225827   6.337   5.064   4.586
 8310SOL     OW25828   0.845   6.474   1.113
 8310SOL    HW125829   0.915   6.408   1.138
 8310SOL    HW225830   0.774   6.429   1.059
 8311SOL     OW25831   5.217   0.012   4.184
 8311SOL    HW125832   5.160   0.087   4.218
 8311SOL    HW225833   5.159   6.961   4.150
 8312SOL     OW25834   5.531   0.220   0.783
 8312SOL    HW125835   5.620   0.264   0.769
 8312SOL    HW225836   5.478   0.223   0.698
 8313SOL     OW25837   3.735   0.091   5.241
 8313SOL    HW125838   3.781   0.164   5.190
 8313SOL    HW225839   3.690   0.130   5.321
 8314SOL     OW25840   5.825   6.158   6.776
 8314SOL    HW125841   5.814   6.067   6.816
 8314SOL    HW225842   5.772   6.164   6.691
 8315SOL     OW25843   3.870   3.541   3.658
 8315SOL    HW125844   3.857   3.556   3.560
 8315SOL    HW225845   3.829   3.453   3.684
 8316SOL     OW25846   0.862   3.254   6.400
 8316SOL    HW125847   0.935   3.249   6.332
 8316SOL    HW225848   0.850   3.349   6.429
 8317SOL     OW25849   2.025   1.827   4.663
 8317SOL    HW125850   1.946   1.824   4.602
 8317SOL    HW225851   2.097   1.766   4.629
 8318SOL     OW25852   4.482   1.042   6.076
 8318SOL    HW125853   4.446   1.111   6.139
 8318SOL    HW225854   4.418   1.028   6.001
 8319SOL     OW25855   1.371   0.464   5.744
 8319SOL    HW125856   1.354   0.529   5.670
 8319SOL    HW225857   1.349   0.507   5.832
 8320SOL     OW25858   3.467   3.870   3.750
 8320SOL    HW125859   3.389   3.928   3.725
 8320SOL    HW225860   3.455   3.838   3.844
 8321SOL     OW25861   0.072   0.157   6.360
 8321SOL    HW125862   0.070   0.206   6.273
 8321SOL    HW225863   7.005   0.166   6.405
 8322SOL     OW25864   0.119   1.039   0.598
 8322SOL    HW125865   0.209   1.050   0.557
 8322SOL    HW225866   0.092   0.942   0.594
 8323SOL     OW25867   4.756   4.684   1.054
 8323SOL    HW125868   4.734   4.605   1.111
 8323SOL    HW225869   4.844   4.670   1.009
 8324SOL     OW25870   5.549   0.230   0.017
 8324SOL    HW125871   5.480   0.263   6.975
 8324SOL    HW225872   5.508   0.160   0.076
 8325SOL     OW25873   1.442   4.794   5.271
 8325SOL    HW125874   1.463   4.869   5.334
 8325SOL    HW225875   1.510   4.722   5.281
 8326SOL     OW25876   3.510   3.715   0.107
 8326SOL    HW125877   3.566   3.797   0.123
 8326SOL    HW225878   3.518   3.687   0.012
 8327SOL     OW25879   0.387   0.807   5.452
 8327SOL    HW125880   0.442   0.785   5.371
 8327SOL    HW225881   0.292   0.780   5.437
 8328SOL     OW25882   1.058   6.742   5.668
 8328SOL    HW125883   1.041   6.644   5.667
 8328SOL    HW225884   1.047   6.777   5.761
 8329SOL     OW25885   0.565   3.019   5.341
 8329SOL    HW125886   0.557   2.919   5.342
 8329SOL    HW225887   0.659   3.045   5.319
 8330SOL     OW25888   3.882   0.937   6.218
 8330SOL    HW125889   3.935   0.937   6.303
 8330SOL    HW225890   3.894   0.849   6.171
 8331SOL     OW25891   2.529   2.160   0.088
 8331SOL    HW125892   2.469   2.080   0.085
 8331SOL    HW225893   2.477   2.238   0.123
 8332SOL     OW25894   5.558   5.521   1.894
 8332SOL    HW125895   5.498   5.526   1.974
 8332SOL    HW225896   5.624   5.447   1.906
 8333SOL     OW25897   1.932   5.293   0.709
 8333SOL    HW125898   1.996   5.262   0.639
 8333SOL    HW225899   1.934   5.393   0.714
 8334SOL     OW25900   3.044   1.707   6.514
 8334SOL    HW125901   3.016   1.780   6.576
 8334SOL    HW225902   2.997   1.719   6.427
 8335SOL     OW25903   4.333   2.599   6.712
 8335SOL    HW125904   4.243   2.601   6.756
 8335SOL    HW225905   4.355   2.505   6.686
 8336SOL     OW25906   1.283   3.792   2.638
 8336SOL    HW125907   1.285   3.797   2.737
 8336SOL    HW225908   1.205   3.843   2.602
 8337SOL     OW25909   0.636   0.460   5.130
 8337SOL    HW125910   0.707   0.517   5.089
 8337SOL    HW225911   0.556   0.457   5.071
 8338SOL     OW25912   3.957   4.824   2.318
 8338SOL    HW125913   3.878   4.856   2.265
 8338SOL    HW225914   4.027   4.789   2.256
 8339SOL     OW25915   6.582   0.700   0.675
 8339SOL    HW125916   6.603   0.797   0.679
 8339SOL    HW225917   6.615   0.662   0.589
 8340SOL     OW25918   4.889   3.782   0.249
 8340SOL    HW125919   4.890   3.874   0.210
 8340SOL    HW225920   4.968   3.731   0.216
 8341SOL     OW25921   3.426   0.530   6.395
 8341SOL    HW125922   3.346   0.561   6.446
 8341SOL    HW225923   3.485   0.476   6.455
 8342SOL     OW25924   3.327   6.351   0.735
 8342SOL    HW125925   3.280   6.337   0.823
 8342SOL    HW225926   3.367   6.264   0.705
 8343SOL     OW25927   6.543   5.402   4.302
 8343SOL    HW125928   6.480   5.370   4.372
 8343SOL    HW225929   6.595   5.324   4.265
 8344SOL     OW25930   0.247   4.875   4.185
 8344SOL    HW125931   0.186   4.847   4.111
 8344SOL    HW225932   0.193   4.910   4.261
 8345SOL     OW25933   5.279   1.603   3.470
 8345SOL    HW125934   5.244   1.696   3.466
 8345SOL    HW225935   5.218   1.541   3.421
 8346SOL     OW25936   4.129   3.145   6.289
 8346SOL    HW125937   4.048   3.201   6.274
 8346SOL    HW225938   4.203   3.177   6.231
 8347SOL     OW25939   2.568   6.508   6.252
 8347SOL    HW125940   2.556   6.441   6.179
 8347SOL    HW225941   2.569   6.461   6.340
 8348SOL     OW25942   2.855   6.727   1.485
 8348SOL    HW125943   2.812   6.771   1.406
 8348SOL    HW225944   2.788   6.715   1.557
 8349SOL     OW25945   0.918   6.353   1.491
 8349SOL    HW125946   0.932   6.367   1.589
 8349SOL    HW225947   0.857   6.424   1.456
 8350SOL     OW25948   2.721   6.918   6.419
 8350SOL    HW125949   2.737   6.820   6.431
 8350SOL    HW225950   2.648   6.948   6.480
 8351SOL     OW25951   5.668   5.559   3.579
 8351SOL    HW125952   5.602   5.625   3.616
 8351SOL    HW225953   5.619   5.482   3.538
 8352SOL     OW25954   2.632   6.069   2.735
 8352SOL    HW125955   2.688   6.063   2.817
 8352SOL    HW225956   2.604   6.164   2.720
 8353SOL     OW25957   1.735   4.185   1.285
 8353SOL    HW125958   1.644   4.148   1.271
 8353SOL    HW225959   1.798   4.111   1.310
 8354SOL     OW25960   3.527   6.696   4.258
 8354SOL    HW125961   3.606   6.678   4.200
 8354SOL    HW225962   3.455   6.739   4.204
 8355SOL     OW25963   1.935   0.910   6.298
 8355SOL    HW125964   1.841   0.895   6.328
 8355SOL    HW225965   1.996   0.847   6.346
 8356SOL     OW25966   1.143   5.173   2.065
 8356SOL    HW125967   1.152   5.084   2.109
 8356SOL    HW225968   1.231   5.200   2.028
 8357SOL     OW25969   3.426   5.627   5.807
 8357SOL    HW125970   3.340   5.677   5.812
 8357SOL    HW225971   3.476   5.656   5.725
 8358SOL     OW25972   1.084   3.117   5.839
 8358SOL    HW125973   1.118   3.109   5.746
 8358SOL    HW225974   1.000   3.064   5.849
 8359SOL     OW25975   2.004   1.537   4.517
 8359SOL    HW125976   1.996   1.445   4.555
 8359SOL    HW225977   2.096   1.572   4.534
 8360SOL     OW25978   4.860   6.808   0.753
 8360SOL    HW125979   4.908   6.753   0.822
 8360SOL    HW225980   4.776   6.760   0.726
 8361SOL     OW25981   2.812   6.625   6.656
 8361SOL    HW125982   2.785   6.545   6.711
 8361SOL    HW225983   2.781   6.708   6.702
 8362SOL     OW25984   6.576   1.828   0.608
 8362SOL    HW125985   6.648   1.877   0.658
 8362SOL    HW225986   6.496   1.818   0.667
 8363SOL     OW25987   4.660   1.858   0.680
 8363SOL    HW125988   4.614   1.794   0.617
 8363SOL    HW225989   4.629   1.841   0.773
 8364SOL     OW25990   0.740   3.096   3.857
 8364SOL    HW125991   0.828   3.090   3.906
 8364SOL    HW225992   0.743   3.171   3.791
 8365SOL     OW25993   1.991   2.193   3.174
 8365SOL    HW125994   1.933   2.183   3.255
 8365SOL    HW225995   2.045   2.110   3.162
 8366SOL     OW25996   4.044   5.161   1.214
 8366SOL    HW125997   4.042   5.191   1.309
 8366SOL    HW225998   4.031   5.062   1.211
 8367SOL     OW25999   3.033   4.921   5.097
 8367SOL    HW126000   3.113   4.975   5.123
 8367SOL    HW226001   3.024   4.843   5.159
 8368SOL     OW26002   1.149   6.180   6.882
 8368SOL    HW126003   1.076   6.129   6.836
 8368SOL    HW226004   1.182   6.253   6.822
 8369SOL     OW26005   0.607   0.988   0.918
 8369SOL    HW126006   0.550   0.922   0.869
 8369SOL    HW226007   0.679   0.940   0.967
 8370SOL     OW26008   2.671   1.570   6.337
 8370SOL    HW126009   2.764   1.588   6.303
 8370SOL    HW226010   2.608   1.637   6.297
 8371SOL     OW26011   1.661   3.481   6.024
 8371SOL    HW126012   1.750   3.488   5.981
 8371SOL    HW226013   1.640   3.566   6.072
 8372SOL     OW26014   2.145   5.969   1.983
 8372SOL    HW126015   2.153   6.050   2.042
 8372SOL    HW226016   2.076   5.985   1.913
 8373SOL     OW26017   1.441   1.580   4.796
 8373SOL    HW126018   1.350   1.543   4.783
 8373SOL    HW226019   1.481   1.542   4.879
 8374SOL     OW26020   0.813   0.902   4.403
 8374SOL    HW126021   0.769   0.822   4.361
 8374SOL    HW226022   0.800   0.898   4.502
 8375SOL     OW26023   3.194   0.478   5.860
 8375SOL    HW126024   3.162   0.536   5.935
 8375SOL    HW226025   3.289   0.450   5.878
 8376SOL     OW26026   1.930   1.156   4.184
 8376SOL    HW126027   1.991   1.098   4.237
 8376SOL    HW226028   1.949   1.252   4.207
 8377SOL     OW26029   5.579   5.411   0.630
 8377SOL    HW126030   5.602   5.496   0.583
 8377SOL    HW226031   5.526   5.352   0.569
 8378SOL     OW26032   5.221   4.999   2.910
 8378SOL    HW126033   5.133   4.965   2.942
 8378SOL    HW226034   5.244   5.082   2.961
 8379SOL     OW26035   5.146   2.523   1.461
 8379SOL    HW126036   5.150   2.611   1.413
 8379SOL    HW226037   5.087   2.460   1.412
 8380SOL     OW26038   0.188   6.775   6.499
 8380SOL    HW126039   0.182   6.787   6.598
 8380SOL    HW226040   0.250   6.843   6.460
 8381SOL     OW26041   6.916   2.619   3.578
 8381SOL    HW126042   6.843   2.550   3.584
 8381SOL    HW226043   6.981   2.605   3.653
 8382SOL     OW26044   2.619   0.479   1.036
 8382SOL    HW126045   2.596   0.382   1.040
 8382SOL    HW226046   2.580   0.526   1.115
 8383SOL     OW26047   2.525   0.798   5.315
 8383SOL    HW126048   2.441   0.852   5.323
 8383SOL    HW226049   2.602   0.859   5.295
 8384SOL     OW26050   6.766   1.451   0.531
 8384SOL    HW126051   6.820   1.370   0.555
 8384SOL    HW226052   6.674   1.423   0.503
 8385SOL     OW26053   4.830   2.636   0.214
 8385SOL    HW126054   4.890   2.655   0.292
 8385SOL    HW226055   4.816   2.538   0.206
 8386SOL     OW26056   1.936   5.373   1.300
 8386SOL    HW126057   1.841   5.406   1.293
 8386SOL    HW226058   1.942   5.307   1.375
 8387SOL     OW26059   1.791   1.363   1.849
 8387SOL    HW126060   1.762   1.377   1.754
 8387SOL    HW226061   1.890   1.373   1.856
 8388SOL     OW26062   1.606   0.170   0.931
 8388SOL    HW126063   1.677   0.158   1.001
 8388SOL    HW226064   1.516   0.171   0.974
 8389SOL     OW26065   0.927   3.003   4.223
 8389SOL    HW126066   0.840   3.040   4.256
 8389SOL    HW226067   0.934   2.906   4.248
 8390SOL     OW26068   3.687   6.990   6.653
 8390SOL    HW126069   3.770   6.965   6.604
 8390SOL    HW226070   3.611   6.998   6.589
 8391SOL     OW26071   5.110   5.185   0.850
 8391SOL    HW126072   5.161   5.116   0.799
 8391SOL    HW226073   5.019   5.197   0.810
 8392SOL     OW26074   6.722   5.706   5.409
 8392SOL    HW126075   6.666   5.767   5.353
 8392SOL    HW226076   6.709   5.727   5.505
 8393SOL     OW26077   6.981   0.559   3.904
 8393SOL    HW126078   6.931   0.540   3.819
 8393SOL    HW226079   0.014   0.641   3.893
 8394SOL     OW26080   0.531   2.173   1.953
 8394SOL    HW126081   0.476   2.231   1.893
 8394SOL    HW226082   0.509   2.077   1.936
 8395SOL     OW26083   1.363   6.721   4.164
 8395SOL    HW126084   1.289   6.768   4.116
 8395SOL    HW226085   1.365   6.625   4.137
 8396SOL     OW26086   4.566   4.480   2.270
 8396SOL    HW126087   4.481   4.525   2.299
 8396SOL    HW226088   4.624   4.546   2.222
 8397SOL     OW26089   2.235   0.187   3.096
 8397SOL    HW126090   2.282   0.248   3.032
 8397SOL    HW226091   2.278   0.193   3.186
 8398SOL     OW26092   3.457   1.784   0.059
 8398SOL    HW126093   3.555   1.760   0.059
 8398SOL    HW226094   3.407   1.716   0.113
 8399SOL     OW26095   6.760   6.604   6.930
 8399SOL    HW126096   6.664   6.620   6.955
 8399SOL    HW226097   6.765   6.575   6.835
 8400SOL     OW26098   1.129   0.644   3.343
 8400SOL    HW126099   1.119   0.720   3.279
 8400SOL    HW226100   1.212   0.592   3.321
 8401SOL     OW26101   3.839   2.818   5.935
 8401SOL    HW126102   3.776   2.823   6.012
 8401SOL    HW226103   3.877   2.909   5.918
 8402SOL     OW26104   3.038   1.657   5.896
 8402SOL    HW126105   2.986   1.575   5.921
 8402SOL    HW226106   3.105   1.634   5.826
 8403SOL     OW26107   0.508   1.719   3.381
 8403SOL    HW126108   0.512   1.712   3.481
 8403SOL    HW226109   0.548   1.637   3.340
 8404SOL     OW26110   5.829   5.914   6.890
 8404SOL    HW126111   5.894   5.841   6.869
 8404SOL    HW226112   5.736   5.880   6.881
 8405SOL     OW26113   1.968   1.556   0.002
 8405SOL    HW126114   1.905   1.565   0.080
 8405SOL    HW226115   1.997   1.461   7.017
 8406SOL     OW26116   3.808   0.972   1.316
 8406SOL    HW126117   3.895   1.001   1.354
 8406SOL    HW226118   3.780   1.037   1.245
 8407SOL     OW26119   5.396   6.065   4.467
 8407SOL    HW126120   5.483   6.090   4.425
 8407SOL    HW226121   5.332   6.034   4.397
 8408SOL     OW26122   4.708   1.548   3.579
 8408SOL    HW126123   4.795   1.500   3.588
 8408SOL    HW226124   4.721   1.646   3.594
 8409SOL     OW26125   6.357   2.454   3.952
 8409SOL    HW126126   6.368   2.396   3.872
 8409SOL    HW226127   6.284   2.418   4.010
 8410SOL     OW26128   4.556   0.682   1.848
 8410SOL    HW126129   4.488   0.608   1.851
 8410SOL    HW226130   4.580   0.709   1.941
 8411SOL     OW26131   1.586   5.304   4.171
 8411SOL    HW126132   1.606   5.219   4.121
 8411SOL    HW226133   1.652   5.315   4.246
 8412SOL     OW26134   4.032   2.076   1.269
 8412SOL    HW126135   3.937   2.102   1.259
 8412SOL    HW226136   4.054   2.063   1.366
 8413SOL     OW26137   4.844   4.481   0.196
 8413SOL    HW126138   4.785   4.560   0.211
 8413SOL    HW226139   4.868   4.475   0.099
 8414SOL     OW26140   4.109   0.001   2.595
 8414SOL    HW126141   4.136   6.930   2.570
 8414SOL    HW226142   4.180   0.065   2.565
 8415SOL     OW26143   0.121   5.142   4.172
 8415SOL    HW126144   0.047   5.123   4.237
 8415SOL    HW226145   0.209   5.126   4.217
 8416SOL     OW26146   4.954   4.833   3.197
 8416SOL    HW126147   4.868   4.782   3.200
 8416SOL    HW226148   4.942   4.921   3.245
 8417SOL     OW26149   1.318   5.404   5.680
 8417SOL    HW126150   1.269   5.365   5.602
 8417SOL    HW226151   1.395   5.459   5.648
 8418SOL     OW26152   6.165   5.504   1.258
 8418SOL    HW126153   6.241   5.567   1.269
 8418SOL    HW226154   6.154   5.480   1.161
 8419SOL     OW26155   4.487   1.021   2.151
 8419SOL    HW126156   4.475   0.992   2.246
 8419SOL    HW226157   4.471   1.120   2.144
 8420SOL     OW26158   3.705   6.656   1.036
 8420SOL    HW126159   3.732   6.748   1.006
 8420SOL    HW226160   3.632   6.621   0.978
 8421SOL     OW26161   3.002   6.514   0.791
 8421SOL    HW126162   3.064   6.510   0.869
 8421SOL    HW226163   2.907   6.508   0.824
 8422SOL     OW26164   4.776   6.295   1.653
 8422SOL    HW126165   4.802   6.205   1.686
 8422SOL    HW226166   4.852   6.359   1.668
 8423SOL     OW26167   4.120   3.775   6.050
 8423SOL    HW126168   4.190   3.704   6.056
 8423SOL    HW226169   4.082   3.792   6.141
 8424SOL     OW26170   2.334   2.677   2.897
 8424SOL    HW126171   2.331   2.762   2.844
 8424SOL    HW226172   2.418   2.627   2.876
 8425SOL     OW26173   6.364   5.433   0.763
 8425SOL    HW126174   6.393   5.529   0.758
 8425SOL    HW226175   6.416   5.379   0.698
 8426SOL     OW26176   3.800   2.997   4.444
 8426SOL    HW126177   3.875   3.056   4.415
 8426SOL    HW226178   3.770   2.941   4.367
 8427SOL     OW26179   1.597   4.109   6.205
 8427SOL    HW126180   1.540   4.073   6.279
 8427SOL    HW226181   1.694   4.090   6.225
 8428SOL     OW26182   6.434   4.829   1.919
 8428SOL    HW126183   6.507   4.762   1.925
 8428SOL    HW226184   6.420   4.854   1.823
 8429SOL     OW26185   1.930   4.470   4.087
 8429SOL    HW126186   1.933   4.373   4.064
 8429SOL    HW226187   1.905   4.481   4.183
 8430SOL     OW26188   4.257   5.475   3.245
 8430SOL    HW126189   4.330   5.485   3.177
 8430SOL    HW226190   4.169   5.496   3.202
 8431SOL     OW26191   2.067   5.011   1.087
 8431SOL    HW126192   2.054   5.099   1.041
 8431SOL    HW226193   1.977   4.971   1.107
 8432SOL     OW26194   4.696   6.018   5.502
 8432SOL    HW126195   4.687   6.022   5.402
 8432SOL    HW226196   4.622   5.962   5.539
 8433SOL     OW26197   6.590   2.745   6.370
 8433SOL    HW126198   6.642   2.797   6.302
 8433SOL    HW226199   6.605   2.648   6.357
 8434SOL     OW26200   2.869   0.345   4.904
 8434SOL    HW126201   2.860   0.252   4.940
 8434SOL    HW226202   2.863   0.411   4.980
 8435SOL     OW26203   4.751   1.409   0.885
 8435SOL    HW126204   4.812   1.352   0.830
 8435SOL    HW226205   4.675   1.353   0.919
 8436SOL     OW26206   3.071   6.454   4.270
 8436SOL    HW126207   3.124   6.384   4.221
 8436SOL    HW226208   2.975   6.424   4.276
 8437SOL     OW26209   2.270   0.531   2.578
 8437SOL    HW126210   2.308   0.591   2.648
 8437SOL    HW226211   2.170   0.533   2.583
 8438SOL     OW26212   3.260   4.893   2.038
 8438SOL    HW126213   3.219   4.966   1.984
 8438SOL    HW226214   3.218   4.891   2.129
 8439SOL     OW26215   6.828   5.931   0.730
 8439SOL    HW126216   6.743   5.982   0.743
 8439SOL    HW226217   6.808   5.842   0.688
 8440SOL     OW26218   0.448   1.245   3.251
 8440SOL    HW126219   0.443   1.300   3.167
 8440SOL    HW226220   0.371   1.268   3.310
 8441SOL     OW26221   6.761   6.240   0.292
 8441SOL    HW126222   6.746   6.287   0.379
 8441SOL    HW226223   6.853   6.259   0.259
 8442SOL     OW26224   3.406   3.277   6.247
 8442SOL    HW126225   3.479   3.261   6.181
 8442SOL    HW226226   3.401   3.374   6.268
 8443SOL     OW26227   1.202   0.156   2.940
 8443SOL    HW126228   1.214   0.150   3.039
 8443SOL    HW226229   1.118   0.109   2.914
 8444SOL     OW26230   3.115   5.873   3.830
 8444SOL    HW126231   3.193   5.810   3.827
 8444SOL    HW226232   3.042   5.839   3.771
 8445SOL     OW26233   3.591   5.425   2.034
 8445SOL    HW126234   3.558   5.404   2.126
 8445SOL    HW226235   3.605   5.524   2.026
 8446SOL     OW26236   5.508   5.793   1.116
 8446SOL    HW126237   5.515   5.720   1.184
 8446SOL    HW226238   5.598   5.831   1.098
 8447SOL     OW26239   5.718   2.149   2.007
 8447SOL    HW126240   5.648   2.165   1.938
 8447SOL    HW226241   5.805   2.125   1.963
 8448SOL     OW26242   6.305   3.647   5.281
 8448SOL    HW126243   6.298   3.582   5.206
 8448SOL    HW226244   6.386   3.627   5.336
 8449SOL     OW26245   0.083   2.629   4.506
 8449SOL    HW126246   0.114   2.620   4.411
 8449SOL    HW226247   7.013   2.667   4.507
 8450SOL     OW26248   1.662   6.100   1.946
 8450SOL    HW126249   1.595   6.035   1.910
 8450SOL    HW226250   1.748   6.052   1.966
 8451SOL     OW26251   4.777   3.109   0.019
 8451SOL    HW126252   4.872   3.136   0.033
 8451SOL    HW226253   4.733   3.095   0.108
 8452SOL     OW26254   6.967   0.213   1.491
 8452SOL    HW126255   6.998   0.144   1.556
 8452SOL    HW226256   7.010   0.301   1.513
 8453SOL     OW26257   6.368   4.493   6.136
 8453SOL    HW126258   6.442   4.526   6.195
 8453SOL    HW226259   6.291   4.463   6.192
 8454SOL     OW26260   1.247   5.571   1.373
 8454SOL    HW126261   1.309   5.563   1.452
 8454SOL    HW226262   1.184   5.494   1.372
 8455SOL     OW26263   4.711   2.591   0.940
 8455SOL    HW126264   4.724   2.547   0.852
 8455SOL    HW226265   4.785   2.566   1.002
 8456SOL     OW26266   5.240   4.875   3.207
 8456SOL    HW126267   5.141   4.884   3.203
 8456SOL    HW226268   5.265   4.778   3.211
 8457SOL     OW26269   6.188   6.426   5.357
 8457SOL    HW126270   6.097   6.467   5.362
 8457SOL    HW226271   6.184   6.343   5.301
 8458SOL     OW26272   2.438   1.096   6.739
 8458SOL    HW126273   2.460   1.181   6.691
 8458SOL    HW226274   2.513   1.071   6.800
 8459SOL     OW26275   3.159   6.885   1.289
 8459SOL    HW126276   3.146   6.843   1.380
 8459SOL    HW226277   3.257   6.899   1.272
 8460SOL     OW26278   4.304   2.214   5.893
 8460SOL    HW126279   4.293   2.139   5.958
 8460SOL    HW226280   4.398   2.215   5.858
 8461SOL     OW26281   0.876   4.097   2.002
 8461SOL    HW126282   0.868   4.076   1.905
 8461SOL    HW226283   0.881   4.012   2.054
 8462SOL     OW26284   2.931   2.632   0.260
 8462SOL    HW126285   3.018   2.670   0.291
 8462SOL    HW226286   2.869   2.706   0.234
 8463SOL     OW26287   6.963   1.223   0.498
 8463SOL    HW126288   7.016   1.141   0.520
 8463SOL    HW226289   7.016   1.281   0.435
 8464SOL     OW26290   0.256   4.420   5.045
 8464SOL    HW126291   0.169   4.370   5.045
 8464SOL    HW226292   0.283   4.441   4.951
 8465SOL     OW26293   3.126   2.066   0.607
 8465SOL    HW126294   3.123   2.166   0.603
 8465SOL    HW226295   3.060   2.027   0.542
 8466SOL     OW26296   5.694   6.686   4.909
 8466SOL    HW126297   5.676   6.588   4.923
 8466SOL    HW226298   5.633   6.721   4.839
 8467SOL     OW26299   4.088   0.905   1.204
 8467SOL    HW126300   4.055   0.967   1.275
 8467SOL    HW226301   4.107   0.815   1.244
 8468SOL     OW26302   5.054   3.101   0.031
 8468SOL    HW126303   5.052   3.049   0.116
 8468SOL    HW226304   5.140   3.086   7.006
 8469SOL     OW26305   2.645   1.734   5.772
 8469SOL    HW126306   2.628   1.796   5.695
 8469SOL    HW226307   2.677   1.646   5.737
 8470SOL     OW26308   1.104   4.885   0.105
 8470SOL    HW126309   1.094   4.929   0.194
 8470SOL    HW226310   1.072   4.946   0.033
 8471SOL     OW26311   3.865   0.693   5.796
 8471SOL    HW126312   3.945   0.731   5.751
 8471SOL    HW226313   3.782   0.740   5.764
 8472SOL     OW26314   5.838   0.523   5.126
 8472SOL    HW126315   5.810   0.440   5.077
 8472SOL    HW226316   5.832   0.507   5.224
 8473SOL     OW26317   6.128   5.330   0.710
 8473SOL    HW126318   6.217   5.373   0.722
 8473SOL    HW226319   6.140   5.234   0.686
 8474SOL     OW26320   3.579   3.373   1.982
 8474SOL    HW126321   3.550   3.293   2.034
 8474SOL    HW226322   3.500   3.416   1.939
 8475SOL     OW26323   6.914   2.798   3.053
 8475SOL    HW126324   6.904   2.761   3.146
 8475SOL    HW226325   6.845   2.758   2.993
 8476SOL     OW26326   6.977   1.657   1.258
 8476SOL    HW126327   7.001   1.703   1.172
 8476SOL    HW226328   0.021   1.584   1.276
 8477SOL     OW26329   4.309   6.457   3.145
 8477SOL    HW126330   4.288   6.553   3.130
 8477SOL    HW226331   4.407   6.442   3.134
 8478SOL     OW26332   0.955   0.998   5.695
 8478SOL    HW126333   0.862   1.025   5.718
 8478SOL    HW226334   0.955   0.949   5.608
 8479SOL     OW26335   1.239   3.856   0.985
 8479SOL    HW126336   1.227   3.824   1.079
 8479SOL    HW226337   1.172   3.929   0.966
 8480SOL     OW26338   5.320   3.259   6.780
 8480SOL    HW126339   5.258   3.216   6.714
 8480SOL    HW226340   5.363   3.339   6.738
 8481SOL     OW26341   4.812   2.408   4.859
 8481SOL    HW126342   4.879   2.481   4.846
 8481SOL    HW226343   4.742   2.415   4.788
 8482SOL     OW26344   4.876   0.255   2.277
 8482SOL    HW126345   4.947   0.186   2.293
 8482SOL    HW226346   4.837   0.282   2.365
 8483SOL     OW26347   3.065   5.679   3.298
 8483SOL    HW126348   3.040   5.746   3.229
 8483SOL    HW226349   2.983   5.647   3.345
 8484SOL     OW26350   6.533   6.255   4.234
 8484SOL    HW126351   6.569   6.170   4.273
 8484SOL    HW226352   6.433   6.254   4.238
 8485SOL     OW26353   3.985   2.804   0.302
 8485SOL    HW126354   4.054   2.762   0.243
 8485SOL    HW226355   3.936   2.733   0.353
 8486SOL     OW26356   2.182   1.268   2.795
 8486SOL    HW126357   2.272   1.310   2.800
 8486SOL    HW226358   2.178   1.206   2.717
 8487SOL     OW26359   5.818   2.319   6.130
 8487SOL    HW126360   5.791   2.400   6.183
 8487SOL    HW226361   5.737   2.279   6.087
 8488SOL     OW26362   5.356   6.318   2.324
 8488SOL    HW126363   5.451   6.315   2.355
 8488SOL    HW226364   5.295   6.299   2.402
 8489SOL     OW26365   6.145   1.142   1.714
 8489SOL    HW126366   6.229   1.106   1.756
 8489SOL    HW226367   6.097   1.067   1.667
 8490SOL     OW26368   3.055   6.913   5.541
 8490SOL    HW126369   3.046   6.844   5.613
 8490SOL    HW226370   3.111   6.877   5.466
 8491SOL     OW26371   1.722   6.384   2.566
 8491SOL    HW126372   1.780   6.302   2.560
 8491SOL    HW226373   1.768   6.454   2.620
 8492SOL     OW26374   5.627   4.438   4.403
 8492SOL    HW126375   5.535   4.401   4.421
 8492SOL    HW226376   5.629   4.479   4.312
 8493SOL     OW26377   1.833   2.404   6.581
 8493SOL    HW126378   1.769   2.342   6.627
 8493SOL    HW226379   1.863   2.475   6.644
 8494SOL     OW26380   4.410   5.489   1.968
 8494SOL    HW126381   4.424   5.527   2.059
 8494SOL    HW226382   4.460   5.543   1.901
 8495SOL     OW26383   0.228   4.859   1.236
 8495SOL    HW126384   0.228   4.953   1.204
 8495SOL    HW226385   0.196   4.799   1.163
 8496SOL     OW26386   0.312   1.198   2.620
 8496SOL    HW126387   0.403   1.231   2.648
 8496SOL    HW226388   0.323   1.127   2.550
 8497SOL     OW26389   0.191   1.524   3.271
 8497SOL    HW126390   0.104   1.534   3.222
 8497SOL    HW226391   0.224   1.615   3.297
 8498SOL     OW26392   6.893   0.120   3.169
 8498SOL    HW126393   6.860   0.120   3.075
 8498SOL    HW226394   6.877   0.210   3.210
 8499SOL     OW26395   1.119   3.881   0.054
 8499SOL    HW126396   1.128   3.861   6.979
 8499SOL    HW226397   1.188   3.947   0.082
 8500SOL     OW26398   1.712   6.309   6.179
 8500SOL    HW126399   1.776   6.374   6.220
 8500SOL    HW226400   1.758   6.262   6.103
 8501SOL     OW26401   0.183   2.774   5.969
 8501SOL    HW126402   0.213   2.684   5.937
 8501SOL    HW226403   0.261   2.826   6.002
 8502SOL     OW26404   0.555   2.807   1.607
 8502SOL    HW126405   0.536   2.886   1.665
 8502SOL    HW226406   0.598   2.837   1.522
 8503SOL     OW26407   0.414   5.434   5.259
 8503SOL    HW126408   0.432   5.439   5.160
 8503SOL    HW226409   0.415   5.526   5.298
 8504SOL     OW26410   2.197   5.441   1.929
 8504SOL    HW126411   2.285   5.474   1.964
 8504SOL    HW226412   2.162   5.505   1.861
 8505SOL     OW26413   6.240   3.379   2.941
 8505SOL    HW126414   6.283   3.295   2.972
 8505SOL    HW226415   6.176   3.359   2.867
 8506SOL     OW26416   1.396   1.193   6.997
 8506SOL    HW126417   1.344   1.208   0.059
 8506SOL    HW226418   1.367   1.260   6.928
 8507SOL     OW26419   3.651   6.808   5.291
 8507SOL    HW126420   3.626   6.721   5.248
 8507SOL    HW226421   3.696   6.866   5.223
 8508SOL     OW26422   4.435   1.933   5.708
 8508SOL    HW126423   4.349   1.970   5.672
 8508SOL    HW226424   4.448   1.840   5.674
 8509SOL     OW26425   5.439   0.779   3.014
 8509SOL    HW126426   5.341   0.800   3.007
 8509SOL    HW226427   5.480   0.783   2.923
 8510SOL     OW26428   5.887   4.085   2.516
 8510SOL    HW126429   5.980   4.063   2.488
 8510SOL    HW226430   5.827   4.008   2.496
 8511SOL     OW26431   6.192   3.470   2.532
 8511SOL    HW126432   6.190   3.565   2.564
 8511SOL    HW226433   6.152   3.411   2.602
 8512SOL     OW26434   3.460   0.526   2.458
 8512SOL    HW126435   3.390   0.597   2.457
 8512SOL    HW226436   3.462   0.482   2.548
 8513SOL     OW26437   0.143   5.373   0.890
 8513SOL    HW126438   0.219   5.424   0.851
 8513SOL    HW226439   0.143   5.279   0.854
 8514SOL     OW26440   2.431   0.432   3.991
 8514SOL    HW126441   2.515   0.486   3.990
 8514SOL    HW226442   2.375   0.457   3.912
 8515SOL     OW26443   4.907   2.500   1.117
 8515SOL    HW126444   4.979   2.441   1.153
 8515SOL    HW226445   4.825   2.494   1.174
 8516SOL     OW26446   0.337   1.760   2.333
 8516SOL    HW126447   0.371   1.681   2.283
 8516SOL    HW226448   0.401   1.783   2.407
 8517SOL     OW26449   0.620   3.041   5.697
 8517SOL    HW126450   0.642   3.112   5.630
 8517SOL    HW226451   0.615   2.952   5.651
 8518SOL     OW26452   4.416   4.130   6.730
 8518SOL    HW126453   4.508   4.159   6.756
 8518SOL    HW226454   4.378   4.070   6.800
 8519SOL     OW26455   1.949   5.409   2.098
 8519SOL    HW126456   1.890   5.408   2.017
 8519SOL    HW226457   2.042   5.387   2.071
 8520SOL     OW26458   3.975   0.677   0.588
 8520SOL    HW126459   4.072   0.669   0.612
 8520SOL    HW226460   3.967   0.730   0.503
 8521SOL     OW26461   1.780   5.522   6.069
 8521SOL    HW126462   1.712   5.589   6.040
 8521SOL    HW226463   1.842   5.501   5.993
 8522SOL     OW26464   1.148   5.760   2.182
 8522SOL    HW126465   1.189   5.712   2.259
 8522SOL    HW226466   1.179   5.855   2.181
 8523SOL     OW26467   3.101   6.485   6.822
 8523SOL    HW126468   3.090   6.491   6.723
 8523SOL    HW226469   3.072   6.571   6.864
 8524SOL     OW26470   1.297   2.959   4.493
 8524SOL    HW126471   1.365   2.969   4.566
 8524SOL    HW226472   1.246   2.874   4.505
 8525SOL     OW26473   6.108   3.981   3.611
 8525SOL    HW126474   6.109   4.075   3.577
 8525SOL    HW226475   6.038   3.973   3.682
 8526SOL     OW26476   2.756   3.893   0.970
 8526SOL    HW126477   2.701   3.871   1.051
 8526SOL    HW226478   2.752   3.816   0.906
 8527SOL     OW26479   3.471   0.144   4.924
 8527SOL    HW126480   3.440   0.238   4.941
 8527SOL    HW226481   3.474   0.128   4.825
 8528SOL     OW26482   5.347   3.230   5.948
 8528SOL    HW126483   5.283   3.191   6.014
 8528SOL    HW226484   5.379   3.319   5.980
 8529SOL     OW26485   1.232   6.810   7.000
 8529SOL    HW126486   1.182   6.735   6.956
 8529SOL    HW226487   1.182   6.896   6.986
 8530SOL     OW26488   1.202   4.958   6.229
 8530SOL    HW126489   1.275   5.016   6.192
 8530SOL    HW226490   1.186   4.983   6.325
 8531SOL     OW26491   5.715   4.362   2.518
 8531SOL    HW126492   5.796   4.383   2.464
 8531SOL    HW226493   5.738   4.297   2.590
 8532SOL     OW26494   4.326   4.753   4.951
 8532SOL    HW126495   4.249   4.777   5.010
 8532SOL    HW226496   4.359   4.661   4.975
 8533SOL     OW26497   1.869   0.873   5.185
 8533SOL    HW126498   1.889   0.810   5.260
 8533SOL    HW226499   1.776   0.907   5.194
 8534SOL     OW26500   0.346   3.933   3.425
 8534SOL    HW126501   0.395   3.963   3.507
 8534SOL    HW226502   0.284   3.858   3.449
 8535SOL     OW26503   0.715   2.019   5.104
 8535SOL    HW126504   0.778   2.071   5.047
 8535SOL    HW226505   0.768   1.960   5.166
 8536SOL     OW26506   6.073   1.957   4.961
 8536SOL    HW126507   6.070   2.047   4.917
 8536SOL    HW226508   5.981   1.933   4.994
 8537SOL     OW26509   6.436   1.551   0.893
 8537SOL    HW126510   6.451   1.555   0.794
 8537SOL    HW226511   6.505   1.606   0.940
 8538SOL     OW26512   0.311   0.613   5.110
 8538SOL    HW126513   0.369   0.694   5.106
 8538SOL    HW226514   0.287   0.593   5.205
 8539SOL     OW26515   6.149   2.100   2.186
 8539SOL    HW126516   6.156   2.183   2.131
 8539SOL    HW226517   6.199   2.025   2.141
 8540SOL     OW26518   3.709   1.492   0.633
 8540SOL    HW126519   3.781   1.433   0.669
 8540SOL    HW226520   3.739   1.587   0.639
 8541SOL     OW26521   2.518   1.971   4.723
 8541SOL    HW126522   2.479   1.937   4.808
 8541SOL    HW226523   2.490   1.912   4.647
 8542SOL     OW26524   2.858   4.546   6.823
 8542SOL    HW126525   2.837   4.643   6.819
 8542SOL    HW226526   2.826   4.508   6.909
 8543SOL     OW26527   3.031   1.565   5.595
 8543SOL    HW126528   3.081   1.487   5.632
 8543SOL    HW226529   3.044   1.569   5.496
 8544SOL     OW26530   5.317   3.077   5.168
 8544SOL    HW126531   5.249   3.050   5.235
 8544SOL    HW226532   5.405   3.090   5.213
 8545SOL     OW26533   3.167   6.542   4.541
 8545SOL    HW126534   3.124   6.525   4.453
 8545SOL    HW226535   3.102   6.588   4.602
 8546SOL     OW26536   5.946   0.046   1.370
 8546SOL    HW126537   6.027   0.091   1.407
 8546SOL    HW226538   5.879   0.032   1.444
 8547SOL     OW26539   7.004   0.527   5.330
 8547SOL    HW126540   0.052   0.486   5.273
 8547SOL    HW226541   6.922   0.545   5.275
 8548SOL     OW26542   0.275   2.894   5.283
 8548SOL    HW126543   0.309   2.979   5.242
 8548SOL    HW226544   0.351   2.840   5.317
 8549SOL     OW26545   0.809   2.676   4.049
 8549SOL    HW126546   0.743   2.728   3.995
 8549SOL    HW226547   0.799   2.578   4.030
 8550SOL     OW26548   1.051   3.239   6.182
 8550SOL    HW126549   1.103   3.176   6.124
 8550SOL    HW226550   1.114   3.300   6.230
 8551SOL     OW26551   2.985   2.843   6.720
 8551SOL    HW126552   2.972   2.803   6.630
 8551SOL    HW226553   2.915   2.913   6.736
 8552SOL     OW26554   2.936   0.156   2.064
 8552SOL    HW126555   2.849   0.170   2.112
 8552SOL    HW226556   3.011   0.195   2.118
 8553SOL     OW26557   4.189   4.362   0.339
 8553SOL    HW126558   4.116   4.293   0.343
 8553SOL    HW226559   4.203   4.401   0.430
 8554SOL     OW26560   0.773   6.029   1.806
 8554SOL    HW126561   0.728   6.079   1.879
 8554SOL    HW226562   0.737   6.060   1.717
 8555SOL     OW26563   4.235   1.681   3.398
 8555SOL    HW126564   4.285   1.602   3.433
 8555SOL    HW226565   4.299   1.757   3.383
 8556SOL     OW26566   1.688   6.240   5.807
 8556SOL    HW126567   1.636   6.160   5.837
 8556SOL    HW226568   1.766   6.254   5.868
 8557SOL     OW26569   6.234   1.071   1.024
 8557SOL    HW126570   6.260   1.164   0.996
 8557SOL    HW226571   6.300   1.036   1.089
 8558SOL     OW26572   2.015   5.246   2.917
 8558SOL    HW126573   1.937   5.184   2.929
 8558SOL    HW226574   2.017   5.312   2.992
 8559SOL     OW26575   1.871   6.549   2.710
 8559SOL    HW126576   1.877   6.534   2.809
 8559SOL    HW226577   1.951   6.599   2.679
 8560SOL     OW26578   1.146   5.756   1.833
 8560SOL    HW126579   1.214   5.706   1.780
 8560SOL    HW226580   1.069   5.696   1.852
 8561SOL     OW26581   4.039   6.762   3.603
 8561SOL    HW126582   3.994   6.715   3.527
 8561SOL    HW226583   4.032   6.707   3.686
 8562SOL     OW26584   4.182   7.006   0.134
 8562SOL    HW126585   4.091   0.025   0.122
 8562SOL    HW226586   4.183   6.952   0.218
 8563SOL     OW26587   0.669   4.818   2.136
 8563SOL    HW126588   0.739   4.863   2.080
 8563SOL    HW226589   0.594   4.789   2.077
 8564SOL     OW26590   3.297   6.345   5.803
 8564SOL    HW126591   3.229   6.317   5.736
 8564SOL    HW226592   3.357   6.268   5.824
 8565SOL     OW26593   3.808   5.474   1.833
 8565SOL    HW126594   3.762   5.433   1.911
 8565SOL    HW226595   3.770   5.437   1.748
 8566SOL     OW26596   2.051   0.760   2.108
 8566SOL    HW126597   2.040   0.796   2.201
 8566SOL    HW226598   2.107   0.823   2.054
 8567SOL     OW26599   1.753   2.139   1.917
 8567SOL    HW126600   1.693   2.060   1.923
 8567SOL    HW226601   1.807   2.147   2.001
 8568SOL     OW26602   5.953   1.164   0.667
 8568SOL    HW126603   5.868   1.201   0.705
 8568SOL    HW226604   5.944   1.157   0.567
 8569SOL     OW26605   4.990   1.683   5.963
 8569SOL    HW126606   4.891   1.689   5.948
 8569SOL    HW226607   5.012   1.723   6.052
 8570SOL     OW26608   1.383   1.908   4.418
 8570SOL    HW126609   1.463   1.883   4.473
 8570SOL    HW226610   1.307   1.932   4.478
 8571SOL     OW26611   0.638   0.388   4.656
 8571SOL    HW126612   0.710   0.370   4.590
 8571SOL    HW226613   0.621   0.487   4.661
 8572SOL     OW26614   1.942   3.986   5.202
 8572SOL    HW126615   1.902   4.004   5.292
 8572SOL    HW226616   1.889   4.034   5.132
 8573SOL     OW26617   2.964   5.945   6.331
 8573SOL    HW126618   2.975   6.038   6.365
 8573SOL    HW226619   2.935   5.885   6.406
 8574SOL     OW26620   6.038   6.475   5.885
 8574SOL    HW126621   6.102   6.437   5.952
 8574SOL    HW226622   6.086   6.538   5.825
 8575SOL     OW26623   3.296   1.401   3.156
 8575SOL    HW126624   3.317   1.389   3.253
 8575SOL    HW226625   3.359   1.468   3.117
 8576SOL     OW26626   1.978   4.763   4.153
 8576SOL    HW126627   1.911   4.802   4.216
 8576SOL    HW226628   1.943   4.677   4.116
 8577SOL     OW26629   1.376   0.561   6.008
 8577SOL    HW126630   1.417   0.648   6.036
 8577SOL    HW226631   1.418   0.486   6.059
 8578SOL     OW26632   6.567   5.399   5.613
 8578SOL    HW126633   6.633   5.437   5.678
 8578SOL    HW226634   6.610   5.388   5.523
 8579SOL     OW26635   1.289   5.984   2.189
 8579SOL    HW126636   1.252   6.051   2.126
 8579SOL    HW226637   1.359   5.929   2.143
 8580SOL     OW26638   2.014   6.086   1.389
 8580SOL    HW126639   2.015   5.986   1.398
 8580SOL    HW226640   1.921   6.120   1.407
 8581SOL     OW26641   3.930   4.738   1.726
 8581SOL    HW126642   4.002   4.669   1.722
 8581SOL    HW226643   3.844   4.698   1.696
 8582SOL     OW26644   4.676   4.606   5.557
 8582SOL    HW126645   4.604   4.597   5.488
 8582SOL    HW226646   4.726   4.691   5.542
 8583SOL     OW26647   2.949   6.889   2.996
 8583SOL    HW126648   2.917   6.811   3.050
 8583SOL    HW226649   3.034   6.864   2.948
 8584SOL     OW26650   0.293   0.181   5.134
 8584SOL    HW126651   0.301   0.114   5.208
 8584SOL    HW226652   0.373   0.174   5.074
 8585SOL     OW26653   6.238   1.352   0.946
 8585SOL    HW126654   6.189   1.343   0.859
 8585SOL    HW226655   6.319   1.410   0.933
 8586SOL     OW26656   4.283   6.785   1.991
 8586SOL    HW126657   4.221   6.785   1.913
 8586SOL    HW226658   4.263   6.863   2.051
 8587SOL     OW26659   1.121   1.225   5.064
 8587SOL    HW126660   1.129   1.289   5.140
 8587SOL    HW226661   1.101   1.275   4.980
 8588SOL     OW26662   5.000   0.900   0.178
 8588SOL    HW126663   5.006   0.801   0.169
 8588SOL    HW226664   4.908   0.926   0.207
 8589SOL     OW26665   6.688   2.760   5.494
 8589SOL    HW126666   6.749   2.683   5.513
 8589SOL    HW226667   6.594   2.726   5.487
 8590SOL     OW26668   0.690   0.746   2.774
 8590SOL    HW126669   0.630   0.692   2.833
 8590SOL    HW226670   0.641   0.770   2.690
 8591SOL     OW26671   0.188   4.234   0.566
 8591SOL    HW126672   0.165   4.137   0.554
 8591SOL    HW226673   0.267   4.241   0.627
 8592SOL     OW26674   0.272   2.591   6.906
 8592SOL    HW126675   0.188   2.636   6.936
 8592SOL    HW226676   0.351   2.634   6.951
 8593SOL     OW26677   3.481   0.830   6.806
 8593SOL    HW126678   3.417   0.902   6.780
 8593SOL    HW226679   3.571   0.851   6.769
 8594SOL     OW26680   6.078   2.309   6.152
 8594SOL    HW126681   5.979   2.306   6.137
 8594SOL    HW226682   6.121   2.229   6.110
 8595SOL     OW26683   6.373   1.162   3.574
 8595SOL    HW126684   6.408   1.163   3.667
 8595SOL    HW226685   6.369   1.256   3.539
 8596SOL     OW26686   1.421   4.352   3.054
 8596SOL    HW126687   1.392   4.318   3.143
 8596SOL    HW226688   1.520   4.366   3.054
 8597SOL     OW26689   5.669   1.706   1.184
 8597SOL    HW126690   5.732   1.676   1.113
 8597SOL    HW226691   5.718   1.713   1.271
 8598SOL     OW26692   5.541   0.092   5.712
 8598SOL    HW126693   5.464   0.147   5.680
 8598SOL    HW226694   5.520   0.057   5.804
 8599SOL     OW26695   1.208   2.481   4.313
 8599SOL    HW126696   1.156   2.553   4.360
 8599SOL    HW226697   1.304   2.506   4.308
 8600SOL     OW26698   5.130   3.673   0.143
 8600SOL    HW126699   5.154   3.576   0.130
 8600SOL    HW226700   5.189   3.713   0.213
 8601SOL     OW26701   0.127   1.934   3.682
 8601SOL    HW126702   0.186   1.946   3.761
 8601SOL    HW226703   0.063   2.011   3.676
 8602SOL     OW26704   2.580   6.290   2.429
 8602SOL    HW126705   2.550   6.303   2.523
 8602SOL    HW226706   2.500   6.288   2.368
 8603SOL     OW26707   5.415   0.076   0.195
 8603SOL    HW126708   5.394   0.147   0.263
 8603SOL    HW226709   5.346   0.004   0.199
 8604SOL     OW26710   0.991   2.761   6.263
 8604SOL    HW126711   1.048   2.795   6.188
 8604SOL    HW226712   1.043   2.766   6.349
 8605SOL     OW26713   1.066   5.209   3.724
 8605SOL    HW126714   1.082   5.237   3.630
 8605SOL    HW226715   0.992   5.142   3.727
 8606SOL     OW26716   2.312   2.037   7.007
 8606SOL    HW126717   2.360   1.956   6.975
 8606SOL    HW226718   2.286   2.094   6.929
 8607SOL     OW26719   2.334   4.258   6.523
 8607SOL    HW126720   2.312   4.176   6.575
 8607SOL    HW226721   2.409   4.239   6.460
 8608SOL     OW26722   1.796   4.702   2.132
 8608SOL    HW126723   1.741   4.782   2.109
 8608SOL    HW226724   1.735   4.626   2.157
 8609SOL     OW26725   5.189   0.420   3.976
 8609SOL    HW126726   5.117   0.425   3.907
 8609SOL    HW226727   5.278   0.432   3.932
 8610SOL     OW26728   6.673   0.604   3.200
 8610SOL    HW126729   6.578   0.595   3.171
 8610SOL    HW226730   6.728   0.532   3.159
 8611SOL     OW26731   2.846   1.156   4.511
 8611SOL    HW126732   2.883   1.174   4.603
 8611SOL    HW226733   2.826   1.244   4.467
 8612SOL     OW26734   2.536   3.656   1.513
 8612SOL    HW126735   2.612   3.699   1.560
 8612SOL    HW226736   2.538   3.557   1.530
 8613SOL     OW26737   3.308   2.164   1.579
 8613SOL    HW126738   3.252   2.114   1.646
 8613SOL    HW226739   3.312   2.111   1.494
 8614SOL     OW26740   1.705   2.677   3.404
 8614SOL    HW126741   1.744   2.660   3.314
 8614SOL    HW226742   1.748   2.617   3.471
 8615SOL     OW26743   4.733   2.116   5.421
 8615SOL    HW126744   4.732   2.058   5.503
 8615SOL    HW226745   4.797   2.192   5.434
 8616SOL     OW26746   2.720   4.806   1.895
 8616SOL    HW126747   2.658   4.767   1.826
 8616SOL    HW226748   2.800   4.746   1.905
 8617SOL     OW26749   5.839   1.306   3.708
 8617SOL    HW126750   5.870   1.235   3.771
 8617SOL    HW226751   5.874   1.394   3.738
 8618SOL     OW26752   6.089   4.482   1.238
 8618SOL    HW126753   6.026   4.559   1.229
 8618SOL    HW226754   6.039   4.401   1.266
 8619SOL     OW26755   3.564   4.977   3.275
 8619SOL    HW126756   3.543   5.001   3.180
 8619SOL    HW226757   3.661   4.953   3.283
 8620SOL     OW26758   2.297   6.550   4.540
 8620SOL    HW126759   2.237   6.568   4.618
 8620SOL    HW226760   2.295   6.629   4.479
 8621SOL     OW26761   4.904   3.096   2.166
 8621SOL    HW126762   4.878   3.094   2.263
 8621SOL    HW226763   4.832   3.054   2.111
 8622SOL     OW26764   5.390   4.899   1.563
 8622SOL    HW126765   5.325   4.824   1.559
 8622SOL    HW226766   5.417   4.916   1.658
 8623SOL     OW26767   0.642   4.062   4.954
 8623SOL    HW126768   0.578   4.056   4.876
 8623SOL    HW226769   0.607   4.129   5.019
 8624SOL     OW26770   3.325   3.685   5.777
 8624SOL    HW126771   3.385   3.723   5.848
 8624SOL    HW226772   3.233   3.721   5.789
 8625SOL     OW26773   4.570   0.324   5.536
 8625SOL    HW126774   4.559   0.396   5.605
 8625SOL    HW226775   4.666   0.322   5.506
 8626SOL     OW26776   3.828   3.058   6.842
 8626SOL    HW126777   3.794   2.964   6.844
 8626SOL    HW226778   3.853   3.083   6.748
 8627SOL     OW26779   2.544   1.983   2.124
 8627SOL    HW126780   2.554   1.883   2.123
 8627SOL    HW226781   2.469   2.009   2.064
 8628SOL     OW26782   6.425   6.593   6.603
 8628SOL    HW126783   6.396   6.682   6.568
 8628SOL    HW226784   6.348   6.529   6.599
 8629SOL     OW26785   1.447   6.731   5.294
 8629SOL    HW126786   1.399   6.764   5.213
 8629SOL    HW226787   1.383   6.727   5.371
 8630SOL     OW26788   4.938   3.740   3.951
 8630SOL    HW126789   4.909   3.803   3.879
 8630SOL    HW226790   4.923   3.646   3.920
 8631SOL     OW26791   1.084   5.928   6.125
 8631SOL    HW126792   1.145   5.850   6.141
 8631SOL    HW226793   1.137   6.012   6.131
 8632SOL     OW26794   3.953   4.193   5.190
 8632SOL    HW126795   3.873   4.183   5.248
 8632SOL    HW226796   3.955   4.285   5.151
 8633SOL     OW26797   5.765   2.978   5.845
 8633SOL    HW126798   5.695   3.033   5.798
 8633SOL    HW226799   5.801   3.028   5.923
 8634SOL     OW26800   4.910   3.888   6.938
 8634SOL    HW126801   4.891   3.981   6.908
 8634SOL    HW226802   5.007   3.867   6.924
 8635SOL     OW26803   5.435   2.808   6.704
 8635SOL    HW126804   5.368   2.747   6.745
 8635SOL    HW226805   5.472   2.767   6.621
 8636SOL     OW26806   5.139   5.863   1.191
 8636SOL    HW126807   5.042   5.845   1.183
 8636SOL    HW226808   5.180   5.872   1.100
 8637SOL     OW26809   1.912   1.544   6.742
 8637SOL    HW126810   1.864   1.457   6.753
 8637SOL    HW226811   1.934   1.581   6.832
 8638SOL     OW26812   4.062   2.328   5.339
 8638SOL    HW126813   4.093   2.408   5.288
 8638SOL    HW226814   4.025   2.357   5.427
 8639SOL     OW26815   4.386   3.309   6.756
 8639SOL    HW126816   4.309   3.364   6.787
 8639SOL    HW226817   4.355   3.246   6.685
 8640SOL     OW26818   4.106   3.839   0.964
 8640SOL    HW126819   4.142   3.877   0.879
 8640SOL    HW226820   4.034   3.899   0.999
 8641SOL     OW26821   3.913   4.843   4.371
 8641SOL    HW126822   3.871   4.781   4.437
 8641SOL    HW226823   3.844   4.875   4.306
 8642SOL     OW26824   0.970   0.052   3.546
 8642SOL    HW126825   0.878   0.042   3.584
 8642SOL    HW226826   1.036   0.007   3.606
 8643SOL     OW26827   1.791   0.349   0.076
 8643SOL    HW126828   1.832   0.275   0.130
 8643SOL    HW226829   1.861   0.416   0.053
 8644SOL     OW26830   5.693   2.784   6.206
 8644SOL    HW126831   5.692   2.756   6.110
 8644SOL    HW226832   5.669   2.881   6.213
 8645SOL     OW26833   4.286   4.989   1.430
 8645SOL    HW126834   4.289   5.083   1.395
 8645SOL    HW226835   4.333   4.928   1.366
 8646SOL     OW26836   0.646   1.982   6.868
 8646SOL    HW126837   0.684   1.894   6.895
 8646SOL    HW226838   0.548   1.983   6.884
 8647SOL     OW26839   2.071   5.321   0.183
 8647SOL    HW126840   2.133   5.385   0.138
 8647SOL    HW226841   1.983   5.319   0.136
 8648SOL     OW26842   6.355   6.841   0.491
 8648SOL    HW126843   6.384   6.927   0.450
 8648SOL    HW226844   6.415   6.818   0.568
 8649SOL     OW26845   5.774   6.104   0.413
 8649SOL    HW126846   5.794   6.143   0.323
 8649SOL    HW226847   5.858   6.065   0.452
 8650SOL     OW26848   1.550   6.534   5.121
 8650SOL    HW126849   1.506   6.612   5.166
 8650SOL    HW226850   1.524   6.531   5.025
 8651SOL     OW26851   4.069   1.549   0.813
 8651SOL    HW126852   4.000   1.481   0.790
 8651SOL    HW226853   4.082   1.550   0.913
 8652SOL     OW26854   0.798   4.829   3.396
 8652SOL    HW126855   0.889   4.870   3.389
 8652SOL    HW226856   0.752   4.838   3.307
 8653SOL     OW26857   6.659   1.323   5.920
 8653SOL    HW126858   6.599   1.338   5.999
 8653SOL    HW226859   6.710   1.407   5.901
 8654SOL     OW26860   0.436   4.928   1.371
 8654SOL    HW126861   0.480   5.002   1.319
 8654SOL    HW226862   0.356   4.896   1.322
 8655SOL     OW26863   5.382   0.434   4.187
 8655SOL    HW126864   5.346   0.447   4.094
 8655SOL    HW226865   5.379   0.337   4.210
 8656SOL     OW26866   6.091   1.455   2.170
 8656SOL    HW126867   6.005   1.442   2.221
 8656SOL    HW226868   6.103   1.379   2.107
 8657SOL     OW26869   5.568   5.989   0.173
 8657SOL    HW126870   5.594   6.085   0.165
 8657SOL    HW226871   5.607   5.951   0.257
 8658SOL     OW26872   6.299   5.679   0.251
 8658SOL    HW126873   6.233   5.737   0.204
 8658SOL    HW226874   6.305   5.591   0.204
 8659SOL     OW26875   4.904   2.179   2.787
 8659SOL    HW126876   4.963   2.106   2.751
 8659SOL    HW226877   4.960   2.247   2.834
 8660SOL     OW26878   0.171   3.101   2.700
 8660SOL    HW126879   0.265   3.068   2.694
 8660SOL    HW226880   0.111   3.025   2.725
 8661SOL     OW26881   6.179   4.061   1.604
 8661SOL    HW126882   6.191   3.983   1.665
 8661SOL    HW226883   6.209   4.145   1.651
 8662SOL     OW26884   4.088   5.773   2.272
 8662SOL    HW126885   4.057   5.789   2.179
 8662SOL    HW226886   4.128   5.857   2.309
 8663SOL     OW26887   2.917   5.602   2.351
 8663SOL    HW126888   2.907   5.700   2.367
 8663SOL    HW226889   2.844   5.552   2.397
 8664SOL     OW26890   2.657   5.243   2.081
 8664SOL    HW126891   2.571   5.199   2.057
 8664SOL    HW226892   2.726   5.173   2.102
 8665SOL     OW26893   6.220   5.550   4.428
 8665SOL    HW126894   6.254   5.462   4.463
 8665SOL    HW226895   6.154   5.534   4.355
 8666SOL     OW26896   5.288   0.514   4.436
 8666SOL    HW126897   5.188   0.503   4.433
 8666SOL    HW226898   5.327   0.490   4.347
 8667SOL     OW26899   5.067   2.113   4.260
 8667SOL    HW126900   4.992   2.119   4.195
 8667SOL    HW226901   5.117   2.027   4.245
 8668SOL     OW26902   5.414   3.767   4.880
 8668SOL    HW126903   5.464   3.762   4.793
 8668SOL    HW226904   5.394   3.675   4.912
 8669SOL     OW26905   0.457   5.958   6.373
 8669SOL    HW126906   0.366   5.980   6.407
 8669SOL    HW226907   0.499   5.890   6.432
 8670SOL     OW26908   4.557   5.155   6.134
 8670SOL    HW126909   4.474   5.137   6.187
 8670SOL    HW226910   4.626   5.086   6.154
 8671SOL     OW26911   0.450   1.556   2.190
 8671SOL    HW126912   0.480   1.550   2.095
 8671SOL    HW226913   0.530   1.554   2.251
 8672SOL     OW26914   0.538   0.135   3.501
 8672SOL    HW126915   0.584   0.090   3.425
 8672SOL    HW226916   0.578   0.104   3.587
 8673SOL     OW26917   6.650   1.735   0.156
 8673SOL    HW126918   6.715   1.728   0.080
 8673SOL    HW226919   6.700   1.747   0.241
 8674SOL     OW26920   6.489   5.026   2.696
 8674SOL    HW126921   6.484   4.997   2.601
 8674SOL    HW226922   6.464   4.949   2.756
 8675SOL     OW26923   4.550   1.033   5.539
 8675SOL    HW126924   4.545   1.133   5.540
 8675SOL    HW226925   4.532   0.998   5.631
 8676SOL     OW26926   4.787   0.008   1.605
 8676SOL    HW126927   4.859   0.027   1.538
 8676SOL    HW226928   4.798   6.938   1.640
 8677SOL     OW26929   1.754   5.893   5.688
 8677SOL    HW126930   1.665   5.930   5.717
 8677SOL    HW226931   1.772   5.920   5.593
 8678SOL     OW26932   0.948   0.326   0.946
 8678SOL    HW126933   1.002   0.387   1.004
 8678SOL    HW226934   0.955   0.356   0.851
 8679SOL     OW26935   1.935   1.161   3.630
 8679SOL    HW126936   1.879   1.153   3.547
 8679SOL    HW226937   1.999   1.236   3.619
 8680SOL     OW26938   6.292   2.849   6.797
 8680SOL    HW126939   6.387   2.819   6.808
 8680SOL    HW226940   6.255   2.812   6.712
 8681SOL     OW26941   4.599   5.440   1.148
 8681SOL    HW126942   4.599   5.493   1.233
 8681SOL    HW226943   4.688   5.448   1.103
 8682SOL     OW26944   6.949   0.713   1.564
 8682SOL    HW126945   6.877   0.684   1.627
 8682SOL    HW226946   6.911   0.727   1.473
 8683SOL     OW26947   1.752   2.692   5.121
 8683SOL    HW126948   1.672   2.663   5.068
 8683SOL    HW226949   1.739   2.786   5.153
 8684SOL     OW26950   6.663   2.722   4.623
 8684SOL    HW126951   6.625   2.658   4.689
 8684SOL    HW226952   6.761   2.733   4.640
 8685SOL     OW26953   5.901   3.191   6.708
 8685SOL    HW126954   5.921   3.098   6.677
 8685SOL    HW226955   5.914   3.197   6.807
 8686SOL     OW26956   6.215   0.310   1.890
 8686SOL    HW126957   6.157   0.282   1.814
 8686SOL    HW226958   6.285   0.240   1.907
 8687SOL     OW26959   5.916   5.255   2.902
 8687SOL    HW126960   5.844   5.225   2.965
 8687SOL    HW226961   6.000   5.273   2.954
 8688SOL     OW26962   1.286   3.932   6.588
 8688SOL    HW126963   1.241   3.929   6.499
 8688SOL    HW226964   1.373   3.882   6.584
 8689SOL     OW26965   4.234   2.968   6.995
 8689SOL    HW126966   4.186   3.045   6.952
 8689SOL    HW226967   4.290   2.921   6.926
 8690SOL     OW26968   0.880   3.181   2.754
 8690SOL    HW126969   0.929   3.266   2.735
 8690SOL    HW226970   0.927   3.129   2.825
 8691SOL     OW26971   3.324   2.083   5.495
 8691SOL    HW126972   3.378   2.007   5.531
 8691SOL    HW226973   3.227   2.062   5.506
 8692SOL     OW26974   3.462   0.872   4.926
 8692SOL    HW126975   3.506   0.906   4.843
 8692SOL    HW226976   3.379   0.924   4.944
 8693SOL     OW26977   6.360   0.595   6.554
 8693SOL    HW126978   6.447   0.639   6.576
 8693SOL    HW226979   6.369   0.547   6.466
 8694SOL     OW26980   5.990   1.817   4.552
 8694SOL    HW126981   5.969   1.780   4.643
 8694SOL    HW226982   6.014   1.742   4.491
 8695SOL     OW26983   3.792   3.159   6.192
 8695SOL    HW126984   3.809   3.071   6.148
 8695SOL    HW226985   3.718   3.206   6.146
 8696SOL     OW26986   2.862   5.937   5.511
 8696SOL    HW126987   2.796   5.864   5.525
 8696SOL    HW226988   2.818   6.014   5.464
 8697SOL     OW26989   0.408   4.089   6.189
 8697SOL    HW126990   0.449   4.049   6.107
 8697SOL    HW226991   0.314   4.117   6.170
 8698SOL     OW26992   4.708   6.684   5.246
 8698SOL    HW126993   4.661   6.617   5.189
 8698SOL    HW226994   4.765   6.743   5.189
 8699SOL     OW26995   1.718   3.025   5.633
 8699SOL    HW126996   1.798   3.017   5.692
 8699SOL    HW226997   1.688   2.934   5.605
 8700SOL     OW26998   1.082   0.742   5.075
 8700SOL    HW126999   1.034   0.670   5.024
 8700SOL    HW227000   1.058   0.831   5.036
 8701SOL     OW27001   1.615   1.302   0.336
 8701SOL    HW127002   1.592   1.276   0.242
 8701SOL    HW227003   1.704   1.347   0.338
 8702SOL     OW27004   5.482   4.972   1.828
 8702SOL    HW127005   5.419   4.925   1.889
 8702SOL    HW227006   5.475   5.071   1.843
 8703SOL     OW27007   2.988   4.954   6.756
 8703SOL    HW127008   2.997   4.928   6.660
 8703SOL    HW227009   2.891   4.962   6.779
 8704SOL     OW27010   6.549   3.955   3.520
 8704SOL    HW127011   6.561   3.874   3.463
 8704SOL    HW227012   6.461   3.951   3.567
 8705SOL     OW27013   4.100   1.901   6.421
 8705SOL    HW127014   4.056   1.873   6.506
 8705SOL    HW227015   4.037   1.887   6.345
 8706SOL     OW27016   5.093   1.879   0.170
 8706SOL    HW127017   5.183   1.892   0.127
 8706SOL    HW227018   5.069   1.961   0.222
 8707SOL     OW27019   1.132   2.800   4.020
 8707SOL    HW127020   1.108   2.804   4.117
 8707SOL    HW227021   1.111   2.709   3.984
 8708SOL     OW27022   4.173   1.650   3.992
 8708SOL    HW127023   4.139   1.675   3.902
 8708SOL    HW227024   4.235   1.572   3.984
 8709SOL     OW27025   6.852   6.662   6.484
 8709SOL    HW127026   6.845   6.758   6.457
 8709SOL    HW227027   6.798   6.647   6.567
 8710SOL     OW27028   2.359   2.722   3.178
 8710SOL    HW127029   2.433   2.734   3.112
 8710SOL    HW227030   2.272   2.745   3.134
 8711SOL     OW27031   1.520   0.041   2.589
 8711SOL    HW127032   1.475   0.014   2.674
 8711SOL    HW227033   1.459   0.100   2.536
 8712SOL     OW27034   3.407   1.621   4.483
 8712SOL    HW127035   3.340   1.677   4.532
 8712SOL    HW227036   3.457   1.565   4.549
 8713SOL     OW27037   6.644   4.501   1.491
 8713SOL    HW127038   6.609   4.590   1.521
 8713SOL    HW227039   6.731   4.483   1.537
 8714SOL     OW27040   0.850   0.063   6.101
 8714SOL    HW127041   0.902   0.070   6.016
 8714SOL    HW227042   0.789   0.141   6.109
 8715SOL     OW27043   4.054   1.487   0.388
 8715SOL    HW127044   3.993   1.562   0.363
 8715SOL    HW227045   4.149   1.519   0.384
 8716SOL     OW27046   0.407   6.605   1.018
 8716SOL    HW127047   0.438   6.559   1.101
 8716SOL    HW227048   0.487   6.633   0.964
 8717SOL     OW27049   2.681   3.652   5.571
 8717SOL    HW127050   2.774   3.668   5.538
 8717SOL    HW227051   2.671   3.555   5.596
 8718SOL     OW27052   1.996   2.970   5.742
 8718SOL    HW127053   2.037   3.061   5.753
 8718SOL    HW227054   2.025   2.931   5.655
 8719SOL     OW27055   3.931   0.378   0.356
 8719SOL    HW127056   3.987   0.451   0.318
 8719SOL    HW227057   3.899   0.404   0.447
 8720SOL     OW27058   0.354   6.517   6.237
 8720SOL    HW127059   0.399   6.500   6.325
 8720SOL    HW227060   0.283   6.448   6.221
 8721SOL     OW27061   6.039   0.621   0.468
 8721SOL    HW127062   6.044   0.702   0.410
 8721SOL    HW227063   5.990   0.548   0.420
 8722SOL     OW27064   3.665   1.113   0.202
 8722SOL    HW127065   3.695   1.035   0.149
 8722SOL    HW227066   3.709   1.112   0.292
 8723SOL     OW27067   5.727   0.076   2.552
 8723SOL    HW127068   5.759   0.088   2.458
 8723SOL    HW227069   5.705   0.165   2.592
 8724SOL     OW27070   5.700   0.335   3.991
 8724SOL    HW127071   5.672   0.425   4.025
 8724SOL    HW227072   5.708   0.339   3.891
 8725SOL     OW27073   0.769   6.192   5.352
 8725SOL    HW127074   0.770   6.246   5.436
 8725SOL    HW227075   0.697   6.123   5.357
 8726SOL     OW27076   6.707   0.617   0.919
 8726SOL    HW127077   6.775   0.689   0.935
 8726SOL    HW227078   6.660   0.635   0.833
 8727SOL     OW27079   5.903   6.577   6.958
 8727SOL    HW127080   5.878   6.644   6.889
 8727SOL    HW227081   5.897   6.618   0.027
 8728SOL     OW27082   5.338   1.639   1.993
 8728SOL    HW127083   5.405   1.569   1.970
 8728SOL    HW227084   5.287   1.611   2.074
 8729SOL     OW27085   2.725   5.074   5.593
 8729SOL    HW127086   2.791   5.111   5.528
 8729SOL    HW227087   2.639   5.123   5.585
 8730SOL     OW27088   4.905   4.453   3.387
 8730SOL    HW127089   4.980   4.460   3.453
 8730SOL    HW227090   4.936   4.399   3.308
 8731SOL     OW27091   0.826   3.105   3.149
 8731SOL    HW127092   0.743   3.096   3.093
 8731SOL    HW227093   0.872   3.190   3.126
 8732SOL     OW27094   5.608   4.317   2.092
 8732SOL    HW127095   5.645   4.400   2.133
 8732SOL    HW227096   5.667   4.289   2.016
 8733SOL     OW27097   1.453   5.853   0.015
 8733SOL    HW127098   1.357   5.824   0.007
 8733SOL    HW227099   1.466   5.939   6.989
 8734SOL     OW27100   6.659   3.126   2.924
 8734SOL    HW127101   6.638   3.193   2.995
 8734SOL    HW227102   6.700   3.172   2.845
 8735SOL     OW27103   1.258   3.348   5.192
 8735SOL    HW127104   1.308   3.290   5.255
 8735SOL    HW227105   1.170   3.373   5.232
 8736SOL     OW27106   0.088   5.301   2.362
 8736SOL    HW127107   0.096   5.308   2.462
 8736SOL    HW227108   0.165   5.247   2.327
 8737SOL     OW27109   2.665   6.430   6.978
 8737SOL    HW127110   2.565   6.438   6.977
 8737SOL    HW227111   2.692   6.357   0.018
 8738SOL     OW27112   2.069   5.812   3.729
 8738SOL    HW127113   2.095   5.716   3.721
 8738SOL    HW227114   2.138   5.869   3.687
 8739SOL     OW27115   5.398   4.596   5.841
 8739SOL    HW127116   5.400   4.572   5.744
 8739SOL    HW227117   5.492   4.599   5.876
 8740SOL     OW27118   3.567   2.011   2.813
 8740SOL    HW127119   3.598   2.058   2.896
 8740SOL    HW227120   3.507   2.072   2.761
 8741SOL     OW27121   2.438   0.367   2.952
 8741SOL    HW127122   2.495   0.289   2.927
 8741SOL    HW227123   2.492   0.432   3.006
 8742SOL     OW27124   4.348   0.136   1.702
 8742SOL    HW127125   4.448   0.134   1.706
 8742SOL    HW227126   4.318   0.176   1.615
 8743SOL     OW27127   2.389   0.944   1.339
 8743SOL    HW127128   2.485   0.922   1.359
 8743SOL    HW227129   2.347   0.869   1.288
 8744SOL     OW27130   4.492   2.842   0.541
 8744SOL    HW127131   4.409   2.806   0.499
 8744SOL    HW227132   4.511   2.934   0.506
 8745SOL     OW27133   6.600   2.480   6.297
 8745SOL    HW127134   6.695   2.449   6.294
 8745SOL    HW227135   6.548   2.423   6.361
 8746SOL     OW27136   4.718   5.890   4.626
 8746SOL    HW127137   4.700   5.847   4.714
 8746SOL    HW227138   4.740   5.820   4.558
 8747SOL     OW27139   0.623   1.087   2.433
 8747SOL    HW127140   0.609   1.183   2.456
 8747SOL    HW227141   0.573   1.028   2.496
 8748SOL     OW27142   0.768   1.906   4.426
 8748SOL    HW127143   0.793   1.964   4.348
 8748SOL    HW227144   0.706   1.834   4.396
 8749SOL     OW27145   1.640   1.176   5.413
 8749SOL    HW127146   1.641   1.269   5.377
 8749SOL    HW227147   1.621   1.178   5.511
 8750SOL     OW27148   3.883   3.699   5.873
 8750SOL    HW127149   3.859   3.605   5.900
 8750SOL    HW227150   3.961   3.730   5.926
 8751SOL     OW27151   0.041   0.988   1.484
 8751SOL    HW127152   7.012   1.000   1.399
 8751SOL    HW227153   0.113   0.920   1.469
 8752SOL     OW27154   4.025   2.822   6.682
 8752SOL    HW127155   3.939   2.787   6.719
 8752SOL    HW227156   4.049   2.771   6.599
 8753SOL     OW27157   2.450   2.953   6.616
 8753SOL    HW127158   2.448   3.016   6.694
 8753SOL    HW227159   2.472   2.861   6.648
 8754SOL     OW27160   2.997   4.219   5.535
 8754SOL    HW127161   2.906   4.200   5.500
 8754SOL    HW227162   3.047   4.133   5.545
 8755SOL     OW27163   2.714   0.798   1.645
 8755SOL    HW127164   2.758   0.734   1.582
 8755SOL    HW227165   2.777   0.871   1.668
 8756SOL     OW27166   1.234   2.797   3.265
 8756SOL    HW127167   1.280   2.843   3.189
 8756SOL    HW227168   1.303   2.752   3.322
 8757SOL     OW27169   5.067   5.896   6.363
 8757SOL    HW127170   5.156   5.852   6.355
 8757SOL    HW227171   5.015   5.883   6.279
 8758SOL     OW27172   4.803   6.377   3.399
 8758SOL    HW127173   4.875   6.321   3.441
 8758SOL    HW227174   4.845   6.444   3.338
 8759SOL     OW27175   6.375   2.510   6.815
 8759SOL    HW127176   6.419   2.600   6.808
 8759SOL    HW227177   6.379   2.478   6.910
 8760SOL     OW27178   2.731   1.547   4.524
 8760SOL    HW127179   2.734   1.474   4.457
 8760SOL    HW227180   2.747   1.510   4.615
 8761SOL     OW27181   6.094   1.411   1.728
 8761SOL    HW127182   6.168   1.474   1.706
 8761SOL    HW227183   6.113   1.322   1.687
 8762SOL     OW27184   1.347   5.620   4.004
 8762SOL    HW127185   1.268   5.679   3.992
 8762SOL    HW227186   1.318   5.532   4.040
 8763SOL     OW27187   5.563   0.362   5.410
 8763SOL    HW127188   5.571   0.262   5.416
 8763SOL    HW227189   5.540   0.387   5.316
 8764SOL     OW27190   4.257   6.118   5.787
 8764SOL    HW127191   4.352   6.118   5.755
 8764SOL    HW227192   4.242   6.038   5.845
 8765SOL     OW27193   5.514   1.634   4.597
 8765SOL    HW127194   5.605   1.657   4.561
 8765SOL    HW227195   5.481   1.550   4.555
 8766SOL     OW27196   4.278   4.227   5.323
 8766SOL    HW127197   4.272   4.303   5.259
 8766SOL    HW227198   4.373   4.196   5.330
 8767SOL     OW27199   4.333   6.698   3.423
 8767SOL    HW127200   4.304   6.778   3.476
 8767SOL    HW227201   4.422   6.667   3.456
 8768SOL     OW27202   1.358   2.329   1.287
 8768SOL    HW127203   1.271   2.377   1.278
 8768SOL    HW227204   1.342   2.234   1.311
 8769SOL     OW27205   0.110   1.335   1.822
 8769SOL    HW127206   0.047   1.412   1.818
 8769SOL    HW227207   0.200   1.363   1.789
 8770SOL     OW27208   5.197   4.648   2.445
 8770SOL    HW127209   5.246   4.682   2.526
 8770SOL    HW227210   5.161   4.556   2.464
 8771SOL     OW27211   0.451   2.714   6.506
 8771SOL    HW127212   0.359   2.750   6.491
 8771SOL    HW227213   0.454   2.617   6.482
 8772SOL     OW27214   4.819   0.640   5.839
 8772SOL    HW127215   4.750   0.707   5.868
 8772SOL    HW227216   4.910   0.681   5.848
 8773SOL     OW27217   5.513   2.876   2.645
 8773SOL    HW127218   5.599   2.926   2.646
 8773SOL    HW227219   5.513   2.808   2.718
 8774SOL     OW27220   0.601   0.608   0.353
 8774SOL    HW127221   0.529   0.541   0.371
 8774SOL    HW227222   0.679   0.591   0.412
 8775SOL     OW27223   5.024   1.029   5.343
 8775SOL    HW127224   4.972   1.114   5.352
 8775SOL    HW227225   5.093   1.026   5.415
 8776SOL     OW27226   4.938   3.249   1.539
 8776SOL    HW127227   4.864   3.273   1.477
 8776SOL    HW227228   4.902   3.235   1.631
 8777SOL     OW27229   6.897   3.415   3.794
 8777SOL    HW127230   6.832   3.426   3.869
 8777SOL    HW227231   6.988   3.398   3.832
 8778SOL     OW27232   5.108   3.685   5.475
 8778SOL    HW127233   5.170   3.659   5.549
 8778SOL    HW227234   5.023   3.634   5.483
 8779SOL     OW27235   2.472   5.424   2.533
 8779SOL    HW127236   2.443   5.493   2.466
 8779SOL    HW227237   2.460   5.333   2.495
 8780SOL     OW27238   0.662   6.567   3.529
 8780SOL    HW127239   0.721   6.644   3.553
 8780SOL    HW227240   0.575   6.602   3.493
 8781SOL     OW27241   4.898   0.262   3.524
 8781SOL    HW127242   4.802   0.241   3.511
 8781SOL    HW227243   4.953   0.209   3.460
 8782SOL     OW27244   5.769   1.416   1.707
 8782SOL    HW127245   5.741   1.507   1.737
 8782SOL    HW227246   5.868   1.407   1.716
 8783SOL     OW27247   6.732   3.873   4.649
 8783SOL    HW127248   6.772   3.788   4.615
 8783SOL    HW227249   6.642   3.886   4.608
 8784SOL     OW27250   6.431   6.251   6.965
 8784SOL    HW127251   6.395   6.325   6.909
 8784SOL    HW227252   6.458   6.287   0.032
 8785SOL     OW27253   6.485   5.460   6.024
 8785SOL    HW127254   6.481   5.409   6.109
 8785SOL    HW227255   6.559   5.528   6.030
 8786SOL     OW27256   3.387   1.132   1.725
 8786SOL    HW127257   3.395   1.231   1.717
 8786SOL    HW227258   3.478   1.091   1.730
 8787SOL     OW27259   2.917   0.366   2.413
 8787SOL    HW127260   2.883   0.423   2.339
 8787SOL    HW227261   3.017   0.366   2.412
 8788SOL     OW27262   6.452   1.007   5.419
 8788SOL    HW127263   6.386   0.961   5.361
 8788SOL    HW227264   6.416   1.097   5.445
 8789SOL     OW27265   6.828   4.406   5.294
 8789SOL    HW127266   6.853   4.485   5.350
 8789SOL    HW227267   6.752   4.357   5.337
 8790SOL     OW27268   6.849   1.158   6.705
 8790SOL    HW127269   6.847   1.249   6.665
 8790SOL    HW227270   6.825   1.090   6.636
 8791SOL     OW27271   4.646   6.500   4.978
 8791SOL    HW127272   4.728   6.519   4.924
 8791SOL    HW227273   4.569   6.552   4.941
 8792SOL     OW27274   3.247   4.985   2.473
 8792SOL    HW127275   3.184   4.966   2.398
 8792SOL    HW227276   3.329   4.929   2.463
 8793SOL     OW27277   0.634   4.845   3.824
 8793SOL    HW127278   0.540   4.839   3.859
 8793SOL    HW227279   0.640   4.798   3.736
 8794SOL     OW27280   5.875   1.112   3.498
 8794SOL    HW127281   5.804   1.042   3.507
 8794SOL    HW227282   5.852   1.192   3.553
 8795SOL     OW27283   1.025   5.220   4.805
 8795SOL    HW127284   0.966   5.151   4.848
 8795SOL    HW227285   1.029   5.205   4.707
 8796SOL     OW27286   5.897   3.178   3.006
 8796SOL    HW127287   5.876   3.232   3.087
 8796SOL    HW227288   5.997   3.174   2.994
 8797SOL     OW27289   6.867   0.070   4.727
 8797SOL    HW127290   6.873   6.993   4.720
 8797SOL    HW227291   6.828   0.107   4.643
 8798SOL     OW27292   4.087   5.902   6.011
 8798SOL    HW127293   4.182   5.876   6.026
 8798SOL    HW227294   4.033   5.822   5.986
 8799SOL     OW27295   3.082   4.913   2.267
 8799SOL    HW127296   3.035   5.001   2.262
 8799SOL    HW227297   3.029   4.844   2.218
 8800SOL     OW27298   5.875   5.043   5.409
 8800SOL    HW127299   5.943   5.081   5.472
 8800SOL    HW227300   5.807   5.113   5.388
 8801SOL     OW27301   6.344   1.666   4.788
 8801SOL    HW127302   6.408   1.732   4.750
 8801SOL    HW227303   6.291   1.710   4.862
 8802SOL     OW27304   1.599   5.409   5.796
 8802SOL    HW127305   1.526   5.433   5.861
 8802SOL    HW227306   1.639   5.492   5.758
 8803SOL     OW27307   6.807   0.302   0.112
 8803SOL    HW127308   6.890   0.344   0.148
 8803SOL    HW227309   6.795   0.212   0.153
 8804SOL     OW27310   2.159   6.315   1.351
 8804SOL    HW127311   2.153   6.345   1.255
 8804SOL    HW227312   2.105   6.232   1.363
 8805SOL     OW27313   3.601   5.241   3.806
 8805SOL    HW127314   3.646   5.179   3.870
 8805SOL    HW227315   3.532   5.191   3.755
 8806SOL     OW27316   1.895   4.592   0.906
 8806SOL    HW127317   1.873   4.567   0.812
 8806SOL    HW227318   1.956   4.671   0.906
 8807SOL     OW27319   4.196   1.303   7.022
 8807SOL    HW127320   4.100   1.277   7.014
 8807SOL    HW227321   4.237   1.257   0.078
 8808SOL     OW27322   0.044   1.954   6.545
 8808SOL    HW127323   6.969   1.957   6.526
 8808SOL    HW227324   0.094   2.004   6.474
 8809SOL     OW27325   2.422   4.392   3.339
 8809SOL    HW127326   2.405   4.338   3.422
 8809SOL    HW227327   2.340   4.391   3.282
 8810SOL     OW27328   5.564   1.375   5.359
 8810SOL    HW127329   5.566   1.471   5.388
 8810SOL    HW227330   5.476   1.335   5.383
 8811SOL     OW27331   3.820   0.896   2.611
 8811SOL    HW127332   3.871   0.810   2.615
 8811SOL    HW227333   3.866   0.964   2.667
 8812SOL     OW27334   3.154   0.508   0.588
 8812SOL    HW127335   3.212   0.478   0.512
 8812SOL    HW227336   3.209   0.556   0.655
 8813SOL     OW27337   1.787   5.110   2.923
 8813SOL    HW127338   1.709   5.088   2.864
 8813SOL    HW227339   1.831   5.026   2.954
 8814SOL     OW27340   5.933   6.691   0.497
 8814SOL    HW127341   5.996   6.767   0.479
 8814SOL    HW227342   5.953   6.616   0.434
 8815SOL     OW27343   5.655   6.956   1.471
 8815SOL    HW127344   5.660   0.031   1.453
 8815SOL    HW227345   5.655   6.905   1.385
 8816SOL     OW27346   0.919   0.022   6.752
 8816SOL    HW127347   0.982   0.032   6.675
 8816SOL    HW227348   0.825   0.025   6.718
 8817SOL     OW27349   0.051   3.789   4.239
 8817SOL    HW127350   0.015   3.713   4.186
 8817SOL    HW227351   0.105   3.754   4.316
 8818SOL     OW27352   1.261   6.493   3.529
 8818SOL    HW127353   1.172   6.488   3.484
 8818SOL    HW227354   1.257   6.444   3.616
 8819SOL     OW27355   6.092   4.690   5.527
 8819SOL    HW127356   6.019   4.651   5.471
 8819SOL    HW227357   6.128   4.772   5.482
 8820SOL     OW27358   2.916   1.724   4.408
 8820SOL    HW127359   2.855   1.677   4.472
 8820SOL    HW227360   2.934   1.665   4.329
 8821SOL     OW27361   0.818   5.856   0.756
 8821SOL    HW127362   0.727   5.817   0.741
 8821SOL    HW227363   0.815   5.955   0.743
 8822SOL     OW27364   0.615   0.399   3.550
 8822SOL    HW127365   0.566   0.312   3.540
 8822SOL    HW227366   0.713   0.384   3.537
 8823SOL     OW27367   2.299   0.715   2.765
 8823SOL    HW127368   2.224   0.721   2.830
 8823SOL    HW227369   2.275   0.764   2.681
 8824SOL     OW27370   1.312   0.680   0.828
 8824SOL    HW127371   1.338   0.762   0.878
 8824SOL    HW227372   1.386   0.655   0.765
 8825SOL     OW27373   0.666   0.882   1.623
 8825SOL    HW127374   0.623   0.913   1.708
 8825SOL    HW227375   0.755   0.926   1.613
 8826SOL     OW27376   1.108   3.287   0.845
 8826SOL    HW127377   1.040   3.351   0.881
 8826SOL    HW227378   1.151   3.239   0.921
 8827SOL     OW27379   4.051   0.049   3.352
 8827SOL    HW127380   4.021   0.104   3.275
 8827SOL    HW227381   3.971   0.009   3.397
 8828SOL     OW27382   3.834   5.170   6.903
 8828SOL    HW127383   3.771   5.140   6.974
 8828SOL    HW227384   3.884   5.250   6.934
 8829SOL     OW27385   6.101   1.684   1.503
 8829SOL    HW127386   6.151   1.610   1.549
 8829SOL    HW227387   6.160   1.728   1.435
 8830SOL     OW27388   2.169   1.637   3.069
 8830SOL    HW127389   2.167   1.664   3.165
 8830SOL    HW227390   2.175   1.537   3.062
 8831SOL     OW27391   5.804   3.031   2.595
 8831SOL    HW127392   5.803   3.017   2.694
 8831SOL    HW227393   5.897   3.017   2.560
 8832SOL     OW27394   0.540   6.351   4.499
 8832SOL    HW127395   0.484   6.377   4.421
 8832SOL    HW227396   0.507   6.399   4.581
 8833SOL     OW27397   3.989   3.753   0.098
 8833SOL    HW127398   3.924   3.817   0.140
 8833SOL    HW227399   4.033   3.698   0.170
 8834SOL     OW27400   5.673   4.334   4.812
 8834SOL    HW127401   5.658   4.265   4.740
 8834SOL    HW227402   5.729   4.294   4.885
 8835SOL     OW27403   5.366   1.235   6.416
 8835SOL    HW127404   5.372   1.299   6.493
 8835SOL    HW227405   5.285   1.255   6.362
 8836SOL     OW27406   4.927   2.401   0.432
 8836SOL    HW127407   4.853   2.347   0.393
 8836SOL    HW227408   4.985   2.436   0.358
 8837SOL     OW27409   0.211   0.210   1.738
 8837SOL    HW127410   0.255   0.186   1.652
 8837SOL    HW227411   0.141   0.279   1.721
 8838SOL     OW27412   1.346   4.848   2.408
 8838SOL    HW127413   1.319   4.920   2.472
 8838SOL    HW227414   1.374   4.767   2.460
 8839SOL     OW27415   3.928   6.214   2.584
 8839SOL    HW127416   4.015   6.212   2.634
 8839SOL    HW227417   3.865   6.148   2.624
 8840SOL     OW27418   6.498   0.190   1.895
 8840SOL    HW127419   6.511   0.103   1.847
 8840SOL    HW227420   6.523   0.266   1.834
 8841SOL     OW27421   5.956   1.621   2.471
 8841SOL    HW127422   5.969   1.522   2.464
 8841SOL    HW227423   6.042   1.667   2.448
 8842SOL     OW27424   3.265   3.919   3.483
 8842SOL    HW127425   3.245   3.970   3.399
 8842SOL    HW227426   3.258   3.981   3.561
 8843SOL     OW27427   1.744   3.380   4.151
 8843SOL    HW127428   1.814   3.346   4.215
 8843SOL    HW227429   1.657   3.390   4.199
 8844SOL     OW27430   7.007   1.746   4.600
 8844SOL    HW127431   6.997   1.681   4.525
 8844SOL    HW227432   0.077   1.741   4.637
 8845SOL     OW27433   2.301   4.220   0.422
 8845SOL    HW127434   2.320   4.309   0.463
 8845SOL    HW227435   2.339   4.218   0.329
 8846SOL     OW27436   5.090   4.521   4.174
 8846SOL    HW127437   5.118   4.558   4.262
 8846SOL    HW227438   5.155   4.550   4.103
 8847SOL     OW27439   2.166   1.691   3.345
 8847SOL    HW127440   2.219   1.614   3.381
 8847SOL    HW227441   2.125   1.742   3.420
 8848SOL     OW27442   3.211   1.647   2.305
 8848SOL    HW127443   3.196   1.699   2.389
 8848SOL    HW227444   3.157   1.687   2.231
 8849SOL     OW27445   3.013   4.918   3.582
 8849SOL    HW127446   3.006   4.894   3.485
 8849SOL    HW227447   2.935   4.974   3.608
 8850SOL     OW27448   3.286   1.557   0.779
 8850SOL    HW127449   3.290   1.656   0.764
 8850SOL    HW227450   3.379   1.520   0.782
 8851SOL     OW27451   1.053   4.740   2.471
 8851SOL    HW127452   1.152   4.740   2.479
 8851SOL    HW227453   1.012   4.742   2.562
 8852SOL     OW27454   4.631   2.943   5.790
 8852SOL    HW127455   4.532   2.952   5.780
 8852SOL    HW227456   4.652   2.883   5.867
 8853SOL     OW27457   2.871   0.350   4.424
 8853SOL    HW127458   2.836   0.262   4.393
 8853SOL    HW227459   2.963   0.338   4.462
 8854SOL     OW27460   2.663   0.617   6.648
 8854SOL    HW127461   2.751   0.646   6.684
 8854SOL    HW227462   2.676   0.562   6.565
 8855SOL     OW27463   0.371   6.232   0.366
 8855SOL    HW127464   0.294   6.270   0.418
 8855SOL    HW227465   0.343   6.219   0.271
 8856SOL     OW27466   5.747   0.257   5.797
 8856SOL    HW127467   5.666   0.215   5.754
 8856SOL    HW227468   5.755   0.352   5.767
 8857SOL     OW27469   6.369   2.300   3.700
 8857SOL    HW127470   6.373   2.400   3.696
 8857SOL    HW227471   6.378   2.262   3.608
 8858SOL     OW27472   2.145   3.195   5.751
 8858SOL    HW127473   2.229   3.141   5.757
 8858SOL    HW227474   2.125   3.215   5.656
 8859SOL     OW27475   0.310   6.857   4.861
 8859SOL    HW127476   0.333   6.882   4.955
 8859SOL    HW227477   0.378   6.896   4.798
 8860SOL     OW27478   1.978   4.650   2.896
 8860SOL    HW127479   1.999   4.621   2.990
 8860SOL    HW227480   2.063   4.657   2.844
 8861SOL     OW27481   3.688   2.182   5.926
 8861SOL    HW127482   3.672   2.119   5.851
 8861SOL    HW227483   3.772   2.234   5.908
 8862SOL     OW27484   6.513   1.433   3.255
 8862SOL    HW127485   6.479   1.351   3.208
 8862SOL    HW227486   6.448   1.460   3.326
 8863SOL     OW27487   1.646   5.687   4.764
 8863SOL    HW127488   1.660   5.621   4.691
 8863SOL    HW227489   1.677   5.778   4.735
 8864SOL     OW27490   2.786   3.184   6.287
 8864SOL    HW127491   2.877   3.201   6.324
 8864SOL    HW227492   2.727   3.263   6.304
 8865SOL     OW27493   3.245   1.749   5.263
 8865SOL    HW127494   3.274   1.653   5.269
 8865SOL    HW227495   3.275   1.798   5.344
 8866SOL     OW27496   5.427   6.834   4.123
 8866SOL    HW127497   5.403   6.825   4.219
 8866SOL    HW227498   5.393   6.922   4.088
 8867SOL     OW27499   5.383   3.306   2.826
 8867SOL    HW127500   5.327   3.352   2.896
 8867SOL    HW227501   5.412   3.217   2.860
 8868SOL     OW27502   6.132   3.424   0.639
 8868SOL    HW127503   6.076   3.432   0.722
 8868SOL    HW227504   6.197   3.349   0.650
 8869SOL     OW27505   4.546   5.952   3.324
 8869SOL    HW127506   4.631   5.938   3.376
 8869SOL    HW227507   4.476   5.890   3.359
 8870SOL     OW27508   4.458   6.925   6.991
 8870SOL    HW127509   4.383   6.985   7.019
 8870SOL    HW227510   4.544   6.975   6.997
 8871SOL     OW27511   3.068   0.759   3.794
 8871SOL    HW127512   3.046   0.796   3.884
 8871SOL    HW227513   2.990   0.707   3.759
 8872SOL     OW27514   1.689   4.309   4.793
 8872SOL    HW127515   1.658   4.249   4.720
 8872SOL    HW227516   1.609   4.346   4.841
 8873SOL     OW27517   6.689   5.797   1.707
 8873SOL    HW127518   6.610   5.747   1.742
 8873SOL    HW227519   6.675   5.817   1.610
 8874SOL     OW27520   2.266   6.365   1.070
 8874SOL    HW127521   2.300   6.438   1.130
 8874SOL    HW227522   2.313   6.280   1.092
 8875SOL     OW27523   0.319   3.183   5.195
 8875SOL    HW127524   0.309   3.280   5.216
 8875SOL    HW227525   0.404   3.148   5.234
 8876SOL     OW27526   0.985   0.025   4.669
 8876SOL    HW127527   0.983   6.959   4.622
 8876SOL    HW227528   1.013   0.011   4.764
 8877SOL     OW27529   2.754   0.850   4.558
 8877SOL    HW127530   2.774   0.785   4.485
 8877SOL    HW227531   2.794   0.939   4.535
 8878SOL     OW27532   0.306   5.869   0.557
 8878SOL    HW127533   0.222   5.839   0.603
 8878SOL    HW227534   0.347   5.791   0.510
 8879SOL     OW27535   5.699   5.251   1.505
 8879SOL    HW127536   5.794   5.245   1.536
 8879SOL    HW227537   5.648   5.309   1.568
 8880SOL     OW27538   0.000   5.653   4.308
 8880SOL    HW127539   0.005   5.749   4.281
 8880SOL    HW227540   6.927   5.623   4.309
 8881SOL     OW27541   6.003   0.296   4.180
 8881SOL    HW127542   5.985   0.217   4.238
 8881SOL    HW227543   5.943   0.371   4.206
 8882SOL     OW27544   5.268   1.779   0.732
 8882SOL    HW127545   5.280   1.808   0.637
 8882SOL    HW227546   5.227   1.854   0.785
 8883SOL     OW27547   0.936   0.937   5.406
 8883SOL    HW127548   0.867   0.866   5.392
 8883SOL    HW227549   0.903   1.023   5.366
 8884SOL     OW27550   5.612   5.402   6.660
 8884SOL    HW127551   5.523   5.407   6.614
 8884SOL    HW227552   5.659   5.490   6.651
 8885SOL     OW27553   6.926   3.305   1.024
 8885SOL    HW127554   6.881   3.364   0.957
 8885SOL    HW227555   0.003   3.319   1.020
 8886SOL     OW27556   3.311   6.999   5.369
 8886SOL    HW127557   3.332   7.014   5.272
 8886SOL    HW227558   3.341   6.907   5.395
 8887SOL     OW27559   3.301   1.174   1.098
 8887SOL    HW127560   3.252   1.251   1.056
 8887SOL    HW227561   3.341   1.203   1.185
 8888SOL     OW27562   1.271   1.410   1.102
 8888SOL    HW127563   1.282   1.489   1.042
 8888SOL    HW227564   1.277   1.440   1.198
 8889SOL     OW27565   5.288   6.238   5.571
 8889SOL    HW127566   5.292   6.332   5.537
 8889SOL    HW227567   5.380   6.200   5.574
 8890SOL     OW27568   6.276   5.590   3.943
 8890SOL    HW127569   6.261   5.689   3.945
 8890SOL    HW227570   6.370   5.571   3.913
 8891SOL     OW27571   5.986   3.537   5.837
 8891SOL    HW127572   6.020   3.455   5.790
 8891SOL    HW227573   6.010   3.533   5.933
 8892SOL     OW27574   3.472   5.826   3.464
 8892SOL    HW127575   3.479   5.782   3.553
 8892SOL    HW227576   3.406   5.776   3.407
 8893SOL     OW27577   1.201   0.923   2.024
 8893SOL    HW127578   1.222   0.938   2.120
 8893SOL    HW227579   1.176   0.827   2.010
 8894SOL     OW27580   4.011   2.930   5.636
 8894SOL    HW127581   3.929   2.896   5.682
 8894SOL    HW227582   4.026   2.878   5.552
 8895SOL     OW27583   6.630   1.104   1.210
 8895SOL    HW127584   6.548   1.046   1.206
 8895SOL    HW227585   6.631   1.165   1.131
 8896SOL     OW27586   1.713   3.513   4.871
 8896SOL    HW127587   1.794   3.532   4.927
 8896SOL    HW227588   1.641   3.476   4.929
 8897SOL     OW27589   2.493   2.076   2.728
 8897SOL    HW127590   2.505   2.010   2.653
 8897SOL    HW227591   2.469   2.165   2.690
 8898SOL     OW27592   6.207   3.858   4.807
 8898SOL    HW127593   6.161   3.771   4.791
 8898SOL    HW227594   6.306   3.847   4.793
 8899SOL     OW27595   1.508   5.152   0.571
 8899SOL    HW127596   1.557   5.107   0.496
 8899SOL    HW227597   1.571   5.165   0.648
 8900SOL     OW27598   5.493   3.543   2.744
 8900SOL    HW127599   5.452   3.598   2.672
 8900SOL    HW227600   5.454   3.451   2.742
 8901SOL     OW27601   2.744   0.882   4.193
 8901SOL    HW127602   2.760   0.953   4.124
 8901SOL    HW227603   2.816   0.884   4.262
 8902SOL     OW27604   3.519   6.362   0.084
 8902SOL    HW127605   3.613   6.396   0.081
 8902SOL    HW227606   3.463   6.422   0.141
 8903SOL     OW27607   1.163   1.144   4.728
 8903SOL    HW127608   1.221   1.104   4.657
 8903SOL    HW227609   1.169   1.089   4.812
 8904SOL     OW27610   6.451   5.661   3.692
 8904SOL    HW127611   6.502   5.730   3.743
 8904SOL    HW227612   6.353   5.678   3.702
 8905SOL     OW27613   2.136   4.059   4.820
 8905SOL    HW127614   2.073   3.988   4.789
 8905SOL    HW227615   2.204   4.019   4.882
 8906SOL     OW27616   0.169   6.883   6.740
 8906SOL    HW127617   0.135   6.861   6.832
 8906SOL    HW227618   0.109   6.949   6.697
 8907SOL     OW27619   3.314   2.086   4.911
 8907SOL    HW127620   3.399   2.092   4.962
 8907SOL    HW227621   3.255   2.164   4.935
 8908SOL     OW27622   1.366   3.063   6.791
 8908SOL    HW127623   1.433   3.130   6.823
 8908SOL    HW227624   1.409   2.973   6.788
 8909SOL     OW27625   1.525   0.819   4.827
 8909SOL    HW127626   1.453   0.753   4.848
 8909SOL    HW227627   1.520   0.895   4.891
 8910SOL     OW27628   1.700   2.710   5.989
 8910SOL    HW127629   1.678   2.613   5.982
 8910SOL    HW227630   1.798   2.723   5.974
 8911SOL     OW27631   4.319   2.400   4.783
 8911SOL    HW127632   4.277   2.422   4.871
 8911SOL    HW227633   4.261   2.334   4.735
 8912SOL     OW27634   4.457   1.862   0.466
 8912SOL    HW127635   4.416   1.772   0.482
 8912SOL    HW227636   4.416   1.929   0.528
 8913SOL     OW27637   4.452   5.025   0.582
 8913SOL    HW127638   4.365   4.987   0.616
 8913SOL    HW227639   4.517   5.033   0.658
 8914SOL     OW27640   4.147   0.801   4.340
 8914SOL    HW127641   4.114   0.799   4.435
 8914SOL    HW227642   4.223   0.866   4.333
 8915SOL     OW27643   0.743   2.612   3.653
 8915SOL    HW127644   0.720   2.555   3.574
 8915SOL    HW227645   0.747   2.555   3.735
 8916SOL     OW27646   0.730   3.157   1.904
 8916SOL    HW127647   0.825   3.141   1.879
 8916SOL    HW227648   0.670   3.126   1.830
 8917SOL     OW27649   6.216   4.177   6.133
 8917SOL    HW127650   6.256   4.125   6.208
 8917SOL    HW227651   6.214   4.274   6.157
 8918SOL     OW27652   0.014   5.077   1.453
 8918SOL    HW127653   0.075   5.036   1.385
 8918SOL    HW227654   0.005   5.175   1.435
 8919SOL     OW27655   4.466   4.048   0.507
 8919SOL    HW127656   4.398   4.100   0.558
 8919SOL    HW227657   4.477   4.087   0.416
 8920SOL     OW27658   0.834   6.935   6.321
 8920SOL    HW127659   0.851   6.997   6.244
 8920SOL    HW227660   0.770   6.863   6.292
 8921SOL     OW27661   2.149   2.034   2.886
 8921SOL    HW127662   2.067   2.001   2.839
 8921SOL    HW227663   2.137   2.023   2.985
 8922SOL     OW27664   3.133   5.108   1.912
 8922SOL    HW127665   3.204   5.178   1.916
 8922SOL    HW227666   3.097   5.102   1.819
 8923SOL     OW27667   1.232   4.051   5.743
 8923SOL    HW127668   1.194   4.088   5.658
 8923SOL    HW227669   1.322   4.012   5.725
 8924SOL     OW27670   3.455   5.911   5.520
 8924SOL    HW127671   3.414   5.938   5.433
 8924SOL    HW227672   3.482   5.815   5.515
 8925SOL     OW27673   1.023   0.598   2.430
 8925SOL    HW127674   1.119   0.624   2.438
 8925SOL    HW227675   1.016   0.510   2.384
 8926SOL     OW27676   6.198   3.362   6.949
 8926SOL    HW127677   6.098   3.364   6.945
 8926SOL    HW227678   6.231   3.280   6.903
 8927SOL     OW27679   1.683   2.136   4.806
 8927SOL    HW127680   1.615   2.064   4.822
 8927SOL    HW227681   1.754   2.132   4.877
 8928SOL     OW27682   6.780   0.686   5.216
 8928SOL    HW127683   6.819   0.747   5.285
 8928SOL    HW227684   6.690   0.718   5.188
 8929SOL     OW27685   0.329   3.338   4.030
 8929SOL    HW127686   0.337   3.382   4.119
 8929SOL    HW227687   0.412   3.356   3.976
 8930SOL     OW27688   2.491   4.490   4.529
 8930SOL    HW127689   2.538   4.411   4.569
 8930SOL    HW227690   2.414   4.516   4.588
 8931SOL     OW27691   3.457   2.514   0.660
 8931SOL    HW127692   3.480   2.418   0.680
 8931SOL    HW227693   3.428   2.558   0.745
 8932SOL     OW27694   5.098   0.414   0.248
 8932SOL    HW127695   5.028   0.351   0.213
 8932SOL    HW227696   5.185   0.395   0.204
 8933SOL     OW27697   1.216   2.064   5.681
 8933SOL    HW127698   1.156   2.096   5.754
 8933SOL    HW227699   1.268   2.140   5.644
 8934SOL     OW27700   2.712   5.448   3.760
 8934SOL    HW127701   2.732   5.519   3.827
 8934SOL    HW227702   2.769   5.368   3.778
 8935SOL     OW27703   5.316   4.475   1.733
 8935SOL    HW127704   5.276   4.431   1.652
 8935SOL    HW227705   5.302   4.418   1.813
 8936SOL     OW27706   0.819   3.304   1.114
 8936SOL    HW127707   0.854   3.382   1.063
 8936SOL    HW227708   0.895   3.244   1.139
 8937SOL     OW27709   0.445   0.581   4.195
 8937SOL    HW127710   0.460   0.657   4.131
 8937SOL    HW227711   0.364   0.531   4.168
 8938SOL     OW27712   0.159   1.288   0.244
 8938SOL    HW127713   0.206   1.293   0.333
 8938SOL    HW227714   0.163   1.378   0.200
 8939SOL     OW27715   5.964   3.395   4.332
 8939SOL    HW127716   5.894   3.386   4.403
 8939SOL    HW227717   6.047   3.433   4.373
 8940SOL     OW27718   5.391   1.734   1.107
 8940SOL    HW127719   5.353   1.826   1.109
 8940SOL    HW227720   5.486   1.736   1.137
 8941SOL     OW27721   5.174   2.495   1.989
 8941SOL    HW127722   5.260   2.466   2.030
 8941SOL    HW227723   5.187   2.517   1.893
 8942SOL     OW27724   1.074   5.315   4.357
 8942SOL    HW127725   1.093   5.394   4.415
 8942SOL    HW227726   1.062   5.345   4.263
 8943SOL     OW27727   4.220   4.930   0.705
 8943SOL    HW127728   4.202   4.851   0.764
 8943SOL    HW227729   4.164   5.007   0.734
 8944SOL     OW27730   5.093   5.252   4.227
 8944SOL    HW127731   5.114   5.289   4.318
 8944SOL    HW227732   5.077   5.153   4.235
 8945SOL     OW27733   6.716   2.160   4.690
 8945SOL    HW127734   6.623   2.138   4.718
 8945SOL    HW227735   6.780   2.135   4.763
 8946SOL     OW27736   3.425   0.722   4.203
 8946SOL    HW127737   3.338   0.732   4.155
 8946SOL    HW227738   3.449   0.626   4.210
 8947SOL     OW27739   2.240   3.894   5.967
 8947SOL    HW127740   2.290   3.956   5.906
 8947SOL    HW227741   2.266   3.914   6.062
 8948SOL     OW27742   5.898   5.896   2.957
 8948SOL    HW127743   5.965   5.837   2.912
 8948SOL    HW227744   5.946   5.956   3.022
 8949SOL     OW27745   3.782   5.914   0.471
 8949SOL    HW127746   3.824   5.973   0.402
 8949SOL    HW227747   3.783   5.820   0.438
 8950SOL     OW27748   4.428   3.480   1.213
 8950SOL    HW127749   4.510   3.514   1.259
 8950SOL    HW227750   4.364   3.445   1.281
 8951SOL     OW27751   2.126   0.969   4.315
 8951SOL    HW127752   2.147   0.983   4.412
 8951SOL    HW227753   2.095   0.875   4.301
 8952SOL     OW27754   1.156   5.391   2.964
 8952SOL    HW127755   1.108   5.376   2.878
 8952SOL    HW227756   1.089   5.411   3.036
 8953SOL     OW27757   1.660   4.491   0.958
 8953SOL    HW127758   1.609   4.573   0.933
 8953SOL    HW227759   1.756   4.515   0.971
 8954SOL     OW27760   0.070   6.753   3.835
 8954SOL    HW127761   0.087   6.655   3.847
 8954SOL    HW227762   0.011   6.767   3.755
 8955SOL     OW27763   0.118   3.373   2.739
 8955SOL    HW127764   0.069   3.401   2.822
 8955SOL    HW227765   0.137   3.275   2.743
 8956SOL     OW27766   0.924   0.846   5.965
 8956SOL    HW127767   0.858   0.836   5.889
 8956SOL    HW227768   0.957   0.756   5.992
 8957SOL     OW27769   2.212   4.884   1.277
 8957SOL    HW127770   2.166   4.952   1.219
 8957SOL    HW227771   2.146   4.843   1.340
 8958SOL     OW27772   1.262   2.720   5.148
 8958SOL    HW127773   1.318   2.651   5.103
 8958SOL    HW227774   1.277   2.717   5.247
 8959SOL     OW27775   1.586   3.316   2.470
 8959SOL    HW127776   1.595   3.409   2.505
 8959SOL    HW227777   1.590   3.318   2.370
 8960SOL     OW27778   6.193   5.639   3.137
 8960SOL    HW127779   6.102   5.614   3.104
 8960SOL    HW227780   6.187   5.658   3.235
 8961SOL     OW27781   4.428   1.849   3.974
 8961SOL    HW127782   4.456   1.795   4.054
 8961SOL    HW227783   4.331   1.872   3.982
 8962SOL     OW27784   0.225   6.219   1.488
 8962SOL    HW127785   0.131   6.214   1.520
 8962SOL    HW227786   0.285   6.174   1.555
 8963SOL     OW27787   3.202   6.566   4.939
 8963SOL    HW127788   3.137   6.516   4.882
 8963SOL    HW227789   3.277   6.505   4.965
 8964SOL     OW27790   5.253   3.768   2.760
 8964SOL    HW127791   5.323   3.800   2.695
 8964SOL    HW227792   5.185   3.714   2.711
 8965SOL     OW27793   3.719   5.383   0.646
 8965SOL    HW127794   3.692   5.287   0.659
 8965SOL    HW227795   3.808   5.398   0.690
 8966SOL     OW27796   6.824   4.765   6.500
 8966SOL    HW127797   6.892   4.749   6.429
 8966SOL    HW227798   6.768   4.844   6.475
 8967SOL     OW27799   4.548   1.517   3.335
 8967SOL    HW127800   4.603   1.443   3.296
 8967SOL    HW227801   4.553   1.514   3.435
 8968SOL     OW27802   3.172   5.527   2.294
 8968SOL    HW127803   3.080   5.517   2.255
 8968SOL    HW227804   3.166   5.525   2.394
 8969SOL     OW27805   0.102   0.790   3.808
 8969SOL    HW127806   0.144   0.735   3.735
 8969SOL    HW227807   0.103   0.887   3.781
 8970SOL     OW27808   1.383   2.330   0.586
 8970SOL    HW127809   1.324   2.258   0.550
 8970SOL    HW227810   1.450   2.356   0.517
 8971SOL     OW27811   5.047   6.774   1.866
 8971SOL    HW127812   5.081   6.681   1.859
 8971SOL    HW227813   4.979   6.790   1.794
 8972SOL     OW27814   5.303   4.046   0.020
 8972SOL    HW127815   5.265   4.048   0.113
 8972SOL    HW227816   5.403   4.053   0.024
 8973SOL     OW27817   0.201   2.697   2.478
 8973SOL    HW127818   0.150   2.629   2.531
 8973SOL    HW227819   0.298   2.687   2.497
 8974SOL     OW27820   1.898   3.772   3.877
 8974SOL    HW127821   1.985   3.723   3.878
 8974SOL    HW227822   1.876   3.799   3.783
 8975SOL     OW27823   0.707   6.859   6.956
 8975SOL    HW127824   0.684   6.910   6.873
 8975SOL    HW227825   0.805   6.839   6.957
 8976SOL     OW27826   6.854   6.322   0.684
 8976SOL    HW127827   6.936   6.376   0.702
 8976SOL    HW227828   6.797   6.370   0.617
 8977SOL     OW27829   6.909   4.051   6.375
 8977SOL    HW127830   6.868   4.133   6.416
 8977SOL    HW227831   7.006   4.049   6.396
 8978SOL     OW27832   5.112   6.551   4.822
 8978SOL    HW127833   5.106   6.583   4.728
 8978SOL    HW227834   5.039   6.593   4.876
 8979SOL     OW27835   1.052   5.525   6.093
 8979SOL    HW127836   1.042   5.455   6.163
 8979SOL    HW227837   0.963   5.569   6.078
 8980SOL     OW27838   5.401   2.130   5.912
 8980SOL    HW127839   5.407   2.087   5.822
 8980SOL    HW227840   5.439   2.069   5.981
 8981SOL     OW27841   4.841   2.075   5.704
 8981SOL    HW127842   4.796   2.086   5.793
 8981SOL    HW227843   4.853   2.165   5.662
 8982SOL     OW27844   0.030   2.080   1.332
 8982SOL    HW127845   6.996   2.139   1.389
 8982SOL    HW227846   0.118   2.125   1.315
 8983SOL     OW27847   1.086   5.338   1.440
 8983SOL    HW127848   1.054   5.249   1.473
 8983SOL    HW227849   1.097   5.335   1.340
 8984SOL     OW27850   6.021   0.511   4.600
 8984SOL    HW127851   5.991   0.581   4.664
 8984SOL    HW227852   6.095   0.458   4.640
 8985SOL     OW27853   3.402   2.424   1.223
 8985SOL    HW127854   3.324   2.398   1.280
 8985SOL    HW227855   3.430   2.517   1.245
 8986SOL     OW27856   5.523   4.561   2.545
 8986SOL    HW127857   5.582   4.482   2.525
 8986SOL    HW227858   5.466   4.541   2.625
 8987SOL     OW27859   3.316   0.605   1.067
 8987SOL    HW127860   3.327   0.569   1.160
 8987SOL    HW227861   3.393   0.666   1.046
 8988SOL     OW27862   1.877   5.572   0.083
 8988SOL    HW127863   1.819   5.492   0.097
 8988SOL    HW227864   1.924   5.595   0.168
 8989SOL     OW27865   4.888   3.184   2.649
 8989SOL    HW127866   4.984   3.210   2.646
 8989SOL    HW227867   4.861   3.165   2.743
 8990SOL     OW27868   1.970   6.065   1.776
 8990SOL    HW127869   1.912   6.145   1.761
 8990SOL    HW227870   1.954   5.998   1.703
 8991SOL     OW27871   2.581   2.087   1.453
 8991SOL    HW127872   2.528   2.003   1.470
 8991SOL    HW227873   2.653   2.068   1.386
 8992SOL     OW27874   0.431   2.912   0.542
 8992SOL    HW127875   0.414   2.873   0.451
 8992SOL    HW227876   0.530   2.917   0.557
 8993SOL     OW27877   5.253   2.524   2.698
 8993SOL    HW127878   5.222   2.617   2.676
 8993SOL    HW227879   5.351   2.516   2.680
 8994SOL     OW27880   1.631   5.068   4.065
 8994SOL    HW127881   1.676   5.052   3.977
 8994SOL    HW227882   1.663   5.000   4.131
 8995SOL     OW27883   1.382   2.498   5.016
 8995SOL    HW127884   1.325   2.420   4.991
 8995SOL    HW227885   1.469   2.493   4.968
 8996SOL     OW27886   0.791   3.884   2.136
 8996SOL    HW127887   0.808   3.786   2.140
 8996SOL    HW227888   0.708   3.906   2.188
 8997SOL     OW27889   5.072   0.791   6.617
 8997SOL    HW127890   5.107   0.832   6.701
 8997SOL    HW227891   5.116   0.703   6.602
 8998SOL     OW27892   0.294   1.751   4.742
 8998SOL    HW127893   0.247   1.664   4.731
 8998SOL    HW227894   0.347   1.771   4.659
 8999SOL     OW27895   4.870   0.808   6.919
 8999SOL    HW127896   4.943   0.829   6.854
 8999SOL    HW227897   4.882   0.716   6.955
 9000SOL     OW27898   2.604   3.866   6.221
 9000SOL    HW127899   2.578   3.925   6.145
 9000SOL    HW227900   2.627   3.775   6.186
 9001SOL     OW27901   1.220   5.081   2.819
 9001SOL    HW127902   1.125   5.081   2.849
 9001SOL    HW227903   1.263   4.995   2.847
 9002SOL     OW27904   0.618   5.434   5.637
 9002SOL    HW127905   0.634   5.527   5.604
 9002SOL    HW227906   0.520   5.420   5.651
 9003SOL     OW27907   6.067   2.121   1.017
 9003SOL    HW127908   6.037   2.179   1.092
 9003SOL    HW227909   6.149   2.160   0.976
 9004SOL     OW27910   4.868   6.514   1.918
 9004SOL    HW127911   4.865   6.611   1.940
 9004SOL    HW227912   4.928   6.500   1.839
 9005SOL     OW27913   5.294   2.212   3.333
 9005SOL    HW127914   5.223   2.218   3.262
 9005SOL    HW227915   5.377   2.171   3.294
 9006SOL     OW27916   1.040   5.993   0.992
 9006SOL    HW127917   1.028   6.044   0.906
 9006SOL    HW227918   1.023   5.896   0.975
 9007SOL     OW27919   3.467   5.485   3.870
 9007SOL    HW127920   3.411   5.437   3.937
 9007SOL    HW227921   3.530   5.420   3.826
 9008SOL     OW27922   6.258   5.168   2.727
 9008SOL    HW127923   6.351   5.146   2.696
 9008SOL    HW227924   6.195   5.164   2.650
 9009SOL     OW27925   3.527   6.890   0.832
 9009SOL    HW127926   3.548   6.823   0.903
 9009SOL    HW227927   3.437   6.930   0.851
 9010SOL     OW27928   0.699   6.575   4.942
 9010SOL    HW127929   0.629   6.534   4.884
 9010SOL    HW227930   0.658   6.599   5.031
 9011SOL     OW27931   3.796   2.371   1.252
 9011SOL    HW127932   3.888   2.407   1.240
 9011SOL    HW227933   3.737   2.406   1.179
 9012SOL     OW27934   2.571   5.410   0.620
 9012SOL    HW127935   2.600   5.318   0.596
 9012SOL    HW227936   2.603   5.432   0.712
 9013SOL     OW27937   6.382   6.030   5.008
 9013SOL    HW127938   6.470   6.060   5.045
 9013SOL    HW227939   6.357   6.088   4.930
 9014SOL     OW27940   1.409   1.558   0.683
 9014SOL    HW127941   1.451   1.480   0.637
 9014SOL    HW227942   1.410   1.637   0.623
 9015SOL     OW27943   6.260   1.085   6.958
 9015SOL    HW127944   6.329   1.114   6.892
 9015SOL    HW227945   6.205   1.011   6.919
 9016SOL     OW27946   6.539   5.990   6.048
 9016SOL    HW127947   6.481   6.069   6.028
 9016SOL    HW227948   6.487   5.923   6.102
 9017SOL     OW27949   5.775   2.117   3.224
 9017SOL    HW127950   5.842   2.071   3.165
 9017SOL    HW227951   5.799   2.213   3.232
 9018SOL     OW27952   3.927   1.497   5.507
 9018SOL    HW127953   3.891   1.588   5.488
 9018SOL    HW227954   3.899   1.469   5.599
 9019SOL     OW27955   1.541   6.712   0.750
 9019SOL    HW127956   1.581   6.694   0.839
 9019SOL    HW227957   1.441   6.718   0.759
 9020SOL     OW27958   1.798   3.851   2.091
 9020SOL    HW127959   1.803   3.763   2.138
 9020SOL    HW227960   1.758   3.920   2.152
 9021SOL     OW27961   6.741   0.219   3.921
 9021SOL    HW127962   6.824   0.164   3.930
 9021SOL    HW227963   6.701   0.205   3.831
 9022SOL     OW27964   2.745   0.478   0.665
 9022SOL    HW127965   2.818   0.411   0.662
 9022SOL    HW227966   2.773   0.555   0.722
 9023SOL     OW27967   3.935   3.316   3.396
 9023SOL    HW127968   3.850   3.364   3.372
 9023SOL    HW227969   4.013   3.374   3.372
 9024SOL     OW27970   1.856   5.892   6.117
 9024SOL    HW127971   1.865   5.798   6.085
 9024SOL    HW227972   1.764   5.908   6.151
 9025SOL     OW27973   6.103   6.024   1.045
 9025SOL    HW127974   6.169   6.080   0.993
 9025SOL    HW227975   6.016   6.072   1.051
 9026SOL     OW27976   3.803   3.281   3.676
 9026SOL    HW127977   3.795   3.263   3.578
 9026SOL    HW227978   3.856   3.209   3.719
 9027SOL     OW27979   2.739   1.987   3.834
 9027SOL    HW127980   2.794   1.929   3.773
 9027SOL    HW227981   2.779   1.985   3.926
 9028SOL     OW27982   2.514   4.685   6.390
 9028SOL    HW127983   2.471   4.649   6.473
 9028SOL    HW227984   2.458   4.660   6.311
 9029SOL     OW27985   3.730   5.245   4.694
 9029SOL    HW127986   3.632   5.243   4.677
 9029SOL    HW227987   3.768   5.154   4.680
 9030SOL     OW27988   1.799   1.123   2.785
 9030SOL    HW127989   1.701   1.132   2.765
 9030SOL    HW227990   1.852   1.167   2.712
 9031SOL     OW27991   3.178   5.333   5.424
 9031SOL    HW127992   3.263   5.290   5.455
 9031SOL    HW227993   3.175   5.427   5.457
 9032SOL     OW27994   3.787   2.614   0.776
 9032SOL    HW127995   3.846   2.690   0.804
 9032SOL    HW227996   3.692   2.636   0.797
 9033SOL     OW27997   1.298   3.370   3.816
 9033SOL    HW127998   1.203   3.342   3.804
 9033SOL    HW227999   1.352   3.293   3.848
 9034SOL     OW28000   2.737   6.568   5.167
 9034SOL    HW128001   2.751   6.620   5.083
 9034SOL    HW228002   2.639   6.550   5.179
 9035SOL     OW28003   0.287   6.550   4.963
 9035SOL    HW128004   0.330   6.529   5.051
 9035SOL    HW228005   0.307   6.644   4.938
 9036SOL     OW28006   1.887   2.134   4.998
 9036SOL    HW128007   1.945   2.153   4.919
 9036SOL    HW228008   1.943   2.126   5.080
 9037SOL     OW28009   1.690   3.528   6.678
 9037SOL    HW128010   1.682   3.476   6.593
 9037SOL    HW228011   1.783   3.518   6.714
 9038SOL     OW28012   5.375   0.329   5.595
 9038SOL    HW128013   5.430   0.350   5.514
 9038SOL    HW228014   5.288   0.378   5.590
 9039SOL     OW28015   1.736   4.404   5.121
 9039SOL    HW128016   1.732   4.499   5.090
 9039SOL    HW228017   1.690   4.345   5.054
 9040SOL     OW28018   3.152   1.408   3.520
 9040SOL    HW128019   3.223   1.363   3.574
 9040SOL    HW228020   3.190   1.490   3.478
 9041SOL     OW28021   1.095   1.916   2.006
 9041SOL    HW128022   1.102   1.817   1.991
 9041SOL    HW228023   1.161   1.944   2.075
 9042SOL     OW28024   2.583   6.256   3.666
 9042SOL    HW128025   2.487   6.267   3.640
 9042SOL    HW228026   2.622   6.346   3.685
 9043SOL     OW28027   2.295   1.548   5.643
 9043SOL    HW128028   2.318   1.644   5.630
 9043SOL    HW228029   2.265   1.508   5.556
 9044SOL     OW28030   6.261   1.383   1.374
 9044SOL    HW128031   6.209   1.301   1.399
 9044SOL    HW228032   6.320   1.362   1.296
 9045SOL     OW28033   3.542   1.540   1.953
 9045SOL    HW128034   3.486   1.592   2.017
 9045SOL    HW228035   3.630   1.519   1.995
 9046SOL     OW28036   3.422   4.190   4.707
 9046SOL    HW128037   3.466   4.158   4.791
 9046SOL    HW228038   3.477   4.265   4.667
 9047SOL     OW28039   1.806   4.057   5.434
 9047SOL    HW128040   1.747   4.110   5.495
 9047SOL    HW228041   1.800   3.960   5.459
 9048SOL     OW28042   0.256   3.279   6.056
 9048SOL    HW128043   0.160   3.251   6.051
 9048SOL    HW228044   0.302   3.228   6.128
 9049SOL     OW28045   5.021   6.361   6.643
 9049SOL    HW128046   4.972   6.296   6.584
 9049SOL    HW228047   5.051   6.314   6.726
 9050SOL     OW28048   1.434   5.512   6.267
 9050SOL    HW128049   1.425   5.417   6.236
 9050SOL    HW228050   1.422   5.573   6.189
 9051SOL     OW28051   4.499   6.414   0.997
 9051SOL    HW128052   4.414   6.466   1.012
 9051SOL    HW228053   4.577   6.475   1.004
 9052SOL     OW28054   2.198   3.952   4.348
 9052SOL    HW128055   2.193   4.029   4.412
 9052SOL    HW228056   2.264   3.885   4.381
 9053SOL     OW28057   2.383   1.584   3.722
 9053SOL    HW128058   2.400   1.626   3.633
 9053SOL    HW228059   2.334   1.649   3.780
 9054SOL     OW28060   1.553   0.932   1.924
 9054SOL    HW128061   1.578   0.951   1.829
 9054SOL    HW228062   1.466   0.884   1.927
 9055SOL     OW28063   0.476   3.983   3.650
 9055SOL    HW128064   0.570   4.016   3.634
 9055SOL    HW228065   0.459   3.978   3.748
 9056SOL     OW28066   4.986   0.245   1.827
 9056SOL    HW128067   4.931   0.267   1.746
 9056SOL    HW228068   4.943   0.286   1.908
 9057SOL     OW28069   6.611   4.646   5.857
 9057SOL    HW128070   6.607   4.725   5.796
 9057SOL    HW228071   6.521   4.632   5.899
 9058SOL     OW28072   2.523   1.500   3.999
 9058SOL    HW128073   2.433   1.480   4.036
 9058SOL    HW228074   2.518   1.505   3.899
 9059SOL     OW28075   0.076   0.495   3.303
 9059SOL    HW128076   0.139   0.441   3.247
 9059SOL    HW228077   0.087   0.470   3.399
 9060SOL     OW28078   6.583   4.141   2.634
 9060SOL    HW128079   6.582   4.214   2.702
 9060SOL    HW228080   6.678   4.121   2.609
 9061SOL     OW28081   4.427   5.720   2.865
 9061SOL    HW128082   4.524   5.698   2.857
 9061SOL    HW228083   4.400   5.778   2.788
 9062SOL     OW28084   0.662   4.661   2.573
 9062SOL    HW128085   0.622   4.616   2.653
 9062SOL    HW228086   0.733   4.725   2.602
 9063SOL     OW28087   3.071   0.502   2.110
 9063SOL    HW128088   3.108   0.420   2.153
 9063SOL    HW228089   2.974   0.511   2.133
 9064SOL     OW28090   6.165   4.362   4.069
 9064SOL    HW128091   6.265   4.362   4.075
 9064SOL    HW228092   6.136   4.433   4.004
 9065SOL     OW28093   2.692   6.175   6.379
 9065SOL    HW128094   2.625   6.144   6.311
 9065SOL    HW228095   2.775   6.207   6.332
 9066SOL     OW28096   5.920   0.209   6.259
 9066SOL    HW128097   5.849   0.280   6.262
 9066SOL    HW228098   5.964   0.202   6.349
 9067SOL     OW28099   6.040   6.066   4.530
 9067SOL    HW128100   6.076   6.061   4.437
 9067SOL    HW228101   5.949   6.108   4.529
 9068SOL     OW28102   3.231   0.393   5.273
 9068SOL    HW128103   3.250   0.427   5.181
 9068SOL    HW228104   3.197   0.468   5.330
 9069SOL     OW28105   3.916   2.171   2.232
 9069SOL    HW128106   3.898   2.207   2.141
 9069SOL    HW228107   3.969   2.238   2.285
 9070SOL     OW28108   1.418   2.898   6.413
 9070SOL    HW128109   1.479   2.904   6.333
 9070SOL    HW228110   1.329   2.864   6.383
 9071SOL     OW28111   4.945   6.989   6.877
 9071SOL    HW128112   4.926   7.012   6.781
 9071SOL    HW228113   4.916   6.895   6.895
 9072SOL     OW28114   5.200   6.966   1.505
 9072SOL    HW128115   5.237   0.024   1.553
 9072SOL    HW228116   5.106   6.984   1.477
 9073SOL     OW28117   3.589   6.735   1.282
 9073SOL    HW128118   3.609   6.695   1.193
 9073SOL    HW228119   3.530   6.673   1.334
 9074SOL     OW28120   1.709   0.755   1.461
 9074SOL    HW128121   1.780   0.819   1.492
 9074SOL    HW228122   1.733   0.663   1.490
 9075SOL     OW28123   0.636   0.229   1.769
 9075SOL    HW128124   0.598   0.252   1.858
 9075SOL    HW228125   0.714   0.289   1.749
 9076SOL     OW28126   4.841   1.924   4.417
 9076SOL    HW128127   4.939   1.941   4.429
 9076SOL    HW228128   4.824   1.897   4.322
 9077SOL     OW28129   4.953   1.223   6.690
 9077SOL    HW128130   5.033   1.170   6.662
 9077SOL    HW228131   4.978   1.320   6.698
 9078SOL     OW28132   4.832   4.161   6.945
 9078SOL    HW128133   4.753   4.203   6.899
 9078SOL    HW228134   4.916   4.199   6.908
 9079SOL     OW28135   1.339   6.806   5.055
 9079SOL    HW128136   1.250   6.769   5.029
 9079SOL    HW228137   1.374   6.864   4.981
 9080SOL     OW28138   6.096   2.810   0.228
 9080SOL    HW128139   6.105   2.902   0.266
 9080SOL    HW228140   6.020   2.764   0.273
 9081SOL     OW28141   3.305   1.007   1.953
 9081SOL    HW128142   3.331   1.054   1.869
 9081SOL    HW228143   3.207   0.989   1.952
 9082SOL     OW28144   2.042   6.211   5.391
 9082SOL    HW128145   2.015   6.186   5.484
 9082SOL    HW228146   2.053   6.310   5.385
 9083SOL     OW28147   3.844   4.191   6.179
 9083SOL    HW128148   3.852   4.113   6.242
 9083SOL    HW228149   3.901   4.266   6.211
 9084SOL     OW28150   1.429   2.288   6.427
 9084SOL    HW128151   1.470   2.371   6.389
 9084SOL    HW228152   1.373   2.312   6.506
 9085SOL     OW28153   2.124   5.845   1.306
 9085SOL    HW128154   2.112   5.767   1.244
 9085SOL    HW228155   2.145   5.811   1.397
 9086SOL     OW28156   6.046   3.960   1.378
 9086SOL    HW128157   6.109   3.999   1.445
 9086SOL    HW228158   6.085   3.877   1.339
 9087SOL     OW28159   5.050   3.279   1.948
 9087SOL    HW128160   5.072   3.182   1.948
 9087SOL    HW228161   5.078   3.320   2.035
 9088SOL     OW28162   6.778   6.654   0.761
 9088SOL    HW128163   6.846   6.686   0.695
 9088SOL    HW228164   6.825   6.617   0.842
 9089SOL     OW28165   3.765   6.072   5.671
 9089SOL    HW128166   3.688   6.125   5.633
 9089SOL    HW228167   3.851   6.118   5.649
 9090SOL     OW28168   5.295   6.931   3.590
 9090SOL    HW128169   5.265   6.996   3.659
 9090SOL    HW228170   5.386   6.958   3.556
 9091SOL     OW28171   2.610   3.433   0.482
 9091SOL    HW128172   2.579   3.522   0.448
 9091SOL    HW228173   2.691   3.404   0.431
 9092SOL     OW28174   0.619   1.678   0.090
 9092SOL    HW128175   0.539   1.635   0.049
 9092SOL    HW228176   0.692   1.685   0.022
 9093SOL     OW28177   1.352   5.984   6.649
 9093SOL    HW128178   1.391   6.058   6.593
 9093SOL    HW228179   1.414   5.905   6.646
 9094SOL     OW28180   0.680   5.374   2.671
 9094SOL    HW128181   0.590   5.409   2.645
 9094SOL    HW228182   0.686   5.370   2.771
 9095SOL     OW28183   3.987   3.729   6.285
 9095SOL    HW128184   3.970   3.663   6.358
 9095SOL    HW228185   3.914   3.798   6.285
 9096SOL     OW28186   5.789   3.840   2.433
 9096SOL    HW128187   5.787   3.741   2.447
 9096SOL    HW228188   5.721   3.866   2.364
 9097SOL     OW28189   0.577   2.900   6.675
 9097SOL    HW128190   0.540   2.992   6.674
 9097SOL    HW228191   0.539   2.848   6.597
 9098SOL     OW28192   3.527   2.829   6.756
 9098SOL    HW128193   3.437   2.803   6.720
 9098SOL    HW228194   3.516   2.877   6.843
 9099SOL     OW28195   3.962   4.142   0.618
 9099SOL    HW128196   3.976   4.206   0.693
 9099SOL    HW228197   3.866   4.141   0.591
 9100SOL     OW28198   1.266   3.414   3.005
 9100SOL    HW128199   1.202   3.425   2.929
 9100SOL    HW228200   1.254   3.323   3.046
 9101SOL     OW28201   2.129   2.892   3.083
 9101SOL    HW128202   2.170   2.981   3.103
 9101SOL    HW228203   2.129   2.877   2.984
 9102SOL     OW28204   3.503   6.643   2.136
 9102SOL    HW128205   3.487   6.619   2.231
 9102SOL    HW228206   3.420   6.627   2.083
 9103SOL     OW28207   6.672   3.936   0.051
 9103SOL    HW128208   6.660   3.920   6.976
 9103SOL    HW228209   6.633   3.858   0.102
 9104SOL     OW28210   4.621   6.552   3.082
 9104SOL    HW128211   4.644   6.457   3.105
 9104SOL    HW228212   4.622   6.564   2.983
 9105SOL     OW28213   1.833   0.943   0.731
 9105SOL    HW128214   1.895   1.016   0.703
 9105SOL    HW228215   1.807   0.955   0.827
 9106SOL     OW28216   6.741   4.507   0.274
 9106SOL    HW128217   6.818   4.571   0.284
 9106SOL    HW228218   6.776   4.418   0.244
 9107SOL     OW28219   2.992   0.338   6.077
 9107SOL    HW128220   3.073   0.396   6.065
 9107SOL    HW228221   2.988   0.305   6.171
 9108SOL     OW28222   5.069   3.918   6.022
 9108SOL    HW128223   5.140   3.983   6.049
 9108SOL    HW228224   5.040   3.865   6.102
 9109SOL     OW28225   1.005   2.625   2.831
 9109SOL    HW128226   0.966   2.536   2.851
 9109SOL    HW228227   0.947   2.697   2.870
 9110SOL     OW28228   1.952   4.197   4.089
 9110SOL    HW128229   2.010   4.166   4.014
 9110SOL    HW228230   1.940   4.123   4.155
 9111SOL     OW28231   4.389   2.862   0.259
 9111SOL    HW128232   4.357   2.952   0.230
 9111SOL    HW228233   4.470   2.837   0.207
 9112SOL     OW28234   0.908   4.817   5.142
 9112SOL    HW128235   1.001   4.839   5.172
 9112SOL    HW228236   0.843   4.880   5.184
 9113SOL     OW28237   4.484   6.909   1.732
 9113SOL    HW128238   4.406   6.964   1.763
 9113SOL    HW228239   4.563   6.969   1.717
 9114SOL     OW28240   1.190   4.734   1.666
 9114SOL    HW128241   1.105   4.709   1.712
 9114SOL    HW228242   1.267   4.697   1.718
 9115SOL     OW28243   1.152   4.807   5.321
 9115SOL    HW128244   1.210   4.783   5.243
 9115SOL    HW228245   1.191   4.770   5.405
 9116SOL     OW28246   6.373   1.253   0.124
 9116SOL    HW128247   6.347   1.161   0.096
 9116SOL    HW228248   6.390   1.310   0.044
 9117SOL     OW28249   5.658   2.912   0.366
 9117SOL    HW128250   5.741   2.897   0.419
 9117SOL    HW228251   5.580   2.918   0.429
 9118SOL     OW28252   6.527   5.215   0.088
 9118SOL    HW128253   6.599   5.172   0.143
 9118SOL    HW228254   6.568   5.278   0.022
 9119SOL     OW28255   4.849   0.386   1.623
 9119SOL    HW128256   4.774   0.320   1.621
 9119SOL    HW228257   4.838   0.451   1.547
 9120SOL     OW28258   5.981   1.842   5.836
 9120SOL    HW128259   5.944   1.865   5.746
 9120SOL    HW228260   6.079   1.860   5.838
 9121SOL     OW28261   2.462   2.392   5.733
 9121SOL    HW128262   2.414   2.396   5.645
 9121SOL    HW228263   2.497   2.299   5.747
 9122SOL     OW28264   1.861   4.317   2.243
 9122SOL    HW128265   1.846   4.222   2.273
 9122SOL    HW228266   1.792   4.376   2.286
 9123SOL     OW28267   3.333   0.365   4.408
 9123SOL    HW128268   3.397   0.411   4.346
 9123SOL    HW228269   3.261   0.321   4.354
 9124SOL     OW28270   5.343   6.667   6.865
 9124SOL    HW128271   5.405   6.613   6.808
 9124SOL    HW228272   5.251   6.667   6.824
 9125SOL     OW28273   5.199   4.684   1.536
 9125SOL    HW128274   5.265   4.638   1.595
 9125SOL    HW228275   5.140   4.616   1.492
 9126SOL     OW28276   6.110   2.616   1.573
 9126SOL    HW128277   6.026   2.566   1.549
 9126SOL    HW228278   6.153   2.649   1.489
 9127SOL     OW28279   6.493   1.336   6.136
 9127SOL    HW128280   6.448   1.416   6.177
 9127SOL    HW228281   6.544   1.287   6.206
 9128SOL     OW28282   5.093   1.564   5.210
 9128SOL    HW128283   5.032   1.636   5.175
 9128SOL    HW228284   5.168   1.550   5.145
 9129SOL     OW28285   0.256   2.458   0.921
 9129SOL    HW128286   0.305   2.431   0.838
 9129SOL    HW228287   0.302   2.537   0.962
 9130SOL     OW28288   0.176   3.338   0.860
 9130SOL    HW128289   0.195   3.419   0.805
 9130SOL    HW228290   0.229   3.261   0.824
 9131SOL     OW28291   6.281   3.053   5.340
 9131SOL    HW128292   6.263   3.147   5.313
 9131SOL    HW228293   6.198   2.998   5.326
 9132SOL     OW28294   0.784   5.300   4.398
 9132SOL    HW128295   0.787   5.207   4.433
 9132SOL    HW228296   0.858   5.315   4.333
 9133SOL     OW28297   4.060   5.697   2.551
 9133SOL    HW128298   4.055   5.768   2.480
 9133SOL    HW228299   3.999   5.722   2.627
 9134SOL     OW28300   4.916   5.473   0.417
 9134SOL    HW128301   4.876   5.560   0.389
 9134SOL    HW228302   4.844   5.403   0.421
 9135SOL     OW28303   6.661   6.827   1.463
 9135SOL    HW128304   6.692   6.914   1.502
 9135SOL    HW228305   6.723   6.754   1.490
 9136SOL     OW28306   5.327   5.147   5.832
 9136SOL    HW128307   5.382   5.068   5.804
 9136SOL    HW228308   5.290   5.192   5.750
 9137SOL     OW28309   4.728   1.613   1.266
 9137SOL    HW128310   4.737   1.651   1.174
 9137SOL    HW228311   4.806   1.553   1.285
 9138SOL     OW28312   0.471   5.562   6.029
 9138SOL    HW128313   0.549   5.524   5.979
 9138SOL    HW228314   0.481   5.661   6.037
 9139SOL     OW28315   2.525   1.282   4.754
 9139SOL    HW128316   2.553   1.219   4.682
 9139SOL    HW228317   2.602   1.297   4.817
 9140SOL     OW28318   6.321   3.679   3.033
 9140SOL    HW128319   6.296   3.663   3.129
 9140SOL    HW228320   6.274   3.612   2.975
 9141SOL     OW28321   5.803   0.298   0.038
 9141SOL    HW128322   5.871   0.250   7.006
 9141SOL    HW228323   5.713   0.257   0.022
 9142SOL     OW28324   0.369   2.637   1.400
 9142SOL    HW128325   0.314   2.587   1.467
 9142SOL    HW228326   0.450   2.675   1.445
 9143SOL     OW28327   6.473   3.112   0.367
 9143SOL    HW128328   6.517   3.023   0.376
 9143SOL    HW228329   6.524   3.168   0.301
 9144SOL     OW28330   2.255   5.242   5.396
 9144SOL    HW128331   2.350   5.273   5.404
 9144SOL    HW228332   2.243   5.191   5.311
 9145SOL     OW28333   0.167   5.534   0.123
 9145SOL    HW128334   0.166   5.512   0.025
 9145SOL    HW228335   0.095   5.602   0.142
 9146SOL     OW28336   5.489   3.039   3.000
 9146SOL    HW128337   5.555   3.022   2.927
 9146SOL    HW228338   5.538   3.056   3.086
 9147SOL     OW28339   6.117   0.845   4.570
 9147SOL    HW128340   6.200   0.835   4.626
 9147SOL    HW228341   6.072   0.931   4.592
 9148SOL     OW28342   4.699   5.632   0.923
 9148SOL    HW128343   4.729   5.621   0.828
 9148SOL    HW228344   4.602   5.607   0.929
 9149SOL     OW28345   5.942   3.641   3.262
 9149SOL    HW128346   5.957   3.583   3.182
 9149SOL    HW228347   5.909   3.585   3.338
 9150SOL     OW28348   3.111   5.361   1.595
 9150SOL    HW128349   3.107   5.261   1.608
 9150SOL    HW228350   3.131   5.382   1.500
 9151SOL     OW28351   1.900   4.423   3.420
 9151SOL    HW128352   1.942   4.342   3.379
 9151SOL    HW228353   1.972   4.485   3.450
 9152SOL     OW28354   1.911   4.353   4.642
 9152SOL    HW128355   1.833   4.390   4.692
 9152SOL    HW228356   1.990   4.347   4.704
 9153SOL     OW28357   1.485   3.302   0.085
 9153SOL    HW128358   1.526   3.305   7.016
 9153SOL    HW228359   1.553   3.267   0.150
 9154SOL     OW28360   4.159   4.460   6.720
 9154SOL    HW128361   4.137   4.365   6.742
 9154SOL    HW228362   4.149   4.516   6.802
 9155SOL     OW28363   1.564   4.199   2.144
 9155SOL    HW128364   1.618   4.128   2.190
 9155SOL    HW228365   1.597   4.209   2.050
 9156SOL     OW28366   1.489   2.347   0.826
 9156SOL    HW128367   1.510   2.252   0.849
 9156SOL    HW228368   1.459   2.353   0.731
 9157SOL     OW28369   0.086   4.465   5.987
 9157SOL    HW128370   0.135   4.535   6.039
 9157SOL    HW228371   7.013   4.493   5.975
 9158SOL     OW28372   5.593   3.402   4.560
 9158SOL    HW128373   5.551   3.478   4.610
 9158SOL    HW228374   5.551   3.316   4.587
 9159SOL     OW28375   1.832   0.549   2.304
 9159SOL    HW128376   1.825   0.451   2.288
 9159SOL    HW228377   1.769   0.598   2.244
 9160SOL     OW28378   5.623   6.746   5.371
 9160SOL    HW128379   5.675   6.805   5.309
 9160SOL    HW228380   5.591   6.665   5.321
 9161SOL     OW28381   4.928   4.122   4.633
 9161SOL    HW128382   4.991   4.159   4.701
 9161SOL    HW228383   4.855   4.188   4.615
 9162SOL     OW28384   4.349   1.440   4.233
 9162SOL    HW128385   4.325   1.448   4.137
 9162SOL    HW228386   4.347   1.344   4.260
 9163SOL     OW28387   1.508   2.701   4.520
 9163SOL    HW128388   1.495   2.775   4.587
 9163SOL    HW228389   1.582   2.641   4.551
 9164SOL     OW28390   2.168   0.211   6.923
 9164SOL    HW128391   2.146   0.149   6.998
 9164SOL    HW228392   2.085   0.227   6.869
 9165SOL     OW28393   6.113   1.540   6.111
 9165SOL    HW128394   6.173   1.571   6.037
 9165SOL    HW228395   6.071   1.453   6.086
 9166SOL     OW28396   3.979   6.058   1.875
 9166SOL    HW128397   3.958   6.028   1.783
 9166SOL    HW228398   4.077   6.076   1.883
 9167SOL     OW28399   1.978   2.681   6.234
 9167SOL    HW128400   1.981   2.727   6.145
 9167SOL    HW228401   2.071   2.652   6.259
 9168SOL     OW28402   6.805   6.909   6.369
 9168SOL    HW128403   6.858   6.899   6.285
 9168SOL    HW228404   6.847   6.981   6.426
 9169SOL     OW28405   5.733   6.935   5.193
 9169SOL    HW128406   5.748   6.905   5.099
 9169SOL    HW228407   5.804   7.000   5.219
 9170SOL     OW28408   1.494   6.093   6.903
 9170SOL    HW128409   1.431   6.052   6.837
 9170SOL    HW228410   1.509   6.189   6.881
 9171SOL     OW28411   3.922   4.936   0.766
 9171SOL    HW128412   3.837   4.978   0.734
 9171SOL    HW228413   3.992   5.007   0.775
 9172SOL     OW28414   3.995   1.133   2.338
 9172SOL    HW128415   4.008   1.042   2.300
 9172SOL    HW228416   3.899   1.145   2.363
 9173SOL     OW28417   6.354   3.485   6.246
 9173SOL    HW128418   6.331   3.390   6.225
 9173SOL    HW228419   6.344   3.540   6.164
 9174SOL     OW28420   6.072   4.109   1.031
 9174SOL    HW128421   5.974   4.115   1.047
 9174SOL    HW228422   6.118   4.188   1.071
 9175SOL     OW28423   0.350   6.883   5.583
 9175SOL    HW128424   0.437   6.933   5.582
 9175SOL    HW228425   0.300   6.907   5.666
 9176SOL     OW28426   2.450   1.071   3.967
 9176SOL    HW128427   2.432   1.003   4.038
 9176SOL    HW228428   2.496   1.150   4.006
 9177SOL     OW28429   0.594   4.732   4.524
 9177SOL    HW128430   0.549   4.759   4.609
 9177SOL    HW228431   0.677   4.680   4.545
 9178SOL     OW28432   1.716   5.522   0.504
 9178SOL    HW128433   1.625   5.519   0.547
 9178SOL    HW228434   1.784   5.543   0.574
 9179SOL     OW28435   2.281   4.207   3.586
 9179SOL    HW128436   2.297   4.108   3.580
 9179SOL    HW228437   2.291   4.237   3.680
 9180SOL     OW28438   6.693   2.490   3.503
 9180SOL    HW128439   6.713   2.459   3.410
 9180SOL    HW228440   6.705   2.414   3.566
 9181SOL     OW28441   5.285   2.639   5.092
 9181SOL    HW128442   5.206   2.700   5.082
 9181SOL    HW228443   5.254   2.551   5.128
 9182SOL     OW28444   2.899   6.651   2.367
 9182SOL    HW128445   2.878   6.748   2.358
 9182SOL    HW228446   2.816   6.602   2.392
 9183SOL     OW28447   4.961   4.892   0.575
 9183SOL    HW128448   4.936   4.820   0.510
 9183SOL    HW228449   4.892   4.896   0.647
 9184SOL     OW28450   4.927   2.093   0.254
 9184SOL    HW128451   4.864   2.026   0.295
 9184SOL    HW228452   5.010   2.099   0.310
 9185SOL     OW28453   4.960   6.763   4.940
 9185SOL    HW128454   4.872   6.783   4.983
 9185SOL    HW228455   4.977   6.828   4.866
 9186SOL     OW28456   5.756   6.229   4.759
 9186SOL    HW128457   5.721   6.252   4.669
 9186SOL    HW228458   5.740   6.132   4.778
 9187SOL     OW28459   2.570   2.122   0.449
 9187SOL    HW128460   2.603   2.082   0.363
 9187SOL    HW228461   2.496   2.066   0.485
 9188SOL     OW28462   1.520   6.891   1.020
 9188SOL    HW128463   1.465   6.899   1.103
 9188SOL    HW228464   1.478   6.942   0.945
 9189SOL     OW28465   2.832   6.028   1.926
 9189SOL    HW128466   2.839   5.986   1.836
 9189SOL    HW228467   2.738   6.021   1.959
 9190SOL     OW28468   1.983   4.650   5.573
 9190SOL    HW128469   1.929   4.580   5.525
 9190SOL    HW228470   1.959   4.740   5.538
 9191SOL     OW28471   6.404   1.759   6.573
 9191SOL    HW128472   6.460   1.826   6.620
 9191SOL    HW228473   6.333   1.807   6.520
 9192SOL     OW28474   1.031   2.506   6.062
 9192SOL    HW128475   1.053   2.543   6.152
 9192SOL    HW228476   1.057   2.410   6.058
 9193SOL     OW28477   3.584   4.134   6.010
 9193SOL    HW128478   3.625   4.062   5.954
 9193SOL    HW228479   3.519   4.093   6.074
 9194SOL     OW28480   3.433   0.873   3.480
 9194SOL    HW128481   3.414   0.835   3.389
 9194SOL    HW228482   3.348   0.875   3.533
 9195SOL     OW28483   0.730   2.019   3.022
 9195SOL    HW128484   0.655   1.973   2.974
 9195SOL    HW228485   0.698   2.107   3.058
 9196SOL     OW28486   5.889   0.257   3.255
 9196SOL    HW128487   5.891   0.334   3.319
 9196SOL    HW228488   5.853   0.288   3.167
 9197SOL     OW28489   1.944   4.904   1.357
 9197SOL    HW128490   1.898   4.900   1.269
 9197SOL    HW228491   1.954   4.812   1.394
 9198SOL     OW28492   6.465   4.712   6.905
 9198SOL    HW128493   6.512   4.638   6.952
 9198SOL    HW228494   6.369   4.688   6.890
 9199SOL     OW28495   0.768   3.445   4.975
 9199SOL    HW128496   0.799   3.353   4.951
 9199SOL    HW228497   0.670   3.454   4.953
 9200SOL     OW28498   3.360   6.174   6.992
 9200SOL    HW128499   3.413   6.244   0.018
 9200SOL    HW228500   3.306   6.123   0.036
 9201SOL     OW28501   0.283   3.547   0.727
 9201SOL    HW128502   0.269   3.527   0.630
 9201SOL    HW228503   0.290   3.645   0.741
 9202SOL     OW28504   1.068   6.617   2.424
 9202SOL    HW128505   1.108   6.526   2.414
 9202SOL    HW228506   1.098   6.657   2.511
 9203SOL     OW28507   0.130   3.563   5.646
 9203SOL    HW128508   0.179   3.650   5.632
 9203SOL    HW228509   0.189   3.499   5.696
 9204SOL     OW28510   4.667   2.886   5.440
 9204SOL    HW128511   4.764   2.863   5.452
 9204SOL    HW228512   4.650   2.979   5.470
 9205SOL     OW28513   5.231   6.094   3.422
 9205SOL    HW128514   5.214   6.088   3.324
 9205SOL    HW228515   5.294   6.168   3.441
 9206SOL     OW28516   3.240   4.854   3.726
 9206SOL    HW128517   3.152   4.850   3.680
 9206SOL    HW228518   3.313   4.845   3.658
 9207SOL     OW28519   5.336   4.864   5.968
 9207SOL    HW128520   5.347   4.783   5.910
 9207SOL    HW228521   5.249   4.909   5.947
 9208SOL     OW28522   6.036   4.710   3.636
 9208SOL    HW128523   6.109   4.645   3.615
 9208SOL    HW228524   5.951   4.660   3.651
 9209SOL     OW28525   4.370   0.868   0.356
 9209SOL    HW128526   4.277   0.850   0.324
 9209SOL    HW228527   4.425   0.785   0.350
 9210SOL     OW28528   0.210   1.306   2.127
 9210SOL    HW128529   0.307   1.281   2.123
 9210SOL    HW228530   0.164   1.273   2.044
 9211SOL     OW28531   6.671   2.938   6.196
 9211SOL    HW128532   6.610   3.008   6.234
 9211SOL    HW228533   6.636   2.907   6.108
 9212SOL     OW28534   4.228   5.570   4.242
 9212SOL    HW128535   4.199   5.543   4.334
 9212SOL    HW228536   4.260   5.489   4.192
 9213SOL     OW28537   5.270   4.038   5.383
 9213SOL    HW128538   5.247   3.961   5.322
 9213SOL    HW228539   5.271   4.123   5.330
 9214SOL     OW28540   6.906   3.962   5.891
 9214SOL    HW128541   6.975   3.977   5.820
 9214SOL    HW228542   6.939   4.001   5.977
 9215SOL     OW28543   1.761   2.993   1.887
 9215SOL    HW128544   1.754   3.091   1.873
 9215SOL    HW228545   1.812   2.952   1.811
 9216SOL     OW28546   3.865   0.178   2.379
 9216SOL    HW128547   3.886   0.154   2.473
 9216SOL    HW228548   3.909   0.265   2.356
 9217SOL     OW28549   7.000   3.231   6.806
 9217SOL    HW128550   6.921   3.228   6.868
 9217SOL    HW228551   0.000   3.326   6.786
 9218SOL     OW28552   2.258   1.117   0.048
 9218SOL    HW128553   2.163   1.089   0.061
 9218SOL    HW228554   2.261   1.209   0.010
 9219SOL     OW28555   6.110   3.480   0.348
 9219SOL    HW128556   6.144   3.391   0.316
 9219SOL    HW228557   6.105   3.480   0.448
 9220SOL     OW28558   1.087   6.195   1.747
 9220SOL    HW128559   0.989   6.180   1.757
 9220SOL    HW228560   1.106   6.293   1.741
 9221SOL     OW28561   2.503   0.699   3.270
 9221SOL    HW128562   2.526   0.743   3.183
 9221SOL    HW228563   2.405   0.682   3.274
 9222SOL     OW28564   2.491   6.282   6.084
 9222SOL    HW128565   2.529   6.204   6.135
 9222SOL    HW228566   2.412   6.253   6.031
 9223SOL     OW28567   1.018   2.390   3.877
 9223SOL    HW128568   1.001   2.296   3.846
 9223SOL    HW228569   0.931   2.440   3.881
 9224SOL     OW28570   1.102   5.320   4.089
 9224SOL    HW128571   1.080   5.340   3.993
 9224SOL    HW228572   1.196   5.349   4.108
 9225SOL     OW28573   2.837   6.150   6.619
 9225SOL    HW128574   2.758   6.145   6.558
 9225SOL    HW228575   2.833   6.234   6.673
 9226SOL     OW28576   6.290   6.776   1.965
 9226SOL    HW128577   6.354   6.852   1.978
 9226SOL    HW228578   6.197   6.808   1.985
 9227SOL     OW28579   1.922   5.562   0.706
 9227SOL    HW128580   1.897   5.584   0.800
 9227SOL    HW228581   1.995   5.624   0.675
 9228SOL     OW28582   1.933   1.636   5.870
 9228SOL    HW128583   1.879   1.700   5.925
 9228SOL    HW228584   1.985   1.575   5.931
 9229SOL     OW28585   0.909   6.126   5.109
 9229SOL    HW128586   0.844   6.141   5.184
 9229SOL    HW228587   0.892   6.193   5.036
 9230SOL     OW28588   5.525   2.732   2.886
 9230SOL    HW128589   5.479   2.646   2.910
 9230SOL    HW228590   5.605   2.743   2.945
 9231SOL     OW28591   0.382   3.047   4.702
 9231SOL    HW128592   0.334   2.993   4.633
 9231SOL    HW228593   0.468   3.002   4.726
 9232SOL     OW28594   3.984   5.429   0.744
 9232SOL    HW128595   4.025   5.507   0.697
 9232SOL    HW228596   4.006   5.432   0.841
 9233SOL     OW28597   5.852   5.433   1.796
 9233SOL    HW128598   5.802   5.358   1.840
 9233SOL    HW228599   5.886   5.496   1.867
 9234SOL     OW28600   3.634   5.754   6.859
 9234SOL    HW128601   3.593   5.668   6.889
 9234SOL    HW228602   3.718   5.736   6.807
 9235SOL     OW28603   1.416   2.987   2.890
 9235SOL    HW128604   1.363   3.046   2.830
 9235SOL    HW228605   1.382   2.893   2.883
 9236SOL     OW28606   2.038   4.395   5.982
 9236SOL    HW128607   2.082   4.484   5.981
 9236SOL    HW228608   2.014   4.370   6.076
 9237SOL     OW28609   1.161   6.191   4.065
 9237SOL    HW128610   1.209   6.133   4.000
 9237SOL    HW228611   1.067   6.206   4.034
 9238SOL     OW28612   2.611   1.767   6.990
 9238SOL    HW128613   2.627   1.856   6.948
 9238SOL    HW228614   2.533   1.723   6.946
 9239SOL     OW28615   6.901   4.110   7.006
 9239SOL    HW128616   6.820   4.051   7.010
 9239SOL    HW228617   6.946   4.098   6.917
 9240SOL     OW28618   4.586   1.488   1.850
 9240SOL    HW128619   4.523   1.429   1.901
 9240SOL    HW228620   4.607   1.569   1.905
 9241SOL     OW28621   1.004   5.169   5.762
 9241SOL    HW128622   0.939   5.224   5.814
 9241SOL    HW228623   0.960   5.137   5.678
 9242SOL     OW28624   0.623   4.956   0.094
 9242SOL    HW128625   0.671   4.971   0.181
 9242SOL    HW228626   0.682   4.904   0.032
 9243SOL     OW28627   0.067   6.452   1.479
 9243SOL    HW128628   0.156   6.407   1.486
 9243SOL    HW228629   0.065   6.508   1.396
 9244SOL     OW28630   4.245   5.819   6.553
 9244SOL    HW128631   4.186   5.872   6.613
 9244SOL    HW228632   4.341   5.835   6.577
 9245SOL     OW28633   1.727   4.592   2.787
 9245SOL    HW128634   1.723   4.494   2.769
 9245SOL    HW228635   1.818   4.617   2.818
 9246SOL     OW28636   6.772   5.375   2.396
 9246SOL    HW128637   6.738   5.288   2.360
 9246SOL    HW228638   6.697   5.440   2.405
 9247SOL     OW28639   0.842   0.071   2.733
 9247SOL    HW128640   0.879   0.148   2.785
 9247SOL    HW228641   0.755   0.043   2.772
 9248SOL     OW28642   2.250   1.659   4.625
 9248SOL    HW128643   2.313   1.735   4.609
 9248SOL    HW228644   2.291   1.593   4.688
 9249SOL     OW28645   3.661   3.563   0.279
 9249SOL    HW128646   3.606   3.624   0.223
 9249SOL    HW228647   3.707   3.496   0.221
 9250SOL     OW28648   5.323   3.057   3.582
 9250SOL    HW128649   5.223   3.065   3.591
 9250SOL    HW228650   5.364   3.050   3.673
 9251SOL     OW28651   3.673   1.742   2.887
 9251SOL    HW128652   3.746   1.745   2.955
 9251SOL    HW228653   3.643   1.836   2.866
 9252SOL     OW28654   5.158   0.116   3.779
 9252SOL    HW128655   5.256   0.118   3.803
 9252SOL    HW228656   5.120   0.027   3.802
 9253SOL     OW28657   5.573   6.344   5.217
 9253SOL    HW128658   5.613   6.399   5.290
 9253SOL    HW228659   5.476   6.364   5.209
 9254SOL     OW28660   6.764   4.820   2.883
 9254SOL    HW128661   6.764   4.882   2.961
 9254SOL    HW228662   6.776   4.872   2.798
 9255SOL     OW28663   4.579   4.045   0.142
 9255SOL    HW128664   4.666   4.094   0.145
 9255SOL    HW228665   4.596   3.947   0.157
 9256SOL     OW28666   3.602   0.085   2.566
 9256SOL    HW128667   3.642   0.001   2.529
 9256SOL    HW228668   3.675   0.147   2.595
 9257SOL     OW28669   0.081   3.570   3.119
 9257SOL    HW128670   0.086   3.656   3.068
 9257SOL    HW228671   0.072   3.590   3.217
 9258SOL     OW28672   3.226   2.978   2.807
 9258SOL    HW128673   3.253   3.055   2.750
 9258SOL    HW228674   3.215   2.896   2.751
 9259SOL     OW28675   1.064   2.561   0.961
 9259SOL    HW128676   1.161   2.545   0.974
 9259SOL    HW228677   1.050   2.628   0.888
 9260SOL     OW28678   5.566   1.671   4.870
 9260SOL    HW128679   5.560   1.605   4.945
 9260SOL    HW228680   5.583   1.622   4.784
 9261SOL     OW28681   3.746   0.648   0.363
 9261SOL    HW128682   3.690   0.726   0.392
 9261SOL    HW228683   3.742   0.576   0.433
 9262SOL     OW28684   0.082   4.336   5.567
 9262SOL    HW128685   0.162   4.320   5.626
 9262SOL    HW228686   0.062   4.254   5.514
 9263SOL     OW28687   4.985   6.677   0.953
 9263SOL    HW128688   5.039   6.733   1.016
 9263SOL    HW228689   5.043   6.607   0.912
 9264SOL     OW28690   4.569   5.100   0.200
 9264SOL    HW128691   4.562   5.166   0.275
 9264SOL    HW228692   4.659   5.057   0.202
 9265SOL     OW28693   4.200   1.821   0.303
 9265SOL    HW128694   4.119   1.800   0.357
 9265SOL    HW228695   4.235   1.911   0.329
 9266SOL     OW28696   2.155   6.983   1.568
 9266SOL    HW128697   2.181   0.003   1.655
 9266SOL    HW228698   2.109   6.896   1.587
 9267SOL     OW28699   6.468   2.876   4.657
 9267SOL    HW128700   6.553   2.826   4.642
 9267SOL    HW228701   6.456   2.943   4.584
 9268SOL     OW28702   1.167   5.379   2.266
 9268SOL    HW128703   1.167   5.290   2.311
 9268SOL    HW228704   1.230   5.378   2.189
 9269SOL     OW28705   2.949   1.437   6.036
 9269SOL    HW128706   3.033   1.386   6.015
 9269SOL    HW228707   2.908   1.400   6.120
 9270SOL     OW28708   4.188   6.308   5.972
 9270SOL    HW128709   4.247   6.266   5.903
 9270SOL    HW228710   4.169   6.241   6.044
 9271SOL     OW28711   6.459   6.968   0.058
 9271SOL    HW128712   6.393   0.016   0.032
 9271SOL    HW228713   6.507   6.935   6.998
 9272SOL     OW28714   1.314   5.580   4.436
 9272SOL    HW128715   1.216   5.598   4.445
 9272SOL    HW228716   1.365   5.665   4.450
 9273SOL     OW28717   6.137   6.360   3.605
 9273SOL    HW128718   6.203   6.298   3.646
 9273SOL    HW228719   6.089   6.313   3.531
 9274SOL     OW28720   6.787   2.497   6.729
 9274SOL    HW128721   6.861   2.500   6.661
 9274SOL    HW228722   6.804   2.566   6.799
 9275SOL     OW28723   0.118   1.230   6.879
 9275SOL    HW128724   0.064   1.153   6.913
 9275SOL    HW228725   0.111   1.235   6.779
 9276SOL     OW28726   2.067   3.848   1.695
 9276SOL    HW128727   2.150   3.792   1.707
 9276SOL    HW228728   2.010   3.809   1.624
 9277SOL     OW28729   4.835   3.510   6.778
 9277SOL    HW128730   4.739   3.535   6.788
 9277SOL    HW228731   4.854   3.484   6.684
 9278SOL     OW28732   1.564   0.657   6.253
 9278SOL    HW128733   1.616   0.571   6.255
 9278SOL    HW228734   1.472   0.641   6.289
 9279SOL     OW28735   4.479   0.429   1.559
 9279SOL    HW128736   4.381   0.446   1.549
 9279SOL    HW228737   4.506   0.442   1.654
 9280SOL     OW28738   2.166   2.065   3.456
 9280SOL    HW128739   2.191   2.161   3.440
 9280SOL    HW228740   2.228   2.006   3.405
 9281SOL     OW28741   2.763   4.508   0.463
 9281SOL    HW128742   2.745   4.432   0.401
 9281SOL    HW228743   2.764   4.476   0.557
 9282SOL     OW28744   4.739   1.209   4.003
 9282SOL    HW128745   4.725   1.265   4.085
 9282SOL    HW228746   4.812   1.142   4.020
 9283SOL     OW28747   5.626   0.679   3.913
 9283SOL    HW128748   5.706   0.728   3.948
 9283SOL    HW228749   5.625   0.686   3.813
 9284SOL     OW28750   3.713   3.335   5.749
 9284SOL    HW128751   3.632   3.393   5.749
 9284SOL    HW228752   3.754   3.334   5.658
 9285SOL     OW28753   4.974   2.860   0.802
 9285SOL    HW128754   5.026   2.775   0.789
 9285SOL    HW228755   4.885   2.850   0.757
 9286SOL     OW28756   5.182   5.550   0.565
 9286SOL    HW128757   5.134   5.634   0.588
 9286SOL    HW228758   5.230   5.516   0.647
 9287SOL     OW28759   3.264   4.964   6.593
 9287SOL    HW128760   3.241   5.025   6.670
 9287SOL    HW228761   3.282   4.872   6.628
 9288SOL     OW28762   4.878   1.272   3.737
 9288SOL    HW128763   4.846   1.298   3.828
 9288SOL    HW228764   4.932   1.347   3.698
 9289SOL     OW28765   3.737   1.157   2.341
 9289SOL    HW128766   3.677   1.078   2.348
 9289SOL    HW228767   3.713   1.211   2.261
 9290SOL     OW28768   5.159   1.365   2.946
 9290SOL    HW128769   5.113   1.331   2.864
 9290SOL    HW228770   5.241   1.416   2.919
 9291SOL     OW28771   1.694   6.220   4.277
 9291SOL    HW128772   1.742   6.304   4.304
 9291SOL    HW228773   1.747   6.173   4.206
 9292SOL     OW28774   1.106   3.474   0.008
 9292SOL    HW128775   1.154   3.386   0.007
 9292SOL    HW228776   1.106   3.511   0.100
 9293SOL     OW28777   5.077   3.629   6.774
 9293SOL    HW128778   4.988   3.587   6.787
 9293SOL    HW228779   5.082   3.714   6.826
 9294SOL     OW28780   4.438   0.478   5.313
 9294SOL    HW128781   4.399   0.441   5.229
 9294SOL    HW228782   4.437   0.408   5.384
 9295SOL     OW28783   5.713   2.459   4.498
 9295SOL    HW128784   5.623   2.442   4.457
 9295SOL    HW228785   5.750   2.545   4.463
 9296SOL     OW28786   0.840   6.499   6.930
 9296SOL    HW128787   0.902   6.466   7.002
 9296SOL    HW228788   0.748   6.462   6.946
 9297SOL     OW28789   6.459   0.486   0.989
 9297SOL    HW128790   6.503   0.414   1.042
 9297SOL    HW228791   6.528   0.549   0.954
 9298SOL     OW28792   0.475   0.207   5.431
 9298SOL    HW128793   0.393   0.191   5.375
 9298SOL    HW228794   0.556   0.205   5.372
 9299SOL     OW28795   0.625   2.473   5.242
 9299SOL    HW128796   0.667   2.521   5.165
 9299SOL    HW228797   0.527   2.463   5.225
 9300SOL     OW28798   0.600   4.685   5.656
 9300SOL    HW128799   0.682   4.726   5.694
 9300SOL    HW228800   0.624   4.630   5.576
 9301SOL     OW28801   4.945   4.795   3.533
 9301SOL    HW128802   4.887   4.868   3.497
 9301SOL    HW228803   4.956   4.723   3.465
 9302SOL     OW28804   1.948   3.121   3.839
 9302SOL    HW128805   1.960   3.026   3.869
 9302SOL    HW228806   1.905   3.123   3.749
 9303SOL     OW28807   2.518   4.543   0.681
 9303SOL    HW128808   2.480   4.614   0.740
 9303SOL    HW228809   2.607   4.515   0.717
 9304SOL     OW28810   4.084   4.960   1.713
 9304SOL    HW128811   4.179   4.939   1.737
 9304SOL    HW228812   4.027   4.879   1.728
 9305SOL     OW28813   3.635   1.192   0.808
 9305SOL    HW128814   3.639   1.134   0.727
 9305SOL    HW228815   3.615   1.136   0.888
 9306SOL     OW28816   0.153   5.145   4.736
 9306SOL    HW128817   0.143   5.155   4.638
 9306SOL    HW228818   0.247   5.117   4.757
 9307SOL     OW28819   2.078   3.439   1.730
 9307SOL    HW128820   2.122   3.419   1.642
 9307SOL    HW228821   2.140   3.495   1.786
 9308SOL     OW28822   1.948   3.506   0.247
 9308SOL    HW128823   2.043   3.491   0.220
 9308SOL    HW228824   1.917   3.430   0.303
 9309SOL     OW28825   3.231   4.521   6.021
 9309SOL    HW128826   3.251   4.440   6.076
 9309SOL    HW228827   3.245   4.603   6.076
 9310SOL     OW28828   4.609   5.303   6.667
 9310SOL    HW128829   4.595   5.258   6.755
 9310SOL    HW228830   4.701   5.285   6.634
 9311SOL     OW28831   4.278   5.090   2.078
 9311SOL    HW128832   4.241   4.997   2.087
 9311SOL    HW228833   4.295   5.110   1.982
 9312SOL     OW28834   1.271   3.922   1.477
 9312SOL    HW128835   1.211   4.002   1.466
 9312SOL    HW228836   1.270   3.868   1.393
 9313SOL     OW28837   0.291   1.057   1.307
 9313SOL    HW128838   0.389   1.066   1.322
 9313SOL    HW228839   0.259   0.971   1.347
 9314SOL     OW28840   4.855   5.284   6.563
 9314SOL    HW128841   4.914   5.362   6.583
 9314SOL    HW228842   4.906   5.218   6.508
 9315SOL     OW28843   5.919   0.827   5.051
 9315SOL    HW128844   5.876   0.738   5.067
 9315SOL    HW228845   5.977   0.851   5.128
 9316SOL     OW28846   4.816   5.707   5.416
 9316SOL    HW128847   4.736   5.695   5.474
 9316SOL    HW228848   4.809   5.795   5.368
 9317SOL     OW28849   5.323   5.214   3.083
 9317SOL    HW128850   5.381   5.136   3.104
 9317SOL    HW228851   5.379   5.295   3.069
 9318SOL     OW28852   5.978   0.706   5.748
 9318SOL    HW128853   5.923   0.760   5.812
 9318SOL    HW228854   6.074   0.717   5.770
 9319SOL     OW28855   1.995   2.987   0.097
 9319SOL    HW128856   1.978   2.906   0.041
 9319SOL    HW228857   2.006   3.066   0.038
 9320SOL     OW28858   3.873   0.277   5.080
 9320SOL    HW128859   3.967   0.243   5.072
 9320SOL    HW228860   3.856   0.344   5.008
 9321SOL     OW28861   6.842   0.530   3.641
 9321SOL    HW128862   6.797   0.486   3.563
 9321SOL    HW228863   6.884   0.616   3.610
 9322SOL     OW28864   0.363   3.667   6.939
 9322SOL    HW128865   0.402   3.673   6.847
 9322SOL    HW228866   0.301   3.588   6.943
 9323SOL     OW28867   1.345   0.708   5.608
 9323SOL    HW128868   1.388   0.796   5.630
 9323SOL    HW228869   1.261   0.724   5.556
 9324SOL     OW28870   1.150   4.692   0.905
 9324SOL    HW128871   1.205   4.674   0.987
 9324SOL    HW228872   1.056   4.714   0.933
 9325SOL     OW28873   5.787   0.259   0.510
 9325SOL    HW128874   5.721   0.306   0.568
 9325SOL    HW228875   5.771   0.160   0.514
 9326SOL     OW28876   2.097   5.294   0.462
 9326SOL    HW128877   2.056   5.306   0.372
 9326SOL    HW228878   2.163   5.366   0.479
 9327SOL     OW28879   5.156   0.917   2.941
 9327SOL    HW128880   5.214   0.992   2.909
 9327SOL    HW228881   5.105   0.946   3.022
 9328SOL     OW28882   2.422   1.104   5.169
 9328SOL    HW128883   2.348   1.108   5.101
 9328SOL    HW228884   2.392   1.146   5.254
 9329SOL     OW28885   6.042   3.650   0.982
 9329SOL    HW128886   5.974   3.723   0.981
 9329SOL    HW228887   6.129   3.684   0.947
 9330SOL     OW28888   6.301   0.218   6.108
 9330SOL    HW128889   6.368   0.157   6.149
 9330SOL    HW228890   6.288   0.298   6.167
 9331SOL     OW28891   2.703   1.273   0.297
 9331SOL    HW128892   2.631   1.210   0.267
 9331SOL    HW228893   2.703   1.354   0.238
 9332SOL     OW28894   4.257   4.254   1.410
 9332SOL    HW128895   4.335   4.199   1.438
 9332SOL    HW228896   4.216   4.215   1.328
 9333SOL     OW28897   4.145   3.978   0.046
 9333SOL    HW128898   4.094   3.986   6.982
 9333SOL    HW228899   4.112   3.899   0.097
 9334SOL     OW28900   5.709   6.043   3.430
 9334SOL    HW128901   5.755   6.131   3.414
 9334SOL    HW228902   5.619   6.060   3.471
 9335SOL     OW28903   0.947   1.351   6.804
 9335SOL    HW128904   0.897   1.412   6.743
 9335SOL    HW228905   1.035   1.328   6.763
 9336SOL     OW28906   3.182   5.720   5.774
 9336SOL    HW128907   3.104   5.674   5.816
 9336SOL    HW228908   3.151   5.800   5.724
 9337SOL     OW28909   4.257   2.013   4.877
 9337SOL    HW128910   4.309   2.081   4.929
 9337SOL    HW228911   4.192   1.968   4.938
 9338SOL     OW28912   5.226   0.322   1.911
 9338SOL    HW128913   5.141   0.292   1.868
 9338SOL    HW228914   5.264   0.248   1.966
 9339SOL     OW28915   5.869   6.697   1.346
 9339SOL    HW128916   5.942   6.658   1.290
 9339SOL    HW228917   5.883   6.795   1.357
 9340SOL     OW28918   5.114   4.327   4.487
 9340SOL    HW128919   5.099   4.235   4.451
 9340SOL    HW228920   5.054   4.391   4.439
 9341SOL     OW28921   0.530   5.882   0.845
 9341SOL    HW128922   0.556   5.969   0.803
 9341SOL    HW228923   0.558   5.881   0.941
 9342SOL     OW28924   2.298   6.132   3.984
 9342SOL    HW128925   2.309   6.078   3.900
 9342SOL    HW228926   2.328   6.078   4.062
 9343SOL     OW28927   5.384   4.310   2.250
 9343SOL    HW128928   5.364   4.392   2.303
 9343SOL    HW228929   5.481   4.308   2.227
 9344SOL     OW28930   4.800   6.750   2.546
 9344SOL    HW128931   4.851   6.676   2.503
 9344SOL    HW228932   4.710   6.758   2.504
 9345SOL     OW28933   6.370   6.002   1.665
 9345SOL    HW128934   6.371   5.924   1.604
 9345SOL    HW228935   6.408   5.976   1.754
 9346SOL     OW28936   5.729   1.556   0.948
 9346SOL    HW128937   5.632   1.562   0.926
 9346SOL    HW228938   5.742   1.488   1.021
 9347SOL     OW28939   2.999   4.010   0.420
 9347SOL    HW128940   3.031   3.995   0.327
 9347SOL    HW228941   3.006   4.108   0.442
 9348SOL     OW28942   2.982   6.395   2.254
 9348SOL    HW128943   2.953   6.482   2.294
 9348SOL    HW228944   2.928   6.376   2.173
 9349SOL     OW28945   6.808   5.819   3.171
 9349SOL    HW128946   6.832   5.769   3.087
 9349SOL    HW228947   6.725   5.873   3.154
 9350SOL     OW28948   0.039   2.889   5.414
 9350SOL    HW128949   6.983   2.907   5.354
 9350SOL    HW228950   0.123   2.916   5.367
 9351SOL     OW28951   2.938   0.068   0.007
 9351SOL    HW128952   2.869   0.000   0.033
 9351SOL    HW228953   3.019   0.057   0.065
 9352SOL     OW28954   3.462   1.485   6.534
 9352SOL    HW128955   3.375   1.487   6.484
 9352SOL    HW228956   3.523   1.555   6.498
 9353SOL     OW28957   0.729   4.607   0.739
 9353SOL    HW128958   0.763   4.576   0.650
 9353SOL    HW228959   0.791   4.577   0.811
 9354SOL     OW28960   0.310   1.710   6.615
 9354SOL    HW128961   0.396   1.668   6.587
 9354SOL    HW228962   0.240   1.695   6.544
 9355SOL     OW28963   0.290   2.027   4.527
 9355SOL    HW128964   0.296   2.092   4.451
 9355SOL    HW228965   0.201   2.036   4.572
 9356SOL     OW28966   4.707   0.053   2.025
 9356SOL    HW128967   4.650   0.116   2.078
 9356SOL    HW228968   4.802   0.060   2.055
 9357SOL     OW28969   1.891   3.449   5.902
 9357SOL    HW128970   1.909   3.370   5.962
 9357SOL    HW228971   1.972   3.465   5.844
 9358SOL     OW28972   6.842   3.031   1.807
 9358SOL    HW128973   6.784   2.961   1.849
 9358SOL    HW228974   6.904   2.988   1.741
 9359SOL     OW28975   1.815   4.450   5.802
 9359SOL    HW128976   1.887   4.396   5.846
 9359SOL    HW228977   1.854   4.534   5.764
 9360SOL     OW28978   0.603   4.436   6.993
 9360SOL    HW128979   0.610   4.416   6.896
 9360SOL    HW228980   0.580   4.353   0.021
 9361SOL     OW28981   1.643   5.633   2.888
 9361SOL    HW128982   1.573   5.675   2.829
 9361SOL    HW228983   1.602   5.557   2.938
 9362SOL     OW28984   1.904   1.923   2.771
 9362SOL    HW128985   1.889   1.863   2.849
 9362SOL    HW228986   1.819   1.969   2.746
 9363SOL     OW28987   3.175   5.766   1.835
 9363SOL    HW128988   3.087   5.725   1.812
 9363SOL    HW228989   3.194   5.841   1.771
 9364SOL     OW28990   2.724   2.524   6.548
 9364SOL    HW128991   2.791   2.460   6.585
 9364SOL    HW228992   2.772   2.603   6.510
 9365SOL     OW28993   3.213   2.142   3.939
 9365SOL    HW128994   3.267   2.147   3.855
 9365SOL    HW228995   3.119   2.171   3.920
 9366SOL     OW28996   3.666   5.315   6.181
 9366SOL    HW128997   3.725   5.280   6.253
 9366SOL    HW228998   3.587   5.253   6.170
 9367SOL     OW28999   6.692   6.475   2.245
 9367SOL    HW129000   6.720   6.379   2.257
 9367SOL    HW229001   6.750   6.533   2.302
 9368SOL     OW29002   3.505   0.621   2.937
 9368SOL    HW129003   3.518   0.658   2.845
 9368SOL    HW229004   3.415   0.650   2.971
 9369SOL     OW29005   6.602   6.480   3.671
 9369SOL    HW129006   6.571   6.387   3.695
 9369SOL    HW229007   6.683   6.474   3.613
 9370SOL     OW29008   5.613   0.479   4.592
 9370SOL    HW129009   5.544   0.406   4.590
 9370SOL    HW229010   5.579   0.555   4.648
 9371SOL     OW29011   2.556   5.029   0.512
 9371SOL    HW129012   2.644   4.985   0.494
 9371SOL    HW229013   2.530   5.086   0.433
 9372SOL     OW29014   5.208   6.507   1.193
 9372SOL    HW129015   5.211   6.539   1.288
 9372SOL    HW229016   5.180   6.411   1.191
 9373SOL     OW29017   4.750   2.647   1.637
 9373SOL    HW129018   4.697   2.728   1.614
 9373SOL    HW229019   4.805   2.619   1.558
 9374SOL     OW29020   0.483   2.745   6.966
 9374SOL    HW129021   0.530   2.763   6.880
 9374SOL    HW229022   0.533   2.791   0.018
 9375SOL     OW29023   0.901   2.081   0.981
 9375SOL    HW129024   0.942   2.067   1.071
 9375SOL    HW229025   0.821   2.022   0.971
 9376SOL     OW29026   2.486   4.041   1.093
 9376SOL    HW129027   2.436   4.115   1.137
 9376SOL    HW229028   2.506   4.067   0.998
 9377SOL     OW29029   1.716   5.172   3.368
 9377SOL    HW129030   1.701   5.169   3.467
 9377SOL    HW229031   1.801   5.222   3.349
 9378SOL     OW29032   3.008   1.707   3.384
 9378SOL    HW129033   2.987   1.628   3.327
 9378SOL    HW229034   3.072   1.680   3.456
 9379SOL     OW29035   4.849   0.347   5.474
 9379SOL    HW129036   4.902   0.276   5.428
 9379SOL    HW229037   4.865   0.435   5.429
 9380SOL     OW29038   3.888   5.293   5.352
 9380SOL    HW129039   3.885   5.354   5.273
 9380SOL    HW229040   3.931   5.206   5.326
 9381SOL     OW29041   5.556   3.160   5.767
 9381SOL    HW129042   5.491   3.176   5.841
 9381SOL    HW229043   5.603   3.245   5.745
 9382SOL     OW29044   4.317   0.244   3.931
 9382SOL    HW129045   4.406   0.289   3.943
 9382SOL    HW229046   4.265   0.251   4.016
 9383SOL     OW29047   5.746   4.815   3.801
 9383SOL    HW129048   5.680   4.887   3.781
 9383SOL    HW229049   5.812   4.848   3.869
 9384SOL     OW29050   4.462   0.000   2.355
 9384SOL    HW129051   4.407   0.048   2.424
 9384SOL    HW229052   4.405   6.958   2.305
 9385SOL     OW29053   4.851   1.838   4.142
 9385SOL    HW129054   4.786   1.861   4.069
 9385SOL    HW229055   4.891   1.748   4.123
 9386SOL     OW29056   3.154   5.913   5.529
 9386SOL    HW129057   3.059   5.928   5.503
 9386SOL    HW229058   3.205   5.878   5.451
 9387SOL     OW29059   2.624   2.361   0.547
 9387SOL    HW129060   2.708   2.399   0.510
 9387SOL    HW229061   2.604   2.274   0.502
 9388SOL     OW29062   2.285   5.973   3.709
 9388SOL    HW129063   2.301   6.068   3.679
 9388SOL    HW229064   2.356   5.914   3.670
 9389SOL     OW29065   2.721   0.290   3.125
 9389SOL    HW129066   2.750   0.304   3.031
 9389SOL    HW229067   2.708   0.379   3.170
 9390SOL     OW29068   5.633   5.117   6.177
 9390SOL    HW129069   5.678   5.093   6.091
 9390SOL    HW229070   5.546   5.162   6.158
 9391SOL     OW29071   0.720   0.317   6.142
 9391SOL    HW129072   0.815   0.347   6.157
 9391SOL    HW229073   0.683   0.363   6.061
 9392SOL     OW29074   5.381   5.107   5.035
 9392SOL    HW129075   5.417   5.047   4.963
 9392SOL    HW229076   5.370   5.054   5.120
 9393SOL     OW29077   2.616   0.058   5.896
 9393SOL    HW129078   2.587   0.018   5.809
 9393SOL    HW229079   2.548   0.036   5.967
 9394SOL     OW29080   6.149   0.680   1.329
 9394SOL    HW129081   6.151   0.760   1.390
 9394SOL    HW229082   6.102   0.605   1.376
 9395SOL     OW29083   2.676   1.267   0.578
 9395SOL    HW129084   2.676   1.289   0.480
 9395SOL    HW229085   2.726   1.182   0.593
 9396SOL     OW29086   1.787   4.705   4.558
 9396SOL    HW129087   1.876   4.749   4.564
 9396SOL    HW229088   1.720   4.757   4.613
 9397SOL     OW29089   2.914   6.244   6.267
 9397SOL    HW129090   2.880   6.334   6.240
 9397SOL    HW229091   3.010   6.251   6.293
 9398SOL     OW29092   5.893   0.914   6.273
 9398SOL    HW129093   5.925   0.823   6.297
 9398SOL    HW229094   5.936   0.982   6.332
 9399SOL     OW29095   1.098   3.377   4.939
 9399SOL    HW129096   1.059   3.466   4.917
 9399SOL    HW229097   1.121   3.373   5.036
 9400SOL     OW29098   4.867   0.711   1.154
 9400SOL    HW129099   4.906   0.652   1.224
 9400SOL    HW229100   4.926   0.712   1.074
 9401SOL     OW29101   6.796   1.983   2.792
 9401SOL    HW129102   6.845   2.032   2.720
 9401SOL    HW229103   6.730   1.921   2.751
 9402SOL     OW29104   1.194   3.995   3.146
 9402SOL    HW129105   1.277   4.020   3.196
 9402SOL    HW229106   1.161   3.907   3.179
 9403SOL     OW29107   6.316   1.599   1.666
 9403SOL    HW129108   6.339   1.652   1.748
 9403SOL    HW229109   6.401   1.570   1.620
 9404SOL     OW29110   0.564   2.101   1.380
 9404SOL    HW129111   0.501   2.135   1.450
 9404SOL    HW229112   0.555   2.157   1.297
 9405SOL     OW29113   2.120   4.070   3.910
 9405SOL    HW129114   2.085   4.118   3.830
 9405SOL    HW229115   2.171   3.988   3.881
 9406SOL     OW29116   0.807   2.776   6.612
 9406SOL    HW129117   0.723   2.816   6.648
 9406SOL    HW229118   0.787   2.685   6.574
 9407SOL     OW29119   2.518   5.178   4.273
 9407SOL    HW129120   2.600   5.233   4.294
 9407SOL    HW229121   2.437   5.229   4.300
 9408SOL     OW29122   6.960   3.015   6.148
 9408SOL    HW129123   6.872   3.010   6.195
 9408SOL    HW229124   6.956   3.086   6.077
 9409SOL     OW29125   6.154   6.486   1.354
 9409SOL    HW129126   6.130   6.408   1.412
 9409SOL    HW229127   6.236   6.530   1.389
 9410SOL     OW29128   3.318   0.637   2.105
 9410SOL    HW129129   3.232   0.588   2.090
 9410SOL    HW229130   3.391   0.594   2.051
 9411SOL     OW29131   4.061   3.172   3.017
 9411SOL    HW129132   4.034   3.245   2.955
 9411SOL    HW229133   4.111   3.101   2.967
 9412SOL     OW29134   1.483   0.748   2.335
 9412SOL    HW129135   1.548   0.724   2.263
 9412SOL    HW229136   1.527   0.811   2.400
 9413SOL     OW29137   4.783   5.052   3.453
 9413SOL    HW129138   4.696   5.005   3.437
 9413SOL    HW229139   4.771   5.120   3.525
 9414SOL     OW29140   3.332   1.154   3.588
 9414SOL    HW129141   3.431   1.167   3.591
 9414SOL    HW229142   3.302   1.106   3.670
 9415SOL     OW29143   2.210   0.061   1.870
 9415SOL    HW129144   2.212   0.161   1.876
 9415SOL    HW229145   2.249   0.021   1.953
 9416SOL     OW29146   6.956   0.895   6.119
 9416SOL    HW129147   6.898   0.916   6.040
 9416SOL    HW229148   6.945   0.798   6.143
 9417SOL     OW29149   3.695   0.148   0.856
 9417SOL    HW129150   3.607   0.189   0.833
 9417SOL    HW229151   3.755   0.151   0.777
 9418SOL     OW29152   2.101   1.413   1.826
 9418SOL    HW129153   2.119   1.465   1.743
 9418SOL    HW229154   2.173   1.344   1.838
 9419SOL     OW29155   1.609   3.743   6.130
 9419SOL    HW129156   1.700   3.774   6.101
 9419SOL    HW229157   1.540   3.801   6.088
 9420SOL     OW29158   5.798   4.205   0.118
 9420SOL    HW129159   5.872   4.144   0.145
 9420SOL    HW229160   5.815   4.240   0.026
 9421SOL     OW29161   2.859   5.649   4.945
 9421SOL    HW129162   2.940   5.615   4.897
 9421SOL    HW229163   2.845   5.595   5.028
 9422SOL     OW29164   2.942   5.855   3.121
 9422SOL    HW129165   2.845   5.863   3.098
 9422SOL    HW229166   2.992   5.934   3.083
 9423SOL     OW29167   4.017   6.342   3.334
 9423SOL    HW129168   4.083   6.365   3.406
 9423SOL    HW229169   3.997   6.244   3.337
 9424SOL     OW29170   5.332   2.371   4.637
 9424SOL    HW129171   5.401   2.394   4.568
 9424SOL    HW229172   5.329   2.272   4.648
 9425SOL     OW29173   5.487   4.940   1.039
 9425SOL    HW129174   5.498   4.989   0.953
 9425SOL    HW229175   5.500   5.003   1.115
 9426SOL     OW29176   3.051   1.067   6.478
 9426SOL    HW129177   2.959   1.045   6.446
 9426SOL    HW229178   3.089   0.987   6.525
 9427SOL     OW29179   2.403   5.537   3.015
 9427SOL    HW129180   2.409   5.561   2.918
 9427SOL    HW229181   2.493   5.542   3.057
 9428SOL     OW29182   0.157   0.099   0.501
 9428SOL    HW129183   0.186   0.140   0.415
 9428SOL    HW229184   0.230   0.040   0.536
 9429SOL     OW29185   2.282   2.930   3.864
 9429SOL    HW129186   2.211   2.974   3.919
 9429SOL    HW229187   2.336   2.868   3.922
 9430SOL     OW29188   0.564   2.088   4.869
 9430SOL    HW129189   0.604   2.050   4.786
 9430SOL    HW229190   0.610   2.049   4.949
 9431SOL     OW29191   6.402   4.729   1.131
 9431SOL    HW129192   6.312   4.732   1.088
 9431SOL    HW229193   6.437   4.635   1.127
 9432SOL     OW29194   6.246   1.096   4.386
 9432SOL    HW129195   6.243   1.077   4.288
 9432SOL    HW229196   6.299   1.025   4.432
 9433SOL     OW29197   3.282   6.657   3.029
 9433SOL    HW129198   3.377   6.679   3.050
 9433SOL    HW229199   3.243   6.728   2.971
 9434SOL     OW29200   5.354   5.968   2.988
 9434SOL    HW129201   5.367   5.900   2.915
 9434SOL    HW229202   5.308   5.925   3.065
 9435SOL     OW29203   0.164   1.946   3.017
 9435SOL    HW129204   0.238   1.938   3.084
 9435SOL    HW229205   0.076   1.951   3.064
 9436SOL     OW29206   1.531   1.664   2.785
 9436SOL    HW129207   1.532   1.763   2.801
 9436SOL    HW229208   1.572   1.618   2.864
 9437SOL     OW29209   0.355   5.678   3.349
 9437SOL    HW129210   0.299   5.735   3.290
 9437SOL    HW229211   0.324   5.583   3.343
 9438SOL     OW29212   1.354   6.992   1.827
 9438SOL    HW129213   1.330   0.066   1.813
 9438SOL    HW229214   1.389   6.979   1.920
 9439SOL     OW29215   0.917   2.590   1.211
 9439SOL    HW129216   0.932   2.689   1.216
 9439SOL    HW229217   0.960   2.554   1.128
 9440SOL     OW29218   3.980   4.990   3.533
 9440SOL    HW129219   4.062   4.934   3.536
 9440SOL    HW229220   4.003   5.084   3.558
 9441SOL     OW29221   6.363   5.356   5.795
 9441SOL    HW129222   6.444   5.364   5.737
 9441SOL    HW229223   6.379   5.402   5.882
 9442SOL     OW29224   4.861   3.556   1.778
 9442SOL    HW129225   4.900   3.607   1.854
 9442SOL    HW229226   4.850   3.460   1.804
 9443SOL     OW29227   2.276   5.496   0.446
 9443SOL    HW129228   2.370   5.479   0.418
 9443SOL    HW229229   2.241   5.578   0.400
 9444SOL     OW29230   1.778   4.354   0.425
 9444SOL    HW129231   1.745   4.289   0.494
 9444SOL    HW229232   1.778   4.311   0.335
 9445SOL     OW29233   6.652   3.532   3.347
 9445SOL    HW129234   6.619   3.612   3.298
 9445SOL    HW229235   6.585   3.504   3.416
 9446SOL     OW29236   0.116   5.618   4.587
 9446SOL    HW129237   0.078   5.603   4.495
 9446SOL    HW229238   0.073   5.555   4.651
 9447SOL     OW29239   5.614   5.044   3.423
 9447SOL    HW129240   5.518   5.018   3.412
 9447SOL    HW229241   5.669   4.998   3.354
 9448SOL     OW29242   6.584   6.884   6.031
 9448SOL    HW129243   6.593   6.805   6.092
 9448SOL    HW229244   6.536   6.858   5.948
 9449SOL     OW29245   6.006   0.098   0.018
 9449SOL    HW129246   6.103   0.122   0.014
 9449SOL    HW229247   5.981   0.073   0.111
 9450SOL     OW29248   2.217   5.569   3.208
 9450SOL    HW129249   2.297   5.542   3.155
 9450SOL    HW229250   2.138   5.513   3.181
 9451SOL     OW29251   3.511   5.651   5.475
 9451SOL    HW129252   3.604   5.614   5.478
 9451SOL    HW229253   3.451   5.587   5.428
 9452SOL     OW29254   0.779   4.385   0.278
 9452SOL    HW129255   0.799   4.315   0.209
 9452SOL    HW229256   0.781   4.475   0.235
 9453SOL     OW29257   2.730   5.311   2.753
 9453SOL    HW129258   2.705   5.407   2.763
 9453SOL    HW229259   2.731   5.267   2.843
 9454SOL     OW29260   3.411   3.265   6.695
 9454SOL    HW129261   3.344   3.231   6.761
 9454SOL    HW229262   3.468   3.335   6.737
 9455SOL     OW29263   2.450   2.075   2.985
 9455SOL    HW129264   2.399   1.990   3.001
 9455SOL    HW229265   2.451   2.094   2.887
 9456SOL     OW29266   6.533   3.506   0.605
 9456SOL    HW129267   6.523   3.543   0.697
 9456SOL    HW229268   6.559   3.579   0.541
 9457SOL     OW29269   0.342   5.054   4.531
 9457SOL    HW129270   0.369   5.097   4.445
 9457SOL    HW229271   0.273   4.984   4.513
 9458SOL     OW29272   0.483   3.826   0.166
 9458SOL    HW129273   0.410   3.760   0.149
 9458SOL    HW229274   0.497   3.836   0.264
 9459SOL     OW29275   5.608   5.054   3.695
 9459SOL    HW129276   5.518   5.073   3.735
 9459SOL    HW229277   5.598   5.047   3.595
 9460SOL     OW29278   2.066   3.335   4.868
 9460SOL    HW129279   2.076   3.427   4.908
 9460SOL    HW229280   2.075   3.267   4.941
 9461SOL     OW29281   0.582   1.858   1.922
 9461SOL    HW129282   0.654   1.898   1.865
 9461SOL    HW229283   0.588   1.896   2.014
 9462SOL     OW29284   1.834   2.437   3.628
 9462SOL    HW129285   1.882   2.521   3.654
 9462SOL    HW229286   1.863   2.362   3.686
 9463SOL     OW29287   5.205   6.825   1.149
 9463SOL    HW129288   5.244   6.739   1.116
 9463SOL    HW229289   5.240   6.901   1.093
 9464SOL     OW29290   6.034   0.103   0.466
 9464SOL    HW129291   6.117   0.155   0.444
 9464SOL    HW229292   5.954   0.162   0.458
 9465SOL     OW29293   0.024   3.403   1.840
 9465SOL    HW129294   7.019   3.314   1.875
 9465SOL    HW229295   6.968   3.465   1.840
 9466SOL     OW29296   3.314   3.998   5.842
 9466SOL    HW129297   3.224   3.988   5.797
 9466SOL    HW229298   3.370   4.062   5.790
 9467SOL     OW29299   0.646   3.039   0.993
 9467SOL    HW129300   0.547   3.043   0.981
 9467SOL    HW229301   0.689   3.112   0.939
 9468SOL     OW29302   6.096   3.884   6.767
 9468SOL    HW129303   6.177   3.942   6.778
 9468SOL    HW229304   6.110   3.798   6.815
 9469SOL     OW29305   6.926   5.824   1.351
 9469SOL    HW129306   6.997   5.864   1.409
 9469SOL    HW229307   6.964   5.806   1.260
 9470SOL     OW29308   4.656   3.758   0.116
 9470SOL    HW129309   4.656   3.662   0.089
 9470SOL    HW229310   4.742   3.780   0.163
 9471SOL     OW29311   6.455   2.062   4.840
 9471SOL    HW129312   6.360   2.090   4.852
 9471SOL    HW229313   6.509   2.090   4.919
 9472SOL     OW29314   0.220   3.816   5.582
 9472SOL    HW129315   0.315   3.843   5.594
 9472SOL    HW229316   0.161   3.886   5.623
 9473SOL     OW29317   3.293   4.710   6.717
 9473SOL    HW129318   3.312   4.690   6.814
 9473SOL    HW229319   3.204   4.672   6.692
 9474SOL     OW29320   6.202   3.860   1.775
 9474SOL    HW129321   6.107   3.854   1.806
 9474SOL    HW229322   6.263   3.858   1.853
 9475SOL     OW29323   4.376   3.355   0.853
 9475SOL    HW129324   4.416   3.391   0.768
 9475SOL    HW229325   4.305   3.417   0.884
 9476SOL     OW29326   4.031   3.811   4.567
 9476SOL    HW129327   4.089   3.787   4.645
 9476SOL    HW229328   4.069   3.771   4.483
 9477SOL     OW29329   0.412   2.645   1.126
 9477SOL    HW129330   0.380   2.657   1.220
 9477SOL    HW229331   0.484   2.575   1.124
 9478SOL     OW29332   5.453   3.436   0.773
 9478SOL    HW129333   5.542   3.406   0.739
 9478SOL    HW229334   5.467   3.502   0.847
 9479SOL     OW29335   4.261   6.827   0.931
 9479SOL    HW129336   4.263   6.899   0.861
 9479SOL    HW229337   4.284   6.867   1.020
 9480SOL     OW29338   6.342   5.448   0.133
 9480SOL    HW129339   6.376   5.427   0.224
 9480SOL    HW229340   6.371   5.376   0.069
 9481SOL     OW29341   4.920   2.339   2.490
 9481SOL    HW129342   4.964   2.309   2.575
 9481SOL    HW229343   4.988   2.383   2.431
 9482SOL     OW29344   6.939   0.642   2.906
 9482SOL    HW129345   6.971   0.691   2.825
 9482SOL    HW229346   6.988   0.675   2.987
 9483SOL     OW29347   1.814   0.848   0.447
 9483SOL    HW129348   1.882   0.775   0.461
 9483SOL    HW229349   1.855   0.936   0.473
 9484SOL     OW29350   3.844   0.437   4.861
 9484SOL    HW129351   3.778   0.387   4.805
 9484SOL    HW229352   3.840   0.535   4.839
 9485SOL     OW29353   0.465   1.611   1.083
 9485SOL    HW129354   0.429   1.693   1.039
 9485SOL    HW229355   0.519   1.559   1.017
 9486SOL     OW29356   4.523   6.363   1.578
 9486SOL    HW129357   4.612   6.341   1.617
 9486SOL    HW229358   4.485   6.444   1.622
 9487SOL     OW29359   3.185   4.041   3.718
 9487SOL    HW129360   3.135   4.126   3.700
 9487SOL    HW229361   3.171   4.014   3.813
 9488SOL     OW29362   2.860   0.219   1.013
 9488SOL    HW129363   2.898   0.312   1.010
 9488SOL    HW229364   2.762   0.223   0.995
 9489SOL     OW29365   5.171   4.275   1.146
 9489SOL    HW129366   5.240   4.208   1.174
 9489SOL    HW229367   5.088   4.262   1.200
 9490SOL     OW29368   6.774   5.758   3.491
 9490SOL    HW129369   6.822   5.747   3.577
 9490SOL    HW229370   6.827   5.816   3.430
 9491SOL     OW29371   5.615   5.370   3.778
 9491SOL    HW129372   5.644   5.451   3.728
 9491SOL    HW229373   5.672   5.292   3.752
 9492SOL     OW29374   3.791   3.725   4.622
 9492SOL    HW129375   3.767   3.652   4.558
 9492SOL    HW229376   3.876   3.768   4.593
 9493SOL     OW29377   3.085   5.867   4.802
 9493SOL    HW129378   3.088   5.891   4.705
 9493SOL    HW229379   3.058   5.946   4.856
 9494SOL     OW29380   5.610   3.332   2.288
 9494SOL    HW129381   5.691   3.311   2.233
 9494SOL    HW229382   5.530   3.284   2.250
 9495SOL     OW29383   6.819   1.820   3.088
 9495SOL    HW129384   6.829   1.899   3.028
 9495SOL    HW229385   6.723   1.806   3.110
 9496SOL     OW29386   5.395   3.156   1.631
 9496SOL    HW129387   5.328   3.228   1.650
 9496SOL    HW229388   5.479   3.174   1.683
 9497SOL     OW29389   4.992   5.965   4.829
 9497SOL    HW129390   4.894   5.981   4.841
 9497SOL    HW229391   5.036   5.961   4.918
 9498SOL     OW29392   6.576   4.787   4.845
 9498SOL    HW129393   6.535   4.791   4.936
 9498SOL    HW229394   6.664   4.835   4.846
 9499SOL     OW29395   1.347   6.406   5.359
 9499SOL    HW129396   1.423   6.378   5.301
 9499SOL    HW229397   1.343   6.506   5.364
 9500SOL     OW29398   4.295   6.765   0.477
 9500SOL    HW129399   4.214   6.718   0.512
 9500SOL    HW229400   4.272   6.860   0.456
 9501SOL     OW29401   2.007   1.297   4.654
 9501SOL    HW129402   1.980   1.213   4.605
 9501SOL    HW229403   2.073   1.274   4.725
 9502SOL     OW29404   5.719   3.437   5.432
 9502SOL    HW129405   5.641   3.498   5.419
 9502SOL    HW229406   5.778   3.441   5.351
 9503SOL     OW29407   6.637   2.470   0.240
 9503SOL    HW129408   6.681   2.380   0.244
 9503SOL    HW229409   6.540   2.461   0.263
 9504SOL     OW29410   6.865   3.571   1.707
 9504SOL    HW129411   6.774   3.610   1.697
 9504SOL    HW229412   6.934   3.643   1.702
 9505SOL     OW29413   4.837   4.500   5.742
 9505SOL    HW129414   4.781   4.545   5.673
 9505SOL    HW229415   4.836   4.401   5.727
 9506SOL     OW29416   1.609   2.677   0.784
 9506SOL    HW129417   1.678   2.738   0.746
 9506SOL    HW229418   1.590   2.604   0.719
 9507SOL     OW29419   6.997   0.882   1.937
 9507SOL    HW129420   6.999   0.979   1.914
 9507SOL    HW229421   0.053   0.836   1.896
 9508SOL     OW29422   5.904   1.973   2.576
 9508SOL    HW129423   5.962   1.956   2.496
 9508SOL    HW229424   5.809   1.985   2.546
 9509SOL     OW29425   6.934   1.251   3.494
 9509SOL    HW129426   6.995   1.300   3.556
 9509SOL    HW229427   6.851   1.305   3.480
 9510SOL     OW29428   1.476   4.209   3.649
 9510SOL    HW129429   1.543   4.208   3.575
 9510SOL    HW229430   1.384   4.219   3.610
 9511SOL     OW29431   2.211   0.448   1.001
 9511SOL    HW129432   2.184   0.472   1.094
 9511SOL    HW229433   2.130   0.442   0.943
 9512SOL     OW29434   6.775   2.138   0.719
 9512SOL    HW129435   6.833   2.219   0.709
 9512SOL    HW229436   6.729   2.141   0.808
 9513SOL     OW29437   2.542   4.270   6.711
 9513SOL    HW129438   2.465   4.298   6.654
 9513SOL    HW229439   2.606   4.215   6.657
 9514SOL     OW29440   2.358   4.983   6.711
 9514SOL    HW129441   2.409   4.991   6.625
 9514SOL    HW229442   2.260   4.984   6.691
 9515SOL     OW29443   1.743   6.410   2.301
 9515SOL    HW129444   1.692   6.482   2.254
 9515SOL    HW229445   1.761   6.439   2.395
 9516SOL     OW29446   5.724   4.343   0.351
 9516SOL    HW129447   5.761   4.295   0.272
 9516SOL    HW229448   5.674   4.279   0.409
 9517SOL     OW29449   1.501   4.046   1.173
 9517SOL    HW129450   1.548   4.097   1.100
 9517SOL    HW229451   1.402   4.054   1.160
 9518SOL     OW29452   2.185   1.279   0.839
 9518SOL    HW129453   2.129   1.334   0.777
 9518SOL    HW229454   2.228   1.338   0.907
 9519SOL     OW29455   3.271   3.095   5.113
 9519SOL    HW129456   3.310   3.093   5.021
 9519SOL    HW229457   3.311   3.171   5.164
 9520SOL     OW29458   2.785   1.016   3.280
 9520SOL    HW129459   2.855   1.080   3.248
 9520SOL    HW229460   2.768   0.947   3.209
 9521SOL     OW29461   5.453   5.481   2.608
 9521SOL    HW129462   5.374   5.421   2.591
 9521SOL    HW229463   5.506   5.490   2.524
 9522SOL     OW29464   3.194   5.781   1.441
 9522SOL    HW129465   3.275   5.775   1.500
 9522SOL    HW229466   3.113   5.754   1.494
 9523SOL     OW29467   3.111   5.482   5.128
 9523SOL    HW129468   3.019   5.510   5.153
 9523SOL    HW229469   3.107   5.397   5.076
 9524SOL     OW29470   3.692   2.494   1.036
 9524SOL    HW129471   3.703   2.593   1.047
 9524SOL    HW229472   3.765   2.459   0.977
 9525SOL     OW29473   2.491   2.477   6.376
 9525SOL    HW129474   2.446   2.451   6.461
 9525SOL    HW229475   2.589   2.481   6.390
 9526SOL     OW29476   4.900   6.075   1.779
 9526SOL    HW129477   4.910   6.084   1.878
 9526SOL    HW229478   4.970   6.013   1.743
 9527SOL     OW29479   0.768   0.374   2.090
 9527SOL    HW129480   0.792   0.458   2.139
 9527SOL    HW229481   0.684   0.336   2.127
 9528SOL     OW29482   6.639   0.669   0.408
 9528SOL    HW129483   6.722   0.654   0.354
 9528SOL    HW229484   6.573   0.720   0.352
 9529SOL     OW29485   6.600   3.235   5.647
 9529SOL    HW129486   6.590   3.334   5.636
 9529SOL    HW229487   6.694   3.208   5.627
 9530SOL     OW29488   2.069   3.131   3.440
 9530SOL    HW129489   2.133   3.078   3.496
 9530SOL    HW229490   2.005   3.068   3.395
 9531SOL     OW29491   4.042   5.386   2.851
 9531SOL    HW129492   4.058   5.303   2.905
 9531SOL    HW229493   4.129   5.420   2.815
 9532SOL     OW29494   0.338   6.412   2.174
 9532SOL    HW129495   0.358   6.430   2.078
 9532SOL    HW229496   0.248   6.450   2.197
 9533SOL     OW29497   0.143   0.731   4.700
 9533SOL    HW129498   0.108   0.824   4.707
 9533SOL    HW229499   0.117   0.679   4.781
 9534SOL     OW29500   6.019   2.949   5.226
 9534SOL    HW129501   5.933   2.987   5.260
 9534SOL    HW229502   6.003   2.855   5.196
 9535SOL     OW29503   2.485   1.274   5.649
 9535SOL    HW129504   2.510   1.319   5.563
 9535SOL    HW229505   2.543   1.308   5.723
 9536SOL     OW29506   3.149   4.679   5.336
 9536SOL    HW129507   3.089   4.640   5.266
 9536SOL    HW229508   3.098   4.747   5.389
 9537SOL     OW29509   2.703   0.301   2.177
 9537SOL    HW129510   2.625   0.250   2.215
 9537SOL    HW229511   2.670   0.364   2.106
 9538SOL     OW29512   6.521   1.873   4.680
 9538SOL    HW129513   6.617   1.864   4.656
 9538SOL    HW229514   6.508   1.956   4.735
 9539SOL     OW29515   2.147   4.241   5.753
 9539SOL    HW129516   2.215   4.313   5.747
 9539SOL    HW229517   2.098   4.233   5.666
 9540SOL     OW29518   4.649   4.350   5.028
 9540SOL    HW129519   4.627   4.405   4.947
 9540SOL    HW229520   4.709   4.275   5.002
 9541SOL     OW29521   2.332   1.995   5.892
 9541SOL    HW129522   2.259   2.059   5.914
 9541SOL    HW229523   2.314   1.907   5.935
 9542SOL     OW29524   4.858   3.796   5.272
 9542SOL    HW129525   4.863   3.726   5.200
 9542SOL    HW229526   4.779   3.855   5.257
 9543SOL     OW29527   3.651   0.665   4.410
 9543SOL    HW129528   3.676   0.575   4.446
 9543SOL    HW229529   3.712   0.688   4.334
 9544SOL     OW29530   6.376   1.108   2.394
 9544SOL    HW129531   6.360   1.034   2.458
 9544SOL    HW229532   6.471   1.140   2.402
 9545SOL     OW29533   6.640   5.535   3.546
 9545SOL    HW129534   6.716   5.597   3.527
 9545SOL    HW229535   6.568   5.585   3.593
 9546SOL     OW29536   1.825   3.149   6.853
 9546SOL    HW129537   1.862   3.095   6.778
 9546SOL    HW229538   1.895   3.213   6.887
 9547SOL     OW29539   2.090   6.028   4.305
 9547SOL    HW129540   2.091   5.929   4.289
 9547SOL    HW229541   2.162   6.052   4.370
 9548SOL     OW29542   6.628   5.649   4.620
 9548SOL    HW129543   6.644   5.579   4.691
 9548SOL    HW229544   6.542   5.697   4.639
 9549SOL     OW29545   3.027   4.176   1.404
 9549SOL    HW129546   3.030   4.082   1.440
 9549SOL    HW229547   3.120   4.211   1.397
 9550SOL     OW29548   7.001   1.363   6.376
 9550SOL    HW129549   6.982   1.270   6.344
 9550SOL    HW229550   6.926   1.423   6.348
 9551SOL     OW29551   0.030   0.070   4.442
 9551SOL    HW129552   0.082   0.144   4.399
 9551SOL    HW229553   6.966   0.107   4.477
 9552SOL     OW29554   0.970   6.172   2.616
 9552SOL    HW129555   1.040   6.205   2.680
 9552SOL    HW229556   1.015   6.133   2.536
 9553SOL     OW29557   6.140   4.054   6.478
 9553SOL    HW129558   6.092   4.141   6.494
 9553SOL    HW229559   6.084   3.995   6.419
 9554SOL     OW29560   2.758   0.744   1.335
 9554SOL    HW129561   2.833   0.684   1.306
 9554SOL    HW229562   2.735   0.807   1.262
 9555SOL     OW29563   7.021   1.926   0.994
 9555SOL    HW129564   0.019   1.829   0.982
 9555SOL    HW229565   6.978   1.940   1.083
 9556SOL     OW29566   2.238   1.753   1.142
 9556SOL    HW129567   2.331   1.770   1.175
 9556SOL    HW229568   2.193   1.840   1.123
 9557SOL     OW29569   6.094   0.537   2.443
 9557SOL    HW129570   6.042   0.452   2.438
 9557SOL    HW229571   6.057   0.594   2.515
 9558SOL     OW29572   6.538   5.504   3.901
 9558SOL    HW129573   6.604   5.436   3.934
 9558SOL    HW229574   6.546   5.512   3.801
 9559SOL     OW29575   6.906   3.870   1.710
 9559SOL    HW129576   6.858   3.945   1.756
 9559SOL    HW229577   6.889   3.875   1.611
 9560SOL     OW29578   1.631   1.578   3.021
 9560SOL    HW129579   1.534   1.579   3.044
 9560SOL    HW229580   1.671   1.667   3.040
 9561SOL     OW29581   2.463   6.755   1.060
 9561SOL    HW129582   2.527   6.712   0.996
 9561SOL    HW229583   2.370   6.743   1.026
 9562SOL     OW29584   3.149   6.188   4.705
 9562SOL    HW129585   3.220   6.256   4.722
 9562SOL    HW229586   3.113   6.155   4.792
 9563SOL     OW29587   6.149   6.029   6.860
 9563SOL    HW129588   6.092   6.102   6.897
 9563SOL    HW229589   6.245   6.056   6.865
 9564SOL     OW29590   2.963   0.238   6.815
 9564SOL    HW129591   2.959   0.171   6.889
 9564SOL    HW229592   2.919   0.201   6.733
 9565SOL     OW29593   4.391   5.862   4.931
 9565SOL    HW129594   4.354   5.861   4.838
 9565SOL    HW229595   4.381   5.771   4.971
 9566SOL     OW29596   3.298   4.604   0.257
 9566SOL    HW129597   3.358   4.535   0.297
 9566SOL    HW229598   3.310   4.691   0.305
 9567SOL     OW29599   6.517   5.123   6.161
 9567SOL    HW129600   6.444   5.147   6.097
 9567SOL    HW229601   6.537   5.200   6.221
 9568SOL     OW29602   4.556   3.120   6.277
 9568SOL    HW129603   4.581   3.207   6.319
 9568SOL    HW229604   4.485   3.076   6.331
 9569SOL     OW29605   6.544   1.275   0.739
 9569SOL    HW129606   6.515   1.365   0.707
 9569SOL    HW229607   6.588   1.225   0.664
 9570SOL     OW29608   0.800   1.986   1.865
 9570SOL    HW129609   0.870   1.942   1.922
 9570SOL    HW229610   0.842   2.024   1.783
 9571SOL     OW29611   2.865   3.349   0.265
 9571SOL    HW129612   2.786   3.297   0.234
 9571SOL    HW229613   2.896   3.313   0.353
 9572SOL     OW29614   1.515   5.528   0.922
 9572SOL    HW129615   1.469   5.569   1.001
 9572SOL    HW229616   1.450   5.518   0.847
 9573SOL     OW29617   0.631   1.238   6.588
 9573SOL    HW129618   0.617   1.172   6.661
 9573SOL    HW229619   0.684   1.196   6.514
 9574SOL     OW29620   3.831   3.468   4.775
 9574SOL    HW129621   3.826   3.566   4.755
 9574SOL    HW229622   3.778   3.448   4.857
 9575SOL     OW29623   5.658   0.997   0.967
 9575SOL    HW129624   5.670   0.958   1.058
 9575SOL    HW229625   5.571   1.045   0.962
 9576SOL     OW29626   3.541   1.508   3.346
 9576SOL    HW129627   3.601   1.491   3.425
 9576SOL    HW229628   3.584   1.471   3.263
 9577SOL     OW29629   1.285   0.641   2.475
 9577SOL    HW129630   1.328   0.585   2.546
 9577SOL    HW229631   1.355   0.690   2.423
 9578SOL     OW29632   5.889   3.505   3.024
 9578SOL    HW129633   5.881   3.465   2.932
 9578SOL    HW229634   5.877   3.433   3.092
 9579SOL     OW29635   1.318   6.423   2.789
 9579SOL    HW129636   1.382   6.473   2.731
 9579SOL    HW229637   1.362   6.403   2.877
 9580SOL     OW29638   5.744   3.720   0.042
 9580SOL    HW129639   5.732   3.757   0.134
 9580SOL    HW229640   5.684   3.642   0.029
 9581SOL     OW29641   2.676   4.911   6.441
 9581SOL    HW129642   2.618   4.830   6.428
 9581SOL    HW229643   2.770   4.882   6.459
 9582SOL     OW29644   4.349   4.743   4.070
 9582SOL    HW129645   4.347   4.830   4.118
 9582SOL    HW229646   4.360   4.669   4.136
 9583SOL     OW29647   2.188   3.381   1.489
 9583SOL    HW129648   2.283   3.371   1.518
 9583SOL    HW229649   2.176   3.338   1.399
 9584SOL     OW29650   6.053   5.785   6.736
 9584SOL    HW129651   6.028   5.781   6.640
 9584SOL    HW229652   6.091   5.875   6.757
 9585SOL     OW29653   6.326   0.533   2.298
 9585SOL    HW129654   6.228   0.535   2.319
 9585SOL    HW229655   6.377   0.565   2.377
 9586SOL     OW29656   5.909   3.784   2.978
 9586SOL    HW129657   5.912   3.685   2.993
 9586SOL    HW229658   5.893   3.803   2.882
 9587SOL     OW29659   5.795   0.318   2.055
 9587SOL    HW129660   5.696   0.308   2.059
 9587SOL    HW229661   5.833   0.315   2.148
 9588SOL     OW29662   0.087   1.254   1.460
 9588SOL    HW129663   0.181   1.282   1.476
 9588SOL    HW229664   0.079   1.154   1.471
 9589SOL     OW29665   2.582   5.776   0.140
 9589SOL    HW129666   2.556   5.862   0.095
 9589SOL    HW229667   2.659   5.793   0.202
 9590SOL     OW29668   0.314   3.692   2.046
 9590SOL    HW129669   0.228   3.712   2.092
 9590SOL    HW229670   0.303   3.610   1.989
 9591SOL     OW29671   2.754   5.994   0.728
 9591SOL    HW129672   2.744   6.004   0.629
 9591SOL    HW229673   2.851   6.001   0.752
 9592SOL     OW29674   4.393   5.297   2.631
 9592SOL    HW129675   4.337   5.363   2.681
 9592SOL    HW229676   4.361   5.291   2.537
 9593SOL     OW29677   5.066   2.370   4.697
 9593SOL    HW129678   5.012   2.288   4.680
 9593SOL    HW229679   5.161   2.353   4.669
 9594SOL     OW29680   6.810   6.212   3.261
 9594SOL    HW129681   6.803   6.169   3.351
 9594SOL    HW229682   6.741   6.285   3.254
 9595SOL     OW29683   2.270   5.618   5.216
 9595SOL    HW129684   2.319   5.533   5.197
 9595SOL    HW229685   2.174   5.608   5.187
 9596SOL     OW29686   0.365   4.804   5.871
 9596SOL    HW129687   0.436   4.822   5.939
 9596SOL    HW229688   0.404   4.808   5.780
 9597SOL     OW29689   0.179   3.902   1.655
 9597SOL    HW129690   0.086   3.873   1.681
 9597SOL    HW229691   0.192   3.997   1.682
 9598SOL     OW29692   0.598   3.786   5.270
 9598SOL    HW129693   0.540   3.714   5.307
 9598SOL    HW229694   0.559   3.876   5.291
 9599SOL     OW29695   3.669   0.585   5.115
 9599SOL    HW129696   3.601   0.578   5.041
 9599SOL    HW229697   3.730   0.506   5.111
 9600SOL     OW29698   1.608   0.377   5.684
 9600SOL    HW129699   1.644   0.471   5.680
 9600SOL    HW229700   1.516   0.378   5.723
 9601SOL     OW29701   6.388   3.983   6.244
 9601SOL    HW129702   6.449   4.053   6.280
 9601SOL    HW229703   6.421   3.892   6.271
 9602SOL     OW29704   6.842   5.338   6.017
 9602SOL    HW129705   6.801   5.251   5.992
 9602SOL    HW229706   6.828   5.354   6.115
 9603SOL     OW29707   2.120   6.826   4.615
 9603SOL    HW129708   2.073   6.767   4.681
 9603SOL    HW229709   2.206   6.858   4.656
 9604SOL     OW29710   5.438   0.721   0.366
 9604SOL    HW129711   5.407   0.751   0.276
 9604SOL    HW229712   5.435   0.799   0.429
 9605SOL     OW29713   1.225   4.687   5.566
 9605SOL    HW129714   1.325   4.683   5.566
 9605SOL    HW229715   1.188   4.604   5.607
 9606SOL     OW29716   0.819   0.156   4.021
 9606SOL    HW129717   0.723   0.144   3.997
 9606SOL    HW229718   0.831   0.245   4.067
 9607SOL     OW29719   0.886   1.029   1.601
 9607SOL    HW129720   0.878   1.110   1.542
 9607SOL    HW229721   0.956   1.045   1.670
 9608SOL     OW29722   6.936   0.191   2.565
 9608SOL    HW129723   6.895   0.242   2.641
 9608SOL    HW229724   6.943   0.251   2.485
 9609SOL     OW29725   1.313   4.021   4.517
 9609SOL    HW129726   1.366   3.984   4.593
 9609SOL    HW229727   1.269   4.106   4.546
 9610SOL     OW29728   1.595   2.786   5.643
 9610SOL    HW129729   1.627   2.752   5.731
 9610SOL    HW229730   1.594   2.710   5.577
 9611SOL     OW29731   6.728   0.015   1.603
 9611SOL    HW129732   6.733   0.102   1.554
 9611SOL    HW229733   6.819   7.013   1.637
 9612SOL     OW29734   6.829   2.886   0.657
 9612SOL    HW129735   6.850   2.982   0.673
 9612SOL    HW229736   6.765   2.854   0.726
 9613SOL     OW29737   5.586   6.570   4.221
 9613SOL    HW129738   5.682   6.597   4.226
 9613SOL    HW229739   5.545   6.608   4.138
 9614SOL     OW29740   4.140   3.505   1.898
 9614SOL    HW129741   4.153   3.406   1.899
 9614SOL    HW229742   4.220   3.549   1.858
 9615SOL     OW29743   2.544   4.973   3.406
 9615SOL    HW129744   2.581   4.885   3.376
 9615SOL    HW229745   2.534   5.033   3.327
 9616SOL     OW29746   3.998   3.202   1.454
 9616SOL    HW129747   4.044   3.121   1.417
 9616SOL    HW229748   3.904   3.204   1.421
 9617SOL     OW29749   1.157   3.471   3.362
 9617SOL    HW129750   1.176   3.375   3.383
 9617SOL    HW229751   1.059   3.484   3.350
 9618SOL     OW29752   3.699   0.331   6.436
 9618SOL    HW129753   3.733   0.334   6.342
 9618SOL    HW229754   3.732   0.411   6.485
 9619SOL     OW29755   1.364   6.319   0.544
 9619SOL    HW129756   1.381   6.221   0.534
 9619SOL    HW229757   1.450   6.366   0.566
 9620SOL     OW29758   3.995   0.887   6.787
 9620SOL    HW129759   4.082   0.895   6.739
 9620SOL    HW229760   4.010   0.850   6.878
 9621SOL     OW29761   1.360   0.622   1.865
 9621SOL    HW129762   1.266   0.596   1.847
 9621SOL    HW229763   1.402   0.558   1.929
 9622SOL     OW29764   6.457   0.821   6.795
 9622SOL    HW129765   6.498   0.774   6.717
 9622SOL    HW229766   6.441   0.917   6.771
 9623SOL     OW29767   4.928   5.579   6.384
 9623SOL    HW129768   4.840   5.551   6.346
 9623SOL    HW229769   4.987   5.614   6.311
 9624SOL     OW29770   5.134   5.144   5.347
 9624SOL    HW129771   5.156   5.241   5.358
 9624SOL    HW229772   5.218   5.091   5.333
 9625SOL     OW29773   4.818   4.241   6.489
 9625SOL    HW129774   4.844   4.166   6.550
 9625SOL    HW229775   4.809   4.325   6.542
 9626SOL     OW29776   1.595   4.535   4.457
 9626SOL    HW129777   1.638   4.484   4.383
 9626SOL    HW229778   1.662   4.593   4.502
 9627SOL     OW29779   1.341   4.323   5.304
 9627SOL    HW129780   1.432   4.296   5.271
 9627SOL    HW229781   1.295   4.378   5.235
 9628SOL     OW29782   6.045   4.393   0.054
 9628SOL    HW129783   6.073   4.297   0.055
 9628SOL    HW229784   5.975   4.407   7.006
 9629SOL     OW29785   6.413   6.201   3.543
 9629SOL    HW129786   6.415   6.301   3.533
 9629SOL    HW229787   6.491   6.161   3.495
 9630SOL     OW29788   5.991   6.028   5.300
 9630SOL    HW129789   6.087   6.047   5.278
 9630SOL    HW229790   5.931   6.075   5.236
 9631SOL     OW29791   4.416   1.146   1.858
 9631SOL    HW129792   4.446   1.148   1.763
 9631SOL    HW229793   4.364   1.062   1.875
 9632SOL     OW29794   1.796   5.382   1.862
 9632SOL    HW129795   1.870   5.336   1.812
 9632SOL    HW229796   1.732   5.314   1.897
 9633SOL     OW29797   3.678   3.065   1.872
 9633SOL    HW129798   3.650   3.090   1.779
 9633SOL    HW229799   3.719   2.974   1.871
 9634SOL     OW29800   6.241   4.391   3.099
 9634SOL    HW129801   6.203   4.480   3.075
 9634SOL    HW229802   6.241   4.380   3.199
 9635SOL     OW29803   0.115   4.645   4.943
 9635SOL    HW129804   0.042   4.578   4.930
 9635SOL    HW229805   0.098   4.697   5.027
 9636SOL     OW29806   4.025   1.191   5.923
 9636SOL    HW129807   3.937   1.215   5.882
 9636SOL    HW229808   4.061   1.269   5.973
 9637SOL     OW29809   2.409   3.663   1.150
 9637SOL    HW129810   2.397   3.564   1.150
 9637SOL    HW229811   2.350   3.704   1.220
 9638SOL     OW29812   0.180   4.249   6.156
 9638SOL    HW129813   0.168   4.318   6.085
 9638SOL    HW229814   0.135   4.280   6.240
 9639SOL     OW29815   4.462   2.534   1.738
 9639SOL    HW129816   4.524   2.589   1.681
 9639SOL    HW229817   4.426   2.459   1.684
 9640SOL     OW29818   3.919   1.065   1.960
 9640SOL    HW129819   3.926   0.967   1.978
 9640SOL    HW229820   3.867   1.108   2.034
 9641SOL     OW29821   5.199   5.696   2.960
 9641SOL    HW129822   5.172   5.600   2.956
 9641SOL    HW229823   5.287   5.708   2.914
 9642SOL     OW29824   0.983   0.646   4.596
 9642SOL    HW129825   0.936   0.586   4.660
 9642SOL    HW229826   1.077   0.614   4.583
 9643SOL     OW29827   4.627   4.401   3.458
 9643SOL    HW129828   4.622   4.306   3.490
 9643SOL    HW229829   4.722   4.426   3.442
 9644SOL     OW29830   1.675   5.707   5.171
 9644SOL    HW129831   1.598   5.690   5.232
 9644SOL    HW229832   1.687   5.629   5.110
 9645SOL     OW29833   1.259   4.058   5.319
 9645SOL    HW129834   1.296   4.151   5.311
 9645SOL    HW229835   1.242   4.021   5.227
 9646SOL     OW29836   2.298   6.260   3.631
 9646SOL    HW129837   2.212   6.236   3.677
 9646SOL    HW229838   2.279   6.320   3.554
 9647SOL     OW29839   6.798   6.532   2.723
 9647SOL    HW129840   6.790   6.616   2.776
 9647SOL    HW229841   6.890   6.495   2.734
 9648SOL     OW29842   5.272   3.208   1.177
 9648SOL    HW129843   5.181   3.191   1.214
 9648SOL    HW229844   5.340   3.200   1.250
 9649SOL     OW29845   2.446   3.555   6.210
 9649SOL    HW129846   2.372   3.573   6.145
 9649SOL    HW229847   2.534   3.567   6.163
 9650SOL     OW29848   6.116   5.027   3.151
 9650SOL    HW129849   6.157   5.068   3.232
 9650SOL    HW229850   6.136   5.084   3.071
 9651SOL     OW29851   3.913   1.341   0.765
 9651SOL    HW129852   3.849   1.274   0.801
 9651SOL    HW229853   3.971   1.299   0.695
 9652SOL     OW29854   0.670   4.342   1.547
 9652SOL    HW129855   0.605   4.278   1.587
 9652SOL    HW229856   0.653   4.434   1.582
 9653SOL     OW29857   4.382   4.746   5.617
 9653SOL    HW129858   4.436   4.830   5.610
 9653SOL    HW229859   4.438   4.674   5.656
 9654SOL     OW29860   3.517   2.906   2.450
 9654SOL    HW129861   3.453   2.839   2.488
 9654SOL    HW229862   3.495   2.923   2.354
 9655SOL     OW29863   0.216   1.452   0.746
 9655SOL    HW129864   0.175   1.475   0.834
 9655SOL    HW229865   0.281   1.377   0.758
 9656SOL     OW29866   4.659   2.117   0.626
 9656SOL    HW129867   4.632   2.021   0.636
 9656SOL    HW229868   4.740   2.134   0.681
 9657SOL     OW29869   5.124   4.412   3.555
 9657SOL    HW129870   5.172   4.446   3.635
 9657SOL    HW229871   5.173   4.333   3.517
 9658SOL     OW29872   5.480   2.144   2.185
 9658SOL    HW129873   5.562   2.166   2.134
 9658SOL    HW229874   5.478   2.046   2.205
 9659SOL     OW29875   2.065   1.966   0.099
 9659SOL    HW129876   2.001   2.042   0.105
 9659SOL    HW229877   2.159   2.000   0.100
 9660SOL     OW29878   0.725   0.078   1.566
 9660SOL    HW129879   0.722   7.005   1.598
 9660SOL    HW229880   0.692   0.138   1.639
 9661SOL     OW29881   4.599   5.600   1.446
 9661SOL    HW129882   4.534   5.524   1.446
 9661SOL    HW229883   4.692   5.564   1.438
 9662SOL     OW29884   5.200   4.119   6.787
 9662SOL    HW129885   5.236   4.049   6.725
 9662SOL    HW229886   5.249   4.114   6.874
 9663SOL     OW29887   0.585   4.329   2.677
 9663SOL    HW129888   0.620   4.259   2.739
 9663SOL    HW229889   0.653   4.348   2.606
 9664SOL     OW29890   5.468   4.532   4.175
 9664SOL    HW129891   5.403   4.579   4.234
 9664SOL    HW229892   5.419   4.469   4.114
 9665SOL     OW29893   6.443   5.940   5.759
 9665SOL    HW129894   6.414   6.034   5.742
 9665SOL    HW229895   6.480   5.934   5.852
 9666SOL     OW29896   6.579   4.300   1.713
 9666SOL    HW129897   6.574   4.373   1.645
 9666SOL    HW229898   6.540   4.332   1.799
 9667SOL     OW29899   4.676   4.143   0.729
 9667SOL    HW129900   4.669   4.044   0.738
 9667SOL    HW229901   4.615   4.175   0.657
 9668SOL     OW29902   1.345   1.287   6.206
 9668SOL    HW129903   1.426   1.298   6.263
 9668SOL    HW229904   1.354   1.204   6.151
 9669SOL     OW29905   2.541   0.006   0.750
 9669SOL    HW129906   2.601   7.007   0.673
 9669SOL    HW229907   2.543   0.104   0.768
 9670SOL     OW29908   0.305   6.106   5.175
 9670SOL    HW129909   0.263   6.016   5.179
 9670SOL    HW229910   0.258   6.163   5.108
 9671SOL     OW29911   0.425   5.159   0.092
 9671SOL    HW129912   0.510   5.108   0.081
 9671SOL    HW229913   0.444   5.249   0.131
 9672SOL     OW29914   1.790   5.075   2.622
 9672SOL    HW129915   1.707   5.038   2.662
 9672SOL    HW229916   1.779   5.174   2.607
 9673SOL     OW29917   3.758   3.809   1.181
 9673SOL    HW129918   3.740   3.905   1.161
 9673SOL    HW229919   3.818   3.802   1.260
 9674SOL     OW29920   3.703   6.126   3.124
 9674SOL    HW129921   3.715   6.082   3.213
 9674SOL    HW229922   3.764   6.205   3.118
 9675SOL     OW29923   4.968   3.391   7.001
 9675SOL    HW129924   5.048   3.339   6.970
 9675SOL    HW229925   4.921   3.430   6.922
 9676SOL     OW29926   1.308   3.632   5.772
 9676SOL    HW129927   1.301   3.688   5.689
 9676SOL    HW229928   1.393   3.580   5.770
 9677SOL     OW29929   6.672   5.217   6.491
 9677SOL    HW129930   6.621   5.302   6.505
 9677SOL    HW229931   6.752   5.235   6.434
 9678SOL     OW29932   3.216   3.732   4.259
 9678SOL    HW129933   3.235   3.829   4.272
 9678SOL    HW229934   3.165   3.719   4.174
 9679SOL     OW29935   3.091   1.463   4.601
 9679SOL    HW129936   3.117   1.420   4.688
 9679SOL    HW229937   3.107   1.399   4.526
 9680SOL     OW29938   4.928   6.833   5.537
 9680SOL    HW129939   4.836   6.855   5.570
 9680SOL    HW229940   4.980   6.789   5.610
 9681SOL     OW29941   3.286   2.018   1.355
 9681SOL    HW129942   3.259   1.923   1.341
 9681SOL    HW229943   3.227   2.078   1.302
 9682SOL     OW29944   4.868   4.418   3.686
 9682SOL    HW129945   4.807   4.357   3.636
 9682SOL    HW229946   4.962   4.401   3.658
 9683SOL     OW29947   3.059   6.077   0.618
 9683SOL    HW129948   3.126   6.029   0.562
 9683SOL    HW229949   3.095   6.088   0.711
 9684SOL     OW29950   0.495   3.731   5.000
 9684SOL    HW129951   0.554   3.753   4.922
 9684SOL    HW229952   0.552   3.722   5.083
 9685SOL     OW29953   4.738   3.371   0.524
 9685SOL    HW129954   4.817   3.392   0.580
 9685SOL    HW229955   4.751   3.406   0.432
 9686SOL     OW29956   0.865   2.971   0.167
 9686SOL    HW129957   0.826   3.044   0.224
 9686SOL    HW229958   0.914   3.012   0.090
 9687SOL     OW29959   6.266   0.485   1.649
 9687SOL    HW129960   6.219   0.572   1.664
 9687SOL    HW229961   6.232   0.418   1.715
 9688SOL     OW29962   0.793   3.731   0.919
 9688SOL    HW129963   0.818   3.774   0.831
 9688SOL    HW229964   0.695   3.713   0.920
 9689SOL     OW29965   0.968   3.985   6.691
 9689SOL    HW129966   1.024   3.915   6.735
 9689SOL    HW229967   0.946   4.057   6.756
 9690SOL     OW29968   4.478   5.783   5.528
 9690SOL    HW129969   4.511   5.694   5.498
 9690SOL    HW229970   4.388   5.801   5.488
 9691SOL     OW29971   3.079   4.042   2.170
 9691SOL    HW129972   3.038   3.952   2.156
 9691SOL    HW229973   3.052   4.103   2.095
 9692SOL     OW29974   4.865   5.816   1.069
 9692SOL    HW129975   4.826   5.754   1.001
 9692SOL    HW229976   4.848   5.911   1.040
 9693SOL     OW29977   5.710   4.329   3.114
 9693SOL    HW129978   5.764   4.245   3.111
 9693SOL    HW229979   5.758   4.398   3.168
 9694SOL     OW29980   3.573   1.039   2.003
 9694SOL    HW129981   3.614   1.117   2.051
 9694SOL    HW229982   3.480   1.024   2.036
 9695SOL     OW29983   6.612   2.739   3.588
 9695SOL    HW129984   6.656   2.789   3.663
 9695SOL    HW229985   6.668   2.659   3.564
 9696SOL     OW29986   5.942   2.100   1.890
 9696SOL    HW129987   6.034   2.095   1.931
 9696SOL    HW229988   5.951   2.111   1.791
 9697SOL     OW29989   0.374   6.442   0.717
 9697SOL    HW129990   0.461   6.462   0.671
 9697SOL    HW229991   0.390   6.427   0.814
 9698SOL     OW29992   5.581   3.018   6.144
 9698SOL    HW129993   5.674   3.053   6.131
 9698SOL    HW229994   5.535   3.073   6.214
 9699SOL     OW29995   0.690   5.810   6.954
 9699SOL    HW129996   0.648   5.894   6.989
 9699SOL    HW229997   0.696   5.742   0.005
 9700SOL     OW29998   6.410   5.334   4.545
 9700SOL    HW129999   6.387   5.244   4.506
 9700SOL    HW230000   6.451   5.322   4.635
 9701SOL     OW30001   4.144   4.024   5.920
 9701SOL    HW130002   4.195   4.019   5.834
 9701SOL    HW230003   4.114   3.932   5.946
 9702SOL     OW30004   3.833   2.435   0.199
 9702SOL    HW130005   3.921   2.447   0.153
 9702SOL    HW230006   3.762   2.486   0.149
 9703SOL     OW30007   4.883   3.957   3.774
 9703SOL    HW130008   4.840   4.035   3.819
 9703SOL    HW230009   4.965   3.987   3.726
 9704SOL     OW30010   3.209   5.470   2.608
 9704SOL    HW130011   3.113   5.488   2.629
 9704SOL    HW230012   3.267   5.528   2.665
 9705SOL     OW30013   5.890   4.380   5.669
 9705SOL    HW130014   5.963   4.427   5.718
 9705SOL    HW230015   5.830   4.334   5.734
 9706SOL     OW30016   2.922   2.444   1.617
 9706SOL    HW130017   2.826   2.414   1.611
 9706SOL    HW230018   2.949   2.450   1.713
 9707SOL     OW30019   5.478   5.133   2.373
 9707SOL    HW130020   5.446   5.083   2.293
 9707SOL    HW230021   5.575   5.155   2.363
 9708SOL     OW30022   1.128   1.400   2.975
 9708SOL    HW130023   1.036   1.382   3.009
 9708SOL    HW230024   1.156   1.492   3.003
 9709SOL     OW30025   5.379   4.707   1.916
 9709SOL    HW130026   5.370   4.626   1.859
 9709SOL    HW230027   5.365   4.682   2.012
 9710SOL     OW30028   6.214   0.507   0.813
 9710SOL    HW130029   6.287   0.486   0.878
 9710SOL    HW230030   6.250   0.505   0.720
 9711SOL     OW30031   3.824   5.538   6.299
 9711SOL    HW130032   3.826   5.493   6.388
 9711SOL    HW230033   3.788   5.475   6.230
 9712SOL     OW30034   5.851   3.245   0.375
 9712SOL    HW130035   5.891   3.157   0.351
 9712SOL    HW230036   5.762   3.231   0.418
 9713SOL     OW30037   2.812   5.388   3.273
 9713SOL    HW130038   2.881   5.343   3.330
 9713SOL    HW230039   2.745   5.434   3.332
 9714SOL     OW30040   3.583   6.414   5.785
 9714SOL    HW130041   3.643   6.349   5.832
 9714SOL    HW230042   3.489   6.399   5.816
 9715SOL     OW30043   6.131   4.533   6.643
 9715SOL    HW130044   6.155   4.529   6.739
 9715SOL    HW230045   6.077   4.616   6.626
 9716SOL     OW30046   3.601   4.661   0.068
 9716SOL    HW130047   3.637   4.579   0.113
 9716SOL    HW230048   3.666   4.691   7.020
 9717SOL     OW30049   4.633   6.334   6.548
 9717SOL    HW130050   4.656   6.313   6.643
 9717SOL    HW230051   4.715   6.327   6.492
 9718SOL     OW30052   4.325   2.996   1.135
 9718SOL    HW130053   4.313   2.934   1.057
 9718SOL    HW230054   4.414   2.979   1.177
 9719SOL     OW30055   5.143   6.823   6.011
 9719SOL    HW130056   5.190   6.755   5.955
 9719SOL    HW230057   5.082   6.777   6.075
 9720SOL     OW30058   0.606   3.714   2.447
 9720SOL    HW130059   0.606   3.664   2.533
 9720SOL    HW230060   0.581   3.652   2.372
 9721SOL     OW30061   0.235   1.065   6.581
 9721SOL    HW130062   0.195   1.157   6.584
 9721SOL    HW230063   0.243   1.035   6.486
 9722SOL     OW30064   3.660   0.977   5.416
 9722SOL    HW130065   3.661   0.922   5.333
 9722SOL    HW230066   3.566   1.003   5.438
 9723SOL     OW30067   4.746   5.702   4.094
 9723SOL    HW130068   4.708   5.651   4.171
 9723SOL    HW230069   4.731   5.799   4.108
 9724SOL     OW30070   1.605   4.411   0.019
 9724SOL    HW130071   1.523   4.458   0.050
 9724SOL    HW230072   1.627   4.440   6.948
 9725SOL     OW30073   3.908   6.327   6.398
 9725SOL    HW130074   3.890   6.337   6.496
 9725SOL    HW230075   3.847   6.388   6.347
 9726SOL     OW30076   4.583   2.038   4.855
 9726SOL    HW130077   4.534   2.114   4.898
 9726SOL    HW230078   4.537   2.013   4.769
 9727SOL     OW30079   1.244   2.383   6.627
 9727SOL    HW130080   1.297   2.435   6.694
 9727SOL    HW230081   1.147   2.389   6.651
 9728SOL     OW30082   0.289   1.816   5.158
 9728SOL    HW130083   0.227   1.742   5.134
 9728SOL    HW230084   0.321   1.861   5.075
 9729SOL     OW30085   1.261   4.537   3.863
 9729SOL    HW130086   1.358   4.520   3.845
 9729SOL    HW230087   1.234   4.492   3.949
 9730SOL     OW30088   1.016   4.409   3.419
 9730SOL    HW130089   1.075   4.409   3.499
 9730SOL    HW230090   1.016   4.500   3.378
 9731SOL     OW30091   4.730   5.427   1.709
 9731SOL    HW130092   4.690   5.373   1.635
 9731SOL    HW230093   4.756   5.366   1.784
 9732SOL     OW30094   1.060   3.141   2.046
 9732SOL    HW130095   0.974   3.166   2.091
 9732SOL    HW230096   1.041   3.099   1.957
 9733SOL     OW30097   5.706   5.632   0.513
 9733SOL    HW130098   5.737   5.660   0.423
 9733SOL    HW230099   5.782   5.590   0.563
 9734SOL     OW30100   6.634   0.085   0.213
 9734SOL    HW130101   6.559   0.060   0.151
 9734SOL    HW230102   6.597   0.124   0.297
 9735SOL     OW30103   1.543   2.983   3.316
 9735SOL    HW130104   1.447   2.962   3.336
 9735SOL    HW230105   1.569   3.068   3.362
 9736SOL     OW30106   5.411   1.723   6.192
 9736SOL    HW130107   5.322   1.687   6.221
 9736SOL    HW230108   5.476   1.716   6.267
 9737SOL     OW30109   5.305   2.252   2.584
 9737SOL    HW130110   5.306   2.333   2.642
 9737SOL    HW230111   5.238   2.264   2.511
 9738SOL     OW30112   1.960   6.659   0.829
 9738SOL    HW130113   1.946   6.592   0.757
 9738SOL    HW230114   1.895   6.734   0.819
 9739SOL     OW30115   5.052   5.643   0.191
 9739SOL    HW130116   5.091   5.730   0.222
 9739SOL    HW230117   4.953   5.653   0.179
 9740SOL     OW30118   6.873   1.354   2.960
 9740SOL    HW130119   6.881   1.323   3.055
 9740SOL    HW230120   6.940   1.426   2.943
 9741SOL     OW30121   2.520   1.078   3.394
 9741SOL    HW130122   2.509   1.132   3.477
 9741SOL    HW230123   2.617   1.069   3.373
 9742SOL     OW30124   4.033   1.274   0.540
 9742SOL    HW130125   4.115   1.217   0.540
 9742SOL    HW230126   4.052   1.359   0.491
 9743SOL     OW30127   0.052   4.177   2.767
 9743SOL    HW130128   0.029   4.274   2.774
 9743SOL    HW230129   0.100   4.148   2.850
 9744SOL     OW30130   2.112   0.278   2.687
 9744SOL    HW130131   2.032   0.336   2.702
 9744SOL    HW230132   2.189   0.334   2.658
 9745SOL     OW30133   4.989   3.306   6.217
 9745SOL    HW130134   4.945   3.389   6.183
 9745SOL    HW230135   5.063   3.331   6.280
 9746SOL     OW30136   5.418   6.477   5.570
 9746SOL    HW130137   5.394   6.567   5.607
 9746SOL    HW230138   5.409   6.477   5.471
 9747SOL     OW30139   2.964   2.059   1.923
 9747SOL    HW130140   3.005   2.055   1.832
 9747SOL    HW230141   2.941   2.153   1.945
 9748SOL     OW30142   6.924   6.656   3.247
 9748SOL    HW130143   6.954   6.605   3.166
 9748SOL    HW230144   7.002   6.702   3.288
 9749SOL     OW30145   0.730   0.932   3.462
 9749SOL    HW130146   0.797   0.885   3.404
 9749SOL    HW230147   0.639   0.895   3.443
 9750SOL     OW30148   5.932   5.416   3.700
 9750SOL    HW130149   5.924   5.326   3.658
 9750SOL    HW230150   5.853   5.473   3.676
 9751SOL     OW30151   2.291   6.940   0.830
 9751SOL    HW130152   2.268   6.924   0.734
 9751SOL    HW230153   2.388   6.962   0.838
 9752SOL     OW30154   4.474   1.683   5.582
 9752SOL    HW130155   4.562   1.652   5.618
 9752SOL    HW230156   4.476   1.681   5.482
 9753SOL     OW30157   0.869   5.638   5.894
 9753SOL    HW130158   0.934   5.655   5.820
 9753SOL    HW230159   0.821   5.552   5.878
 9754SOL     OW30160   3.088   0.509   0.936
 9754SOL    HW130161   3.061   0.600   0.904
 9754SOL    HW230162   3.169   0.516   0.995
 9755SOL     OW30163   3.135   4.110   4.269
 9755SOL    HW130164   3.158   4.101   4.366
 9755SOL    HW230165   3.209   4.158   4.222
 9756SOL     OW30166   6.125   2.503   6.371
 9756SOL    HW130167   6.097   2.424   6.316
 9756SOL    HW230168   6.147   2.474   6.464
 9757SOL     OW30169   5.926   4.585   4.983
 9757SOL    HW130170   5.863   4.550   5.052
 9757SOL    HW230171   5.875   4.634   4.913
 9758SOL     OW30172   2.265   1.129   0.626
 9758SOL    HW130173   2.222   1.191   0.692
 9758SOL    HW230174   2.266   1.172   0.536
 9759SOL     OW30175   0.824   0.862   0.255
 9759SOL    HW130176   0.805   0.845   0.352
 9759SOL    HW230177   0.843   0.959   0.241
 9760SOL     OW30178   5.183   3.428   5.376
 9760SOL    HW130179   5.087   3.426   5.350
 9760SOL    HW230180   5.207   3.517   5.413
 9761SOL     OW30181   1.016   2.554   1.813
 9761SOL    HW130182   0.979   2.628   1.869
 9761SOL    HW230183   1.022   2.470   1.867
 9762SOL     OW30184   3.279   1.351   5.078
 9762SOL    HW130185   3.329   1.420   5.026
 9762SOL    HW230186   3.190   1.388   5.106
 9763SOL     OW30187   5.610   1.027   3.963
 9763SOL    HW130188   5.523   0.977   3.971
 9763SOL    HW230189   5.609   1.081   3.879
 9764SOL     OW30190   6.172   2.548   2.243
 9764SOL    HW130191   6.128   2.595   2.167
 9764SOL    HW230192   6.116   2.469   2.270
 9765SOL     OW30193   7.022   6.504   3.039
 9765SOL    HW130194   7.018   6.407   3.060
 9765SOL    HW230195   7.002   6.518   2.942
 9766SOL     OW30196   2.576   6.469   2.054
 9766SOL    HW130197   2.565   6.563   2.022
 9766SOL    HW230198   2.658   6.429   2.012
 9767SOL     OW30199   2.440   2.526   5.988
 9767SOL    HW130200   2.424   2.505   5.892
 9767SOL    HW230201   2.537   2.513   6.009
 9768SOL     OW30202   4.446   1.331   2.040
 9768SOL    HW130203   4.450   1.265   1.965
 9768SOL    HW230204   4.352   1.365   2.049
 9769SOL     OW30205   3.512   1.466   4.667
 9769SOL    HW130206   3.590   1.423   4.713
 9769SOL    HW230207   3.433   1.405   4.672
 9770SOL     OW30208   3.846   1.298   5.364
 9770SOL    HW130209   3.866   1.211   5.409
 9770SOL    HW230210   3.889   1.373   5.414
 9771SOL     OW30211   2.366   5.460   1.154
 9771SOL    HW130212   2.399   5.416   1.238
 9771SOL    HW230213   2.436   5.522   1.119
 9772SOL     OW30214   1.858   6.328   1.778
 9772SOL    HW130215   1.937   6.362   1.828
 9772SOL    HW230216   1.774   6.357   1.823
 9773SOL     OW30217   4.909   5.433   3.726
 9773SOL    HW130218   4.912   5.529   3.755
 9773SOL    HW230219   4.908   5.429   3.626
 9774SOL     OW30220   0.279   5.506   2.896
 9774SOL    HW130221   0.302   5.465   2.984
 9774SOL    HW230222   0.187   5.478   2.869
 9775SOL     OW30223   3.155   0.554   3.507
 9775SOL    HW130224   3.240   0.517   3.543
 9775SOL    HW230225   3.166   0.652   3.488
 9776SOL     OW30226   1.082   4.519   5.915
 9776SOL    HW130227   1.063   4.617   5.918
 9776SOL    HW230228   1.100   4.491   5.821
 9777SOL     OW30229   6.144   5.050   0.954
 9777SOL    HW130230   6.049   5.080   0.963
 9777SOL    HW230231   6.177   5.070   0.862
 9778SOL     OW30232   6.951   1.488   5.007
 9778SOL    HW130233   6.893   1.455   5.081
 9778SOL    HW230234   6.894   1.529   4.936
 9779SOL     OW30235   0.771   1.791   3.996
 9779SOL    HW130236   0.732   1.700   3.977
 9779SOL    HW230237   0.866   1.780   4.023
 9780SOL     OW30238   2.301   1.775   0.568
 9780SOL    HW130239   2.279   1.829   0.487
 9780SOL    HW230240   2.368   1.824   0.624
 9781SOL     OW30241   2.167   3.081   4.645
 9781SOL    HW130242   2.228   3.008   4.613
 9781SOL    HW230243   2.183   3.164   4.593
 9782SOL     OW30244   0.581   2.075   0.151
 9782SOL    HW130245   0.490   2.034   0.156
 9782SOL    HW230246   0.585   2.136   0.071
 9783SOL     OW30247   4.344   2.392   3.253
 9783SOL    HW130248   4.349   2.491   3.240
 9783SOL    HW230249   4.412   2.348   3.195
 9784SOL     OW30250   3.746   0.472   5.940
 9784SOL    HW130251   3.693   0.535   5.996
 9784SOL    HW230252   3.779   0.519   5.859
 9785SOL     OW30253   6.978   2.153   5.578
 9785SOL    HW130254   0.045   2.178   5.614
 9785SOL    HW230255   6.909   2.163   5.650
 9786SOL     OW30256   2.449   3.200   0.471
 9786SOL    HW130257   2.482   3.294   0.478
 9786SOL    HW230258   2.349   3.200   0.468
 9787SOL     OW30259   3.222   3.359   2.839
 9787SOL    HW130260   3.273   3.317   2.763
 9787SOL    HW230261   3.227   3.299   2.919
 9788SOL     OW30262   1.044   6.665   1.811
 9788SOL    HW130263   1.030   6.762   1.791
 9788SOL    HW230264   1.122   6.655   1.873
 9789SOL     OW30265   1.292   5.990   0.447
 9789SOL    HW130266   1.355   5.937   0.390
 9789SOL    HW230267   1.330   5.999   0.539
 9790SOL     OW30268   6.334   4.314   5.854
 9790SOL    HW130269   6.377   4.351   5.937
 9790SOL    HW230270   6.397   4.324   5.777
 9791SOL     OW30271   0.508   6.887   6.684
 9791SOL    HW130272   0.537   6.792   6.697
 9791SOL    HW230273   0.419   6.901   6.727
 9792SOL     OW30274   3.242   4.992   0.747
 9792SOL    HW130275   3.290   4.988   0.834
 9792SOL    HW230276   3.144   5.005   0.763
 9793SOL     OW30277   4.236   0.472   2.548
 9793SOL    HW130278   4.152   0.428   2.582
 9793SOL    HW230279   4.252   0.443   2.454
 9794SOL     OW30280   6.285   4.608   5.687
 9794SOL    HW130281   6.215   4.638   5.622
 9794SOL    HW230282   6.249   4.534   5.744
 9795SOL     OW30283   1.336   2.299   4.608
 9795SOL    HW130284   1.336   2.220   4.668
 9795SOL    HW230285   1.425   2.309   4.565
 9796SOL     OW30286   4.069   3.694   2.754
 9796SOL    HW130287   4.104   3.603   2.777
 9796SOL    HW230288   4.113   3.725   2.669
 9797SOL     OW30289   1.907   6.036   0.130
 9797SOL    HW130290   1.996   5.997   0.105
 9797SOL    HW230291   1.840   6.015   0.059
 9798SOL     OW30292   2.844   0.591   2.267
 9798SOL    HW130293   2.883   0.679   2.240
 9798SOL    HW230294   2.773   0.565   2.201
 9799SOL     OW30295   3.014   4.030   6.112
 9799SOL    HW130296   2.962   3.954   6.072
 9799SOL    HW230297   2.951   4.097   6.150
 9800SOL     OW30298   5.372   5.130   4.639
 9800SOL    HW130299   5.348   5.208   4.698
 9800SOL    HW230300   5.297   5.063   4.641
 9801SOL     OW30301   4.616   4.302   6.800
 9801SOL    HW130302   4.650   4.379   6.745
 9801SOL    HW230303   4.559   4.336   6.875
 9802SOL     OW30304   5.888   4.806   0.578
 9802SOL    HW130305   5.859   4.730   0.520
 9802SOL    HW230306   5.979   4.787   0.615
 9803SOL     OW30307   1.665   3.306   6.484
 9803SOL    HW130308   1.687   3.255   6.401
 9803SOL    HW230309   1.591   3.259   6.534
 9804SOL     OW30310   0.590   6.026   3.284
 9804SOL    HW130311   0.499   6.066   3.269
 9804SOL    HW230312   0.659   6.082   3.237
 9805SOL     OW30313   0.460   6.534   3.115
 9805SOL    HW130314   0.550   6.502   3.143
 9805SOL    HW230315   0.464   6.632   3.095
 9806SOL     OW30316   1.524   1.619   6.939
 9806SOL    HW130317   1.545   1.709   6.900
 9806SOL    HW230318   1.586   1.551   6.901
 9807SOL     OW30319   3.141   3.761   1.203
 9807SOL    HW130320   3.108   3.778   1.111
 9807SOL    HW230321   3.220   3.699   1.199
 9808SOL     OW30322   4.084   5.461   5.119
 9808SOL    HW130323   4.009   5.526   5.117
 9808SOL    HW230324   4.063   5.384   5.059
 9809SOL     OW30325   0.823   3.528   6.912
 9809SOL    HW130326   0.910   3.503   6.955
 9809SOL    HW230327   0.768   3.445   6.899
 9810SOL     OW30328   3.452   1.988   4.666
 9810SOL    HW130329   3.381   1.991   4.736
 9810SOL    HW230330   3.506   1.904   4.678
 9811SOL     OW30331   5.819   5.004   3.242
 9811SOL    HW130332   5.909   4.976   3.275
 9811SOL    HW230333   5.810   4.982   3.145
 9812SOL     OW30334   3.211   1.396   5.659
 9812SOL    HW130335   3.308   1.384   5.682
 9812SOL    HW230336   3.163   1.310   5.671
 9813SOL     OW30337   5.023   1.983   1.223
 9813SOL    HW130338   4.983   1.947   1.139
 9813SOL    HW230339   5.022   1.912   1.293
 9814SOL     OW30340   0.208   0.402   6.621
 9814SOL    HW130341   0.224   0.488   6.573
 9814SOL    HW230342   0.281   0.337   6.598
 9815SOL     OW30343   4.919   3.366   4.388
 9815SOL    HW130344   4.907   3.392   4.293
 9815SOL    HW230345   4.936   3.268   4.394
 9816SOL     OW30346   0.485   0.919   5.913
 9816SOL    HW130347   0.511   0.935   5.818
 9816SOL    HW230348   0.416   0.987   5.940
 9817SOL     OW30349   1.514   6.750   3.435
 9817SOL    HW130350   1.492   6.656   3.410
 9817SOL    HW230351   1.569   6.751   3.518
 9818SOL     OW30352   6.503   1.239   4.084
 9818SOL    HW130353   6.592   1.268   4.049
 9818SOL    HW230354   6.461   1.314   4.136
 9819SOL     OW30355   5.272   3.289   3.247
 9819SOL    HW130356   5.268   3.285   3.147
 9819SOL    HW230357   5.214   3.216   3.285
 9820SOL     OW30358   3.426   3.115   6.464
 9820SOL    HW130359   3.436   3.168   6.380
 9820SOL    HW230360   3.431   3.176   6.543
 9821SOL     OW30361   5.662   1.136   6.548
 9821SOL    HW130362   5.594   1.209   6.545
 9821SOL    HW230363   5.728   1.149   6.474
 9822SOL     OW30364   1.595   0.112   3.253
 9822SOL    HW130365   1.572   0.166   3.172
 9822SOL    HW230366   1.510   0.087   3.301
 9823SOL     OW30367   2.999   0.025   0.573
 9823SOL    HW130368   2.950   6.970   0.532
 9823SOL    HW230369   2.941   0.107   0.570
 9824SOL     OW30370   2.021   4.868   4.563
 9824SOL    HW130371   2.072   4.933   4.506
 9824SOL    HW230372   2.076   4.845   4.644
 9825SOL     OW30373   3.858   5.272   5.769
 9825SOL    HW130374   3.956   5.276   5.788
 9825SOL    HW230375   3.822   5.181   5.792
 9826SOL     OW30376   5.196   5.029   6.194
 9826SOL    HW130377   5.287   5.068   6.183
 9826SOL    HW230378   5.146   5.034   6.107
 9827SOL     OW30379   2.192   3.780   3.836
 9827SOL    HW130380   2.160   3.703   3.781
 9827SOL    HW230381   2.234   3.747   3.920
 9828SOL     OW30382   2.449   3.098   6.319
 9828SOL    HW130383   2.379   3.169   6.314
 9828SOL    HW230384   2.426   3.035   6.393
 9829SOL     OW30385   3.613   6.000   6.966
 9829SOL    HW130386   3.523   6.040   6.946
 9829SOL    HW230387   3.619   5.911   6.921
 9830SOL     OW30388   6.062   3.105   1.992
 9830SOL    HW130389   6.060   3.096   2.092
 9830SOL    HW230390   6.152   3.135   1.963
 9831SOL     OW30391   2.119   5.571   1.208
 9831SOL    HW130392   2.057   5.494   1.221
 9831SOL    HW230393   2.205   5.538   1.168
 9832SOL     OW30394   4.996   5.593   2.681
 9832SOL    HW130395   4.980   5.560   2.588
 9832SOL    HW230396   5.046   5.524   2.733
 9833SOL     OW30397   4.066   3.479   5.255
 9833SOL    HW130398   4.032   3.533   5.332
 9833SOL    HW230399   4.000   3.407   5.233
 9834SOL     OW30400   3.339   4.405   5.402
 9834SOL    HW130401   3.283   4.482   5.370
 9834SOL    HW230402   3.435   4.433   5.403
 9835SOL     OW30403   3.293   2.807   5.398
 9835SOL    HW130404   3.242   2.862   5.333
 9835SOL    HW230405   3.271   2.710   5.384
 9836SOL     OW30406   6.154   4.596   3.891
 9836SOL    HW130407   6.058   4.622   3.879
 9836SOL    HW230408   6.202   4.604   3.804
 9837SOL     OW30409   3.030   0.620   2.970
 9837SOL    HW130410   2.956   0.609   2.903
 9837SOL    HW230411   3.113   0.578   2.934
 9838SOL     OW30412   0.928   6.593   5.972
 9838SOL    HW130413   0.925   6.521   5.902
 9838SOL    HW230414   1.017   6.639   5.969
 9839SOL     OW30415   6.029   2.035   3.370
 9839SOL    HW130416   6.021   1.994   3.279
 9839SOL    HW230417   6.006   2.132   3.365
 9840SOL     OW30418   6.868   1.902   1.239
 9840SOL    HW130419   6.919   1.982   1.271
 9840SOL    HW230420   6.914   1.819   1.269
 9841SOL     OW30421   1.897   4.075   4.554
 9841SOL    HW130422   1.979   4.017   4.548
 9841SOL    HW230423   1.920   4.160   4.603
 9842SOL     OW30424   4.098   3.437   2.470
 9842SOL    HW130425   4.105   3.535   2.451
 9842SOL    HW230426   4.103   3.422   2.569
 9843SOL     OW30427   5.059   0.543   1.327
 9843SOL    HW130428   5.074   0.472   1.396
 9843SOL    HW230429   5.076   0.633   1.366
 9844SOL     OW30430   6.040   1.246   2.003
 9844SOL    HW130431   5.963   1.187   1.979
 9844SOL    HW230432   6.077   1.288   1.920
 9845SOL     OW30433   3.389   2.116   3.718
 9845SOL    HW130434   3.442   2.109   3.633
 9845SOL    HW230435   3.424   2.050   3.784
 9846SOL     OW30436   3.881   3.646   1.914
 9846SOL    HW130437   3.965   3.615   1.869
 9846SOL    HW230438   3.813   3.670   1.845
 9847SOL     OW30439   3.546   2.893   4.519
 9847SOL    HW130440   3.623   2.938   4.565
 9847SOL    HW230441   3.581   2.833   4.447
 9848SOL     OW30442   3.194   3.234   6.074
 9848SOL    HW130443   3.274   3.207   6.127
 9848SOL    HW230444   3.143   3.152   6.047
 9849SOL     OW30445   0.648   0.264   6.831
 9849SOL    HW130446   0.696   0.224   6.752
 9849SOL    HW230447   0.550   0.257   6.817
 9850SOL     OW30448   5.695   0.062   4.054
 9850SOL    HW130449   5.792   0.039   4.044
 9850SOL    HW230450   5.685   0.160   4.067
 9851SOL     OW30451   4.704   1.359   5.066
 9851SOL    HW130452   4.781   1.298   5.047
 9851SOL    HW230453   4.737   1.441   5.112
 9852SOL     OW30454   4.209   2.303   2.806
 9852SOL    HW130455   4.285   2.289   2.743
 9852SOL    HW230456   4.186   2.400   2.810
 9853SOL     OW30457   5.402   4.342   4.523
 9853SOL    HW130458   5.429   4.367   4.616
 9853SOL    HW230459   5.303   4.352   4.514
 9854SOL     OW30460   0.621   5.850   4.981
 9854SOL    HW130461   0.577   5.879   5.066
 9854SOL    HW230462   0.706   5.902   4.968
 9855SOL     OW30463   2.517   2.683   0.997
 9855SOL    HW130464   2.600   2.738   0.986
 9855SOL    HW230465   2.444   2.721   0.940
 9856SOL     OW30466   4.705   3.964   5.623
 9856SOL    HW130467   4.775   3.986   5.691
 9856SOL    HW230468   4.701   3.865   5.610
 9857SOL     OW30469   4.445   2.397   3.505
 9857SOL    HW130470   4.393   2.400   3.420
 9857SOL    HW230471   4.386   2.423   3.581
 9858SOL     OW30472   0.050   0.761   0.567
 9858SOL    HW130473   0.072   0.707   0.649
 9858SOL    HW230474   0.067   0.706   0.485
 9859SOL     OW30475   6.060   6.842   2.051
 9859SOL    HW130476   5.985   6.777   2.066
 9859SOL    HW230477   6.024   6.926   2.011
 9860SOL     OW30478   0.697   1.535   3.890
 9860SOL    HW130479   0.616   1.477   3.905
 9860SOL    HW230480   0.756   1.493   3.821
 9861SOL     OW30481   3.161   0.227   3.293
 9861SOL    HW130482   3.088   0.162   3.275
 9861SOL    HW230483   3.140   0.281   3.375
 9862SOL     OW30484   3.671   3.942   0.127
 9862SOL    HW130485   3.724   3.954   0.043
 9862SOL    HW230486   3.697   4.012   0.193
 9863SOL     OW30487   3.583   6.799   2.722
 9863SOL    HW130488   3.537   6.710   2.725
 9863SOL    HW230489   3.624   6.812   2.632
 9864SOL     OW30490   3.759   6.586   4.128
 9864SOL    HW130491   3.751   6.526   4.049
 9864SOL    HW230492   3.791   6.676   4.098
 9865SOL     OW30493   1.536   0.999   4.228
 9865SOL    HW130494   1.567   0.957   4.143
 9865SOL    HW230495   1.598   0.973   4.302
 9866SOL     OW30496   4.695   4.906   6.154
 9866SOL    HW130497   4.740   4.929   6.240
 9866SOL    HW230498   4.637   4.825   6.167
 9867SOL     OW30499   6.130   0.966   0.788
 9867SOL    HW130500   6.048   1.018   0.763
 9867SOL    HW230501   6.167   1.003   0.873
 9868SOL     OW30502   0.530   3.972   5.951
 9868SOL    HW130503   0.523   3.878   5.987
 9868SOL    HW230504   0.611   3.979   5.893
 9869SOL     OW30505   1.794   3.107   2.402
 9869SOL    HW130506   1.826   3.097   2.308
 9869SOL    HW230507   1.715   3.169   2.404
 9870SOL     OW30508   3.943   5.442   2.584
 9870SOL    HW130509   3.935   5.397   2.673
 9870SOL    HW230510   4.003   5.522   2.592
 9871SOL     OW30511   0.248   5.790   6.146
 9871SOL    HW130512   0.281   5.842   6.067
 9871SOL    HW230513   0.177   5.842   6.193
 9872SOL     OW30514   2.499   4.785   4.113
 9872SOL    HW130515   2.503   4.700   4.166
 9872SOL    HW230516   2.540   4.770   4.023
 9873SOL     OW30517   2.500   2.635   7.000
 9873SOL    HW130518   2.586   2.682   7.019
 9873SOL    HW230519   2.518   2.544   6.963
 9874SOL     OW30520   6.842   2.838   4.848
 9874SOL    HW130521   6.869   2.857   4.754
 9874SOL    HW230522   6.772   2.903   4.877
 9875SOL     OW30523   6.292   6.523   1.820
 9875SOL    HW130524   6.278   6.602   1.879
 9875SOL    HW230525   6.386   6.489   1.830
 9876SOL     OW30526   6.427   0.441   3.404
 9876SOL    HW130527   6.378   0.356   3.384
 9876SOL    HW230528   6.367   0.519   3.384
 9877SOL     OW30529   0.509   6.127   4.164
 9877SOL    HW130530   0.490   6.095   4.257
 9877SOL    HW230531   0.565   6.060   4.116
 9878SOL     OW30532   2.673   4.836   5.094
 9878SOL    HW130533   2.727   4.756   5.067
 9878SOL    HW230534   2.686   4.910   5.028
 9879SOL     OW30535   5.654   5.284   4.389
 9879SOL    HW130536   5.698   5.239   4.467
 9879SOL    HW230537   5.704   5.262   4.305
 9880SOL     OW30538   3.257   0.853   5.902
 9880SOL    HW130539   3.298   0.806   5.824
 9880SOL    HW230540   3.287   0.809   5.987
 9881SOL     OW30541   0.697   0.832   5.008
 9881SOL    HW130542   0.767   0.892   5.046
 9881SOL    HW230543   0.631   0.886   4.956
 9882SOL     OW30544   1.138   3.743   3.898
 9882SOL    HW130545   1.227   3.702   3.875
 9882SOL    HW230546   1.150   3.839   3.922
 9883SOL     OW30547   1.240   6.292   0.079
 9883SOL    HW130548   1.284   6.245   0.156
 9883SOL    HW230549   1.207   6.225   0.013
 9884SOL     OW30550   5.069   2.235   2.046
 9884SOL    HW130551   4.982   2.240   1.998
 9884SOL    HW230552   5.104   2.328   2.061
 9885SOL     OW30553   6.856   2.265   4.936
 9885SOL    HW130554   6.836   2.363   4.942
 9885SOL    HW230555   6.789   2.213   4.989
 9886SOL     OW30556   1.274   4.599   2.659
 9886SOL    HW130557   1.364   4.630   2.628
 9886SOL    HW230558   1.226   4.555   2.584
 9887SOL     OW30559   3.833   0.329   6.193
 9887SOL    HW130560   3.835   0.234   6.165
 9887SOL    HW230561   3.804   0.386   6.116
 9888SOL     OW30562   5.556   4.638   3.015
 9888SOL    HW130563   5.656   4.641   3.006
 9888SOL    HW230564   5.515   4.705   2.953
 9889SOL     OW30565   6.708   5.198   2.002
 9889SOL    HW130566   6.760   5.116   2.024
 9889SOL    HW230567   6.753   5.278   2.042
 9890SOL     OW30568   1.869   2.153   0.484
 9890SOL    HW130569   1.896   2.127   0.577
 9890SOL    HW230570   1.887   2.251   0.470
 9891SOL     OW30571   4.794   3.939   1.900
 9891SOL    HW130572   4.740   4.023   1.892
 9891SOL    HW230573   4.828   3.930   1.994
 9892SOL     OW30574   6.804   4.899   1.275
 9892SOL    HW130575   6.852   4.964   1.334
 9892SOL    HW230576   6.819   4.925   1.179
 9893SOL     OW30577   0.778   0.567   1.079
 9893SOL    HW130578   0.710   0.585   1.150
 9893SOL    HW230579   0.732   0.561   0.990
 9894SOL     OW30580   3.070   2.977   0.581
 9894SOL    HW130581   3.166   3.006   0.580
 9894SOL    HW230582   3.034   2.984   0.674
 9895SOL     OW30583   6.105   4.881   4.317
 9895SOL    HW130584   6.146   4.845   4.233
 9895SOL    HW230585   6.011   4.850   4.324
 9896SOL     OW30586   6.590   1.651   6.771
 9896SOL    HW130587   6.616   1.746   6.786
 9896SOL    HW230588   6.524   1.646   6.696
 9897SOL     OW30589   5.281   6.254   2.584
 9897SOL    HW130590   5.235   6.170   2.557
 9897SOL    HW230591   5.265   6.271   2.681
 9898SOL     OW30592   1.657   5.966   5.070
 9898SOL    HW130593   1.649   5.867   5.073
 9898SOL    HW230594   1.567   6.007   5.087
 9899SOL     OW30595   1.318   5.856   0.957
 9899SOL    HW130596   1.348   5.804   1.037
 9899SOL    HW230597   1.223   5.885   0.970
 9900SOL     OW30598   1.939   2.474   3.136
 9900SOL    HW130599   1.976   2.381   3.145
 9900SOL    HW230600   2.012   2.540   3.155
 9901SOL     OW30601   3.041   0.497   6.850
 9901SOL    HW130602   2.986   0.528   6.928
 9901SOL    HW230603   3.012   0.405   6.823
 9902SOL     OW30604   3.418   5.081   1.635
 9902SOL    HW130605   3.427   5.126   1.724
 9902SOL    HW230606   3.439   5.145   1.562
 9903SOL     OW30607   5.722   2.074   1.304
 9903SOL    HW130608   5.664   2.065   1.224
 9903SOL    HW230609   5.669   2.057   1.387
 9904SOL     OW30610   1.150   3.841   6.823
 9904SOL    HW130611   1.186   3.748   6.832
 9904SOL    HW230612   1.205   3.892   6.757
 9905SOL     OW30613   2.055   0.383   6.562
 9905SOL    HW130614   1.976   0.438   6.590
 9905SOL    HW230615   2.092   0.420   6.476
 9906SOL     OW30616   1.924   3.340   1.047
 9906SOL    HW130617   1.954   3.246   1.065
 9906SOL    HW230618   1.984   3.404   1.096
 9907SOL     OW30619   0.874   0.164   1.307
 9907SOL    HW130620   0.824   0.122   1.383
 9907SOL    HW230621   0.931   0.239   1.342
 9908SOL     OW30622   6.324   1.229   5.575
 9908SOL    HW130623   6.419   1.255   5.594
 9908SOL    HW230624   6.293   1.164   5.645
 9909SOL     OW30625   4.589   1.552   2.804
 9909SOL    HW130626   4.541   1.553   2.892
 9909SOL    HW230627   4.687   1.561   2.820
 9910SOL     OW30628   1.051   5.099   1.582
 9910SOL    HW130629   0.981   5.052   1.636
 9910SOL    HW230630   1.129   5.038   1.569
 9911SOL     OW30631   3.241   5.849   2.647
 9911SOL    HW130632   3.287   5.768   2.685
 9911SOL    HW230633   3.307   5.924   2.640
 9912SOL     OW30634   3.873   0.004   1.481
 9912SOL    HW130635   3.971   7.005   1.476
 9912SOL    HW230636   3.833   7.020   1.390
 9913SOL     OW30637   6.678   4.103   0.269
 9913SOL    HW130638   6.689   4.061   0.179
 9913SOL    HW230639   6.633   4.039   0.331
 9914SOL     OW30640   5.806   1.169   4.892
 9914SOL    HW130641   5.745   1.223   4.834
 9914SOL    HW230642   5.765   1.157   4.982
 9915SOL     OW30643   6.441   1.116   3.836
 9915SOL    HW130644   6.458   1.150   3.929
 9915SOL    HW230645   6.397   1.027   3.841
 9916SOL     OW30646   1.987   2.561   2.869
 9916SOL    HW130647   2.013   2.652   2.839
 9916SOL    HW230648   1.951   2.565   2.962
 9917SOL     OW30649   4.473   3.797   6.352
 9917SOL    HW130650   4.520   3.860   6.414
 9917SOL    HW230651   4.375   3.818   6.353
 9918SOL     OW30652   2.469   2.164   3.514
 9918SOL    HW130653   2.418   2.242   3.478
 9918SOL    HW230654   2.441   2.081   3.466
 9919SOL     OW30655   0.827   5.489   0.612
 9919SOL    HW130656   0.862   5.581   0.595
 9919SOL    HW230657   0.773   5.489   0.696
 9920SOL     OW30658   5.011   1.322   2.188
 9920SOL    HW130659   4.960   1.301   2.270
 9920SOL    HW230660   4.996   1.417   2.162
 9921SOL     OW30661   3.933   6.029   4.704
 9921SOL    HW130662   3.870   5.981   4.765
 9921SOL    HW230663   3.985   6.096   4.756
 9922SOL     OW30664   2.093   3.804   0.157
 9922SOL    HW130665   2.068   3.746   0.080
 9922SOL    HW230666   2.026   3.794   0.230
 9923SOL     OW30667   5.630   4.590   0.042
 9923SOL    HW130668   5.582   4.524   0.100
 9923SOL    HW230669   5.569   4.620   6.991
 9924SOL     OW30670   5.983   1.712   3.045
 9924SOL    HW130671   6.053   1.656   3.089
 9924SOL    HW230672   6.025   1.767   2.972
 9925SOL     OW30673   0.451   4.453   4.184
 9925SOL    HW130674   0.434   4.542   4.228
 9925SOL    HW230675   0.365   4.415   4.153
 9926SOL     OW30676   4.598   3.145   1.481
 9926SOL    HW130677   4.648   3.216   1.431
 9926SOL    HW230678   4.537   3.187   1.548
 9927SOL     OW30679   1.795   0.306   0.690
 9927SOL    HW130680   1.847   0.221   0.701
 9927SOL    HW230681   1.699   0.290   0.716
 9928SOL     OW30682   4.904   4.811   2.665
 9928SOL    HW130683   4.883   4.847   2.756
 9928SOL    HW230684   4.892   4.712   2.664
 9929SOL     OW30685   3.080   4.043   5.205
 9929SOL    HW130686   3.176   4.014   5.205
 9929SOL    HW230687   3.076   4.142   5.218
 9930SOL     OW30688   6.526   6.755   4.940
 9930SOL    HW130689   6.476   6.829   4.985
 9930SOL    HW230690   6.474   6.722   4.862
 9931SOL     OW30691   0.563   5.255   4.524
 9931SOL    HW130692   0.548   5.160   4.496
 9931SOL    HW230693   0.630   5.297   4.463
 9932SOL     OW30694   3.082   3.471   6.136
 9932SOL    HW130695   3.111   3.377   6.119
 9932SOL    HW230696   3.158   3.534   6.118
 9933SOL     OW30697   1.114   6.515   4.035
 9933SOL    HW130698   1.185   6.484   4.098
 9933SOL    HW230699   1.095   6.612   4.051
 9934SOL     OW30700   6.460   2.241   5.930
 9934SOL    HW130701   6.366   2.211   5.949
 9934SOL    HW230702   6.504   2.174   5.870
 9935SOL     OW30703   3.551   6.666   0.595
 9935SOL    HW130704   3.486   6.600   0.557
 9935SOL    HW230705   3.504   6.754   0.608
 9936SOL     OW30706   6.828   4.821   0.470
 9936SOL    HW130707   6.760   4.870   0.416
 9936SOL    HW230708   6.914   4.817   0.421
 9937SOL     OW30709   0.269   1.923   1.652
 9937SOL    HW130710   0.173   1.950   1.661
 9937SOL    HW230711   0.289   1.851   1.719
 9938SOL     OW30712   6.784   4.952   3.600
 9938SOL    HW130713   6.760   4.985   3.691
 9938SOL    HW230714   6.858   4.885   3.607
 9939SOL     OW30715   4.500   2.669   1.458
 9939SOL    HW130716   4.415   2.620   1.473
 9939SOL    HW230717   4.491   2.762   1.494
 9940SOL     OW30718   0.832   0.828   1.319
 9940SOL    HW130719   0.836   0.928   1.308
 9940SOL    HW230720   0.837   0.805   1.416
 9941SOL     OW30721   3.168   3.134   4.499
 9941SOL    HW130722   3.179   3.072   4.577
 9941SOL    HW230723   3.204   3.090   4.417
 9942SOL     OW30724   2.647   5.244   3.075
 9942SOL    HW130725   2.674   5.302   3.151
 9942SOL    HW230726   2.550   5.260   3.053
 9943SOL     OW30727   0.458   4.194   5.593
 9943SOL    HW130728   0.529   4.253   5.633
 9943SOL    HW230729   0.398   4.161   5.666
 9944SOL     OW30730   0.744   4.231   6.627
 9944SOL    HW130731   0.657   4.181   6.622
 9944SOL    HW230732   0.779   4.227   6.720
 9945SOL     OW30733   4.569   5.770   6.450
 9945SOL    HW130734   4.534   5.860   6.477
 9945SOL    HW230735   4.665   5.763   6.476
 9946SOL     OW30736   6.027   0.823   3.452
 9946SOL    HW130737   5.957   0.835   3.521
 9946SOL    HW230738   6.089   0.902   3.452
 9947SOL     OW30739   2.578   2.444   4.450
 9947SOL    HW130740   2.665   2.419   4.407
 9947SOL    HW230741   2.536   2.363   4.492
 9948SOL     OW30742   6.078   4.405   5.873
 9948SOL    HW130743   6.161   4.354   5.893
 9948SOL    HW230744   5.999   4.359   5.915
 9949SOL     OW30745   6.786   4.934   3.951
 9949SOL    HW130746   6.694   4.930   3.911
 9949SOL    HW230747   6.824   5.026   3.937
 9950SOL     OW30748   5.523   6.132   5.580
 9950SOL    HW130749   5.508   6.043   5.623
 9950SOL    HW230750   5.620   6.154   5.583
 9951SOL     OW30751   1.045   1.793   3.980
 9951SOL    HW130752   1.036   1.707   3.929
 9951SOL    HW230753   1.077   1.865   3.919
 9952SOL     OW30754   1.127   4.647   0.413
 9952SOL    HW130755   1.190   4.683   0.345
 9952SOL    HW230756   1.166   4.657   0.504
 9953SOL     OW30757   5.842   2.540   4.878
 9953SOL    HW130758   5.861   2.475   4.804
 9953SOL    HW230759   5.758   2.589   4.858
 9954SOL     OW30760   0.241   0.726   5.905
 9954SOL    HW130761   0.194   0.805   5.944
 9954SOL    HW230762   0.302   0.756   5.831
 9955SOL     OW30763   5.899   3.683   6.272
 9955SOL    HW130764   5.950   3.599   6.289
 9955SOL    HW230765   5.963   3.755   6.244
 9956SOL     OW30766   0.810   5.747   2.657
 9956SOL    HW130767   0.898   5.793   2.643
 9956SOL    HW230768   0.784   5.700   2.573
 9957SOL     OW30769   5.273   6.453   1.856
 9957SOL    HW130770   5.251   6.361   1.823
 9957SOL    HW230771   5.258   6.457   1.955
 9958SOL     OW30772   2.389   5.250   0.062
 9958SOL    HW130773   2.416   5.229   6.990
 9958SOL    HW230774   2.306   5.307   0.061
 9959SOL     OW30775   4.085   3.667   4.345
 9959SOL    HW130776   4.095   3.588   4.405
 9959SOL    HW230777   4.084   3.637   4.250
 9960SOL     OW30778   0.268   0.287   2.023
 9960SOL    HW130779   0.348   0.237   2.055
 9960SOL    HW230780   0.257   0.272   1.925
 9961SOL     OW30781   1.642   5.535   4.524
 9961SOL    HW130782   1.694   5.489   4.452
 9961SOL    HW230783   1.573   5.594   4.483
 9962SOL     OW30784   5.018   6.336   1.319
 9962SOL    HW130785   5.067   6.255   1.286
 9962SOL    HW230786   4.920   6.320   1.314
 9963SOL     OW30787   2.665   2.947   6.461
 9963SOL    HW130788   2.589   2.926   6.523
 9963SOL    HW230789   2.637   3.020   6.398
 9964SOL     OW30790   5.008   3.486   5.895
 9964SOL    HW130791   4.997   3.562   5.831
 9964SOL    HW230792   4.919   3.460   5.932
 9965SOL     OW30793   3.862   5.711   6.688
 9965SOL    HW130794   3.948   5.705   6.738
 9965SOL    HW230795   3.869   5.781   6.617
 9966SOL     OW30796   2.327   5.865   2.366
 9966SOL    HW130797   2.415   5.908   2.387
 9966SOL    HW230798   2.340   5.766   2.356
 9967SOL     OW30799   5.835   0.020   2.271
 9967SOL    HW130800   5.920   0.060   2.239
 9967SOL    HW230801   5.852   6.952   2.310
 9968SOL     OW30802   2.852   3.213   6.645
 9968SOL    HW130803   2.799   3.297   6.655
 9968SOL    HW230804   2.905   3.216   6.560
 9969SOL     OW30805   2.233   2.991   3.601
 9969SOL    HW130806   2.238   2.909   3.544
 9969SOL    HW230807   2.258   2.968   3.695
 9970SOL     OW30808   5.361   4.263   2.743
 9970SOL    HW130809   5.401   4.312   2.821
 9970SOL    HW230810   5.276   4.218   2.773
 9971SOL     OW30811   2.760   4.390   0.707
 9971SOL    HW130812   2.753   4.305   0.760
 9971SOL    HW230813   2.812   4.457   0.760
 9972SOL     OW30814   3.572   4.784   1.434
 9972SOL    HW130815   3.526   4.814   1.517
 9972SOL    HW230816   3.549   4.845   1.358
 9973SOL     OW30817   4.327   2.404   4.487
 9973SOL    HW130818   4.298   2.405   4.583
 9973SOL    HW230819   4.263   2.350   4.433
 9974SOL     OW30820   6.859   3.599   3.600
 9974SOL    HW130821   6.871   3.528   3.670
 9974SOL    HW230822   6.789   3.664   3.630
 9975SOL     OW30823   0.126   4.988   6.808
 9975SOL    HW130824   0.088   4.906   6.763
 9975SOL    HW230825   0.218   4.969   6.839
 9976SOL     OW30826   0.522   5.944   5.258
 9976SOL    HW130827   0.558   5.970   5.347
 9976SOL    HW230828   0.470   6.021   5.220
 9977SOL     OW30829   7.014   5.786   5.317
 9977SOL    HW130830   0.044   5.701   5.307
 9977SOL    HW230831   6.917   5.765   5.328
 9978SOL     OW30832   6.008   3.092   3.331
 9978SOL    HW130833   6.095   3.044   3.324
 9978SOL    HW230834   5.933   3.027   3.315
 9979SOL     OW30835   6.844   4.658   5.424
 9979SOL    HW130836   6.808   4.750   5.444
 9979SOL    HW230837   6.920   4.666   5.360
 9980SOL     OW30838   1.803   1.758   6.086
 9980SOL    HW130839   1.818   1.814   6.167
 9980SOL    HW230840   1.711   1.718   6.090
 9981SOL     OW30841   2.831   1.862   2.093
 9981SOL    HW130842   2.869   1.937   2.039
 9981SOL    HW230843   2.731   1.869   2.094
 9982SOL     OW30844   0.238   0.666   3.599
 9982SOL    HW130845   0.215   0.740   3.535
 9982SOL    HW230846   0.218   0.578   3.556
 9983SOL     OW30847   0.417   2.725   3.584
 9983SOL    HW130848   0.394   2.820   3.567
 9983SOL    HW230849   0.474   2.689   3.510
 9984SOL     OW30850   2.169   0.876   0.303
 9984SOL    HW130851   2.194   0.846   0.395
 9984SOL    HW230852   2.233   0.836   0.236
 9985SOL     OW30853   2.165   1.140   1.672
 9985SOL    HW130854   2.192   1.064   1.612
 9985SOL    HW230855   2.212   1.131   1.760
 9986SOL     OW30856   4.675   4.491   6.606
 9986SOL    HW130857   4.581   4.505   6.639
 9986SOL    HW230858   4.717   4.580   6.588
 9987SOL     OW30859   6.741   2.219   3.782
 9987SOL    HW130860   6.713   2.294   3.842
 9987SOL    HW230861   6.840   2.206   3.787
 9988SOL     OW30862   0.678   5.556   5.091
 9988SOL    HW130863   0.728   5.498   5.027
 9988SOL    HW230864   0.637   5.633   5.042
 9989SOL     OW30865   6.264   4.540   3.623
 9989SOL    HW130866   6.254   4.559   3.525
 9989SOL    HW230867   6.340   4.475   3.636
 9990SOL     OW30868   2.851   6.367   2.013
 9990SOL    HW130869   2.923   6.419   1.967
 9990SOL    HW230870   2.804   6.309   1.946
 9991SOL     OW30871   2.142   2.652   3.795
 9991SOL    HW130872   2.114   2.672   3.889
 9991SOL    HW230873   2.077   2.694   3.731
 9992SOL     OW30874   5.141   4.330   0.215
 9992SOL    HW130875   5.050   4.352   0.179
 9992SOL    HW230876   5.155   4.231   0.211
 9993SOL     OW30877   3.802   0.604   1.866
 9993SOL    HW130878   3.812   0.514   1.823
 9993SOL    HW230879   3.709   0.637   1.852
 9994SOL     OW30880   6.990   4.854   3.201
 9994SOL    HW130881   6.895   4.881   3.185
 9994SOL    HW230882   0.008   4.914   3.271
 9995SOL     OW30883   4.218   1.506   3.027
 9995SOL    HW130884   4.213   1.521   2.929
 9995SOL    HW230885   4.202   1.409   3.047
 9996SOL     OW30886   2.100   3.152   1.727
 9996SOL    HW130887   2.043   3.232   1.714
 9996SOL    HW230888   2.125   3.113   1.638
 9997SOL     OW30889   3.629   1.948   0.686
 9997SOL    HW130890   3.600   1.961   0.781
 9997SOL    HW230891   3.552   1.916   0.632
 9998SOL     OW30892   5.620   4.202   0.608
 9998SOL    HW130893   5.672   4.260   0.670
 9998SOL    HW230894   5.526   4.193   0.641
 9999SOL     OW30895   6.680   3.024   5.413
 9999SOL    HW130896   6.690   2.926   5.430
 9999SOL    HW230897   6.736   3.075   5.479
10000SOL     OW30898   6.704   3.698   0.432
10000SOL    HW130899   6.709   3.616   0.374
10000SOL    HW230900   6.795   3.718   0.468
10001SOL     OW30901   4.835   0.389   2.023
10001SOL    HW130902   4.752   0.444   2.023
10001SOL    HW230903   4.859   0.365   2.117
10002SOL     OW30904   1.650   0.637   2.103
10002SOL    HW130905   1.700   0.693   2.037
10002SOL    HW230906   1.626   0.550   2.062
10003SOL     OW30907   3.934   1.585   3.537
10003SOL    HW130908   3.965   1.677   3.513
10003SOL    HW230909   3.992   1.548   3.610
10004SOL     OW30910   5.401   2.467   3.671
10004SOL    HW130911   5.440   2.559   3.658
10004SOL    HW230912   5.312   2.475   3.715
10005SOL     OW30913   4.825   0.690   4.007
10005SOL    HW130914   4.907   0.640   4.036
10005SOL    HW230915   4.761   0.696   4.083
10006SOL     OW30916   5.164   0.135   4.534
10006SOL    HW130917   5.100   0.087   4.475
10006SOL    HW230918   5.116   0.168   4.616
10007SOL     OW30919   0.834   5.280   5.213
10007SOL    HW130920   0.918   5.231   5.236
10007SOL    HW230921   0.812   5.345   5.286
10008SOL     OW30922   4.293   1.111   4.601
10008SOL    HW130923   4.247   1.183   4.549
10008SOL    HW230924   4.387   1.101   4.568
10009SOL     OW30925   2.050   4.326   1.562
10009SOL    HW130926   1.986   4.383   1.511
10009SOL    HW230927   2.000   4.250   1.605
10010SOL     OW30928   1.711   0.666   5.715
10010SOL    HW130929   1.724   0.697   5.809
10010SOL    HW230930   1.770   0.720   5.654
10011SOL     OW30931   5.799   1.763   4.760
10011SOL    HW130932   5.729   1.769   4.830
10011SOL    HW230933   5.795   1.674   4.715
10012SOL     OW30934   4.823   0.952   3.306
10012SOL    HW130935   4.809   0.980   3.211
10012SOL    HW230936   4.745   0.898   3.337
10013SOL     OW30937   1.016   1.489   3.802
10013SOL    HW130938   0.955   1.487   3.723
10013SOL    HW230939   1.111   1.481   3.771
10014SOL     OW30940   6.868   4.072   0.559
10014SOL    HW130941   6.855   4.165   0.594
10014SOL    HW230942   6.851   4.072   0.460
10015SOL     OW30943   1.534   3.698   0.364
10015SOL    HW130944   1.447   3.728   0.403
10015SOL    HW230945   1.536   3.598   0.360
10016SOL     OW30946   1.637   1.126   6.411
10016SOL    HW130947   1.683   1.071   6.341
10016SOL    HW230948   1.583   1.067   6.471
10017SOL     OW30949   2.969   1.957   3.275
10017SOL    HW130950   3.049   2.017   3.265
10017SOL    HW230951   2.997   1.871   3.318
10018SOL     OW30952   4.431   6.393   5.710
10018SOL    HW130953   4.331   6.393   5.710
10018SOL    HW230954   4.464   6.378   5.617
10019SOL     OW30955   6.711   2.321   2.596
10019SOL    HW130956   6.626   2.311   2.648
10019SOL    HW230957   6.692   2.314   2.498
10020SOL     OW30958   1.659   2.263   1.684
10020SOL    HW130959   1.708   2.224   1.762
10020SOL    HW230960   1.611   2.190   1.635
10021SOL     OW30961   0.107   2.854   1.387
10021SOL    HW130962   0.106   2.754   1.393
10021SOL    HW230963   0.191   2.884   1.342
10022SOL     OW30964   2.756   0.462   6.438
10022SOL    HW130965   2.810   0.397   6.492
10022SOL    HW230966   2.816   0.534   6.404
10023SOL     OW30967   1.008   5.420   6.922
10023SOL    HW130968   1.101   5.437   6.955
10023SOL    HW230969   0.964   5.351   6.980
10024SOL     OW30970   1.623   6.594   2.117
10024SOL    HW130971   1.669   6.608   2.030
10024SOL    HW230972   1.594   6.683   2.154
10025SOL     OW30973   1.833   1.379   1.309
10025SOL    HW130974   1.821   1.280   1.298
10025SOL    HW230975   1.902   1.397   1.379
10026SOL     OW30976   5.714   6.328   3.651
10026SOL    HW130977   5.726   6.229   3.661
10026SOL    HW230978   5.664   6.364   3.730
10027SOL     OW30979   6.505   3.801   4.898
10027SOL    HW130980   6.558   3.789   4.982
10027SOL    HW230981   6.528   3.890   4.858
10028SOL     OW30982   1.632   1.075   1.682
10028SOL    HW130983   1.732   1.083   1.674
10028SOL    HW230984   1.589   1.157   1.645
10029SOL     OW30985   4.823   1.929   4.870
10029SOL    HW130986   4.734   1.973   4.858
10029SOL    HW230987   4.833   1.902   4.966
10030SOL     OW30988   2.525   7.010   3.726
10030SOL    HW130989   2.624   7.008   3.734
10030SOL    HW230990   2.486   6.929   3.769
10031SOL     OW30991   5.773   4.983   4.777
10031SOL    HW130992   5.811   5.058   4.831
10031SOL    HW230993   5.818   4.898   4.802
10032SOL     OW30994   2.183   1.692   5.249
10032SOL    HW130995   2.237   1.772   5.222
10032SOL    HW230996   2.160   1.638   5.168
10033SOL     OW30997   5.639   2.790   4.225
10033SOL    HW130998   5.577   2.773   4.148
10033SOL    HW230999   5.730   2.813   4.190
10034SOL     OW31000   3.384   0.324   3.827
10034SOL    HW131001   3.415   0.366   3.741
10034SOL    HW231002   3.365   0.396   3.894
10035SOL     OW31003   5.994   4.246   1.300
10035SOL    HW131004   6.028   4.155   1.325
10035SOL    HW231005   5.945   4.285   1.378
10036SOL     OW31006   6.193   2.288   1.349
10036SOL    HW131007   6.177   2.369   1.293
10036SOL    HW231008   6.118   2.224   1.338
10037SOL     OW31009   6.953   1.519   0.306
10037SOL    HW131010   6.996   1.537   0.395
10037SOL    HW231011   6.868   1.469   0.320
10038SOL     OW31012   5.348   0.380   0.166
10038SOL    HW131013   5.434   0.427   0.184
10038SOL    HW231014   5.345   0.350   0.071
10039SOL     OW31015   3.452   0.494   3.600
10039SOL    HW131016   3.483   0.526   3.511
10039SOL    HW231017   3.507   0.535   3.672
10040SOL     OW31018   5.394   5.119   6.590
10040SOL    HW131019   5.453   5.067   6.528
10040SOL    HW231020   5.447   5.150   6.669
10041SOL     OW31021   4.372   5.737   6.935
10041SOL    HW131022   4.386   5.827   6.893
10041SOL    HW231023   4.422   5.668   6.883
10042SOL     OW31024   0.721   2.441   3.917
10042SOL    HW131025   0.737   2.342   3.924
10042SOL    HW231026   0.623   2.457   3.903
10043SOL     OW31027   6.636   1.057   4.862
10043SOL    HW131028   6.606   1.140   4.908
10043SOL    HW231029   6.661   0.988   4.929
10044SOL     OW31030   1.994   2.166   4.531
10044SOL    HW131031   1.894   2.162   4.529
10044SOL    HW231032   2.028   2.114   4.609
10045SOL     OW31033   4.079   0.426   1.932
10045SOL    HW131034   4.088   0.433   2.032
10045SOL    HW231035   3.992   0.464   1.904
10046SOL     OW31036   1.970   3.611   0.668
10046SOL    HW131037   1.871   3.621   0.667
10046SOL    HW231038   2.001   3.569   0.583
10047SOL     OW31039   0.827   3.344   4.651
10047SOL    HW131040   0.888   3.356   4.573
10047SOL    HW231041   0.850   3.260   4.699
10048SOL     OW31042   0.531   6.392   2.667
10048SOL    HW131043   0.597   6.362   2.598
10048SOL    HW231044   0.568   6.376   2.759
10049SOL     OW31045   2.018   1.366   5.691
10049SOL    HW131046   2.104   1.415   5.702
10049SOL    HW231047   2.033   1.268   5.708
10050SOL     OW31048   5.271   4.233   5.166
10050SOL    HW131049   5.183   4.273   5.142
10050SOL    HW231050   5.344   4.278   5.114
10051SOL     OW31051   0.491   4.094   4.736
10051SOL    HW131052   0.521   4.027   4.667
10051SOL    HW231053   0.525   4.184   4.710
10052SOL     OW31054   2.148   1.332   3.616
10052SOL    HW131055   2.152   1.265   3.542
10052SOL    HW231056   2.205   1.301   3.693
10053SOL     OW31057   4.034   5.851   4.519
10053SOL    HW131058   3.985   5.861   4.432
10053SOL    HW231059   4.002   5.921   4.583
10054SOL     OW31060   6.155   4.899   5.373
10054SOL    HW131061   6.119   4.957   5.445
10054SOL    HW231062   6.086   4.886   5.302
10055SOL     OW31063   6.280   2.107   5.535
10055SOL    HW131064   6.307   2.043   5.607
10055SOL    HW231065   6.306   2.200   5.561
10056SOL     OW31066   5.411   4.637   3.456
10056SOL    HW131067   5.401   4.631   3.356
10056SOL    HW231068   5.339   4.694   3.494
10057SOL     OW31069   5.204   4.452   5.429
10057SOL    HW131070   5.184   4.531   5.487
10057SOL    HW231071   5.176   4.368   5.476
10058SOL     OW31072   6.700   3.239   4.922
10058SOL    HW131073   6.664   3.327   4.952
10058SOL    HW231074   6.662   3.216   4.832
10059SOL     OW31075   6.990   1.800   0.232
10059SOL    HW131076   0.065   1.781   0.220
10059SOL    HW231077   6.946   1.723   0.278
10060SOL     OW31078   2.277   2.247   3.157
10060SOL    HW131079   2.354   2.199   3.116
10060SOL    HW231080   2.254   2.328   3.103
10061SOL     OW31081   4.524   1.043   3.981
10061SOL    HW131082   4.525   1.016   3.885
10061SOL    HW231083   4.588   1.119   3.996
10062SOL     OW31084   6.594   7.000   4.352
10062SOL    HW131085   6.625   6.975   4.260
10062SOL    HW231086   6.528   6.933   4.384
10063SOL     OW31087   3.358   1.609   4.909
10063SOL    HW131088   3.317   1.586   4.821
10063SOL    HW231089   3.299   1.673   4.958
10064SOL     OW31090   4.461   6.039   6.480
10064SOL    HW131091   4.509   6.126   6.464
10064SOL    HW231092   4.383   6.033   6.418
10065SOL     OW31093   2.079   1.104   1.297
10065SOL    HW131094   2.091   1.204   1.298
10065SOL    HW231095   2.117   1.067   1.212
10066SOL     OW31096   0.388   2.320   4.923
10066SOL    HW131097   0.409   2.389   4.854
10066SOL    HW231098   0.449   2.242   4.912
10067SOL     OW31099   0.261   3.056   6.405
10067SOL    HW131100   0.198   2.997   6.356
10067SOL    HW231101   0.329   3.094   6.342
10068SOL     OW31102   1.129   3.682   3.601
10068SOL    HW131103   1.132   3.600   3.544
10068SOL    HW231104   1.074   3.663   3.683
10069SOL     OW31105   3.028   4.827   1.533
10069SOL    HW131106   3.009   4.796   1.440
10069SOL    HW231107   2.964   4.784   1.597
10070SOL     OW31108   0.735   5.000   5.235
10070SOL    HW131109   0.713   5.023   5.140
10070SOL    HW231110   0.723   5.081   5.293
10071SOL     OW31111   1.110   0.243   4.157
10071SOL    HW131112   1.037   0.299   4.117
10071SOL    HW231113   1.188   0.241   4.095
10072SOL     OW31114   0.715   1.279   3.275
10072SOL    HW131115   0.617   1.260   3.286
10072SOL    HW231116   0.766   1.233   3.347
10073SOL     OW31117   6.788   3.821   4.054
10073SOL    HW131118   6.850   3.882   4.004
10073SOL    HW231119   6.829   3.730   4.058
10074SOL     OW31120   1.825   6.008   0.624
10074SOL    HW131121   1.909   5.997   0.677
10074SOL    HW231122   1.847   6.004   0.526
10075SOL     OW31123   2.030   0.620   2.516
10075SOL    HW131124   1.958   0.606   2.449
10075SOL    HW231125   1.991   0.657   2.600
10076SOL     OW31126   4.836   5.623   3.006
10076SOL    HW131127   4.840   5.523   3.011
10076SOL    HW231128   4.871   5.654   2.918
10077SOL     OW31129   5.348   2.591   0.534
10077SOL    HW131130   5.392   2.502   0.550
10077SOL    HW231131   5.289   2.613   0.612
10078SOL     OW31132   0.848   6.246   4.659
10078SOL    HW131133   0.940   6.214   4.635
10078SOL    HW231134   0.828   6.330   4.610
10079SOL     OW31135   5.417   2.233   2.887
10079SOL    HW131136   5.509   2.255   2.855
10079SOL    HW231137   5.364   2.317   2.899
10080SOL     OW31138   4.835   0.820   6.479
10080SOL    HW131139   4.933   0.838   6.487
10080SOL    HW231140   4.812   0.809   6.382
10081SOL     OW31141   0.605   1.516   0.315
10081SOL    HW131142   0.612   1.566   0.229
10081SOL    HW231143   0.533   1.557   0.371
10082SOL     OW31144   1.367   5.377   3.573
10082SOL    HW131145   1.416   5.323   3.642
10082SOL    HW231146   1.371   5.474   3.599
10083SOL     OW31147   3.408   6.593   3.617
10083SOL    HW131148   3.441   6.502   3.590
10083SOL    HW231149   3.477   6.638   3.674
10084SOL     OW31150   6.781   6.859   5.012
10084SOL    HW131151   6.852   6.865   4.942
10084SOL    HW231152   6.702   6.809   4.974
10085SOL     OW31153   4.593   6.919   0.623
10085SOL    HW131154   4.555   6.827   0.632
10085SOL    HW231155   4.577   6.952   0.530
10086SOL     OW31156   5.814   6.329   3.377
10086SOL    HW131157   5.730   6.340   3.325
10086SOL    HW231158   5.805   6.375   3.465
10087SOL     OW31159   6.936   6.559   4.459
10087SOL    HW131160   6.888   6.629   4.406
10087SOL    HW231161   7.017   6.598   4.500
10088SOL     OW31162   6.949   0.927   0.341
10088SOL    HW131163   6.977   0.877   0.423
10088SOL    HW231164   6.914   0.863   0.273
10089SOL     OW31165   3.291   1.603   3.399
10089SOL    HW131166   3.372   1.554   3.368
10089SOL    HW231167   3.239   1.636   3.320
10090SOL     OW31168   0.692   4.620   2.311
10090SOL    HW131169   0.691   4.645   2.408
10090SOL    HW231170   0.681   4.703   2.255
10091SOL     OW31171   6.304   6.139   6.498
10091SOL    HW131172   6.292   6.059   6.557
10091SOL    HW231173   6.215   6.165   6.459
10092SOL     OW31174   1.436   3.245   5.369
10092SOL    HW131175   1.468   3.338   5.389
10092SOL    HW231176   1.514   3.189   5.341
10093SOL     OW31177   5.023   3.491   4.861
10093SOL    HW131178   5.026   3.393   4.882
10093SOL    HW231179   4.970   3.538   4.930
10094SOL     OW31180   2.359   6.645   0.707
10094SOL    HW131181   2.325   6.661   0.615
10094SOL    HW231182   2.292   6.679   0.774
10095SOL     OW31183   5.469   1.884   5.028
10095SOL    HW131184   5.505   1.949   4.961
10095SOL    HW231185   5.481   1.791   4.994
10096SOL     OW31186   5.085   1.090   2.499
10096SOL    HW131187   5.031   1.065   2.418
10096SOL    HW231188   5.176   1.049   2.492
10097SOL     OW31189   2.150   2.560   6.592
10097SOL    HW131190   2.137   2.528   6.498
10097SOL    HW231191   2.226   2.510   6.634
10098SOL     OW31192   2.817   5.876   4.365
10098SOL    HW131193   2.912   5.889   4.392
10098SOL    HW231194   2.796   5.933   4.285
10099SOL     OW31195   6.226   4.232   1.809
10099SOL    HW131196   6.298   4.293   1.843
10099SOL    HW231197   6.175   4.195   1.886
10100SOL     OW31198   5.586   5.042   5.333
10100SOL    HW131199   5.577   5.086   5.422
10100SOL    HW231200   5.682   5.016   5.319
10101SOL     OW31201   6.674   2.840   1.908
10101SOL    HW131202   6.673   2.753   1.957
10101SOL    HW231203   6.594   2.894   1.935
10102SOL     OW31204   5.745   0.389   0.746
10102SOL    HW131205   5.690   0.467   0.778
10102SOL    HW231206   5.836   0.393   0.789
10103SOL     OW31207   1.026   0.410   5.151
10103SOL    HW131208   1.028   0.319   5.110
10103SOL    HW231209   0.946   0.460   5.119
10104SOL     OW31210   2.292   0.717   6.281
10104SOL    HW131211   2.388   0.692   6.288
10104SOL    HW231212   2.280   0.784   6.207
10105SOL     OW31213   2.650   0.883   6.188
10105SOL    HW131214   2.603   0.794   6.186
10105SOL    HW231215   2.658   0.918   6.095
10106SOL     OW31216   4.333   6.029   1.573
10106SOL    HW131217   4.343   5.930   1.565
10106SOL    HW231218   4.402   6.065   1.636
10107SOL     OW31219   4.877   3.491   6.492
10107SOL    HW131220   4.901   3.587   6.509
10107SOL    HW231221   4.958   3.440   6.463
10108SOL     OW31222   1.324   2.520   0.975
10108SOL    HW131223   1.381   2.551   1.050
10108SOL    HW231224   1.380   2.474   0.906
10109SOL     OW31225   0.866   1.132   0.232
10109SOL    HW131226   0.780   1.181   0.250
10109SOL    HW231227   0.880   1.125   0.133
10110SOL     OW31228   4.510   5.051   2.710
10110SOL    HW131229   4.597   5.038   2.661
10110SOL    HW231230   4.470   5.139   2.683
10111SOL     OW31231   1.295   2.577   2.260
10111SOL    HW131232   1.199   2.593   2.283
10111SOL    HW231233   1.352   2.639   2.313
10112SOL     OW31234   6.581   3.661   2.979
10112SOL    HW131235   6.594   3.720   3.059
10112SOL    HW231236   6.484   3.657   2.955
10113SOL     OW31237   4.263   0.848   6.652
10113SOL    HW131238   4.272   0.749   6.640
10113SOL    HW231239   4.303   0.874   6.740
10114SOL     OW31240   3.949   2.127   3.228
10114SOL    HW131241   3.997   2.178   3.299
10114SOL    HW231242   4.004   2.126   3.145
10115SOL     OW31243   4.233   1.723   4.478
10115SOL    HW131244   4.288   1.803   4.455
10115SOL    HW231245   4.285   1.664   4.540
10116SOL     OW31246   5.868   0.046   5.507
10116SOL    HW131247   5.900   0.131   5.465
10116SOL    HW231248   5.768   0.043   5.505
10117SOL     OW31249   6.713   5.756   5.751
10117SOL    HW131250   6.714   5.707   5.838
10117SOL    HW231251   6.624   5.745   5.708
10118SOL     OW31252   2.759   4.747   4.351
10118SOL    HW131253   2.730   4.779   4.441
10118SOL    HW231254   2.702   4.669   4.324
10119SOL     OW31255   0.135   5.252   3.778
10119SOL    HW131256   0.107   5.287   3.689
10119SOL    HW231257   0.146   5.328   3.842
10120SOL     OW31258   1.317   2.825   2.613
10120SOL    HW131259   1.328   2.762   2.690
10120SOL    HW231260   1.361   2.912   2.635
10121SOL     OW31261   5.759   4.418   0.716
10121SOL    HW131262   5.828   4.407   0.788
10121SOL    HW231263   5.805   4.436   0.629
10122SOL     OW31264   5.918   2.334   3.362
10122SOL    HW131265   5.974   2.414   3.385
10122SOL    HW231266   5.823   2.352   3.387
10123SOL     OW31267   6.104   6.528   0.326
10123SOL    HW131268   6.149   6.538   0.237
10123SOL    HW231269   6.174   6.517   0.397
10124SOL     OW31270   1.247   5.060   2.556
10124SOL    HW131271   1.161   5.077   2.508
10124SOL    HW231272   1.236   5.081   2.653
10125SOL     OW31273   2.134   0.922   1.919
10125SOL    HW131274   2.197   0.910   1.842
10125SOL    HW231275   2.071   0.998   1.900
10126SOL     OW31276   6.239   0.051   5.877
10126SOL    HW131277   6.166   0.081   5.816
10126SOL    HW231278   6.237   0.105   5.960
10127SOL     OW31279   1.107   4.534   6.396
10127SOL    HW131280   1.038   4.505   6.462
10127SOL    HW231281   1.185   4.575   6.445
10128SOL     OW31282   2.912   0.541   0.120
10128SOL    HW131283   2.841   0.610   0.132
10128SOL    HW231284   2.870   0.450   0.116
10129SOL     OW31285   6.974   1.502   2.054
10129SOL    HW131286   6.955   1.418   2.105
10129SOL    HW231287   6.932   1.496   1.964
10130SOL     OW31288   1.128   2.423   1.613
10130SOL    HW131289   1.190   2.364   1.664
10130SOL    HW231290   1.073   2.477   1.677
10131SOL     OW31291   1.610   0.790   3.991
10131SOL    HW131292   1.618   0.863   3.922
10131SOL    HW231293   1.691   0.790   4.049
10132SOL     OW31294   0.440   7.004   2.566
10132SOL    HW131295   0.484   6.940   2.629
10132SOL    HW231296   0.391   6.954   2.495
10133SOL     OW31297   4.582   5.840   1.324
10133SOL    HW131298   4.608   5.753   1.367
10133SOL    HW231299   4.631   5.851   1.238
10134SOL     OW31300   0.108   0.996   2.770
10134SOL    HW131301   0.153   1.044   2.695
10134SOL    HW231302   0.077   0.907   2.738
10135SOL     OW31303   5.599   1.149   3.702
10135SOL    HW131304   5.579   1.129   3.606
10135SOL    HW231305   5.664   1.225   3.707
10136SOL     OW31306   4.913   2.584   2.738
10136SOL    HW131307   4.849   2.652   2.775
10136SOL    HW231308   4.942   2.612   2.646
10137SOL     OW31309   0.664   5.180   5.446
10137SOL    HW131310   0.567   5.195   5.425
10137SOL    HW231311   0.701   5.262   5.490
10138SOL     OW31312   5.958   1.722   6.789
10138SOL    HW131313   5.956   1.761   6.881
10138SOL    HW231314   6.011   1.637   6.790
10139SOL     OW31315   3.704   3.292   4.979
10139SOL    HW131316   3.702   3.225   4.906
10139SOL    HW231317   3.786   3.279   5.035
10140SOL     OW31318   6.447   6.508   5.959
10140SOL    HW131319   6.447   6.536   5.863
10140SOL    HW231320   6.540   6.510   5.995
10141SOL     OW31321   3.685   1.265   3.969
10141SOL    HW131322   3.739   1.343   4.001
10141SOL    HW231323   3.642   1.220   4.047
10142SOL     OW31324   6.000   6.408   4.738
10142SOL    HW131325   5.925   6.350   4.771
10142SOL    HW231326   6.087   6.364   4.757
10143SOL     OW31327   5.662   2.976   0.117
10143SOL    HW131328   5.685   2.890   0.071
10143SOL    HW231329   5.665   2.962   0.216
10144SOL     OW31330   4.112   6.654   5.293
10144SOL    HW131331   4.199   6.606   5.292
10144SOL    HW231332   4.087   6.678   5.387
10145SOL     OW31333   4.391   6.154   2.559
10145SOL    HW131334   4.460   6.139   2.630
10145SOL    HW231335   4.434   6.196   2.479
10146SOL     OW31336   6.962   4.220   4.429
10146SOL    HW131337   6.913   4.176   4.505
10146SOL    HW231338   6.898   4.241   4.355
10147SOL     OW31339   4.359   4.922   0.309
10147SOL    HW131340   4.299   4.998   0.334
10147SOL    HW231341   4.445   4.958   0.272
10148SOL     OW31342   7.019   5.231   1.061
10148SOL    HW131343   0.004   5.279   1.148
10148SOL    HW231344   0.047   5.281   0.990
10149SOL     OW31345   4.675   4.803   1.569
10149SOL    HW131346   4.735   4.822   1.491
10149SOL    HW231347   4.713   4.730   1.624
10150SOL     OW31348   4.952   3.806   1.731
10150SOL    HW131349   4.869   3.851   1.763
10150SOL    HW231350   4.930   3.711   1.705
10151SOL     OW31351   0.167   0.231   5.544
10151SOL    HW131352   0.071   0.258   5.538
10151SOL    HW231353   0.173   0.132   5.559
10152SOL     OW31354   5.756   6.145   3.009
10152SOL    HW131355   5.810   6.069   2.974
10152SOL    HW231356   5.796   6.177   3.095
10153SOL     OW31357   4.062   5.976   4.043
10153SOL    HW131358   4.082   6.029   3.961
10153SOL    HW231359   4.069   5.878   4.022
10154SOL     OW31360   4.158   4.847   5.722
10154SOL    HW131361   4.223   4.783   5.681
10154SOL    HW231362   4.171   4.938   5.684
10155SOL     OW31363   4.739   2.109   5.945
10155SOL    HW131364   4.794   2.082   6.025
10155SOL    HW231365   4.710   2.204   5.956
10156SOL     OW31366   4.391   0.314   1.210
10156SOL    HW131367   4.472   0.291   1.156
10156SOL    HW231368   4.350   0.398   1.174
10157SOL     OW31369   0.322   2.308   0.213
10157SOL    HW131370   0.235   2.263   0.228
10157SOL    HW231371   0.385   2.284   0.287
10158SOL     OW31372   5.780   6.689   2.576
10158SOL    HW131373   5.703   6.731   2.530
10158SOL    HW231374   5.814   6.612   2.523
10159SOL     OW31375   3.440   3.049   3.208
10159SOL    HW131376   3.503   2.976   3.233
10159SOL    HW231377   3.350   3.010   3.189
10160SOL     OW31378   1.993   4.322   2.570
10160SOL    HW131379   1.983   4.240   2.513
10160SOL    HW231380   2.047   4.390   2.521
10161SOL     OW31381   3.256   4.762   6.165
10161SOL    HW131382   3.343   4.795   6.201
10161SOL    HW231383   3.214   4.834   6.109
10162SOL     OW31384   1.755   4.664   1.513
10162SOL    HW131385   1.829   4.706   1.567
10162SOL    HW231386   1.789   4.580   1.471
10163SOL     OW31387   1.433   5.625   5.306
10163SOL    HW131388   1.453   5.628   5.404
10163SOL    HW231389   1.355   5.685   5.286
10164SOL     OW31390   6.203   3.287   3.491
10164SOL    HW131391   6.229   3.239   3.574
10164SOL    HW231392   6.113   3.256   3.461
10165SOL     OW31393   5.429   3.069   3.827
10165SOL    HW131394   5.415   3.039   3.921
10165SOL    HW231395   5.515   3.030   3.792
10166SOL     OW31396   1.590   2.476   1.284
10166SOL    HW131397   1.605   2.489   1.186
10166SOL    HW231398   1.517   2.409   1.298
10167SOL     OW31399   0.414   4.791   6.736
10167SOL    HW131400   0.399   4.727   6.811
10167SOL    HW231401   0.483   4.858   6.762
10168SOL     OW31402   5.907   1.473   6.481
10168SOL    HW131403   5.863   1.553   6.440
10168SOL    HW231404   5.890   1.472   6.579
10169SOL     OW31405   0.361   3.758   3.210
10169SOL    HW131406   0.283   3.799   3.164
10169SOL    HW231407   0.377   3.806   3.297
10170SOL     OW31408   6.647   5.618   6.676
10170SOL    HW131409   6.602   5.706   6.690
10170SOL    HW231410   6.746   5.631   6.675
10171SOL     OW31411   1.146   2.877   5.456
10171SOL    HW131412   1.051   2.879   5.489
10171SOL    HW231413   1.206   2.919   5.524
10172SOL     OW31414   6.928   6.774   3.608
10172SOL    HW131415   6.911   6.870   3.582
10172SOL    HW231416   6.841   6.729   3.626
10173SOL     OW31417   3.573   4.784   0.498
10173SOL    HW131418   3.664   4.819   0.479
10173SOL    HW231419   3.512   4.861   0.520
10174SOL     OW31420   5.297   6.482   3.466
10174SOL    HW131421   5.254   6.553   3.410
10174SOL    HW231422   5.394   6.474   3.440
10175SOL     OW31423   6.572   1.947   3.264
10175SOL    HW131424   6.547   1.862   3.219
10175SOL    HW231425   6.509   2.019   3.237
10176SOL     OW31426   6.248   3.124   5.830
10176SOL    HW131427   6.334   3.166   5.857
10176SOL    HW231428   6.240   3.033   5.871
10177SOL     OW31429   2.224   0.404   1.286
10177SOL    HW131430   2.316   0.367   1.304
10177SOL    HW231431   2.157   0.353   1.339
10178SOL     OW31432   1.837   0.657   0.740
10178SOL    HW131433   1.870   0.652   0.834
10178SOL    HW231434   1.830   0.752   0.712
10179SOL     OW31435   0.106   4.269   0.172
10179SOL    HW131436   0.128   4.300   0.080
10179SOL    HW231437   0.136   4.174   0.183
10180SOL     OW31438   4.696   0.063   7.020
10180SOL    HW131439   4.725   0.150   0.039
10180SOL    HW231440   4.775   0.003   7.008
10181SOL     OW31441   6.459   3.392   1.175
10181SOL    HW131442   6.486   3.296   1.187
10181SOL    HW231443   6.397   3.400   1.097
10182SOL     OW31444   5.697   1.227   0.367
10182SOL    HW131445   5.661   1.246   0.458
10182SOL    HW231446   5.785   1.179   0.376
10183SOL     OW31447   6.133   3.020   6.181
10183SOL    HW131448   6.185   2.935   6.186
10183SOL    HW231449   6.075   3.029   6.262
10184SOL     OW31450   5.732   2.738   6.717
10184SOL    HW131451   5.659   2.735   6.649
10184SOL    HW231452   5.820   2.752   6.671
10185SOL     OW31453   4.616   6.072   2.694
10185SOL    HW131454   4.678   6.146   2.718
10185SOL    HW231455   4.667   5.986   2.688
10186SOL     OW31456   4.699   3.667   5.478
10186SOL    HW131457   4.718   3.727   5.401
10186SOL    HW231458   4.622   3.607   5.455
10187SOL     OW31459   2.145   3.994   5.533
10187SOL    HW131460   2.149   3.978   5.434
10187SOL    HW231461   2.210   3.934   5.579
10188SOL     OW31462   2.634   6.253   0.218
10188SOL    HW131463   2.599   6.167   0.255
10188SOL    HW231464   2.570   6.327   0.238
10189SOL     OW31465   1.756   0.857   0.004
10189SOL    HW131466   1.790   0.807   0.084
10189SOL    HW231467   1.662   0.888   0.022
10190SOL     OW31468   3.358   3.874   1.560
10190SOL    HW131469   3.395   3.823   1.482
10190SOL    HW231470   3.260   3.889   1.546
10191SOL     OW31471   6.133   5.430   0.992
10191SOL    HW131472   6.167   5.419   0.899
10191SOL    HW231473   6.039   5.464   0.990
10192SOL     OW31474   2.164   1.538   5.017
10192SOL    HW131475   2.102   1.599   4.967
10192SOL    HW231476   2.238   1.509   4.957
10193SOL     OW31477   3.472   3.531   2.192
10193SOL    HW131478   3.545   3.464   2.179
10193SOL    HW231479   3.385   3.491   2.164
10194SOL     OW31480   3.143   0.315   4.842
10194SOL    HW131481   3.044   0.333   4.845
10194SOL    HW231482   3.159   0.218   4.861
10195SOL     OW31483   6.042   0.206   1.711
10195SOL    HW131484   5.950   0.170   1.693
10195SOL    HW231485   6.097   0.197   1.628
10196SOL     OW31486   5.454   2.483   3.237
10196SOL    HW131487   5.547   2.499   3.271
10196SOL    HW231488   5.414   2.406   3.286
10197SOL     OW31489   5.921   0.493   3.440
10197SOL    HW131490   5.986   0.568   3.454
10197SOL    HW231491   5.910   0.442   3.525
10198SOL     OW31492   3.849   6.359   0.853
10198SOL    HW131493   3.827   6.415   0.774
10198SOL    HW231494   3.896   6.414   0.922
10199SOL     OW31495   0.981   1.456   0.060
10199SOL    HW131496   0.975   1.556   0.057
10199SOL    HW231497   0.968   1.420   6.990
10200SOL     OW31498   5.192   3.298   5.694
10200SOL    HW131499   5.250   3.217   5.693
10200SOL    HW231500   5.203   3.347   5.780
10201SOL     OW31501   0.145   5.621   1.774
10201SOL    HW131502   0.124   5.540   1.828
10201SOL    HW231503   0.174   5.594   1.682
10202SOL     OW31504   0.716   3.667   1.321
10202SOL    HW131505   0.668   3.700   1.402
10202SOL    HW231506   0.792   3.729   1.301
10203SOL     OW31507   1.634   2.614   2.596
10203SOL    HW131508   1.580   2.691   2.563
10203SOL    HW231509   1.672   2.637   2.686
10204SOL     OW31510   3.254   4.376   6.252
10204SOL    HW131511   3.161   4.397   6.282
10204SOL    HW231512   3.318   4.440   6.295
10205SOL     OW31513   4.366   1.196   3.270
10205SOL    HW131514   4.302   1.245   3.331
10205SOL    HW231515   4.388   1.254   3.192
10206SOL     OW31516   5.091   5.679   5.887
10206SOL    HW131517   5.128   5.620   5.816
10206SOL    HW231518   4.994   5.697   5.870
10207SOL     OW31519   1.787   0.424   1.354
10207SOL    HW131520   1.690   0.398   1.359
10207SOL    HW231521   1.831   0.374   1.280
10208SOL     OW31522   6.385   5.494   5.438
10208SOL    HW131523   6.390   5.593   5.447
10208SOL    HW231524   6.444   5.452   5.508
10209SOL     OW31525   0.171   0.973   5.950
10209SOL    HW131526   0.196   1.064   5.916
10209SOL    HW231527   0.107   0.982   6.026
10210SOL     OW31528   5.378   6.505   1.444
10210SOL    HW131529   5.307   6.572   1.465
10210SOL    HW231530   5.453   6.550   1.396
10211SOL     OW31531   3.605   6.690   5.726
10211SOL    HW131532   3.671   6.714   5.655
10211SOL    HW231533   3.617   6.593   5.751
10212SOL     OW31534   0.722   1.061   4.197
10212SOL    HW131535   0.768   1.037   4.282
10212SOL    HW231536   0.681   0.979   4.157
10213SOL     OW31537   6.265   1.567   2.364
10213SOL    HW131538   6.225   1.497   2.305
10213SOL    HW231539   6.329   1.623   2.311
10214SOL     OW31540   0.451   0.904   2.548
10214SOL    HW131541   0.439   0.909   2.647
10214SOL    HW231542   0.361   0.901   2.504
10215SOL     OW31543   3.118   2.908   5.243
10215SOL    HW131544   3.164   2.976   5.186
10215SOL    HW231545   3.027   2.939   5.267
10216SOL     OW31546   0.061   6.953   0.858
10216SOL    HW131547   0.039   6.952   0.760
10216SOL    HW231548   0.007   0.001   0.904
10217SOL     OW31549   2.499   1.248   4.363
10217SOL    HW131550   2.415   1.243   4.309
10217SOL    HW231551   2.492   1.185   4.441
10218SOL     OW31552   0.917   1.087   1.299
10218SOL    HW131553   0.941   1.075   1.202
10218SOL    HW231554   0.987   1.144   1.343
10219SOL     OW31555   0.253   2.828   2.804
10219SOL    HW131556   0.211   2.741   2.775
10219SOL    HW231557   0.184   2.883   2.851
10220SOL     OW31558   4.126   1.684   1.683
10220SOL    HW131559   4.211   1.666   1.731
10220SOL    HW231560   4.143   1.684   1.584
10221SOL     OW31561   1.316   2.147   4.097
10221SOL    HW131562   1.250   2.167   4.024
10221SOL    HW231563   1.408   2.142   4.058
10222SOL     OW31564   1.309   3.825   5.581
10222SOL    HW131565   1.382   3.877   5.536
10222SOL    HW231566   1.235   3.809   5.516
10223SOL     OW31567   2.214   5.186   6.276
10223SOL    HW131568   2.212   5.198   6.375
10223SOL    HW231569   2.124   5.156   6.244
10224SOL     OW31570   1.058   0.999   4.339
10224SOL    HW131571   1.055   1.008   4.240
10224SOL    HW231572   0.966   0.984   4.374
10225SOL     OW31573   1.130   6.219   5.312
10225SOL    HW131574   1.225   6.232   5.342
10225SOL    HW231575   1.113   6.277   5.232
10226SOL     OW31576   2.802   0.290   0.085
10226SOL    HW131577   2.708   0.271   0.056
10226SOL    HW231578   2.865   0.226   0.041
10227SOL     OW31579   4.611   4.915   1.133
10227SOL    HW131580   4.691   4.863   1.103
10227SOL    HW231581   4.629   5.013   1.120
10228SOL     OW31582   0.481   4.756   1.969
10228SOL    HW131583   0.409   4.730   2.033
10228SOL    HW231584   0.452   4.835   1.916
10229SOL     OW31585   1.265   1.094   3.970
10229SOL    HW131586   1.193   1.040   4.013
10229SOL    HW231587   1.303   1.159   4.037
10230SOL     OW31588   6.920   0.771   3.536
10230SOL    HW131589   6.949   0.812   3.449
10230SOL    HW231590   6.866   0.838   3.587
10231SOL     OW31591   6.639   6.965   5.701
10231SOL    HW131592   6.647   0.042   5.687
10231SOL    HW231593   6.604   6.923   5.617
10232SOL     OW31594   3.752   1.066   4.416
10232SOL    HW131595   3.765   1.034   4.510
10232SOL    HW231596   3.705   0.995   4.364
10233SOL     OW31597   5.274   2.922   5.404
10233SOL    HW131598   5.182   2.885   5.414
10233SOL    HW231599   5.295   2.980   5.483
10234SOL     OW31600   5.324   0.347   0.899
10234SOL    HW131601   5.397   0.287   0.868
10234SOL    HW231602   5.334   0.365   0.997
10235SOL     OW31603   4.850   1.339   0.351
10235SOL    HW131604   4.881   1.340   0.256
10235SOL    HW231605   4.763   1.291   0.357
10236SOL     OW31606   1.612   6.368   1.915
10236SOL    HW131607   1.632   6.273   1.939
10236SOL    HW231608   1.548   6.406   1.981
10237SOL     OW31609   6.253   4.296   0.851
10237SOL    HW131610   6.333   4.327   0.800
10237SOL    HW231611   6.254   4.335   0.943
10238SOL     OW31612   3.307   4.021   4.486
10238SOL    HW131613   3.322   4.094   4.553
10238SOL    HW231614   3.352   3.937   4.518
10239SOL     OW31615   1.203   4.193   4.835
10239SOL    HW131616   1.141   4.195   4.757
10239SOL    HW231617   1.255   4.108   4.835
10240SOL     OW31618   1.525   4.695   2.560
10240SOL    HW131619   1.569   4.654   2.640
10240SOL    HW231620   1.589   4.758   2.516
10241SOL     OW31621   0.143   0.809   1.722
10241SOL    HW131622   0.075   0.779   1.655
10241SOL    HW231623   0.232   0.771   1.699
10242SOL     OW31624   0.069   2.216   6.621
10242SOL    HW131625   0.165   2.194   6.637
10242SOL    HW231626   0.062   2.310   6.588
10243SOL     OW31627   0.296   5.282   1.308
10243SOL    HW131628   0.278   5.217   1.233
10243SOL    HW231629   0.243   5.366   1.292
10244SOL     OW31630   1.359   4.830   0.377
10244SOL    HW131631   1.362   4.930   0.371
10244SOL    HW231632   1.417   4.800   0.454
10245SOL     OW31633   1.830   4.000   0.097
10245SOL    HW131634   1.811   3.913   0.143
10245SOL    HW231635   1.927   4.023   0.110
10246SOL     OW31636   3.111   3.578   4.583
10246SOL    HW131637   3.025   3.539   4.551
10246SOL    HW231638   3.181   3.508   4.584
10247SOL     OW31639   0.816   5.361   4.928
10247SOL    HW131640   0.805   5.321   5.019
10247SOL    HW231641   0.896   5.322   4.883
10248SOL     OW31642   3.222   6.918   1.960
10248SOL    HW131643   3.188   6.940   2.052
10248SOL    HW231644   3.318   6.892   1.965
10249SOL     OW31645   2.565   0.949   6.491
10249SOL    HW131646   2.498   0.929   6.562
10249SOL    HW231647   2.520   0.989   6.412
10250SOL     OW31648   0.397   1.888   0.966
10250SOL    HW131649   0.318   1.921   0.915
10250SOL    HW231650   0.372   1.879   1.063
10251SOL     OW31651   1.828   2.473   5.554
10251SOL    HW131652   1.733   2.504   5.553
10251SOL    HW231653   1.868   2.484   5.464
10252SOL     OW31654   6.639   6.445   0.514
10252SOL    HW131655   6.541   6.460   0.516
10252SOL    HW231656   6.685   6.521   0.468
10253SOL     OW31657   4.897   5.466   0.039
10253SOL    HW131658   4.984   5.512   0.057
10253SOL    HW231659   4.910   5.367   0.042
10254SOL     OW31660   3.828   2.034   5.042
10254SOL    HW131661   3.797   2.027   4.947
10254SOL    HW231662   3.784   1.963   5.097
10255SOL     OW31663   2.481   5.314   1.602
10255SOL    HW131664   2.496   5.326   1.504
10255SOL    HW231665   2.565   5.335   1.651
10256SOL     OW31666   5.611   6.689   1.587
10256SOL    HW131667   5.591   6.699   1.489
10256SOL    HW231668   5.599   6.778   1.632
10257SOL     OW31669   1.231   4.467   5.111
10257SOL    HW131670   1.237   4.563   5.082
10257SOL    HW231671   1.139   4.432   5.092
10258SOL     OW31672   4.944   0.257   3.788
10258SOL    HW131673   5.029   0.208   3.807
10258SOL    HW231674   4.937   0.273   3.689
10259SOL     OW31675   0.697   5.538   3.239
10259SOL    HW131676   0.613   5.488   3.263
10259SOL    HW231677   0.700   5.624   3.290
10260SOL     OW31678   6.878   0.415   3.165
10260SOL    HW131679   6.927   0.374   3.088
10260SOL    HW231680   6.944   0.451   3.231
10261SOL     OW31681   6.916   6.450   1.707
10261SOL    HW131682   6.983   6.424   1.777
10261SOL    HW231683   6.962   6.459   1.619
10262SOL     OW31684   2.804   5.708   4.676
10262SOL    HW131685   2.792   5.699   4.775
10262SOL    HW231686   2.892   5.752   4.657
10263SOL     OW31687   4.545   1.068   6.628
10263SOL    HW131688   4.548   1.100   6.534
10263SOL    HW231689   4.600   0.985   6.638
10264SOL     OW31690   6.114   1.510   6.764
10264SOL    HW131691   6.063   1.427   6.785
10264SOL    HW231692   6.208   1.486   6.738
10265SOL     OW31693   3.405   2.125   3.181
10265SOL    HW131694   3.372   2.031   3.189
10265SOL    HW231695   3.492   2.125   3.131
10266SOL     OW31696   3.528   2.878   5.166
10266SOL    HW131697   3.443   2.915   5.131
10266SOL    HW231698   3.541   2.906   5.261
10267SOL     OW31699   6.563   1.943   6.740
10267SOL    HW131700   6.510   2.017   6.697
10267SOL    HW231701   6.651   1.979   6.770
10268SOL     OW31702   4.470   6.592   1.995
10268SOL    HW131703   4.392   6.653   1.996
10268SOL    HW231704   4.555   6.645   2.003
10269SOL     OW31705   1.951   1.849   5.709
10269SOL    HW131706   1.853   1.868   5.709
10269SOL    HW231707   1.968   1.764   5.759
10270SOL     OW31708   2.002   5.766   2.493
10270SOL    HW131709   2.015   5.862   2.469
10270SOL    HW231710   1.951   5.720   2.420
10271SOL     OW31711   3.337   3.023   0.604
10271SOL    HW131712   3.396   2.981   0.535
10271SOL    HW231713   3.346   3.123   0.600
10272SOL     OW31714   1.297   0.912   4.616
10272SOL    HW131715   1.274   0.892   4.521
10272SOL    HW231716   1.296   0.828   4.670
10273SOL     OW31717   3.964   5.595   3.516
10273SOL    HW131718   3.926   5.536   3.587
10273SOL    HW231719   4.061   5.574   3.502
10274SOL     OW31720   1.557   4.402   5.850
10274SOL    HW131721   1.505   4.443   5.775
10274SOL    HW231722   1.654   4.418   5.835
10275SOL     OW31723   1.524   0.342   1.952
10275SOL    HW131724   1.497   0.294   2.035
10275SOL    HW231725   1.540   0.276   1.879
10276SOL     OW31726   6.647   5.681   6.360
10276SOL    HW131727   6.559   5.654   6.399
10276SOL    HW231728   6.719   5.665   6.427
10277SOL     OW31729   2.389   6.512   3.727
10277SOL    HW131730   2.364   6.512   3.630
10277SOL    HW231731   2.365   6.424   3.768
10278SOL     OW31732   5.607   1.055   5.467
10278SOL    HW131733   5.664   1.125   5.509
10278SOL    HW231734   5.640   1.036   5.374
10279SOL     OW31735   2.868   6.934   4.032
10279SOL    HW131736   2.815   6.858   4.070
10279SOL    HW231737   2.810   6.986   3.969
10280SOL     OW31738   2.583   4.353   1.008
10280SOL    HW131739   2.499   4.305   0.982
10280SOL    HW231740   2.663   4.299   0.982
10281SOL     OW31741   5.771   2.764   2.423
10281SOL    HW131742   5.807   2.855   2.441
10281SOL    HW231743   5.775   2.709   2.506
10282SOL     OW31744   6.707   3.433   4.392
10282SOL    HW131745   6.615   3.446   4.356
10282SOL    HW231746   6.733   3.513   4.446
10283SOL     OW31747   0.980   2.871   1.134
10283SOL    HW131748   1.078   2.854   1.120
10283SOL    HW231749   0.966   2.968   1.153
10284SOL     OW31750   5.043   4.774   6.275
10284SOL    HW131751   5.101   4.855   6.282
10284SOL    HW231752   5.004   4.769   6.183
10285SOL     OW31753   4.650   0.059   0.830
10285SOL    HW131754   4.686   7.009   0.889
10285SOL    HW231755   4.618   0.020   0.744
10286SOL     OW31756   3.569   1.754   3.854
10286SOL    HW131757   3.479   1.725   3.822
10286SOL    HW231758   3.575   1.738   3.953
10287SOL     OW31759   1.668   6.762   1.849
10287SOL    HW131760   1.702   6.856   1.855
10287SOL    HW231761   1.587   6.760   1.791
10288SOL     OW31762   4.881   6.482   2.470
10288SOL    HW131763   4.847   6.424   2.397
10288SOL    HW231764   4.855   6.443   2.559
10289SOL     OW31765   3.557   0.737   1.879
10289SOL    HW131766   3.464   0.753   1.848
10289SOL    HW231767   3.570   0.779   1.969
10290SOL     OW31768   3.804   4.043   2.722
10290SOL    HW131769   3.852   4.122   2.760
10290SOL    HW231770   3.706   4.063   2.715
10291SOL     OW31771   4.099   0.279   4.105
10291SOL    HW131772   4.046   0.360   4.081
10291SOL    HW231773   4.107   0.274   4.205
10292SOL     OW31774   1.238   1.653   4.600
10292SOL    HW131775   1.232   1.569   4.654
10292SOL    HW231776   1.169   1.652   4.528
10293SOL     OW31777   1.852   6.158   2.583
10293SOL    HW131778   1.792   6.079   2.592
10293SOL    HW231779   1.936   6.143   2.635
10294SOL     OW31780   4.962   3.473   3.435
10294SOL    HW131781   5.050   3.508   3.405
10294SOL    HW231782   4.943   3.386   3.388
10295SOL     OW31783   6.101   4.660   6.004
10295SOL    HW131784   6.076   4.566   5.981
10295SOL    HW231785   6.080   4.720   5.927
10296SOL     OW31786   5.044   4.542   6.720
10296SOL    HW131787   4.995   4.596   6.651
10296SOL    HW231788   5.098   4.603   6.778
10297SOL     OW31789   2.718   6.578   4.422
10297SOL    HW131790   2.757   6.513   4.358
10297SOL    HW231791   2.677   6.529   4.500
10298SOL     OW31792   4.252   4.648   3.024
10298SOL    HW131793   4.240   4.675   2.929
10298SOL    HW231794   4.301   4.561   3.028
10299SOL     OW31795   4.191   4.695   2.768
10299SOL    HW131796   4.206   4.778   2.715
10299SOL    HW231797   4.092   4.682   2.781
10300SOL     OW31798   1.513   4.606   2.113
10300SOL    HW131799   1.498   4.603   2.014
10300SOL    HW231800   1.480   4.521   2.155
10301SOL     OW31801   5.683   2.041   2.393
10301SOL    HW131802   5.583   2.043   2.399
10301SOL    HW231803   5.711   1.973   2.325
10302SOL     OW31804   1.314   6.056   3.618
10302SOL    HW131805   1.395   6.072   3.563
10302SOL    HW231806   1.233   6.091   3.570
10303SOL     OW31807   3.463   5.026   1.243
10303SOL    HW131808   3.396   5.072   1.301
10303SOL    HW231809   3.554   5.034   1.283
10304SOL     OW31810   5.726   0.897   3.232
10304SOL    HW131811   5.776   0.983   3.234
10304SOL    HW231812   5.628   0.915   3.238
10305SOL     OW31813   0.663   5.368   6.102
10305SOL    HW131814   0.651   5.372   6.201
10305SOL    HW231815   0.692   5.276   6.076
10306SOL     OW31816   4.635   5.839   6.193
10306SOL    HW131817   4.611   5.813   6.287
10306SOL    HW231818   4.552   5.844   6.138
10307SOL     OW31819   2.440   1.873   4.956
10307SOL    HW131820   2.343   1.881   4.979
10307SOL    HW231821   2.471   1.780   4.976
10308SOL     OW31822   3.015   4.854   4.364
10308SOL    HW131823   2.924   4.815   4.356
10308SOL    HW231824   3.031   4.882   4.459
10309SOL     OW31825   6.459   0.489   4.008
10309SOL    HW131826   6.389   0.484   3.937
10309SOL    HW231827   6.549   0.470   3.967
10310SOL     OW31828   3.313   3.565   1.125
10310SOL    HW131829   3.228   3.524   1.091
10310SOL    HW231830   3.367   3.597   1.047
10311SOL     OW31831   0.472   5.605   1.375
10311SOL    HW131832   0.447   5.668   1.301
10311SOL    HW231833   0.571   5.607   1.388
10312SOL     OW31834   3.839   5.750   1.421
10312SOL    HW131835   3.839   5.657   1.383
10312SOL    HW231836   3.825   5.745   1.520
10313SOL     OW31837   4.099   6.753   2.571
10313SOL    HW131838   4.140   6.738   2.661
10313SOL    HW231839   4.009   6.710   2.568
10314SOL     OW31840   5.933   0.829   1.520
10314SOL    HW131841   5.906   0.921   1.545
10314SOL    HW231842   5.890   0.804   1.433
10315SOL     OW31843   6.582   6.513   4.514
10315SOL    HW131844   6.667   6.527   4.565
10315SOL    HW231845   6.599   6.527   4.416
10316SOL     OW31846   6.844   3.040   4.363
10316SOL    HW131847   6.757   3.086   4.384
10316SOL    HW231848   6.891   3.091   4.290
10317SOL     OW31849   3.630   4.846   6.484
10317SOL    HW131850   3.608   4.941   6.507
10317SOL    HW231851   3.715   4.843   6.430
10318SOL     OW31852   6.343   5.709   1.292
10318SOL    HW131853   6.310   5.802   1.308
10318SOL    HW231854   6.396   5.707   1.207
10319SOL     OW31855   0.875   4.506   4.948
10319SOL    HW131856   0.907   4.420   4.985
10319SOL    HW231857   0.780   4.522   4.978
10320SOL     OW31858   0.809   0.744   0.794
10320SOL    HW131859   0.830   0.776   0.886
10320SOL    HW231860   0.732   0.680   0.798
10321SOL     OW31861   4.181   6.839   4.580
10321SOL    HW131862   4.088   6.812   4.559
10321SOL    HW231863   4.194   6.842   4.679
10322SOL     OW31864   6.415   5.492   0.435
10322SOL    HW131865   6.502   5.533   0.460
10322SOL    HW231866   6.340   5.548   0.472
10323SOL     OW31867   6.571   3.552   6.643
10323SOL    HW131868   6.588   3.454   6.633
10323SOL    HW231869   6.478   3.573   6.613
10324SOL     OW31870   3.359   3.322   3.439
10324SOL    HW131871   3.374   3.364   3.349
10324SOL    HW231872   3.438   3.266   3.464
10325SOL     OW31873   6.639   4.684   4.478
10325SOL    HW131874   6.546   4.721   4.474
10325SOL    HW231875   6.705   4.758   4.465
10326SOL     OW31876   5.023   2.890   6.854
10326SOL    HW131877   4.981   2.925   6.937
10326SOL    HW231878   4.981   2.935   6.774
10327SOL     OW31879   2.426   1.417   2.791
10327SOL    HW131880   2.511   1.455   2.828
10327SOL    HW231881   2.366   1.491   2.764
10328SOL     OW31882   5.822   3.727   1.672
10328SOL    HW131883   5.895   3.738   1.605
10328SOL    HW231884   5.845   3.777   1.755
10329SOL     OW31885   2.656   0.093   4.383
10329SOL    HW131886   2.606   0.045   4.311
10329SOL    HW231887   2.613   0.075   4.471
10330SOL     OW31888   3.534   5.046   3.031
10330SOL    HW131889   3.476   5.122   3.061
10330SOL    HW231890   3.610   5.081   2.977
10331SOL     OW31891   5.821   0.976   2.761
10331SOL    HW131892   5.736   1.015   2.726
10331SOL    HW231893   5.875   1.048   2.805
10332SOL     OW31894   0.090   1.942   0.516
10332SOL    HW131895   0.084   2.029   0.566
10332SOL    HW231896   0.112   1.959   0.420
10333SOL     OW31897   5.760   4.358   4.004
10333SOL    HW131898   5.791   4.302   3.928
10333SOL    HW231899   5.697   4.306   4.061
10334SOL     OW31900   2.227   5.561   3.764
10334SOL    HW131901   2.227   5.538   3.666
10334SOL    HW231902   2.312   5.527   3.805
10335SOL     OW31903   1.687   4.557   6.823
10335SOL    HW131904   1.653   4.637   6.873
10335SOL    HW231905   1.647   4.556   6.732
10336SOL     OW31906   4.770   6.262   2.901
10336SOL    HW131907   4.863   6.298   2.892
10336SOL    HW231908   4.706   6.323   2.854
10337SOL     OW31909   6.677   5.345   5.172
10337SOL    HW131910   6.767   5.303   5.162
10337SOL    HW231911   6.674   5.430   5.119
10338SOL     OW31912   3.519   6.535   0.868
10338SOL    HW131913   3.510   6.602   0.794
10338SOL    HW231914   3.464   6.454   0.847
10339SOL     OW31915   3.470   4.992   0.930
10339SOL    HW131916   3.556   4.972   0.978
10339SOL    HW231917   3.403   5.026   0.996
10340SOL     OW31918   1.531   5.467   0.083
10340SOL    HW131919   1.535   5.567   0.084
10340SOL    HW231920   1.594   5.432   0.152
10341SOL     OW31921   1.986   2.804   1.964
10341SOL    HW131922   1.947   2.761   1.882
10341SOL    HW231923   2.047   2.878   1.936
10342SOL     OW31924   2.034   6.060   6.209
10342SOL    HW131925   1.969   5.993   6.173
10342SOL    HW231926   2.104   6.013   6.263
10343SOL     OW31927   2.047   3.730   6.911
10343SOL    HW131928   2.106   3.810   6.918
10343SOL    HW231929   1.953   3.760   6.891
10344SOL     OW31930   4.028   3.846   3.574
10344SOL    HW131931   3.943   3.882   3.611
10344SOL    HW231932   4.008   3.792   3.492
10345SOL     OW31933   2.072   1.221   6.759
10345SOL    HW131934   2.051   1.138   6.810
10345SOL    HW231935   2.122   1.285   6.818
10346SOL     OW31936   5.817   6.882   0.843
10346SOL    HW131937   5.873   6.906   0.764
10346SOL    HW231938   5.871   6.888   0.926
10347SOL     OW31939   5.048   1.689   0.890
10347SOL    HW131940   5.130   1.656   0.843
10347SOL    HW231941   5.021   1.778   0.853
10348SOL     OW31942   6.713   0.522   6.348
10348SOL    HW131943   6.720   0.463   6.268
10348SOL    HW231944   6.695   0.465   6.429
10349SOL     OW31945   5.999   0.231   1.160
10349SOL    HW131946   5.941   0.163   1.205
10349SOL    HW231947   6.094   0.198   1.158
10350SOL     OW31948   3.669   6.054   4.508
10350SOL    HW131949   3.572   6.044   4.532
10350SOL    HW231950   3.714   5.965   4.515
10351SOL     OW31951   6.011   4.807   5.773
10351SOL    HW131952   6.065   4.771   5.697
10351SOL    HW231953   5.915   4.778   5.762
10352SOL     OW31954   5.298   2.432   6.507
10352SOL    HW131955   5.334   2.373   6.435
10352SOL    HW231956   5.209   2.469   6.478
10353SOL     OW31957   0.047   2.992   3.588
10353SOL    HW131958   0.100   2.915   3.625
10353SOL    HW231959   0.015   2.969   3.497
10354SOL     OW31960   0.946   4.318   1.447
10354SOL    HW131961   0.851   4.323   1.480
10354SOL    HW231962   0.976   4.408   1.418
10355SOL     OW31963   1.317   1.138   1.109
10355SOL    HW131964   1.333   1.136   1.208
10355SOL    HW231965   1.311   1.233   1.079
10356SOL     OW31966   0.650   3.302   6.947
10356SOL    HW131967   0.676   3.207   6.935
10356SOL    HW231968   0.550   3.308   6.959
10357SOL     OW31969   2.200   2.416   6.069
10357SOL    HW131970   2.164   2.488   6.010
10357SOL    HW231971   2.299   2.406   6.054
10358SOL     OW31972   1.743   3.312   2.749
10358SOL    HW131973   1.711   3.380   2.816
10358SOL    HW231974   1.665   3.279   2.696
10359SOL     OW31975   4.708   2.790   2.169
10359SOL    HW131976   4.754   2.717   2.118
10359SOL    HW231977   4.714   2.875   2.118
10360SOL     OW31978   4.997   4.839   2.377
10360SOL    HW131979   5.061   4.764   2.394
10360SOL    HW231980   4.970   4.880   2.464
10361SOL     OW31981   2.537   0.966   2.295
10361SOL    HW131982   2.592   0.982   2.212
10361SOL    HW231983   2.500   1.054   2.327
10362SOL     OW31984   0.486   4.544   2.789
10362SOL    HW131985   0.499   4.452   2.755
10362SOL    HW231986   0.561   4.569   2.850
10363SOL     OW31987   4.563   2.583   0.358
10363SOL    HW131988   4.629   2.543   0.294
10363SOL    HW231989   4.556   2.681   0.340
10364SOL     OW31990   5.685   5.205   1.205
10364SOL    HW131991   5.688   5.120   1.256
10364SOL    HW231992   5.708   5.282   1.266
10365SOL     OW31993   5.705   4.716   0.273
10365SOL    HW131994   5.800   4.745   0.264
10365SOL    HW231995   5.679   4.658   0.196
10366SOL     OW31996   4.270   6.919   3.559
10366SOL    HW131997   4.197   6.867   3.603
10366SOL    HW231998   4.231   6.979   3.489
10367SOL     OW31999   6.818   1.920   2.219
10367SOL    HW132000   6.734   1.972   2.236
10367SOL    HW232001   6.823   1.896   2.122
10368SOL     OW32002   2.839   0.921   2.524
10368SOL    HW132003   2.778   0.866   2.468
10368SOL    HW232004   2.885   0.989   2.466
10369SOL     OW32005   2.753   6.686   5.821
10369SOL    HW132006   2.817   6.704   5.896
10369SOL    HW232007   2.680   6.627   5.854
10370SOL     OW32008   6.389   1.467   4.986
10370SOL    HW132009   6.302   1.435   5.024
10370SOL    HW232010   6.371   1.531   4.911
10371SOL     OW32011   3.280   7.001   3.363
10371SOL    HW132012   3.265   0.057   3.302
10371SOL    HW232013   3.261   0.007   3.457
10372SOL     OW32014   2.718   0.864   1.938
10372SOL    HW132015   2.714   0.797   1.864
10372SOL    HW232016   2.813   0.873   1.970
10373SOL     OW32017   0.239   6.909   4.502
10373SOL    HW132018   0.174   6.984   4.516
10373SOL    HW232019   0.310   6.912   4.572
10374SOL     OW32020   2.878   6.400   4.755
10374SOL    HW132021   2.945   6.337   4.714
10374SOL    HW232022   2.807   6.347   4.801
10375SOL     OW32023   3.330   1.854   6.414
10375SOL    HW132024   3.269   1.826   6.340
10375SOL    HW232025   3.420   1.877   6.376
10376SOL     OW32026   1.585   6.351   3.508
10376SOL    HW132027   1.671   6.392   3.537
10376SOL    HW232028   1.542   6.409   3.439
10377SOL     OW32029   0.759   2.223   1.557
10377SOL    HW132030   0.691   2.196   1.489
10377SOL    HW232031   0.721   2.294   1.616
10378SOL     OW32032   7.016   5.577   5.742
10378SOL    HW132033   0.007   5.668   5.704
10378SOL    HW232034   0.072   5.553   5.800
10379SOL     OW32035   2.697   5.693   3.853
10379SOL    HW132036   2.783   5.735   3.823
10379SOL    HW232037   2.620   5.745   3.816
10380SOL     OW32038   1.333   2.092   4.768
10380SOL    HW132039   1.386   2.008   4.781
10380SOL    HW232040   1.271   2.081   4.691
10381SOL     OW32041   4.000   4.179   0.348
10381SOL    HW132042   3.942   4.227   0.414
10381SOL    HW232043   3.997   4.081   0.365
10382SOL     OW32044   3.158   6.357   2.043
10382SOL    HW132045   3.086   6.384   2.107
10382SOL    HW232046   3.131   6.274   1.995
10383SOL     OW32047   1.694   3.621   0.607
10383SOL    HW132048   1.643   3.646   0.524
10383SOL    HW232049   1.683   3.523   0.625
10384SOL     OW32050   6.571   6.305   0.806
10384SOL    HW132051   6.598   6.342   0.717
10384SOL    HW232052   6.651   6.264   0.851
10385SOL     OW32053   3.565   5.930   5.815
10385SOL    HW132054   3.506   5.999   5.856
10385SOL    HW232055   3.633   5.974   5.756
10386SOL     OW32056   0.698   0.777   5.752
10386SOL    HW132057   0.619   0.716   5.744
10386SOL    HW232058   0.667   0.870   5.772
10387SOL     OW32059   5.173   3.048   2.983
10387SOL    HW132060   5.270   3.056   3.007
10387SOL    HW232061   5.144   2.953   2.996
10388SOL     OW32062   2.787   6.886   0.837
10388SOL    HW132063   2.751   6.795   0.859
10388SOL    HW232064   2.712   6.951   0.831
10389SOL     OW32065   5.542   3.499   7.000
10389SOL    HW132066   5.548   3.399   7.001
10389SOL    HW232067   5.458   3.527   0.025
10390SOL     OW32068   1.567   2.645   0.243
10390SOL    HW132069   1.587   2.549   0.263
10390SOL    HW232070   1.469   2.661   0.251
10391SOL     OW32071   1.612   5.893   3.862
10391SOL    HW132072   1.610   5.859   3.768
10391SOL    HW232073   1.565   5.828   3.922
10392SOL     OW32074   6.120   5.096   5.165
10392SOL    HW132075   6.117   5.161   5.089
10392SOL    HW232076   6.071   5.134   5.243
10393SOL     OW32077   1.679   3.677   3.620
10393SOL    HW132078   1.663   3.625   3.704
10393SOL    HW232079   1.617   3.755   3.616
10394SOL     OW32080   2.317   5.342   4.399
10394SOL    HW132081   2.351   5.317   4.490
10394SOL    HW232082   2.318   5.442   4.391
10395SOL     OW32083   0.601   6.748   1.438
10395SOL    HW132084   0.590   6.808   1.359
10395SOL    HW232085   0.516   6.744   1.489
10396SOL     OW32086   4.080   1.729   3.756
10396SOL    HW132087   3.989   1.755   3.788
10396SOL    HW232088   4.095   1.767   3.665
10397SOL     OW32089   3.562   1.690   4.119
10397SOL    HW132090   3.617   1.611   4.144
10397SOL    HW232091   3.572   1.761   4.189
10398SOL     OW32092   5.880   2.411   0.967
10398SOL    HW132093   5.855   2.351   0.890
10398SOL    HW232094   5.798   2.450   1.008
10399SOL     OW32095   5.497   2.158   3.139
10399SOL    HW132096   5.594   2.138   3.122
10399SOL    HW232097   5.456   2.195   3.056
10400SOL     OW32098   4.865   5.968   0.031
10400SOL    HW132099   4.821   6.027   0.099
10400SOL    HW232100   4.832   5.874   0.042
10401SOL     OW32101   6.647   6.315   2.614
10401SOL    HW132102   6.723   6.372   2.643
10401SOL    HW232103   6.614   6.346   2.525
10402SOL     OW32104   6.524   2.122   5.243
10402SOL    HW132105   6.424   2.117   5.244
10402SOL    HW232106   6.553   2.215   5.265
10403SOL     OW32107   5.346   1.396   3.625
10403SOL    HW132108   5.427   1.421   3.678
10403SOL    HW232109   5.308   1.477   3.581
10404SOL     OW32110   6.336   6.310   4.480
10404SOL    HW132111   6.336   6.219   4.440
10404SOL    HW232112   6.419   6.359   4.452
10405SOL     OW32113   0.721   0.216   5.201
10405SOL    HW132114   0.686   0.309   5.196
10405SOL    HW232115   0.786   0.201   5.127
10406SOL     OW32116   2.586   4.604   3.274
10406SOL    HW132117   2.652   4.628   3.345
10406SOL    HW232118   2.571   4.505   3.275
10407SOL     OW32119   2.491   6.752   6.151
10407SOL    HW132120   2.397   6.750   6.120
10407SOL    HW232121   2.522   6.658   6.169
10408SOL     OW32122   4.584   0.186   1.455
10408SOL    HW132123   4.678   0.207   1.429
10408SOL    HW232124   4.538   0.270   1.486
10409SOL     OW32125   0.431   4.934   0.970
10409SOL    HW132126   0.471   4.956   1.059
10409SOL    HW232127   0.433   4.835   0.956
10410SOL     OW32128   5.433   1.836   1.837
10410SOL    HW132129   5.374   1.774   1.889
10410SOL    HW232130   5.406   1.834   1.741
10411SOL     OW32131   3.483   6.458   3.251
10411SOL    HW132132   3.465   6.414   3.339
10411SOL    HW232133   3.400   6.457   3.195
10412SOL     OW32134   0.657   0.918   6.991
10412SOL    HW132135   0.750   0.953   7.004
10412SOL    HW232136   0.657   0.819   7.000
10413SOL     OW32137   0.049   2.920   0.538
10413SOL    HW132138   0.064   2.996   0.602
10413SOL    HW232139   6.976   2.891   0.543
10414SOL     OW32140   4.245   4.642   5.951
10414SOL    HW132141   4.248   4.699   5.869
10414SOL    HW232142   4.160   4.589   5.951
10415SOL     OW32143   1.724   3.691   4.649
10415SOL    HW132144   1.754   3.631   4.574
10415SOL    HW232145   1.719   3.638   4.733
10416SOL     OW32146   6.099   0.500   4.956
10416SOL    HW132147   6.028   0.433   4.934
10416SOL    HW232148   6.078   0.587   4.911
10417SOL     OW32149   3.115   5.220   4.676
10417SOL    HW132150   3.160   5.264   4.753
10417SOL    HW232151   3.183   5.196   4.607
10418SOL     OW32152   0.033   3.478   6.745
10418SOL    HW132153   6.984   3.544   6.722
10418SOL    HW232154   0.097   3.470   6.669
10419SOL     OW32155   2.047   0.002   6.083
10419SOL    HW132156   2.127   0.059   6.099
10419SOL    HW232157   2.039   7.005   5.986
10420SOL     OW32158   0.495   3.699   3.612
10420SOL    HW132159   0.571   3.635   3.603
10420SOL    HW232160   0.516   3.784   3.564
10421SOL     OW32161   0.516   1.905   3.852
10421SOL    HW132162   0.591   1.930   3.913
10421SOL    HW232163   0.444   1.974   3.858
10422SOL     OW32164   6.139   3.373   4.880
10422SOL    HW132165   6.078   3.308   4.926
10422SOL    HW232166   6.086   3.429   4.816
10423SOL     OW32167   6.569   5.895   5.211
10423SOL    HW132168   6.536   5.985   5.237
10423SOL    HW232169   6.658   5.904   5.166
10424SOL     OW32170   4.694   3.478   0.060
10424SOL    HW132171   4.640   3.511   7.005
10424SOL    HW232172   4.753   3.403   0.030
10425SOL     OW32173   1.090   0.544   1.819
10425SOL    HW132174   1.132   0.542   1.729
10425SOL    HW232175   1.003   0.594   1.816
10426SOL     OW32176   5.732   4.813   0.871
10426SOL    HW132177   5.767   4.820   0.778
10426SOL    HW232178   5.675   4.892   0.892
10427SOL     OW32179   3.803   0.562   6.540
10427SOL    HW132180   3.761   0.639   6.491
10427SOL    HW232181   3.801   0.580   6.638
10428SOL     OW32182   3.847   1.206   3.736
10428SOL    HW132183   3.795   1.157   3.666
10428SOL    HW232184   3.789   1.222   3.816
10429SOL     OW32185   6.670   4.649   0.975
10429SOL    HW132186   6.651   4.608   1.064
10429SOL    HW232187   6.655   4.747   0.979
10430SOL     OW32188   4.868   0.153   4.528
10430SOL    HW132189   4.876   0.152   4.628
10430SOL    HW232190   4.840   0.244   4.498
10431SOL     OW32191   3.081   5.915   4.526
10431SOL    HW132192   3.111   5.884   4.435
10431SOL    HW232193   3.066   6.014   4.524
10432SOL     OW32194   5.256   6.354   4.932
10432SOL    HW132195   5.299   6.288   4.871
10432SOL    HW232196   5.206   6.422   4.878
10433SOL     OW32197   1.349   6.223   1.680
10433SOL    HW132198   1.254   6.198   1.699
10433SOL    HW232199   1.372   6.304   1.733
10434SOL     OW32200   3.982   6.620   3.341
10434SOL    HW132201   4.006   6.523   3.328
10434SOL    HW232202   3.883   6.629   3.348
10435SOL     OW32203   6.763   0.682   4.857
10435SOL    HW132204   6.670   0.663   4.887
10435SOL    HW232205   6.828   0.631   4.914
10436SOL     OW32206   0.884   5.042   5.545
10436SOL    HW132207   0.793   5.080   5.526
10436SOL    HW232208   0.883   4.944   5.528
10437SOL     OW32209   5.198   4.755   5.539
10437SOL    HW132210   5.160   4.694   5.609
10437SOL    HW232211   5.293   4.776   5.562
10438SOL     OW32212   6.218   6.556   0.076
10438SOL    HW132213   6.152   6.490   0.039
10438SOL    HW232214   6.177   6.648   0.073
10439SOL     OW32215   4.379   0.959   5.812
10439SOL    HW132216   4.285   0.959   5.846
10439SOL    HW232217   4.424   0.873   5.839
10440SOL     OW32218   1.298   7.004   0.410
10440SOL    HW132219   1.330   0.067   0.367
10440SOL    HW232220   1.202   7.016   0.437
10441SOL     OW32221   3.201   0.119   1.489
10441SOL    HW132222   3.262   0.118   1.409
10441SOL    HW232223   3.240   0.061   1.561
10442SOL     OW32224   2.949   6.490   5.636
10442SOL    HW132225   2.893   6.505   5.554
10442SOL    HW232226   3.000   6.405   5.626
10443SOL     OW32227   4.864   3.772   4.774
10443SOL    HW132228   4.875   3.742   4.869
10443SOL    HW232229   4.789   3.721   4.732
10444SOL     OW32230   3.692   6.260   4.697
10444SOL    HW132231   3.688   6.343   4.643
10444SOL    HW232232   3.691   6.180   4.636
10445SOL     OW32233   0.620   4.927   4.976
10445SOL    HW132234   0.608   4.970   4.887
10445SOL    HW232235   0.533   4.925   5.025
10446SOL     OW32236   1.359   3.050   5.028
10446SOL    HW132237   1.441   2.995   5.045
10446SOL    HW232238   1.382   3.128   4.971
10447SOL     OW32239   0.142   0.736   2.370
10447SOL    HW132240   0.223   0.677   2.370
10447SOL    HW232241   0.064   0.687   2.409
10448SOL     OW32242   3.283   1.138   2.222
10448SOL    HW132243   3.190   1.171   2.236
10448SOL    HW232244   3.289   1.089   2.135
10449SOL     OW32245   2.187   5.165   4.831
10449SOL    HW132246   2.211   5.068   4.835
10449SOL    HW232247   2.087   5.174   4.828
10450SOL     OW32248   0.764   1.667   0.817
10450SOL    HW132249   0.680   1.613   0.829
10450SOL    HW232250   0.754   1.725   0.736
10451SOL     OW32251   1.616   5.953   2.444
10451SOL    HW132252   1.629   5.857   2.467
10451SOL    HW232253   1.640   5.967   2.348
10452SOL     OW32254   6.399   4.134   2.416
10452SOL    HW132255   6.430   4.121   2.322
10452SOL    HW232256   6.476   4.119   2.478
10453SOL     OW32257   4.273   5.900   1.880
10453SOL    HW132258   4.311   5.895   1.788
10453SOL    HW232259   4.251   5.808   1.913
10454SOL     OW32260   4.693   3.838   0.734
10454SOL    HW132261   4.684   3.821   0.635
10454SOL    HW232262   4.605   3.823   0.778
10455SOL     OW32263   6.052   5.891   3.223
10455SOL    HW132264   5.990   5.817   3.250
10455SOL    HW232265   6.113   5.912   3.299
10456SOL     OW32266   3.206   6.517   1.392
10456SOL    HW132267   3.267   6.590   1.424
10456SOL    HW232268   3.117   6.526   1.437
10457SOL     OW32269   3.393   3.540   1.845
10457SOL    HW132270   3.347   3.483   1.776
10457SOL    HW232271   3.365   3.635   1.834
10458SOL     OW32272   0.536   1.505   5.855
10458SOL    HW132273   0.597   1.540   5.927
10458SOL    HW232274   0.450   1.475   5.896
10459SOL     OW32275   4.961   5.593   2.231
10459SOL    HW132276   5.029   5.560   2.165
10459SOL    HW232277   4.877   5.617   2.184
10460SOL     OW32278   1.440   5.019   1.327
10460SOL    HW132279   1.363   5.006   1.389
10460SOL    HW232280   1.518   4.965   1.359
10461SOL     OW32281   1.514   5.049   5.426
10461SOL    HW132282   1.490   5.146   5.428
10461SOL    HW232283   1.480   5.006   5.510
10462SOL     OW32284   6.085   2.561   3.395
10462SOL    HW132285   6.084   2.544   3.493
10462SOL    HW232286   6.180   2.559   3.362
10463SOL     OW32287   4.096   3.197   5.501
10463SOL    HW132288   4.094   3.131   5.576
10463SOL    HW232289   4.149   3.159   5.425
10464SOL     OW32290   6.280   6.738   1.216
10464SOL    HW132291   6.242   6.812   1.272
10464SOL    HW232292   6.318   6.667   1.276
10465SOL     OW32293   6.632   6.270   1.574
10465SOL    HW132294   6.695   6.229   1.509
10465SOL    HW232295   6.539   6.239   1.555
10466SOL     OW32296   4.844   4.832   5.548
10466SOL    HW132297   4.830   4.868   5.456
10466SOL    HW232298   4.927   4.871   5.587
10467SOL     OW32299   1.334   2.293   5.557
10467SOL    HW132300   1.334   2.289   5.457
10467SOL    HW232301   1.426   2.275   5.592
10468SOL     OW32302   4.013   4.811   3.099
10468SOL    HW132303   3.962   4.830   3.015
10468SOL    HW232304   4.095   4.758   3.076
10469SOL     OW32305   4.136   2.829   6.371
10469SOL    HW132306   4.132   2.929   6.383
10469SOL    HW232307   4.044   2.791   6.383
10470SOL     OW32308   3.166   2.116   3.557
10470SOL    HW132309   3.256   2.148   3.588
10470SOL    HW232310   3.099   2.130   3.629
10471SOL     OW32311   2.548   2.364   1.417
10471SOL    HW132312   2.540   2.268   1.443
10471SOL    HW232313   2.480   2.385   1.346
10472SOL     OW32314   2.494   5.706   1.141
10472SOL    HW132315   2.532   5.731   1.052
10472SOL    HW232316   2.449   5.786   1.181
10473SOL     OW32317   6.228   0.814   0.300
10473SOL    HW132318   6.216   0.859   0.389
10473SOL    HW232319   6.325   0.814   0.275
10474SOL     OW32320   4.624   1.399   4.809
10474SOL    HW132321   4.608   1.496   4.792
10474SOL    HW232322   4.654   1.386   4.904
10475SOL     OW32323   4.724   6.619   2.828
10475SOL    HW132324   4.700   6.559   2.751
10475SOL    HW232325   4.784   6.692   2.795
10476SOL     OW32326   6.926   6.307   6.966
10476SOL    HW132327   6.855   6.272   6.905
10476SOL    HW232328   6.959   6.395   6.932
10477SOL     OW32329   6.442   1.949   4.429
10477SOL    HW132330   6.475   1.915   4.517
10477SOL    HW232331   6.467   1.885   4.357
10478SOL     OW32332   0.543   0.573   1.260
10478SOL    HW132333   0.574   0.490   1.306
10478SOL    HW232334   0.538   0.648   1.326
10479SOL     OW32335   0.386   2.646   2.052
10479SOL    HW132336   0.364   2.734   2.094
10479SOL    HW232337   0.355   2.646   1.957
10480SOL     OW32338   6.018   0.453   1.399
10480SOL    HW132339   5.952   0.451   1.325
10480SOL    HW232340   5.971   0.474   1.485
10481SOL     OW32341   2.348   6.986   4.465
10481SOL    HW132342   2.286   0.023   4.516
10481SOL    HW232343   2.296   6.916   4.416
10482SOL     OW32344   0.370   5.472   4.957
10482SOL    HW132345   0.445   5.441   4.899
10482SOL    HW232346   0.368   5.572   4.959
10483SOL     OW32347   0.048   6.125   0.637
10483SOL    HW132348   0.042   6.086   0.545
10483SOL    HW232349   6.983   6.112   0.684
10484SOL     OW32350   6.227   0.933   1.427
10484SOL    HW132351   6.313   0.933   1.478
10484SOL    HW232352   6.188   1.025   1.427
10485SOL     OW32353   3.179   3.199   2.222
10485SOL    HW132354   3.113   3.173   2.293
10485SOL    HW232355   3.271   3.198   2.260
10486SOL     OW32356   6.446   0.889   6.246
10486SOL    HW132357   6.464   0.790   6.252
10486SOL    HW232358   6.485   0.934   6.326
10487SOL     OW32359   4.841   2.278   1.393
10487SOL    HW132360   4.785   2.215   1.340
10487SOL    HW232361   4.922   2.303   1.340
10488SOL     OW32362   2.120   2.041   6.224
10488SOL    HW132363   2.063   1.965   6.255
10488SOL    HW232364   2.117   2.047   6.124
10489SOL     OW32365   6.372   6.523   3.978
10489SOL    HW132366   6.361   6.427   3.951
10489SOL    HW232367   6.469   6.543   3.989
10490SOL     OW32368   5.924   1.778   0.554
10490SOL    HW132369   5.965   1.690   0.574
10490SOL    HW232370   5.835   1.785   0.600
10491SOL     OW32371   2.329   2.000   5.432
10491SOL    HW132372   2.272   2.072   5.473
10491SOL    HW232373   2.306   1.912   5.474
10492SOL     OW32374   4.731   6.314   1.316
10492SOL    HW132375   4.685   6.396   1.348
10492SOL    HW232376   4.699   6.235   1.369
10493SOL     OW32377   2.950   6.349   1.732
10493SOL    HW132378   2.984   6.255   1.726
10493SOL    HW232379   2.850   6.349   1.732
10494SOL     OW32380   6.079   4.233   5.451
10494SOL    HW132381   5.999   4.273   5.496
10494SOL    HW232382   6.118   4.161   5.508
10495SOL     OW32383   6.741   0.359   0.396
10495SOL    HW132384   6.755   0.320   0.487
10495SOL    HW232385   6.826   0.399   0.364
10496SOL     OW32386   6.468   4.783   5.108
10496SOL    HW132387   6.469   4.796   5.208
10496SOL    HW232388   6.377   4.806   5.072
10497SOL     OW32389   1.286   6.871   2.534
10497SOL    HW132390   1.263   6.910   2.445
10497SOL    HW232391   1.202   6.846   2.582
10498SOL     OW32392   5.867   5.999   0.749
10498SOL    HW132393   5.899   6.086   0.786
10498SOL    HW232394   5.896   5.990   0.654
10499SOL     OW32395   4.394   6.855   1.478
10499SOL    HW132396   4.424   6.903   1.396
10499SOL    HW232397   4.445   6.889   1.557
10500SOL     OW32398   6.012   2.190   5.833
10500SOL    HW132399   6.107   2.161   5.822
10500SOL    HW232400   6.009   2.282   5.873
10501SOL     OW32401   2.104   6.012   2.339
10501SOL    HW132402   2.198   5.978   2.343
10501SOL    HW232403   2.099   6.085   2.272
10502SOL     OW32404   2.482   4.027   0.743
10502SOL    HW132405   2.581   4.015   0.749
10502SOL    HW232406   2.456   4.113   0.788
10503SOL     OW32407   5.572   3.913   0.514
10503SOL    HW132408   5.634   3.981   0.553
10503SOL    HW232409   5.548   3.846   0.585
10504SOL     OW32410   0.332   2.525   5.335
10504SOL    HW132411   0.251   2.549   5.388
10504SOL    HW232412   0.309   2.453   5.269
10505SOL     OW32413   5.569   6.635   1.306
10505SOL    HW132414   5.570   6.732   1.283
10505SOL    HW232415   5.630   6.585   1.245
10506SOL     OW32416   0.554   3.611   0.366
10506SOL    HW132417   0.639   3.587   0.320
10506SOL    HW232418   0.476   3.576   0.314
10507SOL     OW32419   2.248   5.489   0.055
10507SOL    HW132420   2.346   5.494   0.076
10507SOL    HW232421   2.227   5.552   7.003
10508SOL     OW32422   0.771   5.370   4.043
10508SOL    HW132423   0.736   5.448   4.095
10508SOL    HW232424   0.867   5.386   4.018
10509SOL     OW32425   6.307   4.705   4.740
10509SOL    HW132426   6.261   4.649   4.809
10509SOL    HW232427   6.389   4.745   4.779
10510SOL     OW32428   4.826   5.984   0.383
10510SOL    HW132429   4.756   6.045   0.346
10510SOL    HW232430   4.815   5.893   0.343
10511SOL     OW32431   2.874   1.563   2.010
10511SOL    HW132432   2.802   1.625   1.979
10511SOL    HW232433   2.857   1.537   2.105
10512SOL     OW32434   3.345   0.106   6.190
10512SOL    HW132435   3.247   0.124   6.189
10512SOL    HW232436   3.363   0.017   6.147
10513SOL     OW32437   6.276   2.990   3.334
10513SOL    HW132438   6.278   3.087   3.359
10513SOL    HW232439   6.361   2.947   3.364
10514SOL     OW32440   1.525   1.689   1.736
10514SOL    HW132441   1.589   1.760   1.766
10514SOL    HW232442   1.470   1.724   1.660
10515SOL     OW32443   2.019   2.910   4.183
10515SOL    HW132444   1.964   2.878   4.106
10515SOL    HW232445   1.962   2.917   4.265
10516SOL     OW32446   2.523   1.895   0.211
10516SOL    HW132447   2.559   1.867   0.300
10516SOL    HW232448   2.544   1.825   0.143
10517SOL     OW32449   1.457   4.127   1.517
10517SOL    HW132450   1.427   4.183   1.440
10517SOL    HW232451   1.410   4.038   1.514
10518SOL     OW32452   6.943   5.939   1.709
10518SOL    HW132453   6.860   5.889   1.735
10518SOL    HW232454   6.978   5.988   1.788
10519SOL     OW32455   2.815   4.841   0.110
10519SOL    HW132456   2.767   4.768   0.160
10519SOL    HW232457   2.756   4.874   0.036
10520SOL     OW32458   0.062   2.279   5.981
10520SOL    HW132459   0.122   2.304   6.056
10520SOL    HW232460   7.004   2.339   5.981
10521SOL     OW32461   6.736   5.628   1.314
10521SOL    HW132462   6.707   5.582   1.231
10521SOL    HW232463   6.809   5.693   1.292
10522SOL     OW32464   0.359   2.868   3.134
10522SOL    HW132465   0.356   2.786   3.078
10522SOL    HW232466   0.355   2.949   3.076
10523SOL     OW32467   0.762   4.002   3.598
10523SOL    HW132468   0.782   4.025   3.693
10523SOL    HW232469   0.839   4.028   3.540
10524SOL     OW32470   0.910   6.220   3.987
10524SOL    HW132471   0.878   6.233   4.081
10524SOL    HW232472   0.899   6.305   3.936
10525SOL     OW32473   4.023   0.081   5.299
10525SOL    HW132474   3.947   0.030   5.258
10525SOL    HW232475   4.107   0.063   5.248
10526SOL     OW32476   0.705   6.598   1.917
10526SOL    HW132477   0.706   6.625   2.013
10526SOL    HW232478   0.683   6.678   1.861
10527SOL     OW32479   1.084   0.633   6.001
10527SOL    HW132480   1.183   0.616   6.005
10527SOL    HW232481   1.036   0.563   6.055
10528SOL     OW32482   1.101   3.934   6.375
10528SOL    HW132483   1.022   3.914   6.434
10528SOL    HW232484   1.076   4.007   6.311
10529SOL     OW32485   2.071   5.531   4.639
10529SOL    HW132486   2.159   5.563   4.676
10529SOL    HW232487   2.010   5.508   4.715
10530SOL     OW32488   1.088   6.477   5.717
10530SOL    HW132489   1.025   6.413   5.674
10530SOL    HW232490   1.182   6.450   5.696
10531SOL     OW32491   2.345   2.129   4.367
10531SOL    HW132492   2.377   2.148   4.460
10531SOL    HW232493   2.359   2.209   4.310
10532SOL     OW32494   6.773   0.171   6.462
10532SOL    HW132495   6.677   0.145   6.456
10532SOL    HW232496   6.784   0.243   6.531
10533SOL     OW32497   2.891   6.062   3.895
10533SOL    HW132498   2.809   6.054   3.838
10533SOL    HW232499   2.968   6.020   3.847
10534SOL     OW32500   6.492   5.249   1.830
10534SOL    HW132501   6.506   5.337   1.785
10534SOL    HW232502   6.568   5.232   1.893
10535SOL     OW32503   1.977   1.755   2.404
10535SOL    HW132504   1.886   1.797   2.408
10535SOL    HW232505   2.028   1.778   2.486
10536SOL     OW32506   4.795   0.185   4.091
10536SOL    HW132507   4.795   0.146   3.999
10536SOL    HW232508   4.719   0.249   4.100
10537SOL     OW32509   4.865   6.357   3.801
10537SOL    HW132510   4.784   6.345   3.858
10537SOL    HW232511   4.899   6.268   3.771
10538SOL     OW32512   6.516   3.584   0.921
10538SOL    HW132513   6.597   3.545   0.965
10538SOL    HW232514   6.447   3.512   0.909
10539SOL     OW32515   6.370   5.279   1.110
10539SOL    HW132516   6.296   5.311   1.050
10539SOL    HW232517   6.399   5.188   1.081
10540SOL     OW32518   2.176   3.201   5.465
10540SOL    HW132519   2.163   3.210   5.366
10540SOL    HW232520   2.264   3.158   5.484
10541SOL     OW32521   3.964   3.090   3.783
10541SOL    HW132522   4.003   3.158   3.846
10541SOL    HW232523   3.918   3.019   3.836
10542SOL     OW32524   6.240   0.321   4.614
10542SOL    HW132525   6.227   0.223   4.634
10542SOL    HW232526   6.299   0.331   4.534
10543SOL     OW32527   1.040   1.690   4.420
10543SOL    HW132528   1.077   1.764   4.364
10543SOL    HW232529   0.997   1.622   4.361
10544SOL     OW32530   2.089   6.117   2.744
10544SOL    HW132531   2.148   6.041   2.771
10544SOL    HW232532   2.078   6.179   2.822
10545SOL     OW32533   1.710   1.912   1.682
10545SOL    HW132534   1.664   1.964   1.610
10545SOL    HW232535   1.807   1.933   1.681
10546SOL     OW32536   3.262   6.317   1.222
10546SOL    HW132537   3.341   6.261   1.247
10546SOL    HW232538   3.255   6.395   1.284
10547SOL     OW32539   5.152   2.238   3.940
10547SOL    HW132540   5.206   2.176   3.882
10547SOL    HW232541   5.081   2.186   3.988
10548SOL     OW32542   0.372   3.717   4.176
10548SOL    HW132543   0.367   3.626   4.217
10548SOL    HW232544   0.380   3.708   4.076
10549SOL     OW32545   0.405   1.652   0.475
10549SOL    HW132546   0.368   1.566   0.511
10549SOL    HW232547   0.381   1.727   0.537
10550SOL     OW32548   4.156   6.308   3.727
10550SOL    HW132549   4.201   6.357   3.652
10550SOL    HW232550   4.174   6.210   3.718
10551SOL     OW32551   2.230   2.213   6.415
10551SOL    HW132552   2.328   2.204   6.429
10551SOL    HW232553   2.201   2.151   6.342
10552SOL     OW32554   2.162   0.592   4.882
10552SOL    HW132555   2.254   0.571   4.848
10552SOL    HW232556   2.153   0.558   4.976
10553SOL     OW32557   0.303   4.379   0.924
10553SOL    HW132558   0.206   4.358   0.930
10553SOL    HW232559   0.349   4.309   0.870
10554SOL     OW32560   5.117   5.519   2.001
10554SOL    HW132561   5.112   5.596   1.937
10554SOL    HW232562   5.105   5.433   1.951
10555SOL     OW32563   2.722   2.217   1.035
10555SOL    HW132564   2.785   2.184   0.964
10555SOL    HW232565   2.645   2.264   0.992
10556SOL     OW32566   2.772   0.950   3.616
10556SOL    HW132567   2.846   1.009   3.647
10556SOL    HW232568   2.791   0.917   3.524
10557SOL     OW32569   1.450   3.455   3.516
10557SOL    HW132570   1.359   3.444   3.557
10557SOL    HW232571   1.516   3.482   3.587
10558SOL     OW32572   3.839   5.968   6.177
10558SOL    HW132573   3.901   5.919   6.116
10558SOL    HW232574   3.745   5.961   6.143
10559SOL     OW32575   3.867   0.796   2.062
10559SOL    HW132576   3.786   0.781   2.119
10559SOL    HW232577   3.873   0.724   1.993
10560SOL     OW32578   4.681   0.086   2.471
10560SOL    HW132579   4.603   0.088   2.408
10560SOL    HW232580   4.665   0.150   2.546
10561SOL     OW32581   3.765   4.338   1.635
10561SOL    HW132582   3.856   4.305   1.610
10561SOL    HW232583   3.757   4.435   1.612
10562SOL     OW32584   4.085   5.976   0.574
10562SOL    HW132585   4.028   5.904   0.614
10562SOL    HW232586   4.131   5.940   0.492
10563SOL     OW32587   1.105   0.833   1.626
10563SOL    HW132588   1.149   0.747   1.601
10563SOL    HW232589   1.029   0.816   1.688
10564SOL     OW32590   5.734   6.677   3.799
10564SOL    HW132591   5.649   6.623   3.806
10564SOL    HW232592   5.795   6.633   3.733
10565SOL     OW32593   6.556   6.348   5.686
10565SOL    HW132594   6.474   6.291   5.687
10565SOL    HW232595   6.634   6.296   5.722
10566SOL     OW32596   3.298   1.784   6.690
10566SOL    HW132597   3.392   1.786   6.723
10566SOL    HW232598   3.296   1.808   6.593
10567SOL     OW32599   2.397   2.733   6.222
10567SOL    HW132600   2.387   2.683   6.136
10567SOL    HW232601   2.371   2.673   6.298
10568SOL     OW32602   6.159   2.394   0.685
10568SOL    HW132603   6.116   2.317   0.637
10568SOL    HW232604   6.160   2.376   0.783
10569SOL     OW32605   5.490   0.630   1.834
10569SOL    HW132606   5.578   0.593   1.865
10569SOL    HW232607   5.501   0.727   1.812
10570SOL     OW32608   1.384   4.318   3.322
10570SOL    HW132609   1.328   4.378   3.379
10570SOL    HW232610   1.375   4.224   3.354
10571SOL     OW32611   0.221   4.106   5.229
10571SOL    HW132612   0.168   4.166   5.169
10571SOL    HW232613   0.235   4.017   5.184
10572SOL     OW32614   0.191   5.069   2.877
10572SOL    HW132615   0.190   5.112   2.968
10572SOL    HW232616   0.172   4.971   2.886
10573SOL     OW32617   5.137   0.399   4.928
10573SOL    HW132618   5.049   0.420   4.971
10573SOL    HW232619   5.146   0.453   4.845
10574SOL     OW32620   6.739   1.413   4.017
10574SOL    HW132621   6.766   1.381   4.108
10574SOL    HW232622   6.805   1.481   3.984
10575SOL     OW32623   6.627   1.041   3.531
10575SOL    HW132624   6.633   1.075   3.437
10575SOL    HW232625   6.549   1.082   3.577
10576SOL     OW32626   1.073   5.765   2.896
10576SOL    HW132627   1.172   5.763   2.879
10576SOL    HW232628   1.027   5.801   2.814
10577SOL     OW32629   1.808   4.614   0.365
10577SOL    HW132630   1.885   4.628   0.303
10577SOL    HW232631   1.799   4.516   0.384
10578SOL     OW32632   4.734   1.163   3.534
10578SOL    HW132633   4.780   1.210   3.609
10578SOL    HW232634   4.802   1.125   3.471
10579SOL     OW32635   3.494   3.097   1.244
10579SOL    HW132636   3.426   3.026   1.224
10579SOL    HW232637   3.524   3.140   1.159
10580SOL     OW32638   6.324   6.190   5.743
10580SOL    HW132639   6.230   6.158   5.732
10580SOL    HW232640   6.350   6.186   5.840
10581SOL     OW32641   5.744   0.323   2.368
10581SOL    HW132642   5.731   0.359   2.460
10581SOL    HW232643   5.836   0.283   2.360
10582SOL     OW32644   4.880   4.695   6.498
10582SOL    HW132645   4.926   4.771   6.544
10582SOL    HW232646   4.942   4.654   6.431
10583SOL     OW32647   4.446   0.180   4.342
10583SOL    HW132648   4.530   0.134   4.371
10583SOL    HW232649   4.459   0.279   4.346
10584SOL     OW32650   6.271   6.917   6.755
10584SOL    HW132651   6.180   6.876   6.749
10584SOL    HW232652   6.266   7.011   6.722
10585SOL     OW32653   2.133   2.160   5.969
10585SOL    HW132654   2.057   2.163   5.904
10585SOL    HW232655   2.171   2.251   5.982
10586SOL     OW32656   5.102   4.916   5.859
10586SOL    HW132657   5.044   4.847   5.902
10586SOL    HW232658   5.049   4.967   5.791
10587SOL     OW32659   6.359   5.382   6.771
10587SOL    HW132660   6.299   5.450   6.814
10587SOL    HW232661   6.353   5.296   6.821
10588SOL     OW32662   1.990   1.688   4.902
10588SOL    HW132663   1.987   1.733   4.812
10588SOL    HW232664   1.898   1.656   4.926
10589SOL     OW32665   5.025   0.415   4.429
10589SOL    HW132666   5.066   0.324   4.433
10589SOL    HW232667   4.929   0.408   4.400
10590SOL     OW32668   0.301   6.599   1.797
10590SOL    HW132669   0.233   6.661   1.759
10590SOL    HW232670   0.364   6.569   1.724
10591SOL     OW32671   2.522   1.496   1.285
10591SOL    HW132672   2.598   1.457   1.234
10591SOL    HW232673   2.473   1.423   1.333
10592SOL     OW32674   5.556   3.717   4.633
10592SOL    HW132675   5.583   3.796   4.578
10592SOL    HW232676   5.473   3.676   4.594
10593SOL     OW32677   2.403   5.929   0.547
10593SOL    HW132678   2.450   6.013   0.573
10593SOL    HW232679   2.425   5.857   0.614
10594SOL     OW32680   5.040   1.773   2.921
10594SOL    HW132681   5.037   1.687   2.870
10594SOL    HW232682   4.948   1.812   2.926
10595SOL     OW32683   6.053   0.336   6.815
10595SOL    HW132684   5.980   0.271   6.795
10595SOL    HW232685   6.015   0.418   6.858
10596SOL     OW32686   4.737   0.473   0.174
10596SOL    HW132687   4.645   0.512   0.169
10596SOL    HW232688   4.781   0.480   0.084
10597SOL     OW32689   2.558   1.175   5.951
10597SOL    HW132690   2.561   1.083   5.913
10597SOL    HW232691   2.637   1.227   5.918
10598SOL     OW32692   3.532   2.414   6.749
10598SOL    HW132693   3.528   2.314   6.751
10598SOL    HW232694   3.460   2.449   6.689
10599SOL     OW32695   6.195   3.627   6.865
10599SOL    HW132696   6.167   3.615   6.770
10599SOL    HW232697   6.213   3.538   6.906
10600SOL     OW32698   3.303   2.655   1.436
10600SOL    HW132699   3.293   2.556   1.428
10600SOL    HW232700   3.396   2.677   1.467
10601SOL     OW32701   1.525   4.633   5.649
10601SOL    HW132702   1.590   4.694   5.693
10601SOL    HW232703   1.539   4.635   5.549
10602SOL     OW32704   1.065   1.050   1.057
10602SOL    HW132705   1.159   1.083   1.066
10602SOL    HW232706   1.043   1.038   0.960
10603SOL     OW32707   4.968   0.278   3.217
10603SOL    HW132708   4.976   0.180   3.235
10603SOL    HW232709   4.871   0.305   3.220
10604SOL     OW32710   0.145   5.911   5.094
10604SOL    HW132711   0.073   5.966   5.051
10604SOL    HW232712   0.103   5.843   5.154
10605SOL     OW32713   1.556   6.385   0.184
10605SOL    HW132714   1.499   6.397   0.103
10605SOL    HW232715   1.546   6.292   0.218
10606SOL     OW32716   6.627   1.164   1.475
10606SOL    HW132717   6.609   1.152   1.378
10606SOL    HW232718   6.580   1.092   1.527
10607SOL     OW32719   3.877   4.612   0.304
10607SOL    HW132720   3.854   4.706   0.330
10607SOL    HW232721   3.976   4.605   0.291
10608SOL     OW32722   6.973   3.610   4.067
10608SOL    HW132723   6.955   3.521   4.109
10608SOL    HW232724   7.015   3.596   3.977
10609SOL     OW32725   2.963   6.696   6.887
10609SOL    HW132726   2.912   6.685   6.973
10609SOL    HW232727   3.007   6.786   6.885
10610SOL     OW32728   0.240   1.614   4.054
10610SOL    HW132729   0.267   1.655   3.967
10610SOL    HW232730   0.242   1.685   4.125
10611SOL     OW32731   2.750   5.053   6.228
10611SOL    HW132732   2.789   5.000   6.154
10611SOL    HW232733   2.705   4.993   6.293
10612SOL     OW32734   5.245   2.362   4.196
10612SOL    HW132735   5.173   2.427   4.222
10612SOL    HW232736   5.207   2.291   4.138
10613SOL     OW32737   6.351   5.744   4.931
10613SOL    HW132738   6.361   5.837   4.966
10613SOL    HW232739   6.259   5.711   4.949
10614SOL     OW32740   5.395   1.143   4.604
10614SOL    HW132741   5.298   1.156   4.584
10614SOL    HW232742   5.405   1.074   4.676
10615SOL     OW32743   3.342   0.729   6.147
10615SOL    HW132744   3.349   0.792   6.224
10615SOL    HW232745   3.433   0.692   6.126
10616SOL     OW32746   3.220   6.255   6.761
10616SOL    HW132747   3.203   6.344   6.804
10616SOL    HW232748   3.274   6.198   6.822
10617SOL     OW32749   3.273   4.319   1.347
10617SOL    HW132750   3.309   4.332   1.254
10617SOL    HW232751   3.349   4.325   1.413
10618SOL     OW32752   1.734   4.786   5.789
10618SOL    HW132753   1.798   4.855   5.757
10618SOL    HW232754   1.755   4.762   5.884
10619SOL     OW32755   0.441   2.611   2.997
10619SOL    HW132756   0.476   2.682   2.936
10619SOL    HW232757   0.409   2.533   2.942
10620SOL     OW32758   0.864   0.186   5.463
10620SOL    HW132759   0.939   0.252   5.469
10620SOL    HW232760   0.810   0.204   5.381
10621SOL     OW32761   6.886   4.155   2.074
10621SOL    HW132762   6.857   4.064   2.105
10621SOL    HW232763   6.866   4.164   1.977
10622SOL     OW32764   4.473   2.210   1.606
10622SOL    HW132765   4.433   2.121   1.628
10622SOL    HW232766   4.572   2.207   1.621
10623SOL     OW32767   6.940   5.731   5.996
10623SOL    HW132768   7.001   5.657   5.967
10623SOL    HW232769   6.985   5.785   6.068
10624SOL     OW32770   0.313   2.790   5.680
10624SOL    HW132771   0.345   2.705   5.638
10624SOL    HW232772   0.230   2.772   5.734
10625SOL     OW32773   0.331   3.874   1.408
10625SOL    HW132774   0.266   3.874   1.332
10625SOL    HW232775   0.284   3.894   1.493
10626SOL     OW32776   3.304   3.303   0.671
10626SOL    HW132777   3.270   3.262   0.756
10626SOL    HW232778   3.393   3.346   0.687
10627SOL     OW32779   5.969   1.286   6.876
10627SOL    HW132780   5.953   1.198   6.832
10627SOL    HW232781   5.942   1.281   6.972
10628SOL     OW32782   4.508   0.010   1.259
10628SOL    HW132783   4.523   0.080   1.328
10628SOL    HW232784   4.415   0.019   1.222
10629SOL     OW32785   3.248   5.004   4.781
10629SOL    HW132786   3.150   4.986   4.776
10629SOL    HW232787   3.283   5.024   4.690
10630SOL     OW32788   6.423   1.375   2.010
10630SOL    HW132789   6.381   1.459   2.044
10630SOL    HW232790   6.478   1.396   1.929
10631SOL     OW32791   3.831   4.467   5.740
10631SOL    HW132792   3.762   4.397   5.759
10631SOL    HW232793   3.902   4.463   5.811
10632SOL     OW32794   5.527   6.343   3.835
10632SOL    HW132795   5.440   6.302   3.809
10632SOL    HW232796   5.562   6.298   3.918
10633SOL     OW32797   2.638   2.750   1.354
10633SOL    HW132798   2.553   2.700   1.335
10633SOL    HW232799   2.714   2.686   1.363
10634SOL     OW32800   2.113   5.023   0.534
10634SOL    HW132801   2.193   5.016   0.594
10634SOL    HW232802   2.106   5.116   0.499
10635SOL     OW32803   1.967   2.947   6.424
10635SOL    HW132804   1.914   2.884   6.367
10635SOL    HW232805   2.056   2.964   6.381
10636SOL     OW32806   0.486   2.358   1.525
10636SOL    HW132807   0.537   2.384   1.607
10636SOL    HW232808   0.514   2.417   1.449
10637SOL     OW32809   1.451   4.956   6.392
10637SOL    HW132810   1.399   4.887   6.341
10637SOL    HW232811   1.388   5.009   6.449
10638SOL     OW32812   5.407   6.319   2.924
10638SOL    HW132813   5.487   6.318   2.864
10638SOL    HW232814   5.391   6.412   2.955
10639SOL     OW32815   1.259   3.407   2.171
10639SOL    HW132816   1.307   3.321   2.185
10639SOL    HW232817   1.316   3.483   2.204
10640SOL     OW32818   4.778   0.771   3.749
10640SOL    HW132819   4.781   0.743   3.845
10640SOL    HW232820   4.857   0.828   3.729
10641SOL     OW32821   2.600   1.627   3.162
10641SOL    HW132822   2.675   1.692   3.177
10641SOL    HW232823   2.606   1.590   3.069
10642SOL     OW32824   6.189   1.292   0.685
10642SOL    HW132825   6.141   1.205   0.695
10642SOL    HW232826   6.272   1.278   0.632
10643SOL     OW32827   2.472   6.040   5.445
10643SOL    HW132828   2.404   5.994   5.388
10643SOL    HW232829   2.466   6.006   5.539
10644SOL     OW32830   5.231   3.394   0.969
10644SOL    HW132831   5.303   3.417   0.904
10644SOL    HW232832   5.267   3.332   1.039
10645SOL     OW32833   1.551   2.976   4.342
10645SOL    HW132834   1.493   2.924   4.405
10645SOL    HW232835   1.507   3.063   4.321
10646SOL     OW32836   6.686   0.341   6.155
10646SOL    HW132837   6.775   0.327   6.112
10646SOL    HW232838   6.630   0.259   6.144
10647SOL     OW32839   3.139   5.620   4.873
10647SOL    HW132840   3.115   5.710   4.835
10647SOL    HW232841   3.132   5.623   4.972
10648SOL     OW32842   5.708   5.065   6.734
10648SOL    HW132843   5.763   5.139   6.694
10648SOL    HW232844   5.754   5.031   6.816
10649SOL     OW32845   0.356   3.499   3.243
10649SOL    HW132846   0.348   3.599   3.248
10649SOL    HW232847   0.282   3.464   3.186
10650SOL     OW32848   0.791   0.567   3.871
10650SOL    HW132849   0.700   0.538   3.841
10650SOL    HW232850   0.816   0.652   3.823
10651SOL     OW32851   6.347   5.896   6.238
10651SOL    HW132852   6.251   5.914   6.220
10651SOL    HW232853   6.355   5.832   6.315
10652SOL     OW32854   2.292   6.658   6.563
10652SOL    HW132855   2.388   6.684   6.570
10652SOL    HW232856   2.259   6.630   6.653
10653SOL     OW32857   4.227   5.826   4.709
10653SOL    HW132858   4.181   5.837   4.621
10653SOL    HW232859   4.159   5.822   4.782
10654SOL     OW32860   4.820   0.034   6.629
10654SOL    HW132861   4.822   0.132   6.608
10654SOL    HW232862   4.725   0.004   6.634
10655SOL     OW32863   1.731   5.375   0.252
10655SOL    HW132864   1.718   5.287   0.297
10655SOL    HW232865   1.739   5.447   0.321
10656SOL     OW32866   0.067   1.664   2.433
10656SOL    HW132867   0.138   1.734   2.427
10656SOL    HW232868   0.103   1.577   2.399
10657SOL     OW32869   5.994   1.001   4.777
10657SOL    HW132870   5.923   1.050   4.827
10657SOL    HW232871   6.072   0.985   4.837
10658SOL     OW32872   6.666   4.541   4.733
10658SOL    HW132873   6.600   4.604   4.774
10658SOL    HW232874   6.703   4.582   4.649
10659SOL     OW32875   0.920   5.758   0.543
10659SOL    HW132876   0.937   5.820   0.466
10659SOL    HW232877   0.876   5.809   0.618
10660SOL     OW32878   5.561   3.841   6.541
10660SOL    HW132879   5.602   3.851   6.631
10660SOL    HW232880   5.582   3.750   6.505
10661SOL     OW32881   1.292   6.181   1.110
10661SOL    HW132882   1.249   6.102   1.066
10661SOL    HW232883   1.372   6.150   1.162
10662SOL     OW32884   4.900   0.674   2.559
10662SOL    HW132885   4.912   0.761   2.608
10662SOL    HW232886   4.990   0.636   2.537
10663SOL     OW32887   0.944   1.205   2.405
10663SOL    HW132888   0.913   1.194   2.499
10663SOL    HW232889   0.876   1.259   2.354
10664SOL     OW32890   6.335   4.155   5.238
10664SOL    HW132891   6.325   4.250   5.268
10664SOL    HW232892   6.355   4.097   5.317
10665SOL     OW32893   1.294   1.828   0.542
10665SOL    HW132894   1.232   1.884   0.487
10665SOL    HW232895   1.371   1.799   0.486
10666SOL     OW32896   3.328   3.821   1.837
10666SOL    HW132897   3.352   3.808   1.740
10666SOL    HW232898   3.375   3.903   1.871
10667SOL     OW32899   4.694   2.344   3.594
10667SOL    HW132900   4.598   2.371   3.586
10667SOL    HW232901   4.740   2.359   3.507
10668SOL     OW32902   2.977   1.689   5.341
10668SOL    HW132903   3.071   1.684   5.307
10668SOL    HW232904   2.925   1.754   5.286
10669SOL     OW32905   5.462   0.557   1.403
10669SOL    HW132906   5.447   0.641   1.455
10669SOL    HW232907   5.537   0.506   1.445
10670SOL     OW32908   5.815   4.725   4.781
10670SOL    HW132909   5.899   4.736   4.729
10670SOL    HW232910   5.745   4.684   4.723
10671SOL     OW32911   2.263   1.642   4.330
10671SOL    HW132912   2.339   1.626   4.393
10671SOL    HW232913   2.237   1.738   4.333
10672SOL     OW32914   6.427   4.405   1.917
10672SOL    HW132915   6.387   4.393   2.008
10672SOL    HW232916   6.455   4.500   1.906
10673SOL     OW32917   0.561   1.039   6.768
10673SOL    HW132918   0.536   0.976   6.695
10673SOL    HW232919   0.611   0.990   6.840
10674SOL     OW32920   4.124   3.470   3.274
10674SOL    HW132921   4.151   3.538   3.206
10674SOL    HW232922   4.196   3.401   3.282
10675SOL     OW32923   1.629   6.757   0.210
10675SOL    HW132924   1.582   6.698   0.276
10675SOL    HW232925   1.668   6.701   0.138
10676SOL     OW32926   6.764   6.288   5.213
10676SOL    HW132927   6.685   6.287   5.152
10676SOL    HW232928   6.734   6.301   5.307
10677SOL     OW32929   1.725   0.564   1.656
10677SOL    HW132930   1.730   0.614   1.742
10677SOL    HW232931   1.804   0.503   1.649
10678SOL     OW32932   4.882   5.670   3.867
10678SOL    HW132933   4.974   5.648   3.897
10678SOL    HW232934   4.833   5.719   3.939
10679SOL     OW32935   4.142   5.421   6.683
10679SOL    HW132936   4.103   5.385   6.598
10679SOL    HW232937   4.214   5.359   6.716
10680SOL     OW32938   3.852   2.108   4.342
10680SOL    HW132939   3.778   2.172   4.365
10680SOL    HW232940   3.839   2.075   4.248
10681SOL     OW32941   0.564   3.612   0.996
10681SOL    HW132942   0.584   3.547   1.069
10681SOL    HW232943   0.500   3.572   0.931
10682SOL     OW32944   0.429   1.593   5.212
10682SOL    HW132945   0.510   1.599   5.152
10682SOL    HW232946   0.380   1.680   5.210
10683SOL     OW32947   5.067   1.675   3.801
10683SOL    HW132948   4.991   1.687   3.865
10683SOL    HW232949   5.149   1.652   3.851
10684SOL     OW32950   4.912   4.902   2.927
10684SOL    HW132951   4.932   4.876   3.021
10684SOL    HW232952   4.820   4.941   2.922
10685SOL     OW32953   0.599   5.604   1.824
10685SOL    HW132954   0.573   5.533   1.759
10685SOL    HW232955   0.682   5.650   1.792
10686SOL     OW32956   0.918   4.247   5.538
10686SOL    HW132957   0.948   4.151   5.540
10686SOL    HW232958   0.890   4.271   5.445
10687SOL     OW32959   5.712   5.757   4.026
10687SOL    HW132960   5.779   5.710   3.967
10687SOL    HW232961   5.637   5.694   4.047
10688SOL     OW32962   6.297   4.075   2.717
10688SOL    HW132963   6.260   4.071   2.624
10688SOL    HW232964   6.392   4.106   2.714
10689SOL     OW32965   6.930   0.023   3.536
10689SOL    HW132966   6.967   0.007   3.444
10689SOL    HW232967   7.005   0.039   3.600
10690SOL     OW32968   0.308   5.686   4.063
10690SOL    HW132969   0.309   5.648   4.156
10690SOL    HW232970   0.333   5.615   3.998
10691SOL     OW32971   0.937   1.947   2.524
10691SOL    HW132972   0.952   1.937   2.623
10691SOL    HW232973   0.880   1.872   2.492
10692SOL     OW32974   2.836   6.612   3.971
10692SOL    HW132975   2.819   6.515   3.988
10692SOL    HW232976   2.858   6.626   3.874
10693SOL     OW32977   2.144   5.935   0.980
10693SOL    HW132978   2.100   5.992   1.049
10693SOL    HW232979   2.183   5.993   0.909
10694SOL     OW32980   5.486   6.515   0.558
10694SOL    HW132981   5.528   6.591   0.509
10694SOL    HW232982   5.390   6.535   0.576
10695SOL     OW32983   0.187   2.382   3.102
10695SOL    HW132984   0.242   2.408   3.022
10695SOL    HW232985   0.169   2.463   3.158
10696SOL     OW32986   6.968   4.075   3.491
10696SOL    HW132987   6.909   4.096   3.569
10696SOL    HW232988   6.977   4.157   3.434
10697SOL     OW32989   0.180   6.279   5.010
10697SOL    HW132990   0.252   6.343   4.982
10697SOL    HW232991   0.095   6.302   4.962
10698SOL     OW32992   5.209   4.406   6.541
10698SOL    HW132993   5.145   4.445   6.607
10698SOL    HW232994   5.181   4.312   6.520
10699SOL     OW32995   3.706   4.097   1.861
10699SOL    HW132996   3.722   4.019   1.801
10699SOL    HW232997   3.709   4.182   1.808
10700SOL     OW32998   6.095   6.865   0.391
10700SOL    HW132999   6.075   6.960   0.415
10700SOL    HW233000   6.188   6.842   0.420
10701SOL     OW33001   2.843   6.385   6.765
10701SOL    HW133002   2.779   6.382   6.841
10701SOL    HW233003   2.934   6.412   6.798
10702SOL     OW33004   5.368   2.875   1.551
10702SOL    HW133005   5.409   2.963   1.575
10702SOL    HW233006   5.407   2.844   1.464
10703SOL     OW33007   3.034   3.085   4.798
10703SOL    HW133008   3.060   3.107   4.892
10703SOL    HW233009   2.977   3.002   4.798
10704SOL     OW33010   6.118   5.910   1.626
10704SOL    HW133011   6.050   5.976   1.657
10704SOL    HW233012   6.209   5.941   1.653
10705SOL     OW33013   5.875   4.860   1.879
10705SOL    HW133014   5.825   4.775   1.892
10705SOL    HW233015   5.968   4.841   1.849
10706SOL     OW33016   5.139   0.547   2.439
10706SOL    HW133017   5.088   0.482   2.384
10706SOL    HW233018   5.179   0.618   2.380
10707SOL     OW33019   0.019   6.870   4.268
10707SOL    HW133020   0.055   6.944   4.325
10707SOL    HW233021   6.961   6.830   4.312
10708SOL     OW33022   4.283   0.907   1.974
10708SOL    HW133023   4.211   0.910   2.043
10708SOL    HW233024   4.368   0.940   2.014
10709SOL     OW33025   5.786   5.314   5.418
10709SOL    HW133026   5.848   5.373   5.469
10709SOL    HW233027   5.706   5.293   5.475
10710SOL     OW33028   0.200   0.207   4.083
10710SOL    HW133029   0.177   0.110   4.074
10710SOL    HW233030   0.166   0.241   4.171
10711SOL     OW33031   1.639   6.700   4.611
10711SOL    HW133032   1.587   6.785   4.623
10711SOL    HW233033   1.721   6.719   4.557
10712SOL     OW33034   3.002   0.723   1.895
10712SOL    HW133035   3.006   0.657   1.970
10712SOL    HW233036   3.031   0.679   1.810
10713SOL     OW33037   0.543   3.516   2.130
10713SOL    HW133038   0.599   3.498   2.049
10713SOL    HW233039   0.459   3.562   2.103
10714SOL     OW33040   5.833   4.002   5.085
10714SOL    HW133041   5.742   3.971   5.113
10714SOL    HW233042   5.888   3.923   5.057
10715SOL     OW33043   4.988   0.935   2.701
10715SOL    HW133044   5.040   0.926   2.785
10715SOL    HW233045   5.000   1.027   2.663
10716SOL     OW33046   5.772   2.211   3.861
10716SOL    HW133047   5.760   2.162   3.775
10716SOL    HW233048   5.852   2.271   3.854
10717SOL     OW33049   1.349   1.988   1.364
10717SOL    HW133050   1.385   1.900   1.335
10717SOL    HW233051   1.291   1.976   1.445
10718SOL     OW33052   1.452   3.126   6.543
10718SOL    HW133053   1.435   3.046   6.485
10718SOL    HW233054   1.418   3.108   6.635
10719SOL     OW33055   6.457   5.859   2.590
10719SOL    HW133056   6.403   5.796   2.534
10719SOL    HW233057   6.448   5.833   2.687
10720SOL     OW33058   0.552   4.394   4.709
10720SOL    HW133059   0.583   4.482   4.744
10720SOL    HW233060   0.456   4.380   4.735
10721SOL     OW33061   5.568   3.986   5.186
10721SOL    HW133062   5.514   4.035   5.117
10721SOL    HW233063   5.512   3.972   5.268
10722SOL     OW33064   0.789   5.047   0.303
10722SOL    HW133065   0.817   5.122   0.243
10722SOL    HW233066   0.870   5.001   0.339
10723SOL     OW33067   0.351   3.631   6.065
10723SOL    HW133068   0.291   3.696   6.018
10723SOL    HW233069   0.316   3.538   6.053
10724SOL     OW33070   6.092   0.889   6.872
10724SOL    HW133071   6.005   0.924   6.839
10724SOL    HW233072   6.076   0.820   6.943
10725SOL     OW33073   0.772   5.582   4.474
10725SOL    HW133074   0.746   5.492   4.510
10725SOL    HW233075   0.740   5.653   4.536
10726SOL     OW33076   5.280   6.924   5.270
10726SOL    HW133077   5.269   6.897   5.366
10726SOL    HW233078   5.262   7.022   5.261
10727SOL     OW33079   0.345   4.827   5.083
10727SOL    HW133080   0.325   4.823   4.985
10727SOL    HW233081   0.346   4.734   5.121
10728SOL     OW33082   0.218   5.887   0.142
10728SOL    HW133083   0.245   5.866   0.048
10728SOL    HW233084   0.134   5.837   0.164
10729SOL     OW33085   5.529   0.909   1.766
10729SOL    HW133086   5.602   0.971   1.736
10729SOL    HW233087   5.521   0.913   1.865
10730SOL     OW33088   2.312   0.671   1.917
10730SOL    HW133089   2.316   0.659   2.017
10730SOL    HW233090   2.230   0.625   1.882
10731SOL     OW33091   3.127   5.974   0.883
10731SOL    HW133092   3.073   5.954   0.965
10731SOL    HW233093   3.213   6.017   0.910
10732SOL     OW33094   5.830   5.224   3.506
10732SOL    HW133095   5.796   5.131   3.519
10732SOL    HW233096   5.756   5.283   3.475
10733SOL     OW33097   6.592   1.700   1.085
10733SOL    HW133098   6.609   1.792   1.049
10733SOL    HW233099   6.636   1.690   1.174
10734SOL     OW33100   0.984   0.481   0.043
10734SOL    HW133101   0.997   0.569   0.087
10734SOL    HW233102   0.977   0.494   6.966
10735SOL     OW33103   1.244   3.055   3.124
10735SOL    HW133104   1.330   3.034   3.078
10735SOL    HW233105   1.167   3.030   3.066
10736SOL     OW33106   1.379   0.512   2.706
10736SOL    HW133107   1.330   0.425   2.696
10736SOL    HW233108   1.338   0.565   2.780
10737SOL     OW33109   2.048   1.805   0.662
10737SOL    HW133110   2.143   1.796   0.635
10737SOL    HW233111   2.032   1.756   0.747
10738SOL     OW33112   2.653   0.204   3.400
10738SOL    HW133113   2.668   0.226   3.303
10738SOL    HW233114   2.676   0.108   3.417
10739SOL     OW33115   0.623   1.432   0.920
10739SOL    HW133116   0.572   1.348   0.941
10739SOL    HW233117   0.712   1.409   0.882
10740SOL     OW33118   0.344   4.606   5.229
10740SOL    HW133119   0.355   4.549   5.310
10740SOL    HW233120   0.308   4.550   5.154
10741SOL     OW33121   6.474   6.993   1.251
10741SOL    HW133122   6.522   6.906   1.245
10741SOL    HW233123   6.388   6.981   1.301
10742SOL     OW33124   5.336   0.738   1.078
10742SOL    HW133125   5.400   0.683   1.131
10742SOL    HW233126   5.373   0.831   1.066
10743SOL     OW33127   2.742   1.737   4.875
10743SOL    HW133128   2.711   1.808   4.812
10743SOL    HW233129   2.782   1.661   4.824
10744SOL     OW33130   3.900   1.042   0.842
10744SOL    HW133131   3.861   1.080   0.926
10744SOL    HW233132   4.000   1.043   0.848
10745SOL     OW33133   0.193   5.485   6.875
10745SOL    HW133134   0.253   5.506   6.798
10745SOL    HW233135   0.193   5.386   6.891
10746SOL     OW33136   2.179   4.437   0.763
10746SOL    HW133137   2.125   4.357   0.737
10746SOL    HW233138   2.121   4.502   0.813
10747SOL     OW33139   4.496   1.134   3.668
10747SOL    HW133140   4.495   1.037   3.691
10747SOL    HW233141   4.563   1.151   3.596
10748SOL     OW33142   4.645   1.250   1.603
10748SOL    HW133143   4.632   1.292   1.514
10748SOL    HW233144   4.719   1.297   1.652
10749SOL     OW33145   0.609   5.772   3.433
10749SOL    HW133146   0.607   5.866   3.398
10749SOL    HW233147   0.516   5.738   3.440
10750SOL     OW33148   4.490   6.077   5.100
10750SOL    HW133149   4.435   6.010   5.050
10750SOL    HW233150   4.531   6.141   5.036
10751SOL     OW33151   1.672   4.257   4.065
10751SOL    HW133152   1.770   4.252   4.045
10751SOL    HW233153   1.621   4.204   3.996
10752SOL     OW33154   5.757   4.159   6.193
10752SOL    HW133155   5.657   4.165   6.187
10752SOL    HW233156   5.782   4.078   6.246
10753SOL     OW33157   4.580   6.641   4.240
10753SOL    HW133158   4.535   6.689   4.315
10753SOL    HW233159   4.521   6.644   4.159
10754SOL     OW33160   1.046   1.349   3.328
10754SOL    HW133161   1.009   1.278   3.388
10754SOL    HW233162   1.030   1.323   3.232
10755SOL     OW33163   0.180   0.671   6.561
10755SOL    HW133164   0.230   0.708   6.483
10755SOL    HW233165   0.194   0.730   6.640
10756SOL     OW33166   0.077   4.477   0.347
10756SOL    HW133167   0.097   4.390   0.302
10756SOL    HW233168   0.032   4.538   0.283
10757SOL     OW33169   1.198   3.301   0.366
10757SOL    HW133170   1.175   3.294   0.463
10757SOL    HW233171   1.212   3.397   0.343
10758SOL     OW33172   0.284   6.751   4.253
10758SOL    HW133173   0.187   6.775   4.263
10758SOL    HW233174   0.340   6.829   4.281
10759SOL     OW33175   1.792   2.848   1.340
10759SOL    HW133176   1.780   2.881   1.247
10759SOL    HW233177   1.833   2.920   1.396
10760SOL     OW33178   6.600   1.386   1.798
10760SOL    HW133179   6.554   1.399   1.710
10760SOL    HW233180   6.615   1.288   1.814
10761SOL     OW33181   1.193   0.873   6.257
10761SOL    HW133182   1.185   0.959   6.309
10761SOL    HW233183   1.119   0.811   6.284
10762SOL     OW33184   4.387   1.864   4.709
10762SOL    HW133185   4.348   1.915   4.786
10762SOL    HW233186   4.331   1.878   4.628
10763SOL     OW33187   5.127   6.577   2.548
10763SOL    HW133188   5.164   6.501   2.601
10763SOL    HW233189   5.049   6.546   2.494
10764SOL     OW33190   5.389   2.612   5.897
10764SOL    HW133191   5.486   2.621   5.878
10764SOL    HW233192   5.361   2.682   5.963
10765SOL     OW33193   5.160   2.132   0.387
10765SOL    HW133194   5.220   2.068   0.434
10765SOL    HW233195   5.215   2.199   0.337
10766SOL     OW33196   4.946   3.735   1.300
10766SOL    HW133197   5.002   3.696   1.228
10766SOL    HW233198   4.979   3.703   1.389
10767SOL     OW33199   1.022   0.725   0.143
10767SOL    HW133200   1.098   0.710   0.206
10767SOL    HW233201   0.956   0.788   0.184
10768SOL     OW33202   4.927   4.567   1.378
10768SOL    HW133203   4.844   4.518   1.351
10768SOL    HW233204   4.938   4.562   1.477
10769SOL     OW33205   2.539   4.647   4.865
10769SOL    HW133206   2.549   4.716   4.794
10769SOL    HW233207   2.629   4.619   4.897
10770SOL     OW33208   5.301   0.824   5.278
10770SOL    HW133209   5.240   0.883   5.225
10770SOL    HW233210   5.261   0.732   5.284
10771SOL     OW33211   5.529   1.200   3.385
10771SOL    HW133212   5.548   1.298   3.392
10771SOL    HW233213   5.445   1.179   3.434
10772SOL     OW33214   6.761   6.802   4.706
10772SOL    HW133215   6.668   6.778   4.679
10772SOL    HW233216   6.805   6.723   4.750
10773SOL     OW33217   6.646   5.418   6.903
10773SOL    HW133218   6.690   5.359   6.836
10773SOL    HW233219   6.568   5.464   6.861
10774SOL     OW33220   1.961   2.024   6.754
10774SOL    HW133221   1.965   2.071   6.666
10774SOL    HW233222   2.046   1.975   6.770
10775SOL     OW33223   6.863   4.638   1.320
10775SOL    HW133224   6.824   4.730   1.322
10775SOL    HW233225   6.804   4.575   1.369
10776SOL     OW33226   0.389   0.175   6.752
10776SOL    HW133227   0.315   0.133   6.805
10776SOL    HW233228   0.380   0.147   6.656
10777SOL     OW33229   3.461   5.684   3.157
10777SOL    HW133230   3.529   5.620   3.192
10777SOL    HW233231   3.392   5.635   3.104
10778SOL     OW33232   5.866   0.106   4.358
10778SOL    HW133233   5.801   0.031   4.350
10778SOL    HW233234   5.834   0.170   4.428
10779SOL     OW33235   6.476   4.369   3.678
10779SOL    HW133236   6.459   4.320   3.763
10779SOL    HW233237   6.568   4.407   3.680
10780SOL     OW33238   2.074   0.986   3.873
10780SOL    HW133239   1.996   1.041   3.901
10780SOL    HW233240   2.044   0.915   3.809
10781SOL     OW33241   4.185   0.741   3.344
10781SOL    HW133242   4.267   0.705   3.390
10781SOL    HW233243   4.108   0.738   3.408
10782SOL     OW33244   5.804   1.931   2.163
10782SOL    HW133245   5.757   2.008   2.121
10782SOL    HW233246   5.861   1.885   2.095
10783SOL     OW33247   0.731   3.140   3.470
10783SOL    HW133248   0.770   3.103   3.386
10783SOL    HW233249   0.632   3.125   3.470
10784SOL     OW33250   3.837   6.932   4.381
10784SOL    HW133251   3.904   7.005   4.396
10784SOL    HW233252   3.871   6.847   4.422
10785SOL     OW33253   0.277   4.671   1.701
10785SOL    HW133254   0.183   4.693   1.728
10785SOL    HW233255   0.314   4.745   1.645
10786SOL     OW33256   5.446   4.825   2.852
10786SOL    HW133257   5.358   4.867   2.873
10786SOL    HW233258   5.516   4.896   2.844
10787SOL     OW33259   1.780   1.430   4.767
10787SOL    HW133260   1.870   1.427   4.723
10787SOL    HW233261   1.782   1.499   4.840
10788SOL     OW33262   2.036   4.470   6.253
10788SOL    HW133263   2.133   4.457   6.274
10788SOL    HW233264   1.981   4.441   6.332
10789SOL     OW33265   0.181   2.727   6.504
10789SOL    HW133266   0.130   2.771   6.579
10789SOL    HW233267   0.148   2.763   6.417
10790SOL     OW33268   1.355   1.164   1.417
10790SOL    HW133269   1.273   1.106   1.423
10790SOL    HW233270   1.435   1.106   1.405
10791SOL     OW33271   0.599   7.020   0.905
10791SOL    HW133272   0.582   0.042   0.817
10791SOL    HW233273   0.680   0.037   0.947
10792SOL     OW33274   3.017   3.817   3.621
10792SOL    HW133275   3.085   3.884   3.652
10792SOL    HW233276   2.964   3.786   3.699
10793SOL     OW33277   5.670   3.468   4.298
10793SOL    HW133278   5.646   3.391   4.239
10793SOL    HW233279   5.637   3.451   4.391
10794SOL     OW33280   3.000   3.797   3.306
10794SOL    HW133281   2.970   3.727   3.241
10794SOL    HW233282   2.929   3.809   3.375
10795SOL     OW33283   6.686   4.687   2.596
10795SOL    HW133284   6.628   4.713   2.673
10795SOL    HW233285   6.747   4.613   2.624
10796SOL     OW33286   5.606   6.909   6.973
10796SOL    HW133287   5.625   6.824   7.022
10796SOL    HW233288   5.513   6.939   6.994
10797SOL     OW33289   4.315   2.950   1.669
10797SOL    HW133290   4.384   2.880   1.649
10797SOL    HW233291   4.228   2.904   1.689
10798SOL     OW33292   3.013   6.336   0.568
10798SOL    HW133293   3.028   6.393   0.648
10798SOL    HW233294   3.003   6.241   0.595
10799SOL     OW33295   3.647   1.016   1.735
10799SOL    HW133296   3.730   1.067   1.710
10799SOL    HW233297   3.639   1.013   1.835
10800SOL     OW33298   0.701   6.542   6.104
10800SOL    HW133299   0.715   6.523   6.201
10800SOL    HW233300   0.788   6.535   6.056
10801SOL     OW33301   0.509   5.825   5.896
10801SOL    HW133302   0.419   5.865   5.882
10801SOL    HW233303   0.567   5.890   5.946
10802SOL     OW33304   0.708   1.553   3.316
10802SOL    HW133305   0.743   1.627   3.257
10802SOL    HW233306   0.755   1.468   3.293
10803SOL     OW33307   3.185   3.917   6.319
10803SOL    HW133308   3.130   3.833   6.319
10803SOL    HW233309   3.134   3.990   6.274
10804SOL     OW33310   5.755   3.396   1.807
10804SOL    HW133311   5.742   3.299   1.787
10804SOL    HW233312   5.679   3.428   1.864
10805SOL     OW33313   4.276   6.612   6.760
10805SOL    HW133314   4.214   6.555   6.706
10805SOL    HW233315   4.356   6.558   6.786
10806SOL     OW33316   4.726   3.769   5.997
10806SOL    HW133317   4.757   3.850   5.948
10806SOL    HW233318   4.634   3.783   6.032
10807SOL     OW33319   1.077   0.140   2.117
10807SOL    HW133320   0.989   0.120   2.074
10807SOL    HW233321   1.121   0.216   2.069
10808SOL     OW33322   0.349   3.039   5.780
10808SOL    HW133323   0.333   2.956   5.727
10808SOL    HW233324   0.445   3.067   5.771
10809SOL     OW33325   2.767   4.719   3.473
10809SOL    HW133326   2.686   4.717   3.532
10809SOL    HW233327   2.839   4.771   3.517
10810SOL     OW33328   1.307   0.197   4.346
10810SOL    HW133329   1.234   0.224   4.283
10810SOL    HW233330   1.301   0.098   4.362
10811SOL     OW33331   3.999   4.282   6.425
10811SOL    HW133332   3.992   4.360   6.362
10811SOL    HW233333   4.091   4.281   6.465
10812SOL     OW33334   0.650   4.327   0.890
10812SOL    HW133335   0.640   4.387   0.970
10812SOL    HW233336   0.560   4.298   0.858
10813SOL     OW33337   2.129   4.737   6.492
10813SOL    HW133338   2.190   4.701   6.563
10813SOL    HW233339   2.184   4.781   6.421
10814SOL     OW33340   1.374   6.748   6.745
10814SOL    HW133341   1.457   6.800   6.764
10814SOL    HW233342   1.312   6.755   6.823
10815SOL     OW33343   4.284   4.620   3.340
10815SOL    HW133344   4.229   4.667   3.271
10815SOL    HW233345   4.377   4.606   3.305
10816SOL     OW33346   3.214   2.925   2.388
10816SOL    HW133347   3.227   2.913   2.290
10816SOL    HW233348   3.132   2.980   2.404
10817SOL     OW33349   4.502   0.867   3.722
10817SOL    HW133350   4.433   0.796   3.713
10817SOL    HW233351   4.592   0.825   3.734
10818SOL     OW33352   4.422   4.497   5.416
10818SOL    HW133353   4.396   4.419   5.473
10818SOL    HW233354   4.371   4.578   5.445
10819SOL     OW33355   6.615   4.870   6.149
10819SOL    HW133356   6.597   4.967   6.161
10819SOL    HW233357   6.545   4.830   6.089
10820SOL     OW33358   6.892   5.641   3.724
10820SOL    HW133359   6.898   5.632   3.824
10820SOL    HW233360   6.981   5.622   3.684
10821SOL     OW33361   5.563   6.800   2.473
10821SOL    HW133362   5.569   6.897   2.494
10821SOL    HW233363   5.471   6.777   2.442
10822SOL     OW33364   6.805   3.167   3.319
10822SOL    HW133365   6.789   3.227   3.241
10822SOL    HW233366   6.813   3.222   3.402
10823SOL     OW33367   1.905   6.597   1.779
10823SOL    HW133368   1.829   6.649   1.817
10823SOL    HW233369   1.881   6.565   1.687
10824SOL     OW33370   6.674   1.492   2.850
10824SOL    HW133371   6.712   1.585   2.850
10824SOL    HW233372   6.733   1.432   2.904
10825SOL     OW33373   2.458   1.062   6.226
10825SOL    HW133374   2.516   1.143   6.216
10825SOL    HW233375   2.510   0.981   6.202
10826SOL     OW33376   1.261   2.981   3.838
10826SOL    HW133377   1.216   2.921   3.904
10826SOL    HW233378   1.307   3.055   3.887
10827SOL     OW33379   6.979   3.035   4.096
10827SOL    HW133380   0.037   3.069   4.047
10827SOL    HW233381   6.897   3.052   4.041
10828SOL     OW33382   1.255   4.669   0.666
10828SOL    HW133383   1.305   4.755   0.664
10828SOL    HW233384   1.204   4.662   0.751
10829SOL     OW33385   4.283   2.095   0.343
10829SOL    HW133386   4.191   2.126   0.321
10829SOL    HW233387   4.312   2.134   0.430
10830SOL     OW33388   5.343   1.787   2.924
10830SOL    HW133389   5.248   1.811   2.904
10830SOL    HW233390   5.403   1.831   2.857
10831SOL     OW33391   2.644   5.822   3.077
10831SOL    HW133392   2.638   5.835   2.978
10831SOL    HW233393   2.600   5.899   3.123
10832SOL     OW33394   0.781   2.828   6.074
10832SOL    HW133395   0.870   2.820   6.121
10832SOL    HW233396   0.717   2.876   6.133
10833SOL     OW33397   0.832   0.611   2.227
10833SOL    HW133398   0.793   0.690   2.274
10833SOL    HW233399   0.903   0.570   2.284
10834SOL     OW33400   1.108   1.971   0.384
10834SOL    HW133401   1.057   2.019   0.313
10834SOL    HW233402   1.073   1.878   0.394
10835SOL     OW33403   5.429   2.338   0.620
10835SOL    HW133404   5.516   2.381   0.644
10835SOL    HW233405   5.428   2.244   0.654
10836SOL     OW33406   6.561   1.239   5.098
10836SOL    HW133407   6.478   1.203   5.139
10836SOL    HW233408   6.539   1.321   5.044
10837SOL     OW33409   6.973   5.331   1.332
10837SOL    HW133410   6.958   5.381   1.417
10837SOL    HW233411   6.888   5.284   1.305
10838SOL     OW33412   6.103   5.434   4.187
10838SOL    HW133413   6.006   5.442   4.210
10838SOL    HW233414   6.128   5.507   4.124
10839SOL     OW33415   4.413   3.200   1.720
10839SOL    HW133416   4.384   3.108   1.693
10839SOL    HW233417   4.500   3.195   1.768
10840SOL     OW33418   2.597   5.780   2.778
10840SOL    HW133419   2.610   5.841   2.700
10840SOL    HW233420   2.507   5.736   2.770
10841SOL     OW33421   5.767   4.980   5.973
10841SOL    HW133422   5.828   5.040   5.920
10841SOL    HW233423   5.814   4.947   6.054
10842SOL     OW33424   4.795   2.607   1.905
10842SOL    HW133425   4.865   2.668   1.944
10842SOL    HW233426   4.783   2.628   1.808
10843SOL     OW33427   1.032   1.778   1.726
10843SOL    HW133428   1.052   1.701   1.786
10843SOL    HW233429   1.021   1.745   1.632
10844SOL     OW33430   0.552   6.823   3.647
10844SOL    HW133431   0.506   6.897   3.697
10844SOL    HW233432   0.628   6.788   3.702
10845SOL     OW33433   3.126   0.167   5.376
10845SOL    HW133434   3.150   0.256   5.337
10845SOL    HW233435   3.204   0.105   5.368
10846SOL     OW33436   5.459   1.186   0.163
10846SOL    HW133437   5.506   1.159   0.079
10846SOL    HW233438   5.527   1.218   0.230
10847SOL     OW33439   3.696   2.941   6.523
10847SOL    HW133440   3.641   3.024   6.515
10847SOL    HW233441   3.650   2.876   6.584
10848SOL     OW33442   2.952   3.649   6.806
10848SOL    HW133443   2.999   3.705   6.737
10848SOL    HW233444   2.955   3.696   6.894
10849SOL     OW33445   1.956   5.160   3.690
10849SOL    HW133446   1.972   5.249   3.732
10849SOL    HW233447   2.012   5.090   3.735
10850SOL     OW33448   2.523   5.544   7.008
10850SOL    HW133449   2.547   5.636   0.018
10850SOL    HW233450   2.563   5.529   6.918
10851SOL     OW33451   1.826   3.470   6.955
10851SOL    HW133452   1.811   3.460   0.031
10851SOL    HW233453   1.923   3.462   6.935
10852SOL     OW33454   1.264   0.232   6.900
10852SOL    HW133455   1.345   0.207   6.848
10852SOL    HW233456   1.291   0.263   6.991
10853SOL     OW33457   1.680   2.306   5.071
10853SOL    HW133458   1.731   2.231   5.030
10853SOL    HW233459   1.651   2.370   5.000
10854SOL     OW33460   4.457   4.847   5.187
10854SOL    HW133461   4.488   4.942   5.189
10854SOL    HW233462   4.442   4.819   5.092
10855SOL     OW33463   3.874   0.377   0.906
10855SOL    HW133464   3.837   0.284   0.902
10855SOL    HW233465   3.855   0.425   0.820
10856SOL     OW33466   5.347   1.437   0.065
10856SOL    HW133467   5.349   1.462   0.162
10856SOL    HW233468   5.399   1.353   0.050
10857SOL     OW33469   6.477   2.554   2.872
10857SOL    HW133470   6.520   2.521   2.956
10857SOL    HW233471   6.479   2.481   2.803
10858SOL     OW33472   1.193   1.679   6.488
10858SOL    HW133473   1.252   1.711   6.413
10858SOL    HW233474   1.250   1.653   6.566
10859SOL     OW33475   1.211   4.288   4.545
10859SOL    HW133476   1.285   4.338   4.590
10859SOL    HW233477   1.194   4.327   4.455
10860SOL     OW33478   6.995   1.436   5.711
10860SOL    HW133479   0.054   1.390   5.746
10860SOL    HW233480   7.009   1.458   5.614
10861SOL     OW33481   3.665   3.307   3.343
10861SOL    HW133482   3.608   3.236   3.386
10861SOL    HW233483   3.607   3.365   3.285
10862SOL     OW33484   2.366   1.855   6.553
10862SOL    HW133485   2.465   1.873   6.548
10862SOL    HW233486   2.346   1.803   6.636
10863SOL     OW33487   3.688   0.863   3.911
10863SOL    HW133488   3.653   0.915   3.989
10863SOL    HW233489   3.787   0.875   3.905
10864SOL     OW33490   2.370   5.936   1.219
10864SOL    HW133491   2.401   5.959   1.311
10864SOL    HW233492   2.273   5.910   1.223
10865SOL     OW33493   6.860   1.219   2.123
10865SOL    HW133494   6.885   1.182   2.034
10865SOL    HW233495   6.760   1.221   2.131
10866SOL     OW33496   5.357   4.326   0.743
10866SOL    HW133497   5.285   4.267   0.780
10866SOL    HW233498   5.316   4.396   0.685
10867SOL     OW33499   3.551   4.424   6.865
10867SOL    HW133500   3.533   4.498   6.800
10867SOL    HW233501   3.493   4.436   6.946
10868SOL     OW33502   4.305   2.101   4.170
10868SOL    HW133503   4.228   2.063   4.120
10868SOL    HW233504   4.374   2.134   4.106
10869NA      NA33505   6.921   2.114   5.339
10870NA      NA33506   4.495   4.413   5.199
10871NA      NA33507   2.007   3.512   2.127
10872NA      NA33508   5.028   3.911   4.659
10873NA      NA33509   4.382   2.432   5.216
10874NA      NA33510   3.201   4.635   1.623
10875NA      NA33511   0.077   4.458   0.571
10876NA      NA33512   3.156   3.694   3.482
10877NA      NA33513   5.152   5.441   0.354
10878NA      NA33514   2.985   0.108   5.567
10879NA      NA33515   5.971   5.543   1.409
10880NA      NA33516   2.234   0.392   4.355
10881NA      NA33517   3.722   5.133   2.417
10882NA      NA33518   3.980   3.551   2.108
   7.02241   7.02241   7.02241
