Generated by trjconv : CNT in water t=  48.00000
33518
    1C        C    1   2.846   2.776   4.748
    1C        C    2   2.902   2.724   4.866
    1C        C    3   2.841   2.775   4.982
    1C        C    4   2.853   2.773   4.262
    1C        C    5   2.902   2.727   4.386
    1C        C    6   2.852   2.777   4.508
    1C        C    7   3.018   2.644   4.626
    1C        C    8   2.899   2.721   4.629
    1C        C    9   3.078   2.603   4.747
    1C        C   10   3.009   2.632   4.866
    1C        C   11   3.184   2.496   4.979
    1C        C   12   3.058   2.558   4.975
    1C        C   13   2.848   2.770   3.773
    1C        C   14   2.904   2.722   3.894
    1C        C   15   2.854   2.777   4.014
    1C        C   16   3.014   2.642   4.138
    1C        C   17   2.903   2.729   4.138
    1C        C   18   3.078   2.612   4.260
    1C        C   19   3.018   2.646   4.383
    1C        C   20   3.211   2.556   4.506
    1C        C   21   3.080   2.609   4.505
    1C        C   22   3.278   2.529   4.627
    1C        C   23   3.209   2.546   4.749
    1C        C   24   3.415   2.483   4.864
    1C        C   25   3.273   2.498   4.867
    1C        C   26   3.493   2.478   4.980
    1C        C   27   2.850   2.771   3.284
    1C        C   28   2.909   2.730   3.405
    1C        C   29   2.858   2.778   3.528
    1C        C   30   3.017   2.642   3.649
    1C        C   31   2.903   2.726   3.651
    1C        C   32   3.076   2.603   3.771
    1C        C   33   3.017   2.638   3.895
    1C        C   34   3.207   2.548   4.017
    1C        C   35   3.076   2.601   4.018
    1C        C   36   3.277   2.531   4.138
    1C        C   37   3.211   2.562   4.259
    1C        C   38   3.415   2.510   4.382
    1C        C   39   3.277   2.544   4.382
    1C        C   40   3.488   2.498   4.501
    1C        C   41   3.416   2.500   4.623
    1C        C   42   3.632   2.485   4.744
    1C        C   43   3.490   2.489   4.743
    1C        C   44   3.708   2.488   4.863
    1C        C   45   3.632   2.480   4.980
    1C        C   46   2.837   2.749   2.798
    1C        C   47   2.896   2.707   2.920
    1C        C   48   2.843   2.757   3.041
    1C        C   49   3.017   2.637   3.163
    1C        C   50   2.898   2.714   3.164
    1C        C   51   3.079   2.599   3.284
    1C        C   52   3.020   2.642   3.405
    1C        C   53   3.209   2.551   3.528
    1C        C   54   3.078   2.602   3.527
    1C        C   55   3.277   2.534   3.651
    1C        C   56   3.207   2.551   3.773
    1C        C   57   3.415   2.507   3.895
    1C        C   58   3.275   2.528   3.894
    1C        C   59   3.485   2.501   4.018
    1C        C   60   3.416   2.505   4.141
    1C        C   61   3.629   2.496   4.258
    1C        C   62   3.488   2.493   4.262
    1C        C   63   3.703   2.501   4.378
    1C        C   64   3.630   2.501   4.499
    1C        C   65   3.836   2.541   4.623
    1C        C   66   3.700   2.503   4.621
    1C        C   67   3.908   2.564   4.742
    1C        C   68   3.843   2.529   4.863
    1C        C   69   4.050   2.595   4.981
    1C        C   70   3.925   2.532   4.976
    1C        C   71   2.825   2.733   2.311
    1C        C   72   2.881   2.689   2.432
    1C        C   73   2.835   2.746   2.554
    1C        C   74   3.007   2.623   2.675
    1C        C   75   2.889   2.702   2.676
    1C        C   76   3.075   2.596   2.796
    1C        C   77   3.016   2.632   2.919
    1C        C   78   3.210   2.548   3.040
    1C        C   79   3.082   2.607   3.041
    1C        C   80   3.275   2.525   3.163
    1C        C   81   3.209   2.543   3.287
    1C        C   82   3.418   2.504   3.405
    1C        C   83   3.278   2.522   3.408
    1C        C   84   3.488   2.505   3.528
    1C        C   85   3.416   2.509   3.650
    1C        C   86   3.627   2.506   3.770
    1C        C   87   3.485   2.505   3.773
    1C        C   88   3.695   2.515   3.893
    1C        C   89   3.626   2.502   4.016
    1C        C   90   3.836   2.549   4.138
    1C        C   91   3.700   2.512   4.136
    1C        C   92   3.905   2.572   4.259
    1C        C   93   3.838   2.544   4.380
    1C        C   94   4.027   2.638   4.499
    1C        C   95   3.902   2.573   4.502
    1C        C   96   4.090   2.677   4.620
    1C        C   97   4.033   2.633   4.741
    1C        C   98   4.191   2.770   4.861
    1C        C   99   4.098   2.661   4.864
    1C        C  100   4.213   2.844   4.978
    1C        C  101   2.826   2.731   2.074
    1C        C  102   2.994   2.593   2.194
    1C        C  103   2.876   2.674   2.192
    1C        C  104   3.066   2.572   2.315
    1C        C  105   3.000   2.613   2.433
    1C        C  106   3.200   2.536   2.551
    1C        C  107   3.067   2.584   2.554
    1C        C  108   3.271   2.519   2.672
    1C        C  109   3.207   2.546   2.795
    1C        C  110   3.414   2.499   2.914
    1C        C  111   3.276   2.526   2.917
    1C        C  112   3.485   2.492   3.036
    1C        C  113   3.415   2.505   3.158
    1C        C  114   3.626   2.497   3.279
    1C        C  115   3.484   2.493   3.281
    1C        C  116   3.694   2.513   3.402
    1C        C  117   3.629   2.504   3.527
    1C        C  118   3.835   2.554   3.647
    1C        C  119   3.699   2.514   3.649
    1C        C  120   3.896   2.581   3.772
    1C        C  121   3.831   2.554   3.894
    1C        C  122   4.024   2.644   4.015
    1C        C  123   3.900   2.576   4.015
    1C        C  124   4.087   2.680   4.136
    1C        C  125   4.031   2.636   4.258
    1C        C  126   4.204   2.762   4.379
    1C        C  127   4.091   2.678   4.379
    1C        C  128   4.250   2.817   4.500
    1C        C  129   4.199   2.767   4.622
    1C        C  130   4.332   2.938   4.740
    1C        C  131   4.246   2.824   4.742
    1C        C  132   4.354   3.007   4.862
    1C        C  133   4.288   2.960   4.977
    1C        C  134   3.173   2.461   2.083
    1C        C  135   3.041   2.510   2.088
    1C        C  136   3.261   2.478   2.190
    1C        C  137   3.197   2.517   2.310
    1C        C  138   3.406   2.478   2.428
    1C        C  139   3.267   2.502   2.432
    1C        C  140   3.480   2.490   2.548
    1C        C  141   3.410   2.495   2.670
    1C        C  142   3.624   2.497   2.792
    1C        C  143   3.483   2.488   2.791
    1C        C  144   3.697   2.507   2.913
    1C        C  145   3.626   2.494   3.034
    1C        C  146   3.833   2.538   3.156
    1C        C  147   3.696   2.504   3.157
    1C        C  148   3.899   2.565   3.279
    1C        C  149   3.831   2.547   3.401
    1C        C  150   4.027   2.632   3.522
    1C        C  151   3.899   2.572   3.523
    1C        C  152   4.086   2.670   3.645
    1C        C  153   4.024   2.641   3.768
    1C        C  154   4.195   2.764   3.889
    1C        C  155   4.084   2.677   3.891
    1C        C  156   4.247   2.814   4.010
    1C        C  157   4.200   2.765   4.134
    1C        C  158   4.341   2.923   4.251
    1C        C  159   4.254   2.812   4.256
    1C        C  160   4.376   2.984   4.373
    1C        C  161   4.334   2.931   4.497
    1C        C  162   4.442   3.116   4.615
    1C        C  163   4.376   2.991   4.617
    1C        C  164   4.472   3.186   4.734
    1C        C  165   4.430   3.125   4.855
    1C        C  166   4.515   3.323   4.976
    1C        C  167   4.483   3.188   4.968
    1C        C  168   3.478   2.442   2.071
    1C        C  169   3.401   2.460   2.187
    1C        C  170   3.618   2.471   2.307
    1C        C  171   3.476   2.462   2.307
    1C        C  172   3.693   2.493   2.425
    1C        C  173   3.622   2.494   2.546
    1C        C  174   3.828   2.540   2.664
    1C        C  175   3.691   2.505   2.669
    1C        C  176   3.896   2.557   2.787
    1C        C  177   3.835   2.536   2.912
    1C        C  178   4.028   2.620   3.032
    1C        C  179   3.904   2.554   3.035
    1C        C  180   4.088   2.662   3.153
    1C        C  181   4.027   2.624   3.275
    1C        C  182   4.194   2.754   3.399
    1C        C  183   4.086   2.663   3.397
    1C        C  184   4.245   2.806   3.520
    1C        C  185   4.195   2.759   3.644
    1C        C  186   4.341   2.914   3.764
    1C        C  187   4.249   2.807   3.766
    1C        C  188   4.380   2.978   3.884
    1C        C  189   4.338   2.922   4.006
    1C        C  190   4.444   3.107   4.126
    1C        C  191   4.378   2.982   4.128
    1C        C  192   4.467   3.175   4.248
    1C        C  193   4.438   3.111   4.371
    1C        C  194   4.508   3.313   4.489
    1C        C  195   4.472   3.176   4.491
    1C        C  196   4.527   3.386   4.608
    1C        C  197   4.518   3.321   4.733
    1C        C  198   4.553   3.533   4.850
    1C        C  199   4.536   3.391   4.855
    1C        C  200   4.582   3.618   4.962
    1C        C  201   3.616   2.419   2.073
    1C        C  202   3.827   2.513   2.182
    1C        C  203   3.690   2.470   2.185
    1C        C  204   3.900   2.538   2.301
    1C        C  205   3.833   2.516   2.423
    1C        C  206   4.027   2.612   2.544
    1C        C  207   3.900   2.550   2.543
    1C        C  208   4.087   2.653   2.665
    1C        C  209   4.023   2.620   2.787
    1C        C  210   4.192   2.750   2.908
    1C        C  211   4.084   2.659   2.908
    1C        C  212   4.245   2.799   3.030
    1C        C  213   4.201   2.746   3.153
    1C        C  214   4.333   2.912   3.271
    1C        C  215   4.245   2.801   3.275
    1C        C  216   4.373   2.972   3.393
    1C        C  217   4.333   2.916   3.516
    1C        C  218   4.440   3.097   3.637
    1C        C  219   4.374   2.972   3.639
    1C        C  220   4.466   3.169   3.757
    1C        C  221   4.443   3.105   3.880
    1C        C  222   4.509   3.305   4.001
    1C        C  223   4.475   3.168   4.002
    1C        C  224   4.518   3.378   4.122
    1C        C  225   4.505   3.311   4.245
    1C        C  226   4.517   3.524   4.367
    1C        C  227   4.513   3.383   4.366
    1C        C  228   4.520   3.599   4.487
    1C        C  229   4.531   3.527   4.608
    1C        C  230   4.509   3.742   4.725
    1C        C  231   4.538   3.603   4.727
    1C        C  232   4.496   3.818   4.844
    1C        C  233   4.548   3.754   4.957
    1C        C  234   4.020   2.609   2.062
    1C        C  235   3.896   2.547   2.065
    1C        C  236   4.085   2.646   2.181
    1C        C  237   4.024   2.609   2.302
    1C        C  238   4.201   2.735   2.422
    1C        C  239   4.088   2.649   2.422
    1C        C  240   4.259   2.780   2.543
    1C        C  241   4.199   2.739   2.663
    1C        C  242   4.334   2.903   2.784
    1C        C  243   4.245   2.794   2.785
    1C        C  244   4.374   2.964   2.905
    1C        C  245   4.333   2.910   3.029
    1C        C  246   4.439   3.096   3.149
    1C        C  247   4.374   2.970   3.150
    1C        C  248   4.461   3.164   3.270
    1C        C  249   4.434   3.099   3.393
    1C        C  250   4.495   3.302   3.513
    1C        C  251   4.462   3.164   3.515
    1C        C  252   4.510   3.373   3.635
    1C        C  253   4.500   3.306   3.759
    1C        C  254   4.521   3.518   3.877
    1C        C  255   4.517   3.377   3.880
    1C        C  256   4.515   3.588   4.000
    1C        C  257   4.522   3.520   4.123
    1C        C  258   4.496   3.733   4.240
    1C        C  259   4.518   3.593   4.244
    1C        C  260   4.468   3.803   4.360
    1C        C  261   4.488   3.736   4.483
    1C        C  262   4.425   3.938   4.601
    1C        C  263   4.484   3.809   4.604
    1C        C  264   4.398   4.008   4.721
    1C        C  265   4.435   3.945   4.842
    1C        C  266   4.320   4.135   4.957
    1C        C  267   4.394   4.017   4.955
    1C        C  268   4.265   2.773   2.063
    1C        C  269   4.197   2.731   2.178
    1C        C  270   4.342   2.892   2.301
    1C        C  271   4.249   2.784   2.299
    1C        C  272   4.383   2.956   2.420
    1C        C  273   4.344   2.893   2.540
    1C        C  274   4.448   3.080   2.663
    1C        C  275   4.379   2.957   2.661
    1C        C  276   4.471   3.153   2.782
    1C        C  277   4.442   3.088   2.904
    1C        C  278   4.512   3.291   3.026
    1C        C  279   4.468   3.157   3.025
    1C        C  280   4.520   3.364   3.147
    1C        C  281   4.499   3.300   3.271
    1C        C  282   4.516   3.514   3.387
    1C        C  283   4.509   3.373   3.392
    1C        C  284   4.518   3.584   3.510
    1C        C  285   4.520   3.514   3.632
    1C        C  286   4.496   3.726   3.751
    1C        C  287   4.518   3.586   3.753
    1C        C  288   4.479   3.794   3.873
    1C        C  289   4.494   3.728   3.997
    1C        C  290   4.425   3.931   4.115
    1C        C  291   4.477   3.800   4.117
    1C        C  292   4.394   3.998   4.235
    1C        C  293   4.421   3.936   4.359
    1C        C  294   4.334   4.130   4.478
    1C        C  295   4.398   4.005   4.480
    1C        C  296   4.287   4.190   4.598
    1C        C  297   4.328   4.131   4.720
    1C        C  298   4.195   4.310   4.835
    1C        C  299   4.283   4.197   4.837
    1C        C  300   4.170   4.397   4.946
    1C        C  301   4.350   2.883   2.064
    1C        C  302   4.475   3.066   2.179
    1C        C  303   4.391   2.950   2.181
    1C        C  304   4.489   3.141   2.299
    1C        C  305   4.451   3.080   2.421
    1C        C  306   4.506   3.285   2.539
    1C        C  307   4.474   3.148   2.542
    1C        C  308   4.517   3.359   2.659
    1C        C  309   4.509   3.289   2.781
    1C        C  310   4.519   3.501   2.900
    1C        C  311   4.519   3.360   2.903
    1C        C  312   4.516   3.576   3.019
    1C        C  313   4.524   3.506   3.141
    1C        C  314   4.488   3.717   3.265
    1C        C  315   4.515   3.579   3.262
    1C        C  316   4.474   3.791   3.385
    1C        C  317   4.493   3.723   3.508
    1C        C  318   4.431   3.928   3.629
    1C        C  319   4.477   3.795   3.629
    1C        C  320   4.398   3.991   3.751
    1C        C  321   4.428   3.926   3.873
    1C        C  322   4.322   4.115   3.991
    1C        C  323   4.394   3.994   3.992
    1C        C  324   4.277   4.171   4.113
    1C        C  325   4.323   4.120   4.236
    1C        C  326   4.188   4.285   4.352
    1C        C  327   4.287   4.184   4.357
    1C        C  328   4.138   4.339   4.472
    1C        C  329   4.191   4.293   4.594
    1C        C  330   4.023   4.434   4.713
    1C        C  331   4.140   4.353   4.712
    1C        C  332   3.971   4.490   4.832
    1C        C  333   4.056   4.479   4.942
    1C        C  334   4.550   3.268   2.062
    1C        C  335   4.540   3.129   2.069
    1C        C  336   4.534   3.350   2.175
    1C        C  337   4.517   3.280   2.297
    1C        C  338   4.532   3.496   2.412
    1C        C  339   4.522   3.355   2.417
    1C        C  340   4.523   3.569   2.532
    1C        C  341   4.527   3.500   2.655
    1C        C  342   4.494   3.710   2.773
    1C        C  343   4.520   3.571   2.777
    1C        C  344   4.479   3.783   2.893
    1C        C  345   4.493   3.716   3.016
    1C        C  346   4.425   3.913   3.135
    1C        C  347   4.473   3.781   3.140
    1C        C  348   4.393   3.979   3.256
    1C        C  349   4.429   3.925   3.382
    1C        C  350   4.319   4.105   3.504
    1C        C  351   4.398   3.987   3.505
    1C        C  352   4.277   4.165   3.625
    1C        C  353   4.319   4.108   3.747
    1C        C  354   4.177   4.268   3.866
    1C        C  355   4.278   4.170   3.868
    1C        C  356   4.122   4.316   3.987
    1C        C  357   4.177   4.271   4.109
    1C        C  358   4.010   4.402   4.229
    1C        C  359   4.128   4.325   4.230
    1C        C  360   3.955   4.448   4.351
    1C        C  361   4.022   4.420   4.472
    1C        C  362   3.828   4.517   4.592
    1C        C  363   3.958   4.462   4.591
    1C        C  364   3.765   4.543   4.716
    1C        C  365   3.838   4.539   4.836
    1C        C  366   3.632   4.598   4.950
    1C        C  367   3.769   4.571   4.954
    1C        C  368   4.510   3.564   2.052
    1C        C  369   4.524   3.490   2.170
    1C        C  370   4.497   3.704   2.286
    1C        C  371   4.521   3.565   2.289
    1C        C  372   4.479   3.776   2.406
    1C        C  373   4.501   3.709   2.529
    1C        C  374   4.427   3.909   2.645
    1C        C  375   4.480   3.778   2.650
    1C        C  376   4.393   3.972   2.767
    1C        C  377   4.430   3.916   2.891
    1C        C  378   4.323   4.099   3.011
    1C        C  379   4.400   3.981   3.013
    1C        C  380   4.274   4.150   3.133
    1C        C  381   4.315   4.096   3.257
    1C        C  382   4.173   4.253   3.377
    1C        C  383   4.275   4.155   3.380
    1C        C  384   4.120   4.303   3.498
    1C        C  385   4.177   4.265   3.621
    1C        C  386   4.008   4.394   3.740
    1C        C  387   4.124   4.313   3.743
    1C        C  388   3.948   4.436   3.861
    1C        C  389   4.011   4.402   3.983
    1C        C  390   3.820   4.491   4.107
    1C        C  391   3.949   4.434   4.106
    1C        C  392   3.752   4.513   4.229
    1C        C  393   3.822   4.496   4.351
    1C        C  394   3.619   4.561   4.477
    1C        C  395   3.757   4.530   4.471
    1C        C  396   3.547   4.569   4.599
    1C        C  397   3.624   4.559   4.717
    1C        C  398   3.413   4.552   4.839
    1C        C  399   3.553   4.574   4.837
    1C        C  400   3.343   4.520   4.956
    1C        C  401   4.508   3.703   2.050
    1C        C  402   4.456   3.915   2.164
    1C        C  403   4.495   3.779   2.167
    1C        C  404   4.411   3.977   2.283
    1C        C  405   4.432   3.909   2.405
    1C        C  406   4.327   4.097   2.526
    1C        C  407   4.403   3.978   2.525
    1C        C  408   4.280   4.152   2.647
    1C        C  409   4.318   4.092   2.769
    1C        C  410   4.176   4.252   2.887
    1C        C  411   4.278   4.154   2.889
    1C        C  412   4.122   4.296   3.010
    1C        C  413   4.175   4.251   3.133
    1C        C  414   4.001   4.375   3.252
    1C        C  415   4.118   4.295   3.254
    1C        C  416   3.938   4.411   3.373
    1C        C  417   3.999   4.376   3.495
    1C        C  418   3.811   4.473   3.618
    1C        C  419   3.941   4.417   3.617
    1C        C  420   3.748   4.500   3.741
    1C        C  421   3.815   4.484   3.865
    1C        C  422   3.609   4.534   3.987
    1C        C  423   3.748   4.509   3.987
    1C        C  424   3.542   4.535   4.112
    1C        C  425   3.614   4.541   4.234
    1C        C  426   3.405   4.546   4.357
    1C        C  427   3.546   4.557   4.356
    1C        C  428   3.334   4.545   4.480
    1C        C  429   3.407   4.557   4.600
    1C        C  430   3.197   4.513   4.723
    1C        C  431   3.336   4.543   4.721
    1C        C  432   3.127   4.490   4.845
    1C        C  433   3.206   4.494   4.960
    1C        C  434   4.376   4.117   2.047
    1C        C  435   4.449   3.998   2.051
    1C        C  436   4.303   4.161   2.162
    1C        C  437   4.337   4.099   2.285
    1C        C  438   4.184   4.254   2.401
    1C        C  439   4.284   4.154   2.404
    1C        C  440   4.124   4.294   2.522
    1C        C  441   4.178   4.249   2.644
    1C        C  442   4.002   4.372   2.765
    1C        C  443   4.121   4.296   2.765
    1C        C  444   3.943   4.408   2.888
    1C        C  445   4.003   4.372   3.011
    1C        C  446   3.812   4.475   3.130
    1C        C  447   3.937   4.409   3.130
    1C        C  448   3.746   4.498   3.253
    1C        C  449   3.813   4.476   3.375
    1C        C  450   3.606   4.528   3.501
    1C        C  451   3.744   4.497   3.496
    1C        C  452   3.537   4.538   3.624
    1C        C  453   3.609   4.528   3.745
    1C        C  454   3.397   4.544   3.866
    1C        C  455   3.538   4.546   3.866
    1C        C  456   3.331   4.533   3.990
    1C        C  457   3.401   4.530   4.113
    1C        C  458   3.195   4.501   4.237
    1C        C  459   3.333   4.530   4.237
    1C        C  460   3.129   4.485   4.361
    1C        C  461   3.196   4.512   4.482
    1C        C  462   2.995   4.437   4.605
    1C        C  463   3.125   4.491   4.603
    1C        C  464   2.932   4.399   4.725
    1C        C  465   2.996   4.434   4.847
    1C        C  466   2.803   4.339   4.961
    1C        C  467   2.911   4.428   4.963
    1C        C  468   4.128   4.295   2.042
    1C        C  469   4.191   4.250   2.159
    1C        C  470   4.005   4.367   2.278
    1C        C  471   4.130   4.299   2.278
    1C        C  472   3.942   4.402   2.399
    1C        C  473   4.006   4.372   2.521
    1C        C  474   3.811   4.462   2.641
    1C        C  475   3.941   4.405   2.642
    1C        C  476   3.746   4.487   2.764
    1C        C  477   3.813   4.463   2.886
    1C        C  478   3.608   4.525   3.008
    1C        C  479   3.746   4.494   3.006
    1C        C  480   3.536   4.531   3.130
    1C        C  481   3.606   4.522   3.252
    1C        C  482   3.398   4.532   3.377
    1C        C  483   3.540   4.532   3.376
    1C        C  484   3.328   4.531   3.500
    1C        C  485   3.396   4.543   3.623
    1C        C  486   3.187   4.511   3.745
    1C        C  487   3.324   4.542   3.745
    1C        C  488   3.126   4.485   3.870
    1C        C  489   3.192   4.507   3.993
    1C        C  490   3.001   4.415   4.117
    1C        C  491   3.125   4.483   4.115
    1C        C  492   2.943   4.383   4.241
    1C        C  493   2.999   4.429   4.362
    1C        C  494   2.829   4.301   4.484
    1C        C  495   2.936   4.394   4.484
    1C        C  496   2.777   4.252   4.605
    1C        C  497   2.821   4.310   4.726
    1C        C  498   2.666   4.165   4.846
    1C        C  499   2.757   4.273   4.847
    1C        C  500   2.603   4.115   4.961
    1C        C  501   4.008   4.365   2.040
    1C        C  502   3.815   4.465   2.155
    1C        C  503   3.944   4.408   2.158
    1C        C  504   3.747   4.484   2.277
    1C        C  505   3.812   4.457   2.399
    1C        C  506   3.604   4.509   2.518
    1C        C  507   3.743   4.485   2.520
    1C        C  508   3.536   4.522   2.642
    1C        C  509   3.607   4.512   2.764
    1C        C  510   3.396   4.524   2.887
    1C        C  511   3.537   4.524   2.886
    1C        C  512   3.325   4.522   3.009
    1C        C  513   3.395   4.531   3.131
    1C        C  514   3.189   4.498   3.257
    1C        C  515   3.327   4.526   3.255
    1C        C  516   3.122   4.475   3.380
    1C        C  517   3.189   4.504   3.500
    1C        C  518   3.001   4.409   3.627
    1C        C  519   3.122   4.483   3.623
    1C        C  520   2.943   4.373   3.750
    1C        C  521   3.004   4.414   3.871
    1C        C  522   2.838   4.282   3.997
    1C        C  523   2.947   4.373   3.994
    1C        C  524   2.791   4.233   4.121
    1C        C  525   2.838   4.288   4.242
    1C        C  526   2.697   4.130   4.369
    1C        C  527   2.783   4.242   4.364
    1C        C  528   2.658   4.071   4.491
    1C        C  529   2.692   4.140   4.610
    1C        C  530   2.587   3.956   4.735
    1C        C  531   2.640   4.088   4.731
    1C        C  532   2.539   3.902   4.857
    1C        C  533   2.525   3.998   4.962
    1C        C  534   3.617   4.558   2.039
    1C        C  535   3.747   4.507   2.039
    1C        C  536   3.535   4.535   2.154
    1C        C  537   3.607   4.509   2.274
    1C        C  538   3.394   4.516   2.399
    1C        C  539   3.535   4.510   2.395
    1C        C  540   3.324   4.511   2.522
    1C        C  541   3.395   4.521   2.644
    1C        C  542   3.185   4.489   2.767
    1C        C  543   3.324   4.517   2.766
    1C        C  544   3.118   4.468   2.889
    1C        C  545   3.187   4.494   3.010
    1C        C  546   3.001   4.401   3.134
    1C        C  547   3.123   4.472   3.135
    1C        C  548   2.943   4.365   3.258
    1C        C  549   2.998   4.406   3.381
    1C        C  550   2.833   4.278   3.503
    1C        C  551   2.943   4.366   3.505
    1C        C  552   2.786   4.231   3.628
    1C        C  553   2.839   4.277   3.751
    1C        C  554   2.708   4.116   3.875
    1C        C  555   2.788   4.232   3.875
    1C        C  556   2.671   4.056   3.998
    1C        C  557   2.710   4.118   4.120
    1C        C  558   2.604   3.943   4.247
    1C        C  559   2.664   4.071   4.245
    1C        C  560   2.570   3.878   4.368
    1C        C  561   2.587   3.949   4.489
    1C        C  562   2.529   3.750   4.615
    1C        C  563   2.563   3.887   4.614
    1C        C  564   2.516   3.681   4.738
    1C        C  565   2.520   3.760   4.856
    1C        C  566   2.521   3.546   4.978
    1C        C  567   2.519   3.685   4.974
    1C        C  568   3.326   4.480   2.039
    1C        C  569   3.395   4.514   2.156
    1C        C  570   3.184   4.476   2.282
    1C        C  571   3.321   4.512   2.278
    1C        C  572   3.116   4.454   2.404
    1C        C  573   3.186   4.480   2.524
    1C        C  574   2.989   4.405   2.648
    1C        C  575   3.117   4.463   2.646
    1C        C  576   2.930   4.364   2.770
    1C        C  577   2.995   4.400   2.890
    1C        C  578   2.829   4.273   3.015
    1C        C  579   2.937   4.364   3.014
    1C        C  580   2.784   4.220   3.138
    1C        C  581   2.833   4.276   3.259
    1C        C  582   2.696   4.115   3.384
    1C        C  583   2.784   4.225   3.381
    1C        C  584   2.662   4.058   3.509
    1C        C  585   2.700   4.119   3.631
    1C        C  586   2.597   3.936   3.755
    1C        C  587   2.661   4.062   3.753
    1C        C  588   2.572   3.871   3.878
    1C        C  589   2.599   3.935   4.000
    1C        C  590   2.535   3.741   4.124
    1C        C  591   2.574   3.876   4.126
    1C        C  592   2.523   3.674   4.248
    1C        C  593   2.529   3.743   4.372
    1C        C  594   2.508   3.535   4.498
    1C        C  595   2.514   3.676   4.495
    1C        C  596   2.511   3.464   4.620
    1C        C  597   2.517   3.538   4.740
    1C        C  598   2.528   3.327   4.862
    1C        C  599   2.516   3.468   4.862
    1C        C  600   2.537   3.252   4.980
    1C        C  601   3.194   4.438   2.045
    1C        C  602   2.983   4.388   2.162
    1C        C  603   3.117   4.438   2.162
    1C        C  604   2.925   4.357   2.288
    1C        C  605   2.988   4.396   2.408
    1C        C  606   2.823   4.265   2.532
    1C        C  607   2.924   4.363   2.530
    1C        C  608   2.774   4.216   2.655
    1C        C  609   2.820   4.275   2.774
    1C        C  610   2.685   4.111   2.900
    1C        C  611   2.771   4.224   2.896
    1C        C  612   2.649   4.051   3.022
    1C        C  613   2.692   4.113   3.141
    1C        C  614   2.597   3.924   3.270
    1C        C  615   2.655   4.053   3.264
    1C        C  616   2.575   3.860   3.394
    1C        C  617   2.605   3.929   3.513
    1C        C  618   2.531   3.730   3.640
    1C        C  619   2.578   3.863   3.635
    1C        C  620   2.512   3.663   3.763
    1C        C  621   2.531   3.736   3.883
    1C        C  622   2.515   3.525   4.010
    1C        C  623   2.523   3.666   4.005
    1C        C  624   2.514   3.457   4.134
    1C        C  625   2.516   3.533   4.253
    1C        C  626   2.540   3.325   4.378
    1C        C  627   2.518   3.464   4.376
    1C        C  628   2.549   3.250   4.498
    1C        C  629   2.529   3.324   4.616
    1C        C  630   2.589   3.122   4.741
    1C        C  631   2.544   3.257   4.740
    1C        C  632   2.616   3.055   4.863
    1C        C  633   2.563   3.114   4.982
    1C        C  634   2.776   4.308   2.063
    1C        C  635   2.891   4.388   2.052
    1C        C  636   2.744   4.229   2.174
    1C        C  637   2.808   4.275   2.291
    1C        C  638   2.677   4.106   2.412
    1C        C  639   2.767   4.215   2.412
    1C        C  640   2.640   4.048   2.536
    1C        C  641   2.684   4.107   2.656
    1C        C  642   2.586   3.921   2.779
    1C        C  643   2.644   4.050   2.779
    1C        C  644   2.562   3.857   2.903
    1C        C  645   2.589   3.923   3.025
    1C        C  646   2.525   3.723   3.150
    1C        C  647   2.565   3.858   3.149
    1C        C  648   2.514   3.655   3.273
    1C        C  649   2.529   3.726   3.394
    1C        C  650   2.506   3.519   3.517
    1C        C  651   2.516   3.660   3.518
    1C        C  652   2.507   3.451   3.641
    1C        C  653   2.506   3.522   3.764
    1C        C  654   2.528   3.314   3.889
    1C        C  655   2.511   3.454   3.888
    1C        C  656   2.550   3.248   4.013
    1C        C  657   2.538   3.318   4.135
    1C        C  658   2.607   3.120   4.259
    1C        C  659   2.556   3.251   4.258
    1C        C  660   2.632   3.052   4.380
    1C        C  661   2.592   3.115   4.500
    1C        C  662   2.712   2.941   4.626
    1C        C  663   2.628   3.055   4.623
    1C        C  664   2.750   2.881   4.748
    1C        C  665   2.695   2.936   4.867
    1C        C  666   2.742   2.872   4.983
    1C        C  667   2.678   4.024   2.057
    1C        C  668   2.683   4.102   2.173
    1C        C  669   2.582   3.912   2.295
    1C        C  670   2.638   4.042   2.293
    1C        C  671   2.560   3.845   2.418
    1C        C  672   2.582   3.919   2.536
    1C        C  673   2.516   3.719   2.660
    1C        C  674   2.555   3.855   2.659
    1C        C  675   2.510   3.649   2.783
    1C        C  676   2.525   3.721   2.903
    1C        C  677   2.508   3.512   3.029
    1C        C  678   2.516   3.653   3.027
    1C        C  679   2.506   3.442   3.152
    1C        C  680   2.507   3.514   3.274
    1C        C  681   2.534   3.306   3.402
    1C        C  682   2.508   3.445   3.397
    1C        C  683   2.553   3.241   3.527
    1C        C  684   2.531   3.312   3.647
    1C        C  685   2.600   3.111   3.772
    1C        C  686   2.548   3.243   3.769
    1C        C  687   2.634   3.051   3.895
    1C        C  688   2.602   3.117   4.016
    1C        C  689   2.718   2.939   4.140
    1C        C  690   2.634   3.052   4.138
    1C        C  691   2.765   2.884   4.262
    1C        C  692   2.718   2.939   4.383
    1C        C  693   2.760   2.884   4.506
    1C        C  694   2.625   3.894   2.058
    1C        C  695   2.528   3.703   2.175
    1C        C  696   2.572   3.837   2.175
    1C        C  697   2.505   3.638   2.298
    1C        C  698   2.523   3.709   2.419
    1C        C  699   2.488   3.502   2.543
    1C        C  700   2.503   3.643   2.542
    1C        C  701   2.501   3.433   2.666
    1C        C  702   2.499   3.508   2.785
    1C        C  703   2.526   3.299   2.912
    1C        C  704   2.505   3.439   2.908
    1C        C  705   2.544   3.233   3.036
    1C        C  706   2.530   3.303   3.158
    1C        C  707   2.599   3.104   3.278
    1C        C  708   2.548   3.236   3.280
    1C        C  709   2.631   3.046   3.402
    1C        C  710   2.604   3.109   3.526
    1C        C  711   2.707   2.929   3.650
    1C        C  712   2.631   3.048   3.650
    1C        C  713   2.756   2.876   3.772
    1C        C  714   2.715   2.935   3.894
    1C        C  715   2.760   2.883   4.018
    1C        C  716   2.450   3.497   2.064
    1C        C  717   2.495   3.630   2.060
    1C        C  718   2.461   3.420   2.184
    1C        C  719   2.477   3.499   2.301
    1C        C  720   2.515   3.290   2.425
    1C        C  721   2.487   3.428   2.423
    1C        C  722   2.536   3.222   2.547
    1C        C  723   2.524   3.293   2.669
    1C        C  724   2.591   3.095   2.790
    1C        C  725   2.537   3.226   2.792
    1C        C  726   2.624   3.035   2.913
    1C        C  727   2.595   3.101   3.034
    1C        C  728   2.710   2.922   3.157
    1C        C  729   2.632   3.039   3.156
    1C        C  730   2.756   2.876   3.283
    1C        C  731   2.715   2.932   3.406
    1C        C  732   2.755   2.876   3.529
    1C        C  733   2.489   3.193   2.075
    1C        C  734   2.492   3.280   2.184
    1C        C  735   2.589   3.087   2.305
    1C        C  736   2.529   3.216   2.305
    1C        C  737   2.620   3.023   2.427
    1C        C  738   2.591   3.092   2.547
    1C        C  739   2.701   2.911   2.671
    1C        C  740   2.627   3.031   2.669
    1C        C  741   2.744   2.855   2.793
    1C        C  742   2.704   2.918   2.913
    1C        C  743   2.749   2.862   3.035
    1C        C  744   2.546   3.066   2.074
    1C        C  745   2.688   2.896   2.185
    1C        C  746   2.612   3.015   2.186
    1C        C  747   2.726   2.835   2.307
    1C        C  748   2.688   2.899   2.428
    1C        C  749   2.740   2.850   2.549
    1C        C  750   2.741   2.842   2.068
    1C        C  751   3.663   2.306   1.990
    1C        O  752   3.653   2.181   2.006
    1C        O  753   3.693   2.332   1.856
    1C        C  754   4.643   3.060   1.987
    1C        O  755   4.614   3.045   1.865
    1C        O  756   4.773   3.025   2.026
    1C        C  757   4.416   4.205   1.934
    1C        O  758   4.513   4.283   1.949
    1C        O  759   4.365   4.171   1.808
    1C        C  760   3.604   4.688   1.970
    1C        O  761   3.572   4.795   2.029
    1C        O  762   3.633   4.696   1.833
    1C        C  763   2.893   4.483   1.939
    1C        O  764   2.939   4.442   1.829
    1C        O  765   2.881   4.622   1.954
    1C        C  766   2.337   3.475   1.971
    1C        O  767   2.358   3.431   1.855
    1C        O  768   2.212   3.535   1.993
    1C        C  769   4.701   3.588   5.045
    1C        O  770   4.711   3.616   5.167
    1C        O  771   4.828   3.622   4.996
    1C        C  772   4.287   4.473   4.995
    1C        O  773   4.337   4.452   5.109
    1C        O  774   4.378   4.531   4.906
    1C        C  775   4.144   2.536   5.079
    1C        O  776   4.187   2.420   5.058
    1C        O  777   4.124   2.551   5.217
    1C        C  778   2.880   4.550   5.041
    1C        O  779   2.849   4.659   4.985
    1C        O  780   2.944   4.574   5.163
    1C        C  781   2.481   3.033   5.075
    1C        O  782   2.374   2.985   5.029
    1C        O  783   2.472   3.072   5.208
    1C        C  784   2.398   4.020   5.036
    1C        O  785   2.296   4.077   4.991
    1C        O  786   2.409   4.035   5.175
    1C        C  787   2.944   2.452   1.992
    1C        O  788   2.941   2.501   1.876
    1C        O  789   2.942   2.313   1.984
    1C        C  790   3.210   2.416   5.100
    1C        O  791   3.180   2.293   5.103
    1C        O  792   3.199   2.471   5.229
    1C        H  793   4.326   3.000   5.069
    1C        H  794   4.137   2.838   5.053
    1C        H  795   4.506   3.129   5.054
    1C        H  796   4.466   3.391   5.042
    1C        H  797   4.601   3.822   5.021
    1C        H  798   4.420   3.979   5.051
    1C        H  799   4.285   4.168   5.052
    1C        H  800   4.035   4.529   5.035
    1C        H  801   3.815   4.545   5.047
    1C        H  802   3.603   4.688   5.000
    1C        H  803   3.400   4.483   5.038
    1C        H  804   3.159   4.463   5.051
    1C        H  805   3.900   2.469   5.059
    1C        H  806   3.689   2.483   5.070
    1C        H  807   2.992   2.540   5.057
    1C        H  808   3.448   2.508   5.072
    1C        H  809   2.846   2.712   5.069
    1C        H  810   2.710   2.898   5.081
    1C        H  811   2.508   3.294   5.073
    1C        H  812   2.481   3.513   5.071
    1C        H  813   2.513   3.734   5.070
    1C        H  814   2.613   4.157   5.058
    1C        H  815   2.748   4.329   5.052
    1C        H  816   2.753   2.904   1.982
    1C        H  817   2.793   2.665   1.997
    1C        H  818   3.201   2.396   2.003
    1C        H  819   3.421   2.410   1.986
    1C        H  820   3.875   2.484   1.980
    1C        H  821   4.057   2.642   1.967
    1C        H  822   4.267   2.708   1.978
    1C        H  823   4.408   2.901   1.976
    1C        H  824   4.627   3.304   1.996
    1C        H  825   4.451   3.511   1.979
    1C        H  826   4.503   3.750   1.954
    1C        H  827   3.801   4.497   1.947
    1C        H  828   3.944   4.357   1.955
    1C        H  829   4.202   4.330   1.973
    1C        H  830   4.511   3.966   1.970
    1C        H  831   2.621   3.850   1.961
    1C        H  832   2.684   4.077   1.964
    1C        H  833   2.713   4.304   1.977
    1C        H  834   3.345   4.544   1.956
    1C        H  835   3.148   4.390   1.962
    1C        H  836   2.499   2.990   2.015
    1C        H  837   2.443   3.228   1.985
    1C        H  838   2.524   3.673   1.967
    2V3OU   H29  839   2.800   3.542   1.073
    2V3OU   C27  840   2.780   3.500   1.175
    2V3OU   H27  841   2.734   3.570   1.249
    2V3OU   H28  842   2.726   3.403   1.160
    2V3OU   O11  843   2.906   3.470   1.237
    2V3OU   C15  844   2.921   3.398   1.354
    2V3OU   C13  845   3.052   3.376   1.400
    2V3OU   C14  846   3.075   3.265   1.483
    2V3OU   C16  847   2.969   3.193   1.536
    2V3OU    H6  848   2.991   3.105   1.598
    2V3OU   C12  849   3.213   3.233   1.523
    2V3OU    O2  850   3.240   3.121   1.573
    2V3OU   C10  851   3.325   3.305   1.460
    2V3OU    C8  852   3.458   3.267   1.473
    2V3OU   O10  853   3.489   3.157   1.547
    2V3OU   H26  854   3.403   3.116   1.564
    2V3OU    C6  855   3.564   3.350   1.425
    2V3OU    C5  856   3.538   3.467   1.354
    2V3OU    C4  857   3.703   3.296   1.426
    2V3OU    H4  858   3.727   3.229   1.515
    2V3OU    H5  859   3.710   3.233   1.332
    2V3OU    C2  860   3.815   3.399   1.428
    2V3OU    O6  861   3.806   3.474   1.549
    2V3OU   H21  862   3.759   3.554   1.519
    2V3OU    C3  863   3.780   3.496   1.314
    2V3OU    H2  864   3.860   3.575   1.308
    2V3OU    H3  865   3.782   3.438   1.218
    2V3OU   C25  866   3.953   3.334   1.413
    2V3OU    O7  867   4.001   3.299   1.305
    2V3OU   C26  868   4.031   3.293   1.537
    2V3OU   H22  869   4.065   3.384   1.593
    2V3OU   H23  870   4.116   3.226   1.508
    2V3OU    O8  871   3.963   3.211   1.629
    2V3OU   H24  872   3.933   3.271   1.698
    2V3OU    C1  873   3.647   3.567   1.330
    2V3OU    H1  874   3.625   3.622   1.234
    2V3OU    O3  875   3.654   3.653   1.444
    2V3OU   C19  876   3.615   3.791   1.433
    2V3OU    H9  877   3.528   3.813   1.366
    2V3OU    O4  878   3.712   3.850   1.350
    2V3OU   C20  879   3.843   3.876   1.401
    2V3OU   H10  880   3.893   3.775   1.416
    2V3OU   C24  881   3.610   3.857   1.571
    2V3OU   H16  882   3.544   3.795   1.637
    2V3OU   H17  883   3.561   3.957   1.558
    2V3OU   C23  884   3.749   3.876   1.632
    2V3OU   H15  885   3.792   3.772   1.651
    2V3OU    N1  886   3.737   3.956   1.752
    2V3OU   H19  887   3.806   3.923   1.818
    2V3OU   H20  888   3.647   3.941   1.793
    2V3OU   C21  889   3.848   3.949   1.535
    2V3OU   H11  890   3.951   3.931   1.576
    2V3OU    O5  891   3.832   4.090   1.539
    2V3OU   H18  892   3.778   4.111   1.617
    2V3OU   C22  893   3.914   3.952   1.290
    2V3OU   H12  894   3.861   4.048   1.269
    2V3OU   H13  895   3.897   3.895   1.195
    2V3OU   H14  896   4.023   3.960   1.314
    2V3OU   C11  897   3.161   3.469   1.365
    2V3OU    O1  898   3.137   3.583   1.320
    2V3OU    C9  899   3.300   3.425   1.388
    2V3OU    C7  900   3.401   3.501   1.330
    2V3OU    O9  901   3.385   3.618   1.259
    2V3OU   H25  902   3.290   3.633   1.272
    2V3OU   C17  903   2.818   3.323   1.414
    2V3OU    H7  904   2.714   3.345   1.387
    2V3OU   C18  905   2.837   3.214   1.499
    2V3OU    H8  906   2.750   3.152   1.525
    3SOL     OW  907   0.870   3.478   1.025
    3SOL    HW1  908   0.958   3.493   0.979
    3SOL    HW2  909   0.796   3.496   0.961
    4SOL     OW  910   5.642   1.178   2.338
    4SOL    HW1  911   5.671   1.263   2.296
    4SOL    HW2  912   5.718   1.113   2.337
    5SOL     OW  913   3.821   2.960   0.950
    5SOL    HW1  914   3.866   3.012   1.023
    5SOL    HW2  915   3.725   2.944   0.975
    6SOL     OW  916   2.451   2.329   0.801
    6SOL    HW1  917   2.416   2.412   0.843
    6SOL    HW2  918   2.422   2.249   0.854
    7SOL     OW  919   5.932   1.136   1.682
    7SOL    HW1  920   5.871   1.201   1.729
    7SOL    HW2  921   6.013   1.185   1.649
    8SOL     OW  922   2.864   1.820   3.514
    8SOL    HW1  923   2.960   1.827   3.487
    8SOL    HW2  924   2.845   1.888   3.585
    9SOL     OW  925   0.784   4.003   6.116
    9SOL    HW1  926   0.792   3.974   6.211
    9SOL    HW2  927   0.842   3.946   6.058
   10SOL     OW  928   0.357   4.093   0.278
   10SOL    HW1  929   0.354   4.051   0.187
   10SOL    HW2  930   0.430   4.161   0.281
   11SOL     OW  931   4.177   6.157   6.996
   11SOL    HW1  932   4.266   6.165   6.952
   11SOL    HW2  933   4.119   6.234   6.969
   12SOL     OW  934   5.304   5.989   2.807
   12SOL    HW1  935   5.266   5.907   2.766
   12SOL    HW2  936   5.316   6.059   2.737
   13SOL     OW  937   1.835   0.273   3.562
   13SOL    HW1  938   1.736   0.276   3.566
   13SOL    HW2  939   1.872   0.253   3.653
   14SOL     OW  940   3.238   0.067   2.331
   14SOL    HW1  941   3.327   0.023   2.322
   14SOL    HW2  942   3.173   0.002   2.371
   15SOL     OW  943   2.327   6.710   6.256
   15SOL    HW1  944   2.307   6.806   6.236
   15SOL    HW2  945   2.254   6.652   6.221
   16SOL     OW  946   6.652   1.551   6.867
   16SOL    HW1  947   6.597   1.591   6.940
   16SOL    HW2  948   6.745   1.585   6.872
   17SOL     OW  949   4.870   6.207   3.546
   17SOL    HW1  950   4.919   6.217   3.632
   17SOL    HW2  951   4.779   6.248   3.554
   18SOL     OW  952   1.609   1.114   0.443
   18SOL    HW1  953   1.635   1.209   0.458
   18SOL    HW2  954   1.601   1.096   0.345
   19SOL     OW  955   0.613   6.917   1.682
   19SOL    HW1  956   0.656   6.847   1.738
   19SOL    HW2  957   0.673   6.997   1.677
   20SOL     OW  958   3.222   0.974   3.814
   20SOL    HW1  959   3.286   0.935   3.880
   20SOL    HW2  960   3.129   0.967   3.850
   21SOL     OW  961   2.851   2.777   1.400
   21SOL    HW1  962   2.873   2.683   1.426
   21SOL    HW2  963   2.931   2.835   1.416
   22SOL     OW  964   0.618   1.478   4.855
   22SOL    HW1  965   0.614   1.510   4.760
   22SOL    HW2  966   0.705   1.431   4.870
   23SOL     OW  967   3.417   5.781   4.436
   23SOL    HW1  968   3.373   5.714   4.378
   23SOL    HW2  969   3.399   5.873   4.402
   24SOL     OW  970   3.885   1.020   4.632
   24SOL    HW1  971   3.834   1.097   4.671
   24SOL    HW2  972   3.933   0.972   4.705
   25SOL     OW  973   2.759   4.377   1.190
   25SOL    HW1  974   2.827   4.376   1.117
   25SOL    HW2  975   2.776   4.455   1.250
   26SOL     OW  976   5.869   0.898   2.902
   26SOL    HW1  977   5.956   0.870   2.942
   26SOL    HW2  978   5.809   0.818   2.891
   27SOL     OW  979   6.163   6.370   1.860
   27SOL    HW1  980   6.105   6.294   1.830
   27SOL    HW2  981   6.255   6.359   1.823
   28SOL     OW  982   3.178   0.657   0.779
   28SOL    HW1  983   3.136   0.683   0.693
   28SOL    HW2  984   3.277   0.670   0.773
   29SOL     OW  985   4.022   2.599   1.576
   29SOL    HW1  986   4.038   2.661   1.498
   29SOL    HW2  987   3.972   2.648   1.647
   30SOL     OW  988   3.895   1.239   4.830
   30SOL    HW1  989   3.989   1.211   4.815
   30SOL    HW2  990   3.871   1.314   4.768
   31SOL     OW  991   0.424   1.270   4.900
   31SOL    HW1  992   0.363   1.270   4.978
   31SOL    HW2  993   0.474   1.357   4.897
   32SOL     OW  994   0.145   1.884   2.142
   32SOL    HW1  995   0.110   1.846   2.057
   32SOL    HW2  996   0.225   1.941   2.123
   33SOL     OW  997   1.729   2.119   5.077
   33SOL    HW1  998   1.750   2.083   5.168
   33SOL    HW2  999   1.690   2.046   5.020
   34SOL     OW 1000   0.896   0.525   4.515
   34SOL    HW1 1001   0.808   0.515   4.469
   34SOL    HW2 1002   0.898   0.464   4.595
   35SOL     OW 1003   4.094   1.763   6.334
   35SOL    HW1 1004   4.060   1.687   6.278
   35SOL    HW2 1005   4.186   1.788   6.304
   36SOL     OW 1006   1.384   1.673   5.786
   36SOL    HW1 1007   1.342   1.701   5.700
   36SOL    HW2 1008   1.481   1.697   5.785
   37SOL     OW 1009   2.248   6.556   0.788
   37SOL    HW1 1010   2.192   6.476   0.767
   37SOL    HW2 1011   2.189   6.635   0.806
   38SOL     OW 1012   0.063   6.441   1.792
   38SOL    HW1 1013   0.101   6.507   1.858
   38SOL    HW2 1014   0.112   6.354   1.800
   39SOL     OW 1015   6.965   2.782   5.936
   39SOL    HW1 1016   6.984   2.880   5.943
   39SOL    HW2 1017   6.866   2.767   5.937
   40SOL     OW 1018   6.793   0.787   1.451
   40SOL    HW1 1019   6.826   0.712   1.394
   40SOL    HW2 1020   6.854   0.798   1.530
   41SOL     OW 1021   1.535   0.571   5.795
   41SOL    HW1 1022   1.607   0.504   5.777
   41SOL    HW2 1023   1.569   0.662   5.774
   42SOL     OW 1024   4.129   0.396   0.487
   42SOL    HW1 1025   4.171   0.479   0.450
   42SOL    HW2 1026   4.111   0.333   0.412
   43SOL     OW 1027   5.237   5.684   5.222
   43SOL    HW1 1028   5.249   5.633   5.307
   43SOL    HW2 1029   5.168   5.639   5.165
   44SOL     OW 1030   0.652   3.364   6.563
   44SOL    HW1 1031   0.752   3.362   6.564
   44SOL    HW2 1032   0.618   3.270   6.571
   45SOL     OW 1033   2.668   0.595   1.631
   45SOL    HW1 1034   2.678   0.615   1.729
   45SOL    HW2 1035   2.630   0.504   1.619
   46SOL     OW 1036   1.398   4.865   3.904
   46SOL    HW1 1037   1.478   4.885   3.960
   46SOL    HW2 1038   1.335   4.807   3.955
   47SOL     OW 1039   5.452   4.367   3.020
   47SOL    HW1 1040   5.464   4.268   3.009
   47SOL    HW2 1041   5.528   4.415   2.976
   48SOL     OW 1042   0.769   1.145   5.597
   48SOL    HW1 1043   0.699   1.073   5.590
   48SOL    HW2 1044   0.806   1.164   5.506
   49SOL     OW 1045   5.400   2.482   0.642
   49SOL    HW1 1046   5.321   2.490   0.582
   49SOL    HW2 1047   5.384   2.410   0.710
   50SOL     OW 1048   6.970   3.934   4.508
   50SOL    HW1 1049   6.982   3.923   4.409
   50SOL    HW2 1050   6.959   3.845   4.551
   51SOL     OW 1051   3.142   5.644   2.696
   51SOL    HW1 1052   3.132   5.565   2.636
   51SOL    HW2 1053   3.225   5.634   2.751
   52SOL     OW 1054   1.104   1.975   1.517
   52SOL    HW1 1055   1.039   1.911   1.558
   52SOL    HW2 1056   1.121   1.949   1.422
   53SOL     OW 1057   5.002   6.148   4.294
   53SOL    HW1 1058   4.981   6.051   4.282
   53SOL    HW2 1059   4.917   6.201   4.292
   54SOL     OW 1060   4.207   5.680   6.194
   54SOL    HW1 1061   4.135   5.625   6.150
   54SOL    HW2 1062   4.278   5.619   6.229
   55SOL     OW 1063   3.768   2.305   0.328
   55SOL    HW1 1064   3.709   2.252   0.388
   55SOL    HW2 1065   3.855   2.256   0.315
   56SOL     OW 1066   0.875   6.638   1.576
   56SOL    HW1 1067   0.798   6.575   1.566
   56SOL    HW2 1068   0.928   6.613   1.657
   57SOL     OW 1069   5.849   1.223   0.835
   57SOL    HW1 1070   5.922   1.276   0.793
   57SOL    HW2 1071   5.760   1.258   0.806
   58SOL     OW 1072   6.779   0.041   6.621
   58SOL    HW1 1073   6.745   0.015   6.712
   58SOL    HW2 1074   6.876   0.016   6.615
   59SOL     OW 1075   0.882   0.085   5.025
   59SOL    HW1 1076   0.805   0.120   4.971
   59SOL    HW2 1077   0.871   0.113   5.120
   60SOL     OW 1078   4.777   6.749   5.156
   60SOL    HW1 1079   4.678   6.749   5.146
   60SOL    HW2 1080   4.805   6.828   5.211
   61SOL     OW 1081   3.972   0.573   5.125
   61SOL    HW1 1082   3.943   0.603   5.034
   61SOL    HW2 1083   3.948   0.477   5.137
   62SOL     OW 1084   2.831   1.297   4.885
   62SOL    HW1 1085   2.810   1.245   4.967
   62SOL    HW2 1086   2.929   1.294   4.866
   63SOL     OW 1087   7.009   3.656   3.316
   63SOL    HW1 1088   0.030   3.567   3.303
   63SOL    HW2 1089   6.936   3.646   3.384
   64SOL     OW 1090   6.612   2.518   5.674
   64SOL    HW1 1091   6.544   2.576   5.629
   64SOL    HW2 1092   6.597   2.423   5.648
   65SOL     OW 1093   0.167   3.574   5.807
   65SOL    HW1 1094   0.086   3.540   5.760
   65SOL    HW2 1095   0.230   3.613   5.740
   66SOL     OW 1096   2.766   1.228   0.971
   66SOL    HW1 1097   2.701   1.265   0.905
   66SOL    HW2 1098   2.832   1.299   0.996
   67SOL     OW 1099   4.663   5.643   3.961
   67SOL    HW1 1100   4.716   5.726   3.949
   67SOL    HW2 1101   4.699   5.571   3.902
   68SOL     OW 1102   5.450   2.819   6.492
   68SOL    HW1 1103   5.376   2.761   6.526
   68SOL    HW2 1104   5.412   2.903   6.453
   69SOL     OW 1105   2.322   2.918   5.980
   69SOL    HW1 1106   2.341   2.950   5.887
   69SOL    HW2 1107   2.377   2.971   6.045
   70SOL     OW 1108   6.741   5.646   1.805
   70SOL    HW1 1109   6.689   5.561   1.804
   70SOL    HW2 1110   6.679   5.723   1.819
   71SOL     OW 1111   2.082   3.154   3.090
   71SOL    HW1 1112   1.992   3.164   3.047
   71SOL    HW2 1113   2.114   3.243   3.123
   72SOL     OW 1114   3.188   5.690   4.129
   72SOL    HW1 1115   3.155   5.709   4.222
   72SOL    HW2 1116   3.180   5.773   4.074
   73SOL     OW 1117   4.290   2.568   6.434
   73SOL    HW1 1118   4.274   2.658   6.474
   73SOL    HW2 1119   4.313   2.502   6.506
   74SOL     OW 1120   5.219   6.142   6.323
   74SOL    HW1 1121   5.284   6.182   6.259
   74SOL    HW2 1122   5.267   6.114   6.406
   75SOL     OW 1123   4.005   4.887   5.144
   75SOL    HW1 1124   3.977   4.960   5.082
   75SOL    HW2 1125   3.939   4.812   5.140
   76SOL     OW 1126   2.533   3.133   1.280
   76SOL    HW1 1127   2.448   3.155   1.327
   76SOL    HW2 1128   2.548   3.198   1.205
   77SOL     OW 1129   5.332   4.896   6.428
   77SOL    HW1 1130   5.250   4.875   6.375
   77SOL    HW2 1131   5.411   4.902   6.367
   78SOL     OW 1132   6.617   6.559   6.267
   78SOL    HW1 1133   6.701   6.533   6.219
   78SOL    HW2 1134   6.621   6.524   6.361
   79SOL     OW 1135   3.477   6.984   6.806
   79SOL    HW1 1136   3.567   6.942   6.811
   79SOL    HW2 1137   3.407   6.917   6.832
   80SOL     OW 1138   0.373   1.268   4.074
   80SOL    HW1 1139   0.339   1.350   4.121
   80SOL    HW2 1140   0.408   1.203   4.142
   81SOL     OW 1141   1.505   0.075   4.156
   81SOL    HW1 1142   1.416   0.036   4.179
   81SOL    HW2 1143   1.573   0.002   4.147
   82SOL     OW 1144   6.955   4.433   5.471
   82SOL    HW1 1145   6.933   4.415   5.375
   82SOL    HW2 1146   6.881   4.398   5.529
   83SOL     OW 1147   6.657   0.263   6.885
   83SOL    HW1 1148   6.665   0.171   6.847
   83SOL    HW2 1149   6.695   0.329   6.821
   84SOL     OW 1150   5.997   3.398   1.761
   84SOL    HW1 1151   6.020   3.408   1.858
   84SOL    HW2 1152   6.078   3.417   1.706
   85SOL     OW 1153   0.202   1.959   5.384
   85SOL    HW1 1154   0.117   1.941   5.335
   85SOL    HW2 1155   0.277   1.967   5.319
   86SOL     OW 1156   1.757   0.963   4.848
   86SOL    HW1 1157   1.682   1.010   4.802
   86SOL    HW2 1158   1.747   0.864   4.835
   87SOL     OW 1159   4.151   0.786   1.424
   87SOL    HW1 1160   4.105   0.702   1.453
   87SOL    HW2 1161   4.244   0.788   1.461
   88SOL     OW 1162   5.371   0.432   0.221
   88SOL    HW1 1163   5.360   0.400   0.315
   88SOL    HW2 1164   5.390   0.530   0.221
   89SOL     OW 1165   1.990   1.721   5.640
   89SOL    HW1 1166   1.921   1.762   5.699
   89SOL    HW2 1167   2.035   1.792   5.586
   90SOL     OW 1168   6.313   5.852   3.822
   90SOL    HW1 1169   6.376   5.904   3.878
   90SOL    HW2 1170   6.357   5.829   3.735
   91SOL     OW 1171   4.830   4.774   4.594
   91SOL    HW1 1172   4.832   4.753   4.692
   91SOL    HW2 1173   4.753   4.835   4.575
   92SOL     OW 1174   2.833   6.390   1.234
   92SOL    HW1 1175   2.736   6.366   1.228
   92SOL    HW2 1176   2.843   6.480   1.276
   93SOL     OW 1177   3.845   4.937   5.791
   93SOL    HW1 1178   3.800   5.022   5.818
   93SOL    HW2 1179   3.941   4.955   5.771
   94SOL     OW 1180   2.324   6.060   1.072
   94SOL    HW1 1181   2.324   5.988   1.142
   94SOL    HW2 1182   2.261   6.133   1.099
   95SOL     OW 1183   6.469   6.899   4.948
   95SOL    HW1 1184   6.438   6.866   4.859
   95SOL    HW2 1185   6.567   6.918   4.944
   96SOL     OW 1186   1.096   6.836   5.145
   96SOL    HW1 1187   1.136   6.756   5.099
   96SOL    HW2 1188   1.158   6.866   5.218
   97SOL     OW 1189   6.367   2.826   5.077
   97SOL    HW1 1190   6.423   2.905   5.052
   97SOL    HW2 1191   6.403   2.744   5.031
   98SOL     OW 1192   5.887   2.379   5.931
   98SOL    HW1 1193   5.930   2.310   5.989
   98SOL    HW2 1194   5.899   2.354   5.835
   99SOL     OW 1195   4.279   2.306   1.219
   99SOL    HW1 1196   4.237   2.246   1.151
   99SOL    HW2 1197   4.371   2.273   1.240
  100SOL     OW 1198   6.182   4.738   6.640
  100SOL    HW1 1199   6.088   4.754   6.670
  100SOL    HW2 1200   6.244   4.743   6.718
  101SOL     OW 1201   1.078   6.611   4.286
  101SOL    HW1 1202   1.037   6.650   4.203
  101SOL    HW2 1203   1.122   6.524   4.264
  102SOL     OW 1204   4.910   0.263   3.380
  102SOL    HW1 1205   4.813   0.239   3.376
  102SOL    HW2 1206   4.946   0.242   3.470
  103SOL     OW 1207   3.669   1.839   1.431
  103SOL    HW1 1208   3.692   1.827   1.528
  103SOL    HW2 1209   3.687   1.754   1.382
  104SOL     OW 1210   0.070   5.694   1.486
  104SOL    HW1 1211   0.160   5.683   1.529
  104SOL    HW2 1212   0.001   5.649   1.543
  105SOL     OW 1213   5.149   1.740   5.325
  105SOL    HW1 1214   5.184   1.799   5.398
  105SOL    HW2 1215   5.082   1.676   5.363
  106SOL     OW 1216   3.700   6.708   0.436
  106SOL    HW1 1217   3.779   6.649   0.451
  106SOL    HW2 1218   3.730   6.792   0.391
  107SOL     OW 1219   2.274   3.269   1.400
  107SOL    HW1 1220   2.216   3.188   1.414
  107SOL    HW2 1221   2.319   3.293   1.486
  108SOL     OW 1222   4.904   4.171   5.651
  108SOL    HW1 1223   4.805   4.168   5.636
  108SOL    HW2 1224   4.951   4.172   5.563
  109SOL     OW 1225   6.267   0.788   1.377
  109SOL    HW1 1226   6.201   0.862   1.393
  109SOL    HW2 1227   6.325   0.778   1.458
  110SOL     OW 1228   3.007   5.892   5.376
  110SOL    HW1 1229   3.058   5.948   5.311
  110SOL    HW2 1230   3.065   5.873   5.456
  111SOL     OW 1231   4.041   1.245   3.242
  111SOL    HW1 1232   4.104   1.312   3.281
  111SOL    HW2 1233   3.961   1.236   3.301
  112SOL     OW 1234   0.282   1.472   6.521
  112SOL    HW1 1235   0.286   1.496   6.618
  112SOL    HW2 1236   0.262   1.553   6.467
  113SOL     OW 1237   6.816   5.878   3.829
  113SOL    HW1 1238   6.916   5.877   3.824
  113SOL    HW2 1239   6.778   5.863   3.738
  114SOL     OW 1240   0.528   6.731   6.789
  114SOL    HW1 1241   0.488   6.703   6.877
  114SOL    HW2 1242   0.597   6.802   6.805
  115SOL     OW 1243   5.145   0.964   4.845
  115SOL    HW1 1244   5.220   1.028   4.863
  115SOL    HW2 1245   5.093   0.951   4.930
  116SOL     OW 1246   5.962   4.604   2.668
  116SOL    HW1 1247   5.905   4.526   2.693
  116SOL    HW2 1248   6.022   4.580   2.592
  117SOL     OW 1249   1.304   6.568   6.256
  117SOL    HW1 1250   1.375   6.636   6.271
  117SOL    HW2 1251   1.301   6.505   6.334
  118SOL     OW 1252   1.512   0.603   2.286
  118SOL    HW1 1253   1.592   0.659   2.308
  118SOL    HW2 1254   1.476   0.561   2.369
  119SOL     OW 1255   6.826   2.949   6.200
  119SOL    HW1 1256   6.744   3.005   6.211
  119SOL    HW2 1257   6.907   3.008   6.195
  120SOL     OW 1258   5.547   6.428   1.380
  120SOL    HW1 1259   5.647   6.424   1.382
  120SOL    HW2 1260   5.510   6.338   1.405
  121SOL     OW 1261   3.096   3.330   5.868
  121SOL    HW1 1262   3.059   3.371   5.785
  121SOL    HW2 1263   3.189   3.363   5.883
  122SOL     OW 1264   0.374   3.193   4.663
  122SOL    HW1 1265   0.312   3.154   4.732
  122SOL    HW2 1266   0.321   3.233   4.589
  123SOL     OW 1267   0.934   1.837   1.682
  123SOL    HW1 1268   0.868   1.762   1.688
  123SOL    HW2 1269   0.964   1.863   1.774
  124SOL     OW 1270   4.638   3.093   0.617
  124SOL    HW1 1271   4.558   3.154   0.615
  124SOL    HW2 1272   4.716   3.138   0.575
  125SOL     OW 1273   2.082   3.440   1.743
  125SOL    HW1 1274   2.143   3.503   1.793
  125SOL    HW2 1275   2.097   3.347   1.776
  126SOL     OW 1276   3.479   4.548   1.224
  126SOL    HW1 1277   3.479   4.636   1.272
  126SOL    HW2 1278   3.385   4.523   1.200
  127SOL     OW 1279   0.758   5.282   5.842
  127SOL    HW1 1280   0.733   5.341   5.766
  127SOL    HW2 1281   0.808   5.203   5.808
  128SOL     OW 1282   4.494   2.570   1.830
  128SOL    HW1 1283   4.527   2.639   1.766
  128SOL    HW2 1284   4.403   2.540   1.803
  129SOL     OW 1285   2.800   3.595   6.136
  129SOL    HW1 1286   2.829   3.646   6.056
  129SOL    HW2 1287   2.843   3.633   6.218
  130SOL     OW 1288   1.335   2.390   4.489
  130SOL    HW1 1289   1.237   2.395   4.506
  130SOL    HW2 1290   1.364   2.467   4.432
  131SOL     OW 1291   5.400   2.013   2.859
  131SOL    HW1 1292   5.407   2.113   2.866
  131SOL    HW2 1293   5.320   1.982   2.911
  132SOL     OW 1294   0.415   2.531   0.900
  132SOL    HW1 1295   0.492   2.594   0.888
  132SOL    HW2 1296   0.329   2.581   0.888
  133SOL     OW 1297   6.306   5.404   2.035
  133SOL    HW1 1298   6.234   5.388   2.102
  133SOL    HW2 1299   6.284   5.357   1.950
  134SOL     OW 1300   0.648   4.145   2.557
  134SOL    HW1 1301   0.741   4.107   2.547
  134SOL    HW2 1302   0.581   4.071   2.548
  135SOL     OW 1303   4.451   1.582   3.919
  135SOL    HW1 1304   4.365   1.581   3.868
  135SOL    HW2 1305   4.445   1.647   3.994
  136SOL     OW 1306   5.326   4.575   5.479
  136SOL    HW1 1307   5.274   4.497   5.512
  136SOL    HW2 1308   5.395   4.600   5.546
  137SOL     OW 1309   3.657   0.476   5.735
  137SOL    HW1 1310   3.613   0.472   5.645
  137SOL    HW2 1311   3.751   0.510   5.725
  138SOL     OW 1312   6.360   5.177   4.742
  138SOL    HW1 1313   6.403   5.204   4.827
  138SOL    HW2 1314   6.261   5.185   4.751
  139SOL     OW 1315   3.707   5.554   5.468
  139SOL    HW1 1316   3.713   5.640   5.418
  139SOL    HW2 1317   3.677   5.572   5.562
  140SOL     OW 1318   6.242   4.454   4.741
  140SOL    HW1 1319   6.154   4.454   4.790
  140SOL    HW2 1320   6.302   4.524   4.781
  141SOL     OW 1321   1.501   2.325   3.002
  141SOL    HW1 1322   1.529   2.310   2.908
  141SOL    HW2 1323   1.580   2.356   3.056
  142SOL     OW 1324   1.433   5.727   1.189
  142SOL    HW1 1325   1.353   5.788   1.189
  142SOL    HW2 1326   1.420   5.657   1.259
  143SOL     OW 1327   5.173   4.008   1.774
  143SOL    HW1 1328   5.123   3.953   1.707
  143SOL    HW2 1329   5.201   4.094   1.732
  144SOL     OW 1330   2.369   6.070   0.599
  144SOL    HW1 1331   2.335   6.164   0.607
  144SOL    HW2 1332   2.293   6.006   0.613
  145SOL     OW 1333   6.755   5.403   0.433
  145SOL    HW1 1334   6.790   5.492   0.461
  145SOL    HW2 1335   6.681   5.376   0.495
  146SOL     OW 1336   6.269   4.974   0.609
  146SOL    HW1 1337   6.303   4.966   0.516
  146SOL    HW2 1338   6.200   5.046   0.614
  147SOL     OW 1339   5.877   2.424   1.513
  147SOL    HW1 1340   5.867   2.457   1.607
  147SOL    HW2 1341   5.787   2.400   1.477
  148SOL     OW 1342   1.144   4.936   5.801
  148SOL    HW1 1343   1.116   4.993   5.878
  148SOL    HW2 1344   1.100   4.846   5.809
  149SOL     OW 1345   3.223   1.234   5.879
  149SOL    HW1 1346   3.177   1.147   5.896
  149SOL    HW2 1347   3.240   1.244   5.782
  150SOL     OW 1348   0.454   5.824   6.078
  150SOL    HW1 1349   0.414   5.851   6.166
  150SOL    HW2 1350   0.405   5.745   6.042
  151SOL     OW 1351   3.654   0.828   1.587
  151SOL    HW1 1352   3.707   0.854   1.507
  151SOL    HW2 1353   3.558   0.848   1.572
  152SOL     OW 1354   3.141   0.947   4.824
  152SOL    HW1 1355   3.112   1.011   4.896
  152SOL    HW2 1356   3.087   0.964   4.742
  153SOL     OW 1357   1.582   0.920   3.371
  153SOL    HW1 1358   1.581   1.015   3.340
  153SOL    HW2 1359   1.618   0.915   3.464
  154SOL     OW 1360   6.634   2.109   2.982
  154SOL    HW1 1361   6.725   2.080   2.952
  154SOL    HW2 1362   6.565   2.047   2.944
  155SOL     OW 1363   0.236   0.897   2.833
  155SOL    HW1 1364   0.267   0.847   2.914
  155SOL    HW2 1365   0.219   0.993   2.857
  156SOL     OW 1366   0.088   2.345   1.306
  156SOL    HW1 1367   0.014   2.280   1.323
  156SOL    HW2 1368   0.071   2.393   1.220
  157SOL     OW 1369   6.057   3.330   2.725
  157SOL    HW1 1370   6.013   3.244   2.753
  157SOL    HW2 1371   6.041   3.400   2.794
  158SOL     OW 1372   1.232   1.492   3.553
  158SOL    HW1 1373   1.247   1.535   3.642
  158SOL    HW2 1374   1.199   1.399   3.566
  159SOL     OW 1375   4.961   3.452   2.261
  159SOL    HW1 1376   4.942   3.379   2.196
  159SOL    HW2 1377   4.960   3.540   2.214
  160SOL     OW 1378   6.764   4.344   5.636
  160SOL    HW1 1379   6.711   4.426   5.658
  160SOL    HW2 1380   6.791   4.298   5.721
  161SOL     OW 1381   3.743   4.781   5.331
  161SOL    HW1 1382   3.663   4.818   5.282
  161SOL    HW2 1383   3.722   4.774   5.428
  162SOL     OW 1384   4.605   6.263   2.084
  162SOL    HW1 1385   4.683   6.200   2.084
  162SOL    HW2 1386   4.585   6.291   2.178
  163SOL     OW 1387   5.516   0.689   1.851
  163SOL    HW1 1388   5.484   0.675   1.945
  163SOL    HW2 1389   5.492   0.782   1.822
  164SOL     OW 1390   6.345   3.362   1.103
  164SOL    HW1 1391   6.311   3.326   1.190
  164SOL    HW2 1392   6.267   3.386   1.044
  165SOL     OW 1393   5.464   3.998   6.308
  165SOL    HW1 1394   5.428   3.913   6.346
  165SOL    HW2 1395   5.464   3.992   6.208
  166SOL     OW 1396   1.694   0.701   1.617
  166SOL    HW1 1397   1.692   0.801   1.615
  166SOL    HW2 1398   1.633   0.667   1.688
  167SOL     OW 1399   6.430   3.493   0.413
  167SOL    HW1 1400   6.500   3.451   0.471
  167SOL    HW2 1401   6.423   3.590   0.436
  168SOL     OW 1402   2.688   5.753   1.640
  168SOL    HW1 1403   2.635   5.773   1.723
  168SOL    HW2 1404   2.695   5.654   1.627
  169SOL     OW 1405   0.874   0.063   1.655
  169SOL    HW1 1406   0.833   0.153   1.673
  169SOL    HW2 1407   0.966   0.060   1.695
  170SOL     OW 1408   0.611   1.623   3.084
  170SOL    HW1 1409   0.608   1.688   3.007
  170SOL    HW2 1410   0.538   1.556   3.074
  171SOL     OW 1411   3.366   3.689   0.505
  171SOL    HW1 1412   3.442   3.739   0.464
  171SOL    HW2 1413   3.333   3.620   0.441
  172SOL     OW 1414   6.895   2.810   0.800
  172SOL    HW1 1415   6.836   2.877   0.755
  172SOL    HW2 1416   6.945   2.758   0.730
  173SOL     OW 1417   0.389   6.155   5.908
  173SOL    HW1 1418   0.294   6.124   5.902
  173SOL    HW2 1419   0.448   6.093   5.857
  174SOL     OW 1420   2.738   5.615   3.491
  174SOL    HW1 1421   2.716   5.527   3.532
  174SOL    HW2 1422   2.835   5.618   3.468
  175SOL     OW 1423   0.737   5.676   2.891
  175SOL    HW1 1424   0.670   5.697   2.963
  175SOL    HW2 1425   0.694   5.618   2.822
  176SOL     OW 1426   3.029   5.536   0.895
  176SOL    HW1 1427   3.026   5.445   0.936
  176SOL    HW2 1428   3.019   5.527   0.795
  177SOL     OW 1429   4.298   2.312   3.090
  177SOL    HW1 1430   4.346   2.340   3.008
  177SOL    HW2 1431   4.349   2.341   3.171
  178SOL     OW 1432   5.858   4.263   6.325
  178SOL    HW1 1433   5.811   4.235   6.408
  178SOL    HW2 1434   5.859   4.187   6.260
  179SOL     OW 1435   2.853   0.302   0.728
  179SOL    HW1 1436   2.841   0.216   0.678
  179SOL    HW2 1437   2.940   0.343   0.703
  180SOL     OW 1438   1.448   2.243   6.440
  180SOL    HW1 1439   1.432   2.339   6.420
  180SOL    HW2 1440   1.383   2.186   6.390
  181SOL     OW 1441   3.101   3.006   5.237
  181SOL    HW1 1442   3.179   2.946   5.218
  181SOL    HW2 1443   3.086   3.067   5.159
  182SOL     OW 1444   4.773   2.757   5.324
  182SOL    HW1 1445   4.698   2.823   5.318
  182SOL    HW2 1446   4.809   2.755   5.417
  183SOL     OW 1447   5.372   1.750   2.084
  183SOL    HW1 1448   5.298   1.696   2.044
  183SOL    HW2 1449   5.353   1.767   2.181
  184SOL     OW 1450   0.212   4.776   3.316
  184SOL    HW1 1451   0.121   4.734   3.309
  184SOL    HW2 1452   0.244   4.802   3.226
  185SOL     OW 1453   2.862   3.379   6.440
  185SOL    HW1 1454   2.787   3.340   6.494
  185SOL    HW2 1455   2.842   3.475   6.419
  186SOL     OW 1456   6.144   6.472   3.400
  186SOL    HW1 1457   6.171   6.526   3.320
  186SOL    HW2 1458   6.045   6.465   3.404
  187SOL     OW 1459   5.568   1.092   3.797
  187SOL    HW1 1460   5.512   1.009   3.799
  187SOL    HW2 1461   5.542   1.147   3.718
  188SOL     OW 1462   6.445   2.668   3.975
  188SOL    HW1 1463   6.511   2.693   3.904
  188SOL    HW2 1464   6.375   2.609   3.937
  189SOL     OW 1465   2.122   3.976   2.585
  189SOL    HW1 1466   2.184   3.951   2.510
  189SOL    HW2 1467   2.070   4.058   2.559
  190SOL     OW 1468   3.437   1.410   6.670
  190SOL    HW1 1469   3.399   1.407   6.763
  190SOL    HW2 1470   3.468   1.318   6.644
  191SOL     OW 1471   4.381   6.087   5.659
  191SOL    HW1 1472   4.473   6.051   5.647
  191SOL    HW2 1473   4.373   6.129   5.750
  192SOL     OW 1474   0.212   0.093   1.170
  192SOL    HW1 1475   0.258   0.015   1.128
  192SOL    HW2 1476   0.119   0.101   1.133
  193SOL     OW 1477   5.478   4.741   6.944
  193SOL    HW1 1478   5.564   4.755   6.896
  193SOL    HW2 1479   5.420   4.680   6.891
  194SOL     OW 1480   4.299   6.813   4.679
  194SOL    HW1 1481   4.270   6.727   4.721
  194SOL    HW2 1482   4.239   6.835   4.602
  195SOL     OW 1483   6.691   5.193   3.440
  195SOL    HW1 1484   6.654   5.209   3.349
  195SOL    HW2 1485   6.734   5.278   3.473
  196SOL     OW 1486   1.046   1.355   1.090
  196SOL    HW1 1487   1.025   1.451   1.107
  196SOL    HW2 1488   1.140   1.336   1.118
  197SOL     OW 1489   2.227   1.102   0.791
  197SOL    HW1 1490   2.302   1.036   0.805
  197SOL    HW2 1491   2.184   1.122   0.879
  198SOL     OW 1492   2.860   0.990   3.348
  198SOL    HW1 1493   2.856   1.005   3.249
  198SOL    HW2 1494   2.954   0.968   3.375
  199SOL     OW 1495   0.830   1.659   4.128
  199SOL    HW1 1496   0.787   1.646   4.038
  199SOL    HW2 1497   0.885   1.578   4.150
  200SOL     OW 1498   6.754   2.507   0.311
  200SOL    HW1 1499   6.700   2.475   0.389
  200SOL    HW2 1500   6.734   2.451   0.231
  201SOL     OW 1501   0.544   0.929   6.405
  201SOL    HW1 1502   0.547   0.981   6.491
  201SOL    HW2 1503   0.591   0.842   6.417
  202SOL     OW 1504   4.807   0.118   0.753
  202SOL    HW1 1505   4.716   0.091   0.722
  202SOL    HW2 1506   4.827   0.074   0.841
  203SOL     OW 1507   6.131   2.961   6.275
  203SOL    HW1 1508   6.223   2.932   6.251
  203SOL    HW2 1509   6.069   2.883   6.273
  204SOL     OW 1510   6.171   0.916   5.171
  204SOL    HW1 1511   6.193   0.881   5.080
  204SOL    HW2 1512   6.186   0.844   5.239
  205SOL     OW 1513   2.130   3.619   2.978
  205SOL    HW1 1514   2.054   3.644   2.918
  205SOL    HW2 1515   2.171   3.701   3.017
  206SOL     OW 1516   0.045   3.250   0.265
  206SOL    HW1 1517   7.010   3.183   0.311
  206SOL    HW2 1518   0.105   3.293   0.333
  207SOL     OW 1519   5.903   2.853   4.696
  207SOL    HW1 1520   5.879   2.950   4.702
  207SOL    HW2 1521   5.995   2.839   4.731
  208SOL     OW 1522   1.110   3.487   5.240
  208SOL    HW1 1523   1.176   3.561   5.230
  208SOL    HW2 1524   1.152   3.410   5.287
  209SOL     OW 1525   6.882   4.791   2.713
  209SOL    HW1 1526   6.944   4.850   2.661
  209SOL    HW2 1527   6.788   4.823   2.701
  210SOL     OW 1528   4.474   2.945   0.131
  210SOL    HW1 1529   4.509   3.029   0.172
  210SOL    HW2 1530   4.390   2.965   0.080
  211SOL     OW 1531   0.604   1.480   2.485
  211SOL    HW1 1532   0.541   1.422   2.535
  211SOL    HW2 1533   0.581   1.478   2.387
  212SOL     OW 1534   2.218   3.902   2.356
  212SOL    HW1 1535   2.272   3.948   2.286
  212SOL    HW2 1536   2.176   3.819   2.317
  213SOL     OW 1537   0.969   4.789   0.984
  213SOL    HW1 1538   0.940   4.786   0.888
  213SOL    HW2 1539   0.944   4.877   1.024
  214SOL     OW 1540   5.526   6.207   1.820
  214SOL    HW1 1541   5.575   6.185   1.904
  214SOL    HW2 1542   5.510   6.124   1.767
  215SOL     OW 1543   2.498   5.534   3.405
  215SOL    HW1 1544   2.587   5.576   3.423
  215SOL    HW2 1545   2.449   5.521   3.491
  216SOL     OW 1546   1.082   6.437   2.793
  216SOL    HW1 1547   1.111   6.365   2.730
  216SOL    HW2 1548   1.149   6.511   2.792
  217SOL     OW 1549   0.939   4.493   5.827
  217SOL    HW1 1550   0.873   4.432   5.783
  217SOL    HW2 1551   1.019   4.505   5.768
  218SOL     OW 1552   2.266   1.894   5.181
  218SOL    HW1 1553   2.188   1.873   5.123
  218SOL    HW2 1554   2.290   1.813   5.235
  219SOL     OW 1555   4.337   1.973   1.441
  219SOL    HW1 1556   4.296   2.035   1.508
  219SOL    HW2 1557   4.377   1.895   1.488
  220SOL     OW 1558   3.071   6.693   1.124
  220SOL    HW1 1559   3.133   6.616   1.139
  220SOL    HW2 1560   3.121   6.769   1.085
  221SOL     OW 1561   5.298   4.510   1.896
  221SOL    HW1 1562   5.204   4.544   1.903
  221SOL    HW2 1563   5.358   4.563   1.956
  222SOL     OW 1564   2.377   4.853   6.387
  222SOL    HW1 1565   2.448   4.913   6.348
  222SOL    HW2 1566   2.337   4.898   6.467
  223SOL     OW 1567   6.087   2.436   5.097
  223SOL    HW1 1568   6.026   2.426   5.175
  223SOL    HW2 1569   6.094   2.349   5.049
  224SOL     OW 1570   2.683   2.004   5.498
  224SOL    HW1 1571   2.681   1.911   5.463
  224SOL    HW2 1572   2.590   2.040   5.503
  225SOL     OW 1573   3.751   6.360   6.018
  225SOL    HW1 1574   3.777   6.435   6.080
  225SOL    HW2 1575   3.652   6.355   6.012
  226SOL     OW 1576   1.399   2.509   6.338
  226SOL    HW1 1577   1.332   2.517   6.265
  226SOL    HW2 1578   1.490   2.529   6.302
  227SOL     OW 1579   1.774   3.466   1.456
  227SOL    HW1 1580   1.815   3.505   1.538
  227SOL    HW2 1581   1.748   3.539   1.393
  228SOL     OW 1582   1.358   0.154   2.449
  228SOL    HW1 1583   1.356   0.174   2.547
  228SOL    HW2 1584   1.358   0.055   2.436
  229SOL     OW 1585   3.845   6.538   6.212
  229SOL    HW1 1586   3.801   6.561   6.298
  229SOL    HW2 1587   3.897   6.618   6.179
  230SOL     OW 1588   5.800   5.527   5.804
  230SOL    HW1 1589   5.710   5.543   5.762
  230SOL    HW2 1590   5.855   5.470   5.743
  231SOL     OW 1591   5.207   1.610   6.781
  231SOL    HW1 1592   5.159   1.548   6.719
  231SOL    HW2 1593   5.165   1.606   6.872
  232SOL     OW 1594   1.200   1.596   5.995
  232SOL    HW1 1595   1.104   1.608   5.969
  232SOL    HW2 1596   1.259   1.628   5.921
  233SOL     OW 1597   3.410   1.749   3.231
  233SOL    HW1 1598   3.490   1.753   3.290
  233SOL    HW2 1599   3.386   1.841   3.200
  234SOL     OW 1600   4.691   0.667   0.562
  234SOL    HW1 1601   4.751   0.590   0.541
  234SOL    HW2 1602   4.597   0.643   0.540
  235SOL     OW 1603   4.829   3.046   2.833
  235SOL    HW1 1604   4.762   2.982   2.872
  235SOL    HW2 1605   4.867   3.102   2.907
  236SOL     OW 1606   4.142   4.892   6.245
  236SOL    HW1 1607   4.174   4.984   6.222
  236SOL    HW2 1608   4.087   4.856   6.170
  237SOL     OW 1609   6.192   3.431   3.391
  237SOL    HW1 1610   6.284   3.470   3.392
  237SOL    HW2 1611   6.194   3.343   3.343
  238SOL     OW 1612   6.641   2.057   0.712
  238SOL    HW1 1613   6.719   2.095   0.663
  238SOL    HW2 1614   6.567   2.037   0.647
  239SOL     OW 1615   1.322   3.326   0.105
  239SOL    HW1 1616   1.269   3.242   0.118
  239SOL    HW2 1617   1.311   3.384   0.185
  240SOL     OW 1618   4.874   3.548   3.194
  240SOL    HW1 1619   4.971   3.525   3.203
  240SOL    HW2 1620   4.843   3.594   3.277
  241SOL     OW 1621   2.613   2.187   4.086
  241SOL    HW1 1622   2.552   2.115   4.053
  241SOL    HW2 1623   2.696   2.189   4.031
  242SOL     OW 1624   3.518   3.791   2.318
  242SOL    HW1 1625   3.552   3.846   2.243
  242SOL    HW2 1626   3.567   3.814   2.402
  243SOL     OW 1627   3.760   2.653   5.980
  243SOL    HW1 1628   3.808   2.734   5.947
  243SOL    HW2 1629   3.815   2.571   5.961
  244SOL     OW 1630   4.790   3.146   5.148
  244SOL    HW1 1631   4.768   3.241   5.170
  244SOL    HW2 1632   4.806   3.138   5.050
  245SOL     OW 1633   4.284   1.154   3.176
  245SOL    HW1 1634   4.289   1.116   3.083
  245SOL    HW2 1635   4.196   1.200   3.188
  246SOL     OW 1636   6.153   1.364   2.024
  246SOL    HW1 1637   6.142   1.268   1.999
  246SOL    HW2 1638   6.184   1.416   1.944
  247SOL     OW 1639   1.512   1.450   1.375
  247SOL    HW1 1640   1.469   1.413   1.458
  247SOL    HW2 1641   1.526   1.376   1.309
  248SOL     OW 1642   2.138   2.828   2.051
  248SOL    HW1 1643   2.136   2.928   2.053
  248SOL    HW2 1644   2.202   2.794   2.119
  249SOL     OW 1645   4.821   5.942   4.904
  249SOL    HW1 1646   4.844   6.002   4.827
  249SOL    HW2 1647   4.739   5.889   4.881
  250SOL     OW 1648   4.077   2.640   0.299
  250SOL    HW1 1649   4.139   2.564   0.286
  250SOL    HW2 1650   4.000   2.611   0.357
  251SOL     OW 1651   3.850   4.201   5.619
  251SOL    HW1 1652   3.775   4.172   5.559
  251SOL    HW2 1653   3.854   4.141   5.698
  252SOL     OW 1654   6.768   6.325   5.834
  252SOL    HW1 1655   6.704   6.398   5.813
  252SOL    HW2 1656   6.840   6.322   5.765
  253SOL     OW 1657   4.038   6.326   6.204
  253SOL    HW1 1658   4.091   6.339   6.120
  253SOL    HW2 1659   3.958   6.386   6.203
  254SOL     OW 1660   5.709   2.549   5.534
  254SOL    HW1 1661   5.696   2.647   5.516
  254SOL    HW2 1662   5.804   2.533   5.563
  255SOL     OW 1663   1.571   4.017   6.408
  255SOL    HW1 1664   1.663   4.012   6.367
  255SOL    HW2 1665   1.553   4.111   6.437
  256SOL     OW 1666   4.880   2.401   5.411
  256SOL    HW1 1667   4.947   2.471   5.436
  256SOL    HW2 1668   4.819   2.437   5.341
  257SOL     OW 1669   5.046   6.819   2.320
  257SOL    HW1 1670   5.007   6.842   2.409
  257SOL    HW2 1671   4.973   6.818   2.251
  258SOL     OW 1672   1.369   3.269   6.139
  258SOL    HW1 1673   1.439   3.270   6.068
  258SOL    HW2 1674   1.303   3.196   6.120
  259SOL     OW 1675   3.722   6.726   4.074
  259SOL    HW1 1676   3.730   6.655   4.003
  259SOL    HW2 1677   3.785   6.706   4.148
  260SOL     OW 1678   3.960   5.256   3.485
  260SOL    HW1 1679   3.988   5.274   3.579
  260SOL    HW2 1680   3.860   5.244   3.482
  261SOL     OW 1681   4.228   4.766   0.693
  261SOL    HW1 1682   4.288   4.709   0.749
  261SOL    HW2 1683   4.166   4.818   0.752
  262SOL     OW 1684   1.195   4.071   6.460
  262SOL    HW1 1685   1.259   4.000   6.490
  262SOL    HW2 1686   1.153   4.043   6.373
  263SOL     OW 1687   0.752   6.852   4.354
  263SOL    HW1 1688   0.670   6.909   4.354
  263SOL    HW2 1689   0.801   6.864   4.441
  264SOL     OW 1690   6.398   3.355   6.210
  264SOL    HW1 1691   6.299   3.346   6.217
  264SOL    HW2 1692   6.440   3.331   6.297
  265SOL     OW 1693   6.530   0.308   4.035
  265SOL    HW1 1694   6.555   0.311   3.938
  265SOL    HW2 1695   6.434   0.332   4.045
  266SOL     OW 1696   3.777   0.897   5.846
  266SOL    HW1 1697   3.724   0.960   5.789
  266SOL    HW2 1698   3.830   0.949   5.912
  267SOL     OW 1699   1.817   0.793   4.114
  267SOL    HW1 1700   1.843   0.855   4.188
  267SOL    HW2 1701   1.821   0.842   4.026
  268SOL     OW 1702   3.156   2.578   1.229
  268SOL    HW1 1703   3.238   2.588   1.171
  268SOL    HW2 1704   3.181   2.595   1.324
  269SOL     OW 1705   4.016   2.199   0.310
  269SOL    HW1 1706   4.006   2.107   0.273
  269SOL    HW2 1707   4.018   2.195   0.410
  270SOL     OW 1708   5.503   1.061   6.837
  270SOL    HW1 1709   5.453   1.146   6.822
  270SOL    HW2 1710   5.598   1.072   6.809
  271SOL     OW 1711   1.042   3.247   6.754
  271SOL    HW1 1712   1.077   3.313   6.820
  271SOL    HW2 1713   1.009   3.295   6.672
  272SOL     OW 1714   3.220   6.114   3.643
  272SOL    HW1 1715   3.245   6.198   3.595
  272SOL    HW2 1716   3.231   6.036   3.581
  273SOL     OW 1717   2.100   4.911   6.089
  273SOL    HW1 1718   2.195   4.886   6.066
  273SOL    HW2 1719   2.039   4.837   6.061
  274SOL     OW 1720   4.981   2.674   4.013
  274SOL    HW1 1721   4.948   2.677   3.919
  274SOL    HW2 1722   4.981   2.580   4.046
  275SOL     OW 1723   6.413   6.104   1.433
  275SOL    HW1 1724   6.493   6.129   1.487
  275SOL    HW2 1725   6.352   6.182   1.425
  276SOL     OW 1726   1.011   0.627   4.993
  276SOL    HW1 1727   1.085   0.687   5.022
  276SOL    HW2 1728   1.048   0.551   4.939
  277SOL     OW 1729   1.995   4.163   1.097
  277SOL    HW1 1730   2.073   4.133   1.152
  277SOL    HW2 1731   1.981   4.261   1.110
  278SOL     OW 1732   0.490   2.815   2.206
  278SOL    HW1 1733   0.569   2.812   2.144
  278SOL    HW2 1734   0.408   2.792   2.155
  279SOL     OW 1735   6.164   1.573   3.736
  279SOL    HW1 1736   6.261   1.566   3.757
  279SOL    HW2 1737   6.149   1.551   3.639
  280SOL     OW 1738   1.584   4.697   2.440
  280SOL    HW1 1739   1.512   4.641   2.399
  280SOL    HW2 1740   1.663   4.639   2.461
  281SOL     OW 1741   2.487   4.508   1.327
  281SOL    HW1 1742   2.481   4.607   1.313
  281SOL    HW2 1743   2.475   4.460   1.240
  282SOL     OW 1744   2.774   1.710   6.207
  282SOL    HW1 1745   2.845   1.652   6.167
  282SOL    HW2 1746   2.703   1.728   6.138
  283SOL     OW 1747   3.501   2.310   5.461
  283SOL    HW1 1748   3.404   2.328   5.443
  283SOL    HW2 1749   3.510   2.228   5.517
  284SOL     OW 1750   1.454   4.575   4.176
  284SOL    HW1 1751   1.390   4.651   4.185
  284SOL    HW2 1752   1.404   4.494   4.145
  285SOL     OW 1753   5.466   4.569   4.225
  285SOL    HW1 1754   5.473   4.503   4.151
  285SOL    HW2 1755   5.554   4.576   4.272
  286SOL     OW 1756   3.328   3.795   6.727
  286SOL    HW1 1757   3.286   3.818   6.639
  286SOL    HW2 1758   3.420   3.758   6.711
  287SOL     OW 1759   1.598   3.055   0.204
  287SOL    HW1 1760   1.610   3.070   0.106
  287SOL    HW2 1761   1.532   2.981   0.218
  288SOL     OW 1762   4.913   3.620   0.815
  288SOL    HW1 1763   4.827   3.670   0.828
  288SOL    HW2 1764   4.987   3.686   0.800
  289SOL     OW 1765   3.481   5.249   6.680
  289SOL    HW1 1766   3.506   5.175   6.742
  289SOL    HW2 1767   3.399   5.295   6.714
  290SOL     OW 1768   1.390   1.294   4.603
  290SOL    HW1 1769   1.469   1.263   4.550
  290SOL    HW2 1770   1.399   1.392   4.623
  291SOL     OW 1771   6.868   2.082   2.580
  291SOL    HW1 1772   6.821   2.021   2.516
  291SOL    HW2 1773   6.965   2.088   2.555
  292SOL     OW 1774   2.861   0.138   3.884
  292SOL    HW1 1775   2.794   0.105   3.951
  292SOL    HW2 1776   2.823   0.216   3.834
  293SOL     OW 1777   3.343   4.994   3.781
  293SOL    HW1 1778   3.321   5.021   3.875
  293SOL    HW2 1779   3.279   4.923   3.751
  294SOL     OW 1780   4.373   0.465   0.133
  294SOL    HW1 1781   4.443   0.460   0.062
  294SOL    HW2 1782   4.374   0.381   0.188
  295SOL     OW 1783   5.593   6.933   3.392
  295SOL    HW1 1784   5.582   6.845   3.346
  295SOL    HW2 1785   5.568   7.007   3.329
  296SOL     OW 1786   2.571   2.207   3.383
  296SOL    HW1 1787   2.487   2.163   3.415
  296SOL    HW2 1788   2.569   2.211   3.283
  297SOL     OW 1789   1.315   4.922   2.357
  297SOL    HW1 1790   1.408   4.956   2.350
  297SOL    HW2 1791   1.293   4.904   2.453
  298SOL     OW 1792   6.451   5.033   0.837
  298SOL    HW1 1793   6.393   4.997   0.764
  298SOL    HW2 1794   6.438   5.132   0.845
  299SOL     OW 1795   5.854   2.597   4.603
  299SOL    HW1 1796   5.843   2.590   4.504
  299SOL    HW2 1797   5.856   2.694   4.630
  300SOL     OW 1798   7.022   6.851   2.436
  300SOL    HW1 1799   6.936   6.890   2.403
  300SOL    HW2 1800   0.074   6.889   2.384
  301SOL     OW 1801   4.396   3.103   5.738
  301SOL    HW1 1802   4.324   3.051   5.783
  301SOL    HW2 1803   4.363   3.196   5.718
  302SOL     OW 1804   0.830   6.262   4.228
  302SOL    HW1 1805   0.852   6.193   4.297
  302SOL    HW2 1806   0.828   6.352   4.271
  303SOL     OW 1807   5.953   6.705   2.820
  303SOL    HW1 1808   6.035   6.689   2.766
  303SOL    HW2 1809   5.924   6.620   2.864
  304SOL     OW 1810   3.876   6.497   3.661
  304SOL    HW1 1811   3.946   6.547   3.611
  304SOL    HW2 1812   3.870   6.403   3.625
  305SOL     OW 1813   1.459   3.810   1.405
  305SOL    HW1 1814   1.530   3.740   1.412
  305SOL    HW2 1815   1.444   3.833   1.309
  306SOL     OW 1816   2.147   0.487   3.302
  306SOL    HW1 1817   2.133   0.436   3.387
  306SOL    HW2 1818   2.123   0.583   3.316
  307SOL     OW 1819   3.074   0.056   1.649
  307SOL    HW1 1820   3.067   0.153   1.625
  307SOL    HW2 1821   3.069   0.046   1.749
  308SOL     OW 1822   1.152   5.026   4.105
  308SOL    HW1 1823   1.191   5.109   4.065
  308SOL    HW2 1824   1.118   4.966   4.033
  309SOL     OW 1825   3.541   4.910   5.161
  309SOL    HW1 1826   3.458   4.923   5.107
  309SOL    HW2 1827   3.594   4.995   5.162
  310SOL     OW 1828   1.059   5.567   6.208
  310SOL    HW1 1829   0.985   5.505   6.183
  310SOL    HW2 1830   1.037   5.611   6.295
  311SOL     OW 1831   0.068   0.528   1.522
  311SOL    HW1 1832   0.065   0.447   1.580
  311SOL    HW2 1833   0.142   0.519   1.456
  312SOL     OW 1834   3.872   1.588   4.951
  312SOL    HW1 1835   3.809   1.636   5.012
  312SOL    HW2 1836   3.907   1.506   4.996
  313SOL     OW 1837   6.925   4.839   0.695
  313SOL    HW1 1838   6.904   4.879   0.785
  313SOL    HW2 1839   6.910   4.907   0.624
  314SOL     OW 1840   3.189   6.216   1.445
  314SOL    HW1 1841   3.202   6.118   1.463
  314SOL    HW2 1842   3.277   6.259   1.431
  315SOL     OW 1843   0.783   3.216   2.691
  315SOL    HW1 1844   0.690   3.181   2.679
  315SOL    HW2 1845   0.847   3.140   2.701
  316SOL     OW 1846   2.093   3.674   4.649
  316SOL    HW1 1847   2.105   3.602   4.719
  316SOL    HW2 1848   2.020   3.736   4.677
  317SOL     OW 1849   6.231   0.899   0.040
  317SOL    HW1 1850   6.304   0.859   7.009
  317SOL    HW2 1851   6.144   0.888   7.015
  318SOL     OW 1852   2.053   4.654   1.121
  318SOL    HW1 1853   2.127   4.635   1.057
  318SOL    HW2 1854   2.078   4.732   1.178
  319SOL     OW 1855   1.466   0.003   6.736
  319SOL    HW1 1856   1.423   7.002   6.650
  319SOL    HW2 1857   1.413   6.990   6.812
  320SOL     OW 1858   5.365   3.166   0.742
  320SOL    HW1 1859   5.397   3.245   0.690
  320SOL    HW2 1860   5.406   3.167   0.834
  321SOL     OW 1861   2.269   1.077   1.908
  321SOL    HW1 1862   2.284   1.027   1.993
  321SOL    HW2 1863   2.206   1.025   1.849
  322SOL     OW 1864   3.017   2.139   5.490
  322SOL    HW1 1865   2.922   2.141   5.460
  322SOL    HW2 1866   3.020   2.127   5.590
  323SOL     OW 1867   0.588   4.449   2.059
  323SOL    HW1 1868   0.522   4.375   2.068
  323SOL    HW2 1869   0.643   4.436   1.977
  324SOL     OW 1870   0.529   3.072   4.398
  324SOL    HW1 1871   0.521   2.986   4.449
  324SOL    HW2 1872   0.548   3.147   4.462
  325SOL     OW 1873   2.417   2.181   2.762
  325SOL    HW1 1874   2.453   2.162   2.671
  325SOL    HW2 1875   2.393   2.095   2.807
  326SOL     OW 1876   2.256   4.969   5.352
  326SOL    HW1 1877   2.332   4.912   5.321
  326SOL    HW2 1878   2.183   4.911   5.387
  327SOL     OW 1879   6.162   5.046   6.426
  327SOL    HW1 1880   6.162   4.946   6.422
  327SOL    HW2 1881   6.249   5.080   6.389
  328SOL     OW 1882   3.537   5.822   1.552
  328SOL    HW1 1883   3.516   5.725   1.539
  328SOL    HW2 1884   3.635   5.838   1.536
  329SOL     OW 1885   3.222   3.628   2.592
  329SOL    HW1 1886   3.248   3.542   2.549
  329SOL    HW2 1887   3.229   3.619   2.692
  330SOL     OW 1888   2.828   2.020   1.779
  330SOL    HW1 1889   2.805   2.058   1.689
  330SOL    HW2 1890   2.902   2.073   1.820
  331SOL     OW 1891   5.572   4.213   5.780
  331SOL    HW1 1892   5.606   4.157   5.705
  331SOL    HW2 1893   5.479   4.244   5.759
  332SOL     OW 1894   4.252   2.221   3.519
  332SOL    HW1 1895   4.345   2.187   3.531
  332SOL    HW2 1896   4.212   2.242   3.608
  333SOL     OW 1897   4.275   6.287   0.464
  333SOL    HW1 1898   4.371   6.302   0.487
  333SOL    HW2 1899   4.258   6.320   0.371
  334SOL     OW 1900   5.221   6.343   2.650
  334SOL    HW1 1901   5.142   6.302   2.695
  334SOL    HW2 1902   5.289   6.367   2.720
  335SOL     OW 1903   3.578   6.762   2.960
  335SOL    HW1 1904   3.588   6.715   3.048
  335SOL    HW2 1905   3.531   6.702   2.896
  336SOL     OW 1906   3.669   0.280   4.906
  336SOL    HW1 1907   3.583   0.231   4.891
  336SOL    HW2 1908   3.700   0.322   4.821
  337SOL     OW 1909   0.232   4.153   1.850
  337SOL    HW1 1910   0.224   4.057   1.876
  337SOL    HW2 1911   0.254   4.160   1.752
  338SOL     OW 1912   2.541   2.333   1.571
  338SOL    HW1 1913   2.553   2.430   1.595
  338SOL    HW2 1914   2.509   2.283   1.651
  339SOL     OW 1915   4.348   0.837   2.998
  339SOL    HW1 1916   4.278   0.769   2.973
  339SOL    HW2 1917   4.365   0.832   3.096
  340SOL     OW 1918   5.020   3.909   4.730
  340SOL    HW1 1919   5.056   3.821   4.760
  340SOL    HW2 1920   4.976   3.899   4.641
  341SOL     OW 1921   5.006   5.039   5.687
  341SOL    HW1 1922   5.066   5.026   5.608
  341SOL    HW2 1923   4.911   5.027   5.659
  342SOL     OW 1924   5.631   3.839   0.233
  342SOL    HW1 1925   5.593   3.828   0.325
  342SOL    HW2 1926   5.717   3.789   0.226
  343SOL     OW 1927   2.346   0.409   2.517
  343SOL    HW1 1928   2.287   0.352   2.575
  343SOL    HW2 1929   2.299   0.427   2.431
  344SOL     OW 1930   3.623   5.855   0.059
  344SOL    HW1 1931   3.685   5.908   0.117
  344SOL    HW2 1932   3.672   5.821   7.003
  345SOL     OW 1933   1.268   0.896   6.219
  345SOL    HW1 1934   1.327   0.855   6.150
  345SOL    HW2 1935   1.301   0.989   6.240
  346SOL     OW 1936   3.352   0.865   4.017
  346SOL    HW1 1937   3.292   0.786   4.034
  346SOL    HW2 1938   3.365   0.916   4.102
  347SOL     OW 1939   4.561   6.864   5.467
  347SOL    HW1 1940   4.622   6.904   5.535
  347SOL    HW2 1941   4.579   6.767   5.457
  348SOL     OW 1942   2.874   6.110   2.812
  348SOL    HW1 1943   2.858   6.209   2.816
  348SOL    HW2 1944   2.812   6.064   2.875
  349SOL     OW 1945   2.663   5.088   1.777
  349SOL    HW1 1946   2.720   5.138   1.712
  349SOL    HW2 1947   2.570   5.125   1.774
  350SOL     OW 1948   4.688   3.168   0.913
  350SOL    HW1 1949   4.590   3.189   0.913
  350SOL    HW2 1950   4.713   3.127   0.825
  351SOL     OW 1951   2.750   1.814   0.585
  351SOL    HW1 1952   2.713   1.889   0.639
  351SOL    HW2 1953   2.751   1.730   0.639
  352SOL     OW 1954   3.031   1.698   5.958
  352SOL    HW1 1955   3.075   1.678   5.870
  352SOL    HW2 1956   3.096   1.747   6.016
  353SOL     OW 1957   2.156   0.290   1.336
  353SOL    HW1 1958   2.102   0.253   1.260
  353SOL    HW2 1959   2.121   0.380   1.362
  354SOL     OW 1960   5.182   0.997   2.253
  354SOL    HW1 1961   5.247   0.978   2.179
  354SOL    HW2 1962   5.171   0.915   2.309
  355SOL     OW 1963   1.426   1.361   1.607
  355SOL    HW1 1964   1.424   1.267   1.640
  355SOL    HW2 1965   1.505   1.409   1.644
  356SOL     OW 1966   4.199   6.577   2.847
  356SOL    HW1 1967   4.104   6.545   2.840
  356SOL    HW2 1968   4.252   6.512   2.901
  357SOL     OW 1969   1.507   4.735   5.983
  357SOL    HW1 1970   1.526   4.826   6.018
  357SOL    HW2 1971   1.578   4.709   5.917
  358SOL     OW 1972   5.296   1.084   3.261
  358SOL    HW1 1973   5.377   1.053   3.311
  358SOL    HW2 1974   5.300   1.049   3.167
  359SOL     OW 1975   1.066   2.291   0.328
  359SOL    HW1 1976   0.981   2.283   0.380
  359SOL    HW2 1977   1.143   2.290   0.391
  360SOL     OW 1978   5.146   0.112   0.372
  360SOL    HW1 1979   5.117   0.016   0.371
  360SOL    HW2 1980   5.240   0.119   0.338
  361SOL     OW 1981   3.599   1.026   3.092
  361SOL    HW1 1982   3.697   1.041   3.104
  361SOL    HW2 1983   3.584   0.976   3.007
  362SOL     OW 1984   2.574   3.922   1.190
  362SOL    HW1 1985   2.482   3.913   1.154
  362SOL    HW2 1986   2.582   3.871   1.276
  363SOL     OW 1987   4.242   4.703   3.716
  363SOL    HW1 1988   4.270   4.712   3.811
  363SOL    HW2 1989   4.208   4.791   3.683
  364SOL     OW 1990   2.075   6.250   6.456
  364SOL    HW1 1991   2.065   6.201   6.369
  364SOL    HW2 1992   2.103   6.345   6.438
  365SOL     OW 1993   4.892   0.057   2.873
  365SOL    HW1 1994   4.877   0.063   2.774
  365SOL    HW2 1995   4.806   0.074   2.921
  366SOL     OW 1996   5.021   0.980   0.672
  366SOL    HW1 1997   5.119   0.996   0.666
  366SOL    HW2 1998   4.994   0.977   0.768
  367SOL     OW 1999   4.635   1.860   1.957
  367SOL    HW1 2000   4.578   1.938   1.931
  367SOL    HW2 2001   4.585   1.775   1.944
  368SOL     OW 2002   1.837   5.277   5.726
  368SOL    HW1 2003   1.856   5.361   5.778
  368SOL    HW2 2004   1.838   5.199   5.788
  369SOL     OW 2005   0.603   3.400   1.436
  369SOL    HW1 2006   0.536   3.374   1.505
  369SOL    HW2 2007   0.662   3.322   1.415
  370SOL     OW 2008   3.226   1.732   0.105
  370SOL    HW1 2009   3.226   1.785   0.019
  370SOL    HW2 2010   3.297   1.661   0.100
  371SOL     OW 2011   3.380   2.890   6.074
  371SOL    HW1 2012   3.453   2.842   6.121
  371SOL    HW2 2013   3.415   2.975   6.035
  372SOL     OW 2014   1.905   4.942   0.256
  372SOL    HW1 2015   1.851   5.005   0.200
  372SOL    HW2 2016   1.900   4.970   0.352
  373SOL     OW 2017   6.411   6.922   6.578
  373SOL    HW1 2018   6.448   6.865   6.504
  373SOL    HW2 2019   6.456   6.899   6.664
  374SOL     OW 2020   4.520   0.764   1.171
  374SOL    HW1 2021   4.450   0.696   1.149
  374SOL    HW2 2022   4.547   0.812   1.088
  375SOL     OW 2023   6.472   4.374   1.071
  375SOL    HW1 2024   6.413   4.451   1.046
  375SOL    HW2 2025   6.484   4.314   0.992
  376SOL     OW 2026   1.813   3.786   4.618
  376SOL    HW1 2027   1.843   3.783   4.523
  376SOL    HW2 2028   1.845   3.705   4.667
  377SOL     OW 2029   4.449   1.752   4.708
  377SOL    HW1 2030   4.490   1.838   4.735
  377SOL    HW2 2031   4.366   1.735   4.762
  378SOL     OW 2032   5.053   2.415   5.032
  378SOL    HW1 2033   4.956   2.418   5.009
  378SOL    HW2 2034   5.089   2.508   5.038
  379SOL     OW 2035   0.282   2.609   1.764
  379SOL    HW1 2036   0.242   2.605   1.672
  379SOL    HW2 2037   0.268   2.521   1.810
  380SOL     OW 2038   1.582   1.949   6.917
  380SOL    HW1 2039   1.599   1.878   6.985
  380SOL    HW2 2040   1.553   2.033   6.963
  381SOL     OW 2041   3.915   4.930   0.743
  381SOL    HW1 2042   3.949   4.847   0.785
  381SOL    HW2 2043   3.963   4.946   0.657
  382SOL     OW 2044   2.658   5.258   0.480
  382SOL    HW1 2045   2.621   5.274   0.572
  382SOL    HW2 2046   2.589   5.212   0.424
  383SOL     OW 2047   6.377   1.974   0.613
  383SOL    HW1 2048   6.318   2.048   0.581
  383SOL    HW2 2049   6.330   1.923   0.685
  384SOL     OW 2050   1.788   5.182   5.323
  384SOL    HW1 2051   1.760   5.104   5.267
  384SOL    HW2 2052   1.712   5.208   5.383
  385SOL     OW 2053   4.503   5.368   1.624
  385SOL    HW1 2054   4.441   5.289   1.619
  385SOL    HW2 2055   4.450   5.453   1.619
  386SOL     OW 2056   2.630   6.316   4.704
  386SOL    HW1 2057   2.598   6.290   4.795
  386SOL    HW2 2058   2.554   6.309   4.639
  387SOL     OW 2059   6.579   0.327   6.203
  387SOL    HW1 2060   6.605   0.423   6.210
  387SOL    HW2 2061   6.659   0.269   6.217
  388SOL     OW 2062   0.202   2.055   4.425
  388SOL    HW1 2063   0.160   2.071   4.336
  388SOL    HW2 2064   0.251   1.968   4.423
  389SOL     OW 2065   5.129   3.944   2.054
  389SOL    HW1 2066   5.159   3.968   1.961
  389SOL    HW2 2067   5.189   3.873   2.091
  390SOL     OW 2068   4.101   2.556   6.654
  390SOL    HW1 2069   4.156   2.473   6.665
  390SOL    HW2 2070   4.021   2.535   6.597
  391SOL     OW 2071   4.054   3.741   3.768
  391SOL    HW1 2072   3.965   3.733   3.813
  391SOL    HW2 2073   4.108   3.658   3.783
  392SOL     OW 2074   1.907   3.813   1.804
  392SOL    HW1 2075   1.993   3.862   1.790
  392SOL    HW2 2076   1.862   3.849   1.885
  393SOL     OW 2077   1.552   5.696   1.586
  393SOL    HW1 2078   1.570   5.616   1.643
  393SOL    HW2 2079   1.632   5.756   1.587
  394SOL     OW 2080   6.082   1.209   6.062
  394SOL    HW1 2081   6.177   1.218   6.092
  394SOL    HW2 2082   6.028   1.167   6.135
  395SOL     OW 2083   5.979   4.409   6.877
  395SOL    HW1 2084   5.949   4.427   6.783
  395SOL    HW2 2085   6.021   4.319   6.883
  396SOL     OW 2086   1.473   0.899   1.498
  396SOL    HW1 2087   1.457   0.823   1.435
  396SOL    HW2 2088   1.425   0.883   1.584
  397SOL     OW 2089   4.318   2.396   4.592
  397SOL    HW1 2090   4.231   2.356   4.561
  397SOL    HW2 2091   4.326   2.384   4.691
  398SOL     OW 2092   0.311   1.288   3.259
  398SOL    HW1 2093   0.237   1.325   3.315
  398SOL    HW2 2094   0.274   1.222   3.194
  399SOL     OW 2095   5.796   5.951   3.506
  399SOL    HW1 2096   5.775   5.988   3.597
  399SOL    HW2 2097   5.800   6.025   3.439
  400SOL     OW 2098   0.021   6.309   3.241
  400SOL    HW1 2099   6.961   6.257   3.228
  400SOL    HW2 2100   0.007   6.403   3.209
  401SOL     OW 2101   1.101   5.504   4.903
  401SOL    HW1 2102   1.096   5.515   4.804
  401SOL    HW2 2103   1.184   5.453   4.927
  402SOL     OW 2104   5.719   1.788   4.231
  402SOL    HW1 2105   5.713   1.696   4.191
  402SOL    HW2 2106   5.692   1.784   4.327
  403SOL     OW 2107   2.909   1.792   4.719
  403SOL    HW1 2108   2.859   1.825   4.639
  403SOL    HW2 2109   2.854   1.806   4.801
  404SOL     OW 2110   3.094   5.197   3.861
  404SOL    HW1 2111   3.108   5.100   3.880
  404SOL    HW2 2112   3.170   5.250   3.899
  405SOL     OW 2113   2.781   5.163   3.765
  405SOL    HW1 2114   2.727   5.242   3.735
  405SOL    HW2 2115   2.750   5.133   3.855
  406SOL     OW 2116   0.280   6.947   6.493
  406SOL    HW1 2117   0.380   6.950   6.499
  406SOL    HW2 2118   0.249   7.010   6.423
  407SOL     OW 2119   2.055   3.864   4.001
  407SOL    HW1 2120   2.114   3.943   4.014
  407SOL    HW2 2121   2.074   3.796   4.072
  408SOL     OW 2122   2.642   2.385   2.601
  408SOL    HW1 2123   2.571   2.445   2.638
  408SOL    HW2 2124   2.656   2.405   2.505
  409SOL     OW 2125   0.402   2.697   2.470
  409SOL    HW1 2126   0.496   2.678   2.444
  409SOL    HW2 2127   0.365   2.771   2.414
  410SOL     OW 2128   1.891   3.130   1.631
  410SOL    HW1 2129   1.898   3.112   1.729
  410SOL    HW2 2130   1.944   3.212   1.608
  411SOL     OW 2131   0.045   1.891   0.343
  411SOL    HW1 2132   0.065   1.795   0.320
  411SOL    HW2 2133   0.099   1.917   0.424
  412SOL     OW 2134   1.607   4.860   2.720
  412SOL    HW1 2135   1.519   4.905   2.737
  412SOL    HW2 2136   1.609   4.826   2.626
  413SOL     OW 2137   6.118   4.290   2.201
  413SOL    HW1 2138   6.069   4.306   2.115
  413SOL    HW2 2139   6.210   4.256   2.182
  414SOL     OW 2140   2.295   6.644   3.128
  414SOL    HW1 2141   2.379   6.593   3.144
  414SOL    HW2 2142   2.241   6.647   3.212
  415SOL     OW 2143   5.592   1.895   0.023
  415SOL    HW1 2144   5.591   1.933   6.954
  415SOL    HW2 2145   5.563   1.799   0.019
  416SOL     OW 2146   5.620   2.960   6.195
  416SOL    HW1 2147   5.645   3.014   6.276
  416SOL    HW2 2148   5.608   3.022   6.117
  417SOL     OW 2149   2.270   2.571   5.527
  417SOL    HW1 2150   2.309   2.481   5.545
  417SOL    HW2 2151   2.326   2.641   5.570
  418SOL     OW 2152   3.435   6.311   6.008
  418SOL    HW1 2153   3.344   6.292   5.972
  418SOL    HW2 2154   3.444   6.408   6.029
  419SOL     OW 2155   5.774   0.639   0.120
  419SOL    HW1 2156   5.691   0.666   0.070
  419SOL    HW2 2157   5.767   0.669   0.215
  420SOL     OW 2158   3.229   6.858   0.980
  420SOL    HW1 2159   3.291   6.935   0.996
  420SOL    HW2 2160   3.282   6.775   0.967
  421SOL     OW 2161   4.663   4.321   2.666
  421SOL    HW1 2162   4.743   4.376   2.689
  421SOL    HW2 2163   4.627   4.349   2.577
  422SOL     OW 2164   4.016   2.076   1.519
  422SOL    HW1 2165   3.947   2.135   1.563
  422SOL    HW2 2166   4.107   2.105   1.548
  423SOL     OW 2167   3.245   0.784   6.276
  423SOL    HW1 2168   3.314   0.774   6.205
  423SOL    HW2 2169   3.247   0.878   6.312
  424SOL     OW 2170   1.819   3.756   4.282
  424SOL    HW1 2171   1.819   3.850   4.314
  424SOL    HW2 2172   1.910   3.733   4.247
  425SOL     OW 2173   3.033   1.389   0.072
  425SOL    HW1 2174   3.132   1.391   0.060
  425SOL    HW2 2175   3.001   1.476   0.108
  426SOL     OW 2176   2.155   2.129   3.929
  426SOL    HW1 2177   2.236   2.073   3.945
  426SOL    HW2 2178   2.098   2.088   3.858
  427SOL     OW 2179   4.669   1.390   3.688
  427SOL    HW1 2180   4.694   1.444   3.607
  427SOL    HW2 2181   4.717   1.427   3.768
  428SOL     OW 2182   2.297   2.062   6.527
  428SOL    HW1 2183   2.274   2.136   6.465
  428SOL    HW2 2184   2.213   2.017   6.558
  429SOL     OW 2185   0.237   6.266   3.595
  429SOL    HW1 2186   0.163   6.210   3.557
  429SOL    HW2 2187   0.306   6.282   3.525
  430SOL     OW 2188   2.189   0.973   3.795
  430SOL    HW1 2189   2.193   1.069   3.823
  430SOL    HW2 2190   2.281   0.937   3.787
  431SOL     OW 2191   3.010   1.163   1.565
  431SOL    HW1 2192   2.957   1.201   1.490
  431SOL    HW2 2193   2.955   1.161   1.648
  432SOL     OW 2194   4.749   1.851   1.455
  432SOL    HW1 2195   4.784   1.881   1.544
  432SOL    HW2 2196   4.821   1.805   1.404
  433SOL     OW 2197   1.869   4.180   0.379
  433SOL    HW1 2198   1.955   4.142   0.345
  433SOL    HW2 2199   1.818   4.220   0.303
  434SOL     OW 2200   4.417   5.554   2.744
  434SOL    HW1 2201   4.407   5.528   2.648
  434SOL    HW2 2202   4.327   5.553   2.788
  435SOL     OW 2203   3.411   2.524   6.130
  435SOL    HW1 2204   3.427   2.554   6.036
  435SOL    HW2 2205   3.417   2.425   6.135
  436SOL     OW 2206   5.608   6.073   2.061
  436SOL    HW1 2207   5.511   6.052   2.052
  436SOL    HW2 2208   5.621   6.146   2.127
  437SOL     OW 2209   6.997   1.164   4.923
  437SOL    HW1 2210   0.007   1.246   4.877
  437SOL    HW2 2211   7.018   1.083   4.867
  438SOL     OW 2212   0.941   4.233   2.411
  438SOL    HW1 2213   1.006   4.309   2.422
  438SOL    HW2 2214   0.881   4.252   2.334
  439SOL     OW 2215   0.119   0.895   6.124
  439SOL    HW1 2216   0.137   0.991   6.147
  439SOL    HW2 2217   0.202   0.841   6.140
  440SOL     OW 2218   3.986   2.317   1.017
  440SOL    HW1 2219   4.008   2.220   1.031
  440SOL    HW2 2220   3.983   2.363   1.106
  441SOL     OW 2221   0.313   4.864   2.496
  441SOL    HW1 2222   0.342   4.844   2.589
  441SOL    HW2 2223   0.319   4.782   2.440
  442SOL     OW 2224   3.442   3.330   5.105
  442SOL    HW1 2225   3.506   3.332   5.027
  442SOL    HW2 2226   3.492   3.303   5.187
  443SOL     OW 2227   4.735   2.607   3.106
  443SOL    HW1 2228   4.688   2.518   3.109
  443SOL    HW2 2229   4.832   2.593   3.125
  444SOL     OW 2230   4.433   2.316   1.551
  444SOL    HW1 2231   4.406   2.392   1.611
  444SOL    HW2 2232   4.353   2.284   1.500
  445SOL     OW 2233   2.538   5.715   2.896
  445SOL    HW1 2234   2.564   5.619   2.893
  445SOL    HW2 2235   2.460   5.730   2.835
  446SOL     OW 2236   6.359   0.051   1.348
  446SOL    HW1 2237   6.264   0.076   1.330
  446SOL    HW2 2238   6.407   0.128   1.389
  447SOL     OW 2239   6.007   4.060   0.233
  447SOL    HW1 2240   5.974   4.129   0.168
  447SOL    HW2 2241   5.972   4.080   0.324
  448SOL     OW 2242   3.583   6.261   3.855
  448SOL    HW1 2243   3.532   6.328   3.801
  448SOL    HW2 2244   3.605   6.300   3.944
  449SOL     OW 2245   0.809   4.061   4.584
  449SOL    HW1 2246   0.735   4.003   4.618
  449SOL    HW2 2247   0.874   4.078   4.658
  450SOL     OW 2248   0.025   4.159   3.052
  450SOL    HW1 2249   0.020   4.254   3.019
  450SOL    HW2 2250   0.080   4.105   2.989
  451SOL     OW 2251   1.631   2.368   6.806
  451SOL    HW1 2252   1.695   2.429   6.853
  451SOL    HW2 2253   1.574   2.322   6.874
  452SOL     OW 2254   4.423   5.602   1.801
  452SOL    HW1 2255   4.455   5.689   1.762
  452SOL    HW2 2256   4.330   5.584   1.771
  453SOL     OW 2257   4.721   0.609   0.158
  453SOL    HW1 2258   4.665   0.639   0.236
  453SOL    HW2 2259   4.702   0.513   0.139
  454SOL     OW 2260   6.991   3.259   4.229
  454SOL    HW1 2261   7.009   3.165   4.198
  454SOL    HW2 2262   6.962   3.258   4.325
  455SOL     OW 2263   5.449   5.189   6.873
  455SOL    HW1 2264   5.431   5.141   6.787
  455SOL    HW2 2265   5.482   5.124   6.942
  456SOL     OW 2266   2.063   0.759   3.282
  456SOL    HW1 2267   2.146   0.805   3.316
  456SOL    HW2 2268   2.046   0.787   3.187
  457SOL     OW 2269   3.053   5.778   0.289
  457SOL    HW1 2270   3.065   5.761   0.387
  457SOL    HW2 2271   3.007   5.865   0.276
  458SOL     OW 2272   3.698   1.577   3.421
  458SOL    HW1 2273   3.686   1.670   3.387
  458SOL    HW2 2274   3.796   1.557   3.429
  459SOL     OW 2275   2.985   1.512   2.969
  459SOL    HW1 2276   2.965   1.531   3.065
  459SOL    HW2 2277   3.060   1.445   2.964
  460SOL     OW 2278   0.800   1.457   6.892
  460SOL    HW1 2279   0.853   1.508   6.826
  460SOL    HW2 2280   0.849   1.452   6.979
  461SOL     OW 2281   1.185   6.670   5.716
  461SOL    HW1 2282   1.227   6.582   5.696
  461SOL    HW2 2283   1.238   6.743   5.672
  462SOL     OW 2284   3.762   4.176   4.893
  462SOL    HW1 2285   3.841   4.152   4.948
  462SOL    HW2 2286   3.689   4.211   4.952
  463SOL     OW 2287   5.216   5.990   3.059
  463SOL    HW1 2288   5.173   5.899   3.058
  463SOL    HW2 2289   5.240   6.016   2.966
  464SOL     OW 2290   4.410   6.011   5.149
  464SOL    HW1 2291   4.441   6.081   5.214
  464SOL    HW2 2292   4.433   5.920   5.185
  465SOL     OW 2293   0.147   4.702   0.075
  465SOL    HW1 2294   0.167   4.610   0.041
  465SOL    HW2 2295   0.062   4.700   0.129
  466SOL     OW 2296   3.899   4.937   4.160
  466SOL    HW1 2297   3.824   4.922   4.225
  466SOL    HW2 2298   3.945   5.023   4.181
  467SOL     OW 2299   6.922   6.962   1.863
  467SOL    HW1 2300   6.940   6.918   1.775
  467SOL    HW2 2301   6.969   0.026   1.866
  468SOL     OW 2302   2.441   6.074   6.470
  468SOL    HW1 2303   2.521   6.082   6.409
  468SOL    HW2 2304   2.399   5.984   6.457
  469SOL     OW 2305   3.269   4.377   5.372
  469SOL    HW1 2306   3.195   4.314   5.348
  469SOL    HW2 2307   3.246   4.469   5.342
  470SOL     OW 2308   2.123   5.018   2.517
  470SOL    HW1 2309   2.037   5.015   2.569
  470SOL    HW2 2310   2.195   5.058   2.575
  471SOL     OW 2311   1.583   2.324   3.729
  471SOL    HW1 2312   1.539   2.301   3.643
  471SOL    HW2 2313   1.550   2.264   3.801
  472SOL     OW 2314   5.394   4.264   6.363
  472SOL    HW1 2315   5.413   4.166   6.357
  472SOL    HW2 2316   5.454   4.313   6.300
  473SOL     OW 2317   5.391   2.964   2.500
  473SOL    HW1 2318   5.349   2.894   2.559
  473SOL    HW2 2319   5.475   2.997   2.542
  474SOL     OW 2320   4.917   5.522   3.427
  474SOL    HW1 2321   4.905   5.568   3.515
  474SOL    HW2 2322   4.916   5.423   3.440
  475SOL     OW 2323   5.164   1.512   0.516
  475SOL    HW1 2324   5.122   1.422   0.503
  475SOL    HW2 2325   5.102   1.570   0.569
  476SOL     OW 2326   0.929   3.771   0.287
  476SOL    HW1 2327   1.017   3.816   0.272
  476SOL    HW2 2328   0.887   3.750   0.199
  477SOL     OW 2329   6.256   4.997   3.345
  477SOL    HW1 2330   6.249   5.009   3.246
  477SOL    HW2 2331   6.220   4.907   3.371
  478SOL     OW 2332   6.359   5.268   2.379
  478SOL    HW1 2333   6.430   5.210   2.340
  478SOL    HW2 2334   6.371   5.273   2.479
  479SOL     OW 2335   2.925   3.737   2.848
  479SOL    HW1 2336   2.904   3.687   2.763
  479SOL    HW2 2337   2.939   3.834   2.827
  480SOL     OW 2338   0.752   0.830   2.112
  480SOL    HW1 2339   0.831   0.888   2.094
  480SOL    HW2 2340   0.730   0.832   2.209
  481SOL     OW 2341   5.790   6.106   0.819
  481SOL    HW1 2342   5.794   6.023   0.875
  481SOL    HW2 2343   5.872   6.111   0.762
  482SOL     OW 2344   3.812   5.143   2.607
  482SOL    HW1 2345   3.811   5.053   2.650
  482SOL    HW2 2346   3.774   5.210   2.671
  483SOL     OW 2347   6.237   0.595   3.867
  483SOL    HW1 2348   6.329   0.589   3.905
  483SOL    HW2 2349   6.210   0.691   3.860
  484SOL     OW 2350   1.946   4.731   3.186
  484SOL    HW1 2351   1.986   4.641   3.196
  484SOL    HW2 2352   1.935   4.753   3.089
  485SOL     OW 2353   4.681   2.402   0.664
  485SOL    HW1 2354   4.679   2.466   0.741
  485SOL    HW2 2355   4.765   2.417   0.611
  486SOL     OW 2356   6.258   6.473   5.425
  486SOL    HW1 2357   6.305   6.559   5.407
  486SOL    HW2 2358   6.303   6.425   5.500
  487SOL     OW 2359   0.126   0.857   6.790
  487SOL    HW1 2360   0.153   0.828   6.882
  487SOL    HW2 2361   0.060   0.792   6.753
  488SOL     OW 2362   1.906   5.851   2.858
  488SOL    HW1 2363   1.977   5.885   2.796
  488SOL    HW2 2364   1.893   5.916   2.933
  489SOL     OW 2365   3.134   4.626   5.341
  489SOL    HW1 2366   3.175   4.716   5.323
  489SOL    HW2 2367   3.067   4.605   5.271
  490SOL     OW 2368   1.749   3.426   4.976
  490SOL    HW1 2369   1.678   3.419   4.906
  490SOL    HW2 2370   1.826   3.367   4.950
  491SOL     OW 2371   6.031   3.147   1.352
  491SOL    HW1 2372   5.961   3.084   1.385
  491SOL    HW2 2373   5.988   3.218   1.296
  492SOL     OW 2374   1.408   2.265   5.714
  492SOL    HW1 2375   1.408   2.166   5.699
  492SOL    HW2 2376   1.340   2.308   5.654
  493SOL     OW 2377   1.953   5.575   3.897
  493SOL    HW1 2378   1.940   5.526   3.811
  493SOL    HW2 2379   1.924   5.670   3.886
  494SOL     OW 2380   2.672   0.367   4.092
  494SOL    HW1 2381   2.760   0.404   4.062
  494SOL    HW2 2382   2.599   0.408   4.037
  495SOL     OW 2383   3.665   4.774   6.923
  495SOL    HW1 2384   3.707   4.692   6.964
  495SOL    HW2 2385   3.656   4.761   6.824
  496SOL     OW 2386   5.238   1.057   2.833
  496SOL    HW1 2387   5.233   1.137   2.892
  496SOL    HW2 2388   5.147   1.036   2.797
  497SOL     OW 2389   4.503   2.762   1.110
  497SOL    HW1 2390   4.448   2.714   1.179
  497SOL    HW2 2391   4.449   2.773   1.027
  498SOL     OW 2392   0.567   6.984   0.989
  498SOL    HW1 2393   0.526   6.972   1.079
  498SOL    HW2 2394   0.667   6.986   0.999
  499SOL     OW 2395   3.090   6.602   0.304
  499SOL    HW1 2396   3.047   6.673   0.359
  499SOL    HW2 2397   3.033   6.520   0.304
  500SOL     OW 2398   6.081   1.885   6.039
  500SOL    HW1 2399   6.030   1.942   5.974
  500SOL    HW2 2400   6.019   1.855   6.112
  501SOL     OW 2401   1.567   2.060   4.266
  501SOL    HW1 2402   1.618   2.029   4.346
  501SOL    HW2 2403   1.471   2.071   4.289
  502SOL     OW 2404   2.488   3.400   6.891
  502SOL    HW1 2405   2.550   3.420   6.967
  502SOL    HW2 2406   2.529   3.330   6.832
  503SOL     OW 2407   3.366   4.989   1.042
  503SOL    HW1 2408   3.398   4.939   0.962
  503SOL    HW2 2409   3.407   4.950   1.125
  504SOL     OW 2410   6.401   6.918   0.094
  504SOL    HW1 2411   6.401   6.947   0.190
  504SOL    HW2 2412   6.371   6.994   0.036
  505SOL     OW 2413   6.339   4.055   5.674
  505SOL    HW1 2414   6.357   4.135   5.615
  505SOL    HW2 2415   6.426   4.015   5.703
  506SOL     OW 2416   2.841   5.441   2.899
  506SOL    HW1 2417   2.853   5.360   2.842
  506SOL    HW2 2418   2.744   5.463   2.906
  507SOL     OW 2419   3.408   0.353   3.114
  507SOL    HW1 2420   3.479   0.335   3.046
  507SOL    HW2 2421   3.382   0.450   3.111
  508SOL     OW 2422   0.422   5.338   3.743
  508SOL    HW1 2423   0.348   5.337   3.676
  508SOL    HW2 2424   0.425   5.251   3.791
  509SOL     OW 2425   4.559   0.508   5.978
  509SOL    HW1 2426   4.547   0.482   6.074
  509SOL    HW2 2427   4.491   0.460   5.922
  510SOL     OW 2428   6.590   4.617   6.608
  510SOL    HW1 2429   6.569   4.704   6.564
  510SOL    HW2 2430   6.633   4.555   6.542
  511SOL     OW 2431   1.132   1.043   0.211
  511SOL    HW1 2432   1.099   0.952   0.238
  511SOL    HW2 2433   1.096   1.111   0.275
  512SOL     OW 2434   0.495   1.806   4.279
  512SOL    HW1 2435   0.590   1.784   4.301
  512SOL    HW2 2436   0.447   1.834   4.362
  513SOL     OW 2437   5.886   6.096   2.730
  513SOL    HW1 2438   5.863   6.193   2.722
  513SOL    HW2 2439   5.882   6.068   2.826
  514SOL     OW 2440   4.641   1.655   4.438
  514SOL    HW1 2441   4.741   1.659   4.434
  514SOL    HW2 2442   4.605   1.748   4.448
  515SOL     OW 2443   3.028   0.975   0.122
  515SOL    HW1 2444   3.064   1.050   0.177
  515SOL    HW2 2445   3.050   0.888   0.165
  516SOL     OW 2446   1.296   6.123   1.963
  516SOL    HW1 2447   1.366   6.062   1.926
  516SOL    HW2 2448   1.301   6.123   2.063
  517SOL     OW 2449   3.255   4.810   1.301
  517SOL    HW1 2450   3.193   4.766   1.237
  517SOL    HW2 2451   3.208   4.828   1.387
  518SOL     OW 2452   2.417   6.439   3.852
  518SOL    HW1 2453   2.382   6.347   3.871
  518SOL    HW2 2454   2.511   6.447   3.887
  519SOL     OW 2455   6.573   0.194   2.630
  519SOL    HW1 2456   6.568   0.114   2.690
  519SOL    HW2 2457   6.655   0.247   2.652
  520SOL     OW 2458   2.294   5.483   0.994
  520SOL    HW1 2459   2.352   5.530   0.927
  520SOL    HW2 2460   2.262   5.548   1.062
  521SOL     OW 2461   6.291   5.952   5.491
  521SOL    HW1 2462   6.377   5.965   5.442
  521SOL    HW2 2463   6.233   5.889   5.440
  522SOL     OW 2464   4.088   4.592   6.941
  522SOL    HW1 2465   4.044   4.605   6.852
  522SOL    HW2 2466   4.045   4.515   6.988
  523SOL     OW 2467   1.822   6.967   5.963
  523SOL    HW1 2468   1.726   6.961   5.938
  523SOL    HW2 2469   1.842   0.034   6.001
  524SOL     OW 2470   6.952   0.793   0.817
  524SOL    HW1 2471   6.989   0.883   0.840
  524SOL    HW2 2472   6.885   0.765   0.886
  525SOL     OW 2473   0.836   3.512   3.529
  525SOL    HW1 2474   0.774   3.536   3.454
  525SOL    HW2 2475   0.876   3.595   3.567
  526SOL     OW 2476   3.501   6.658   4.976
  526SOL    HW1 2477   3.456   6.623   5.059
  526SOL    HW2 2478   3.432   6.678   4.907
  527SOL     OW 2479   0.163   0.963   0.928
  527SOL    HW1 2480   0.118   0.954   1.017
  527SOL    HW2 2481   0.262   0.949   0.940
  528SOL     OW 2482   6.865   1.592   4.516
  528SOL    HW1 2483   6.848   1.499   4.547
  528SOL    HW2 2484   6.801   1.655   4.560
  529SOL     OW 2485   1.481   1.112   5.928
  529SOL    HW1 2486   1.466   1.014   5.917
  529SOL    HW2 2487   1.557   1.128   5.992
  530SOL     OW 2488   3.284   4.579   1.634
  530SOL    HW1 2489   3.227   4.592   1.553
  530SOL    HW2 2490   3.376   4.614   1.616
  531SOL     OW 2491   0.855   0.844   6.039
  531SOL    HW1 2492   0.922   0.793   6.092
  531SOL    HW2 2493   0.897   0.928   6.004
  532SOL     OW 2494   3.007   0.631   6.552
  532SOL    HW1 2495   2.960   0.718   6.538
  532SOL    HW2 2496   3.041   0.626   6.646
  533SOL     OW 2497   4.551   6.992   4.598
  533SOL    HW1 2498   4.534   0.065   4.580
  533SOL    HW2 2499   4.465   6.941   4.589
  534SOL     OW 2500   2.012   4.212   1.830
  534SOL    HW1 2501   1.966   4.180   1.912
  534SOL    HW2 2502   2.047   4.134   1.778
  535SOL     OW 2503   4.758   4.084   4.567
  535SOL    HW1 2504   4.716   4.004   4.525
  535SOL    HW2 2505   4.811   4.134   4.499
  536SOL     OW 2506   6.604   6.535   1.093
  536SOL    HW1 2507   6.535   6.499   1.030
  536SOL    HW2 2508   6.688   6.552   1.042
  537SOL     OW 2509   2.614   1.853   2.289
  537SOL    HW1 2510   2.646   1.891   2.202
  537SOL    HW2 2511   2.517   1.828   2.281
  538SOL     OW 2512   4.217   4.416   5.334
  538SOL    HW1 2513   4.159   4.496   5.348
  538SOL    HW2 2514   4.255   4.419   5.241
  539SOL     OW 2515   2.486   0.266   6.588
  539SOL    HW1 2516   2.536   0.204   6.649
  539SOL    HW2 2517   2.455   0.345   6.640
  540SOL     OW 2518   2.086   1.279   5.209
  540SOL    HW1 2519   2.073   1.248   5.303
  540SOL    HW2 2520   2.006   1.332   5.180
  541SOL     OW 2521   5.078   6.477   3.535
  541SOL    HW1 2522   5.028   6.438   3.612
  541SOL    HW2 2523   5.031   6.454   3.450
  542SOL     OW 2524   3.453   6.153   5.638
  542SOL    HW1 2525   3.525   6.222   5.648
  542SOL    HW2 2526   3.477   6.072   5.692
  543SOL     OW 2527   6.298   2.355   4.541
  543SOL    HW1 2528   6.218   2.403   4.577
  543SOL    HW2 2529   6.375   2.418   4.535
  544SOL     OW 2530   1.046   3.034   1.190
  544SOL    HW1 2531   1.102   2.951   1.196
  544SOL    HW2 2532   1.093   3.101   1.133
  545SOL     OW 2533   6.626   5.160   0.554
  545SOL    HW1 2534   6.630   5.107   0.470
  545SOL    HW2 2535   6.541   5.212   0.557
  546SOL     OW 2536   0.172   4.508   2.104
  546SOL    HW1 2537   0.170   4.601   2.068
  546SOL    HW2 2538   0.090   4.491   2.159
  547SOL     OW 2539   4.104   0.210   6.864
  547SOL    HW1 2540   4.086   0.133   6.803
  547SOL    HW2 2541   4.129   0.291   6.810
  548SOL     OW 2542   4.202   2.412   6.964
  548SOL    HW1 2543   4.206   2.406   0.040
  548SOL    HW2 2544   4.167   2.502   6.938
  549SOL     OW 2545   5.567   2.462   3.562
  549SOL    HW1 2546   5.517   2.402   3.624
  549SOL    HW2 2547   5.650   2.494   3.608
  550SOL     OW 2548   6.536   5.525   3.439
  550SOL    HW1 2549   6.501   5.537   3.346
  550SOL    HW2 2550   6.458   5.522   3.502
  551SOL     OW 2551   5.272   0.673   6.976
  551SOL    HW1 2552   5.349   0.673   0.017
  551SOL    HW2 2553   5.213   0.751   6.994
  552SOL     OW 2554   0.246   0.259   4.750
  552SOL    HW1 2555   0.163   0.313   4.768
  552SOL    HW2 2556   0.262   0.198   4.827
  553SOL     OW 2557   3.525   2.201   5.857
  553SOL    HW1 2558   3.596   2.270   5.847
  553SOL    HW2 2559   3.524   2.142   5.777
  554SOL     OW 2560   6.692   5.725   0.502
  554SOL    HW1 2561   6.764   5.775   0.550
  554SOL    HW2 2562   6.640   5.670   0.567
  555SOL     OW 2563   2.623   4.394   6.247
  555SOL    HW1 2564   2.686   4.472   6.252
  555SOL    HW2 2565   2.581   4.379   6.336
  556SOL     OW 2566   6.205   6.237   2.097
  556SOL    HW1 2567   6.126   6.261   2.154
  556SOL    HW2 2568   6.195   6.280   2.007
  557SOL     OW 2569   5.514   3.716   6.135
  557SOL    HW1 2570   5.480   3.671   6.218
  557SOL    HW2 2571   5.437   3.748   6.081
  558SOL     OW 2572   3.229   3.749   2.352
  558SOL    HW1 2573   3.193   3.713   2.438
  558SOL    HW2 2574   3.328   3.734   2.348
  559SOL     OW 2575   6.225   1.296   6.436
  559SOL    HW1 2576   6.292   1.355   6.481
  559SOL    HW2 2577   6.263   1.260   6.351
  560SOL     OW 2578   0.349   2.341   3.771
  560SOL    HW1 2579   0.319   2.257   3.817
  560SOL    HW2 2580   0.436   2.324   3.726
  561SOL     OW 2581   0.268   3.984   7.021
  561SOL    HW1 2582   0.273   4.067   6.966
  561SOL    HW2 2583   0.357   3.938   7.021
  562SOL     OW 2584   4.654   6.347   3.564
  562SOL    HW1 2585   4.632   6.380   3.655
  562SOL    HW2 2586   4.709   6.415   3.516
  563SOL     OW 2587   1.264   1.116   3.858
  563SOL    HW1 2588   1.189   1.052   3.879
  563SOL    HW2 2589   1.351   1.071   3.877
  564SOL     OW 2590   5.727   1.946   5.521
  564SOL    HW1 2591   5.728   2.026   5.582
  564SOL    HW2 2592   5.739   1.863   5.575
  565SOL     OW 2593   2.962   3.441   3.713
  565SOL    HW1 2594   2.895   3.402   3.651
  565SOL    HW2 2595   2.955   3.541   3.712
  566SOL     OW 2596   2.053   2.422   3.545
  566SOL    HW1 2597   2.074   2.349   3.480
  566SOL    HW2 2598   2.080   2.394   3.637
  567SOL     OW 2599   1.983   3.525   5.364
  567SOL    HW1 2600   1.986   3.425   5.363
  567SOL    HW2 2601   2.044   3.560   5.436
  568SOL     OW 2602   1.290   6.925   6.913
  568SOL    HW1 2603   1.287   6.981   6.996
  568SOL    HW2 2604   1.306   6.829   6.938
  569SOL     OW 2605   5.191   3.624   5.888
  569SOL    HW1 2606   5.118   3.688   5.863
  569SOL    HW2 2607   5.273   3.676   5.913
  570SOL     OW 2608   3.995   0.622   6.113
  570SOL    HW1 2609   3.999   0.524   6.131
  570SOL    HW2 2610   3.904   0.647   6.078
  571SOL     OW 2611   2.460   4.396   1.763
  571SOL    HW1 2612   2.542   4.349   1.731
  571SOL    HW2 2613   2.475   4.429   1.856
  572SOL     OW 2614   3.195   1.135   4.310
  572SOL    HW1 2615   3.103   1.151   4.275
  572SOL    HW2 2616   3.195   1.142   4.409
  573SOL     OW 2617   0.458   0.796   5.415
  573SOL    HW1 2618   0.405   0.727   5.465
  573SOL    HW2 2619   0.397   0.868   5.381
  574SOL     OW 2620   1.999   0.998   6.367
  574SOL    HW1 2621   1.967   1.092   6.354
  574SOL    HW2 2622   2.011   0.954   6.279
  575SOL     OW 2623   3.940   3.825   0.499
  575SOL    HW1 2624   3.949   3.725   0.499
  575SOL    HW2 2625   4.028   3.866   0.522
  576SOL     OW 2626   0.929   0.940   2.992
  576SOL    HW1 2627   0.858   0.871   3.007
  576SOL    HW2 2628   0.967   0.968   3.081
  577SOL     OW 2629   0.194   0.366   2.086
  577SOL    HW1 2630   0.211   0.459   2.053
  577SOL    HW2 2631   0.282   0.319   2.098
  578SOL     OW 2632   4.251   6.704   0.093
  578SOL    HW1 2633   4.316   6.772   0.061
  578SOL    HW2 2634   4.161   6.723   0.054
  579SOL     OW 2635   0.948   3.978   2.098
  579SOL    HW1 2636   0.875   3.928   2.052
  579SOL    HW2 2637   0.911   4.062   2.138
  580SOL     OW 2638   4.659   5.082   4.432
  580SOL    HW1 2639   4.723   5.091   4.356
  580SOL    HW2 2640   4.592   5.010   4.412
  581SOL     OW 2641   1.792   2.589   4.256
  581SOL    HW1 2642   1.859   2.550   4.194
  581SOL    HW2 2643   1.735   2.654   4.206
  582SOL     OW 2644   5.577   4.306   5.484
  582SOL    HW1 2645   5.542   4.356   5.405
  582SOL    HW2 2646   5.510   4.309   5.558
  583SOL     OW 2647   3.165   6.167   5.660
  583SOL    HW1 2648   3.149   6.233   5.586
  583SOL    HW2 2649   3.263   6.147   5.666
  584SOL     OW 2650   4.011   0.881   4.846
  584SOL    HW1 2651   3.959   0.802   4.880
  584SOL    HW2 2652   4.095   0.892   4.899
  585SOL     OW 2653   3.507   6.635   1.567
  585SOL    HW1 2654   3.600   6.612   1.536
  585SOL    HW2 2655   3.440   6.589   1.508
  586SOL     OW 2656   3.591   0.142   0.493
  586SOL    HW1 2657   3.568   0.082   0.569
  586SOL    HW2 2658   3.539   0.116   0.412
  587SOL     OW 2659   4.929   1.400   2.589
  587SOL    HW1 2660   4.909   1.314   2.543
  587SOL    HW2 2661   5.026   1.405   2.612
  588SOL     OW 2662   2.341   4.616   2.643
  588SOL    HW1 2663   2.271   4.647   2.578
  588SOL    HW2 2664   2.305   4.538   2.695
  589SOL     OW 2665   3.442   5.014   0.447
  589SOL    HW1 2666   3.517   4.986   0.506
  589SOL    HW2 2667   3.471   5.009   0.352
  590SOL     OW 2668   2.892   2.281   6.384
  590SOL    HW1 2669   2.795   2.260   6.373
  590SOL    HW2 2670   2.938   2.276   6.296
  591SOL     OW 2671   2.751   6.723   3.779
  591SOL    HW1 2672   2.829   6.782   3.803
  591SOL    HW2 2673   2.666   6.775   3.789
  592SOL     OW 2674   4.828   2.616   5.047
  592SOL    HW1 2675   4.770   2.578   5.119
  592SOL    HW2 2676   4.771   2.657   4.976
  593SOL     OW 2677   1.952   0.941   6.899
  593SOL    HW1 2678   2.022   0.991   6.848
  593SOL    HW2 2679   1.922   0.862   6.846
  594SOL     OW 2680   3.660   1.082   4.148
  594SOL    HW1 2681   3.723   1.074   4.071
  594SOL    HW2 2682   3.702   1.139   4.220
  595SOL     OW 2683   6.175   3.949   2.345
  595SOL    HW1 2684   6.096   3.985   2.394
  595SOL    HW2 2685   6.249   4.017   2.347
  596SOL     OW 2686   5.716   4.643   4.291
  596SOL    HW1 2687   5.789   4.678   4.350
  596SOL    HW2 2688   5.755   4.616   4.203
  597SOL     OW 2689   3.089   1.875   6.736
  597SOL    HW1 2690   3.094   1.823   6.650
  597SOL    HW2 2691   3.041   1.961   6.720
  598SOL     OW 2692   3.186   3.498   3.206
  598SOL    HW1 2693   3.086   3.496   3.212
  598SOL    HW2 2694   3.220   3.404   3.204
  599SOL     OW 2695   1.916   4.938   1.304
  599SOL    HW1 2696   1.893   5.011   1.369
  599SOL    HW2 2697   2.015   4.922   1.305
  600SOL     OW 2698   0.423   3.751   4.837
  600SOL    HW1 2699   0.437   3.850   4.843
  600SOL    HW2 2700   0.509   3.704   4.857
  601SOL     OW 2701   0.478   6.395   6.005
  601SOL    HW1 2702   0.455   6.319   5.945
  601SOL    HW2 2703   0.489   6.479   5.951
  602SOL     OW 2704   1.444   1.226   3.411
  602SOL    HW1 2705   1.450   1.326   3.405
  602SOL    HW2 2706   1.469   1.186   3.323
  603SOL     OW 2707   1.503   2.129   3.904
  603SOL    HW1 2708   1.408   2.131   3.935
  603SOL    HW2 2709   1.559   2.081   3.971
  604SOL     OW 2710   5.338   2.737   0.972
  604SOL    HW1 2711   5.241   2.713   0.974
  604SOL    HW2 2712   5.389   2.670   1.025
  605SOL     OW 2713   5.862   6.341   1.206
  605SOL    HW1 2714   5.935   6.272   1.213
  605SOL    HW2 2715   5.787   6.305   1.152
  606SOL     OW 2716   3.337   6.397   4.828
  606SOL    HW1 2717   3.423   6.442   4.854
  606SOL    HW2 2718   3.344   6.299   4.845
  607SOL     OW 2719   1.546   2.745   6.013
  607SOL    HW1 2720   1.613   2.740   5.939
  607SOL    HW2 2721   1.465   2.691   5.989
  608SOL     OW 2722   3.316   1.374   6.913
  608SOL    HW1 2723   3.223   1.370   6.876
  608SOL    HW2 2724   3.333   1.292   6.968
  609SOL     OW 2725   3.828   2.963   2.165
  609SOL    HW1 2726   3.886   3.023   2.221
  609SOL    HW2 2727   3.755   2.925   2.222
  610SOL     OW 2728   4.879   3.363   1.801
  610SOL    HW1 2729   4.807   3.302   1.766
  610SOL    HW2 2730   4.847   3.458   1.797
  611SOL     OW 2731   4.052   1.014   2.224
  611SOL    HW1 2732   4.023   0.935   2.170
  611SOL    HW2 2733   3.974   1.047   2.278
  612SOL     OW 2734   4.948   4.522   4.255
  612SOL    HW1 2735   4.987   4.505   4.165
  612SOL    HW2 2736   5.018   4.508   4.325
  613SOL     OW 2737   3.971   5.114   6.410
  613SOL    HW1 2738   3.925   5.051   6.347
  613SOL    HW2 2739   4.069   5.116   6.390
  614SOL     OW 2740   3.019   6.646   6.723
  614SOL    HW1 2741   3.063   6.712   6.784
  614SOL    HW2 2742   3.026   6.679   6.628
  615SOL     OW 2743   6.947   5.075   3.052
  615SOL    HW1 2744   6.931   5.126   3.136
  615SOL    HW2 2745   6.930   5.134   2.973
  616SOL     OW 2746   6.390   3.114   3.928
  616SOL    HW1 2747   6.318   3.147   3.867
  616SOL    HW2 2748   6.353   3.044   3.989
  617SOL     OW 2749   2.578   0.417   5.712
  617SOL    HW1 2750   2.519   0.453   5.784
  617SOL    HW2 2751   2.595   0.320   5.728
  618SOL     OW 2752   1.863   0.871   3.856
  618SOL    HW1 2753   1.833   0.962   3.886
  618SOL    HW2 2754   1.956   0.877   3.819
  619SOL     OW 2755   1.120   2.151   6.870
  619SOL    HW1 2756   1.188   2.196   6.813
  619SOL    HW2 2757   1.136   2.052   6.870
  620SOL     OW 2758   4.801   3.634   0.501
  620SOL    HW1 2759   4.877   3.697   0.485
  620SOL    HW2 2760   4.836   3.540   0.503
  621SOL     OW 2761   0.074   5.622   0.743
  621SOL    HW1 2762   0.013   5.554   0.704
  621SOL    HW2 2763   0.051   5.637   0.839
  622SOL     OW 2764   0.381   0.861   0.102
  622SOL    HW1 2765   0.452   0.890   0.038
  622SOL    HW2 2766   0.403   0.895   0.194
  623SOL     OW 2767   0.371   4.626   5.091
  623SOL    HW1 2768   0.368   4.653   5.188
  623SOL    HW2 2769   0.335   4.701   5.035
  624SOL     OW 2770   0.510   1.623   1.173
  624SOL    HW1 2771   0.563   1.698   1.213
  624SOL    HW2 2772   0.549   1.536   1.200
  625SOL     OW 2773   1.584   1.372   2.617
  625SOL    HW1 2774   1.674   1.345   2.583
  625SOL    HW2 2775   1.546   1.297   2.671
  626SOL     OW 2776   2.845   5.829   5.064
  626SOL    HW1 2777   2.848   5.795   5.158
  626SOL    HW2 2778   2.910   5.778   5.008
  627SOL     OW 2779   5.123   6.613   6.828
  627SOL    HW1 2780   5.050   6.569   6.880
  627SOL    HW2 2781   5.182   6.664   6.891
  628SOL     OW 2782   5.741   4.076   2.843
  628SOL    HW1 2783   5.769   3.984   2.815
  628SOL    HW2 2784   5.822   4.135   2.846
  629SOL     OW 2785   1.406   0.442   1.045
  629SOL    HW1 2786   1.401   0.363   0.983
  629SOL    HW2 2787   1.438   0.521   0.994
  630SOL     OW 2788   2.873   1.227   1.345
  630SOL    HW1 2789   2.882   1.172   1.262
  630SOL    HW2 2790   2.873   1.324   1.320
  631SOL     OW 2791   2.912   0.744   4.458
  631SOL    HW1 2792   2.946   0.668   4.402
  631SOL    HW2 2793   2.816   0.727   4.483
  632SOL     OW 2794   2.876   0.602   0.816
  632SOL    HW1 2795   2.868   0.504   0.800
  632SOL    HW2 2796   2.965   0.622   0.857
  633SOL     OW 2797   2.333   0.116   5.226
  633SOL    HW1 2798   2.348   0.152   5.318
  633SOL    HW2 2799   2.236   0.095   5.214
  634SOL     OW 2800   2.640   5.894   1.903
  634SOL    HW1 2801   2.631   5.976   1.959
  634SOL    HW2 2802   2.736   5.882   1.877
  635SOL     OW 2803   3.054   7.012   3.040
  635SOL    HW1 2804   3.030   0.055   3.111
  635SOL    HW2 2805   3.144   0.010   3.003
  636SOL     OW 2806   4.546   5.291   6.477
  636SOL    HW1 2807   4.590   5.346   6.407
  636SOL    HW2 2808   4.604   5.287   6.558
  637SOL     OW 2809   5.694   5.032   6.533
  637SOL    HW1 2810   5.636   4.990   6.463
  637SOL    HW2 2811   5.768   5.082   6.488
  638SOL     OW 2812   5.509   1.594   3.599
  638SOL    HW1 2813   5.534   1.542   3.680
  638SOL    HW2 2814   5.550   1.552   3.518
  639SOL     OW 2815   4.727   3.720   1.618
  639SOL    HW1 2816   4.658   3.675   1.675
  639SOL    HW2 2817   4.741   3.666   1.535
  640SOL     OW 2818   2.392   3.284   5.341
  640SOL    HW1 2819   2.471   3.345   5.348
  640SOL    HW2 2820   2.417   3.202   5.289
  641SOL     OW 2821   6.888   5.734   5.031
  641SOL    HW1 2822   6.797   5.771   5.019
  641SOL    HW2 2823   6.896   5.694   5.122
  642SOL     OW 2824   1.595   4.373   6.247
  642SOL    HW1 2825   1.605   4.378   6.148
  642SOL    HW2 2826   1.544   4.453   6.280
  643SOL     OW 2827   5.971   6.064   4.808
  643SOL    HW1 2828   6.033   6.057   4.730
  643SOL    HW2 2829   5.984   6.152   4.853
  644SOL     OW 2830   2.214   6.326   1.486
  644SOL    HW1 2831   2.302   6.289   1.454
  644SOL    HW2 2832   2.199   6.416   1.445
  645SOL     OW 2833   0.402   2.716   3.065
  645SOL    HW1 2834   0.457   2.744   2.986
  645SOL    HW2 2835   0.319   2.772   3.069
  646SOL     OW 2836   1.328   3.229   4.664
  646SOL    HW1 2837   1.331   3.218   4.565
  646SOL    HW2 2838   1.233   3.238   4.694
  647SOL     OW 2839   5.365   3.402   0.608
  647SOL    HW1 2840   5.385   3.387   0.511
  647SOL    HW2 2841   5.426   3.472   0.644
  648SOL     OW 2842   4.473   2.375   4.376
  648SOL    HW1 2843   4.499   2.279   4.375
  648SOL    HW2 2844   4.414   2.393   4.454
  649SOL     OW 2845   4.445   4.533   1.888
  649SOL    HW1 2846   4.525   4.576   1.847
  649SOL    HW2 2847   4.464   4.436   1.905
  650SOL     OW 2848   5.084   4.737   0.665
  650SOL    HW1 2849   5.060   4.808   0.599
  650SOL    HW2 2850   5.176   4.753   0.701
  651SOL     OW 2851   1.326   5.755   6.483
  651SOL    HW1 2852   1.330   5.777   6.386
  651SOL    HW2 2853   1.413   5.779   6.526
  652SOL     OW 2854   4.974   1.863   2.434
  652SOL    HW1 2855   4.920   1.805   2.495
  652SOL    HW2 2856   4.992   1.951   2.479
  653SOL     OW 2857   3.683   4.910   2.957
  653SOL    HW1 2858   3.665   4.853   3.037
  653SOL    HW2 2859   3.763   4.874   2.908
  654SOL     OW 2860   6.719   5.317   6.329
  654SOL    HW1 2861   6.638   5.340   6.384
  654SOL    HW2 2862   6.698   5.239   6.270
  655SOL     OW 2863   0.897   1.952   6.995
  655SOL    HW1 2864   0.979   1.904   6.966
  655SOL    HW2 2865   0.918   2.013   0.048
  656SOL     OW 2866   1.941   6.174   1.234
  656SOL    HW1 2867   1.884   6.100   1.199
  656SOL    HW2 2868   1.886   6.256   1.247
  657SOL     OW 2869   4.203   0.902   0.274
  657SOL    HW1 2870   4.274   0.884   0.205
  657SOL    HW2 2871   4.130   0.956   0.232
  658SOL     OW 2872   3.720   5.380   6.780
  658SOL    HW1 2873   3.644   5.316   6.779
  658SOL    HW2 2874   3.693   5.465   6.735
  659SOL     OW 2875   3.924   0.611   5.738
  659SOL    HW1 2876   4.015   0.651   5.725
  659SOL    HW2 2877   3.855   0.683   5.733
  660SOL     OW 2878   3.797   6.087   3.202
  660SOL    HW1 2879   3.824   6.168   3.150
  660SOL    HW2 2880   3.858   6.076   3.281
  661SOL     OW 2881   5.527   4.946   2.510
  661SOL    HW1 2882   5.586   4.879   2.555
  661SOL    HW2 2883   5.432   4.931   2.539
  662SOL     OW 2884   4.074   1.591   0.316
  662SOL    HW1 2885   4.137   1.586   0.394
  662SOL    HW2 2886   4.121   1.633   0.238
  663SOL     OW 2887   1.531   4.156   4.705
  663SOL    HW1 2888   1.472   4.097   4.650
  663SOL    HW2 2889   1.570   4.228   4.647
  664SOL     OW 2890   5.877   0.176   6.094
  664SOL    HW1 2891   5.973   0.186   6.068
  664SOL    HW2 2892   5.844   0.086   6.067
  665SOL     OW 2893   0.957   4.406   1.639
  665SOL    HW1 2894   1.038   4.393   1.696
  665SOL    HW2 2895   0.976   4.373   1.546
  666SOL     OW 2896   4.657   1.331   1.934
  666SOL    HW1 2897   4.635   1.318   1.838
  666SOL    HW2 2898   4.573   1.321   1.989
  667SOL     OW 2899   1.055   0.172   2.197
  667SOL    HW1 2900   0.955   0.175   2.201
  667SOL    HW2 2901   1.089   0.249   2.143
  668SOL     OW 2902   5.904   3.309   6.827
  668SOL    HW1 2903   5.885   3.379   6.896
  668SOL    HW2 2904   5.935   3.226   6.872
  669SOL     OW 2905   5.249   1.694   3.258
  669SOL    HW1 2906   5.291   1.751   3.328
  669SOL    HW2 2907   5.319   1.640   3.212
  670SOL     OW 2908   3.793   2.079   2.247
  670SOL    HW1 2909   3.694   2.065   2.247
  670SOL    HW2 2910   3.812   2.176   2.236
  671SOL     OW 2911   2.113   6.238   2.253
  671SOL    HW1 2912   2.199   6.271   2.213
  671SOL    HW2 2913   2.041   6.305   2.238
  672SOL     OW 2914   0.642   0.197   1.923
  672SOL    HW1 2915   0.619   0.224   2.016
  672SOL    HW2 2916   0.701   0.116   1.926
  673SOL     OW 2917   6.131   6.645   6.580
  673SOL    HW1 2918   6.228   6.630   6.563
  673SOL    HW2 2919   6.116   6.667   6.676
  674SOL     OW 2920   5.248   0.305   4.064
  674SOL    HW1 2921   5.302   0.260   3.993
  674SOL    HW2 2922   5.244   0.247   4.145
  675SOL     OW 2923   0.434   3.941   2.512
  675SOL    HW1 2924   0.376   3.916   2.590
  675SOL    HW2 2925   0.517   3.885   2.514
  676SOL     OW 2926   2.548   6.001   6.725
  676SOL    HW1 2927   2.480   6.005   6.798
  676SOL    HW2 2928   2.515   6.052   6.646
  677SOL     OW 2929   5.844   1.277   1.161
  677SOL    HW1 2930   5.843   1.366   1.115
  677SOL    HW2 2931   5.926   1.226   1.133
  678SOL     OW 2932   1.195   5.278   3.956
  678SOL    HW1 2933   1.202   5.307   3.860
  678SOL    HW2 2934   1.098   5.273   3.982
  679SOL     OW 2935   4.803   1.818   5.251
  679SOL    HW1 2936   4.853   1.805   5.165
  679SOL    HW2 2937   4.726   1.754   5.254
  680SOL     OW 2938   6.366   6.362   3.744
  680SOL    HW1 2939   6.303   6.295   3.784
  680SOL    HW2 2940   6.382   6.435   3.811
  681SOL     OW 2941   4.551   4.857   2.840
  681SOL    HW1 2942   4.530   4.921   2.913
  681SOL    HW2 2943   4.605   4.903   2.770
  682SOL     OW 2944   6.911   1.709   3.089
  682SOL    HW1 2945   6.829   1.660   3.058
  682SOL    HW2 2946   6.959   1.747   3.010
  683SOL     OW 2947   3.289   4.026   0.688
  683SOL    HW1 2948   3.222   3.960   0.655
  683SOL    HW2 2949   3.293   4.024   0.788
  684SOL     OW 2950   6.227   1.553   5.580
  684SOL    HW1 2951   6.273   1.484   5.635
  684SOL    HW2 2952   6.198   1.512   5.493
  685SOL     OW 2953   3.046   6.750   2.953
  685SOL    HW1 2954   3.044   6.683   3.027
  685SOL    HW2 2955   3.053   6.842   2.992
  686SOL     OW 2956   3.932   0.612   5.407
  686SOL    HW1 2957   3.932   0.590   5.309
  686SOL    HW2 2958   4.022   0.592   5.446
  687SOL     OW 2959   0.163   1.226   4.284
  687SOL    HW1 2960   0.160   1.134   4.323
  687SOL    HW2 2961   0.070   1.253   4.256
  688SOL     OW 2962   5.732   2.019   0.214
  688SOL    HW1 2963   5.681   1.971   0.142
  688SOL    HW2 2964   5.713   2.117   0.208
  689SOL     OW 2965   2.117   5.485   0.229
  689SOL    HW1 2966   2.052   5.460   0.158
  689SOL    HW2 2967   2.208   5.494   0.188
  690SOL     OW 2968   5.655   3.616   3.616
  690SOL    HW1 2969   5.721   3.677   3.572
  690SOL    HW2 2970   5.686   3.595   3.709
  691SOL     OW 2971   5.558   1.175   1.637
  691SOL    HW1 2972   5.611   1.091   1.631
  691SOL    HW2 2973   5.615   1.249   1.673
  692SOL     OW 2974   1.565   1.315   3.896
  692SOL    HW1 2975   1.475   1.307   3.938
  692SOL    HW2 2976   1.585   1.411   3.878
  693SOL     OW 2977   5.713   4.524   3.157
  693SOL    HW1 2978   5.796   4.563   3.196
  693SOL    HW2 2979   5.694   4.435   3.199
  694SOL     OW 2980   3.993   5.681   4.269
  694SOL    HW1 2981   3.948   5.767   4.245
  694SOL    HW2 2982   3.965   5.609   4.205
  695SOL     OW 2983   4.781   6.671   3.792
  695SOL    HW1 2984   4.843   6.593   3.799
  695SOL    HW2 2985   4.827   6.754   3.824
  696SOL     OW 2986   5.842   3.985   2.183
  696SOL    HW1 2987   5.743   3.978   2.170
  696SOL    HW2 2988   5.887   3.905   2.145
  697SOL     OW 2989   0.524   6.587   2.572
  697SOL    HW1 2990   0.549   6.534   2.653
  697SOL    HW2 2991   0.506   6.682   2.599
  698SOL     OW 2992   5.453   6.302   6.155
  698SOL    HW1 2993   5.440   6.387   6.103
  698SOL    HW2 2994   5.534   6.254   6.121
  699SOL     OW 2995   4.349   4.001   0.729
  699SOL    HW1 2996   4.431   4.014   0.785
  699SOL    HW2 2997   4.270   3.984   0.789
  700SOL     OW 2998   3.460   6.633   5.427
  700SOL    HW1 2999   3.379   6.574   5.433
  700SOL    HW2 3000   3.512   6.609   5.345
  701SOL     OW 3001   4.887   5.140   1.803
  701SOL    HW1 3002   4.860   5.231   1.834
  701SOL    HW2 3003   4.841   5.119   1.716
  702SOL     OW 3004   4.276   0.401   4.680
  702SOL    HW1 3005   4.188   0.379   4.720
  702SOL    HW2 3006   4.335   0.443   4.750
  703SOL     OW 3007   3.258   3.212   0.007
  703SOL    HW1 3008   3.311   3.160   0.073
  703SOL    HW2 3009   3.284   3.308   0.012
  704SOL     OW 3010   3.603   1.206   6.162
  704SOL    HW1 3011   3.571   1.282   6.218
  704SOL    HW2 3012   3.525   1.161   6.118
  705SOL     OW 3013   0.092   6.479   5.838
  705SOL    HW1 3014   0.084   6.387   5.878
  705SOL    HW2 3015   0.173   6.483   5.781
  706SOL     OW 3016   3.370   0.845   4.738
  706SOL    HW1 3017   3.443   0.913   4.730
  706SOL    HW2 3018   3.294   0.884   4.791
  707SOL     OW 3019   3.166   5.368   4.284
  707SOL    HW1 3020   3.212   5.348   4.197
  707SOL    HW2 3021   3.067   5.361   4.271
  708SOL     OW 3022   3.477   5.842   4.117
  708SOL    HW1 3023   3.533   5.906   4.064
  708SOL    HW2 3024   3.441   5.889   4.198
  709SOL     OW 3025   2.510   0.133   1.748
  709SOL    HW1 3026   2.605   0.108   1.730
  709SOL    HW2 3027   2.450   0.081   1.688
  710SOL     OW 3028   4.880   3.732   2.623
  710SOL    HW1 3029   4.826   3.783   2.691
  710SOL    HW2 3030   4.887   3.786   2.539
  711SOL     OW 3031   0.852   1.777   0.565
  711SOL    HW1 3032   0.839   1.875   0.583
  711SOL    HW2 3033   0.797   1.724   0.629
  712SOL     OW 3034   5.415   3.942   6.718
  712SOL    HW1 3035   5.333   3.898   6.753
  712SOL    HW2 3036   5.395   4.037   6.695
  713SOL     OW 3037   4.038   3.234   6.178
  713SOL    HW1 3038   4.116   3.234   6.240
  713SOL    HW2 3039   4.070   3.225   6.084
  714SOL     OW 3040   5.230   6.510   3.014
  714SOL    HW1 3041   5.219   6.416   3.044
  714SOL    HW2 3042   5.140   6.552   3.001
  715SOL     OW 3043   5.856   4.984   4.907
  715SOL    HW1 3044   5.928   4.929   4.949
  715SOL    HW2 3045   5.790   5.011   4.976
  716SOL     OW 3046   3.104   2.191   3.683
  716SOL    HW1 3047   3.133   2.213   3.777
  716SOL    HW2 3048   3.180   2.150   3.634
  717SOL     OW 3049   5.106   5.209   3.714
  717SOL    HW1 3050   5.121   5.230   3.617
  717SOL    HW2 3051   5.014   5.171   3.725
  718SOL     OW 3052   6.070   2.120   5.248
  718SOL    HW1 3053   5.982   2.107   5.201
  718SOL    HW2 3054   6.134   2.049   5.220
  719SOL     OW 3055   4.837   6.287   3.133
  719SOL    HW1 3056   4.796   6.362   3.080
  719SOL    HW2 3057   4.766   6.223   3.161
  720SOL     OW 3058   3.161   1.427   1.702
  720SOL    HW1 3059   3.159   1.354   1.770
  720SOL    HW2 3060   3.067   1.456   1.682
  721SOL     OW 3061   6.752   3.107   2.011
  721SOL    HW1 3062   6.774   3.149   1.923
  721SOL    HW2 3063   6.754   3.007   2.001
  722SOL     OW 3064   4.945   6.174   1.371
  722SOL    HW1 3065   5.029   6.203   1.416
  722SOL    HW2 3066   4.967   6.138   1.280
  723SOL     OW 3067   2.303   1.072   4.409
  723SOL    HW1 3068   2.293   1.039   4.316
  723SOL    HW2 3069   2.383   1.132   4.414
  724SOL     OW 3070   0.993   2.529   4.369
  724SOL    HW1 3071   0.990   2.455   4.437
  724SOL    HW2 3072   0.910   2.584   4.377
  725SOL     OW 3073   1.625   4.519   2.854
  725SOL    HW1 3074   1.596   4.431   2.892
  725SOL    HW2 3075   1.676   4.570   2.924
  726SOL     OW 3076   2.212   3.943   0.585
  726SOL    HW1 3077   2.262   3.861   0.555
  726SOL    HW2 3078   2.132   3.915   0.638
  727SOL     OW 3079   3.373   5.689   4.981
  727SOL    HW1 3080   3.426   5.755   5.035
  727SOL    HW2 3081   3.403   5.596   5.003
  728SOL     OW 3082   6.865   3.014   3.788
  728SOL    HW1 3083   6.765   3.018   3.792
  728SOL    HW2 3084   6.900   2.979   3.875
  729SOL     OW 3085   0.879   4.462   0.746
  729SOL    HW1 3086   0.846   4.485   0.837
  729SOL    HW2 3087   0.836   4.377   0.715
  730SOL     OW 3088   4.645   1.563   3.162
  730SOL    HW1 3089   4.714   1.615   3.110
  730SOL    HW2 3090   4.557   1.569   3.115
  731SOL     OW 3091   4.728   4.631   4.393
  731SOL    HW1 3092   4.784   4.679   4.460
  731SOL    HW2 3093   4.787   4.585   4.327
  732SOL     OW 3094   3.992   0.543   4.271
  732SOL    HW1 3095   4.004   0.627   4.220
  732SOL    HW2 3096   4.035   0.552   4.361
  733SOL     OW 3097   6.547   5.006   3.770
  733SOL    HW1 3098   6.520   5.102   3.763
  733SOL    HW2 3099   6.587   4.976   3.684
  734SOL     OW 3100   6.153   6.625   2.597
  734SOL    HW1 3101   6.147   6.560   2.522
  734SOL    HW2 3102   6.090   6.701   2.581
  735SOL     OW 3103   4.041   0.324   2.318
  735SOL    HW1 3104   4.079   0.245   2.270
  735SOL    HW2 3105   4.103   0.351   2.392
  736SOL     OW 3106   1.866   1.768   3.626
  736SOL    HW1 3107   1.911   1.701   3.686
  736SOL    HW2 3108   1.821   1.838   3.682
  737SOL     OW 3109   3.348   1.094   6.080
  737SOL    HW1 3110   3.277   1.141   6.028
  737SOL    HW2 3111   3.358   1.001   6.045
  738SOL     OW 3112   1.527   4.846   0.083
  738SOL    HW1 3113   1.511   4.862   0.181
  738SOL    HW2 3114   1.578   4.924   0.046
  739SOL     OW 3115   1.570   0.301   3.600
  739SOL    HW1 3116   1.547   0.367   3.529
  739SOL    HW2 3117   1.543   0.337   3.689
  740SOL     OW 3118   5.019   3.378   3.450
  740SOL    HW1 3119   5.057   3.345   3.364
  740SOL    HW2 3120   5.075   3.453   3.485
  741SOL     OW 3121   3.058   1.122   2.880
  741SOL    HW1 3122   2.986   1.098   2.814
  741SOL    HW2 3123   3.089   1.216   2.862
  742SOL     OW 3124   1.619   0.053   2.156
  742SOL    HW1 3125   1.618   0.147   2.190
  742SOL    HW2 3126   1.542   0.039   2.094
  743SOL     OW 3127   0.324   6.202   3.122
  743SOL    HW1 3128   0.244   6.203   3.062
  743SOL    HW2 3129   0.312   6.134   3.193
  744SOL     OW 3130   4.699   1.533   0.865
  744SOL    HW1 3131   4.733   1.511   0.956
  744SOL    HW2 3132   4.698   1.632   0.852
  745SOL     OW 3133   2.202   6.527   5.026
  745SOL    HW1 3134   2.294   6.557   5.051
  745SOL    HW2 3135   2.179   6.443   5.076
  746SOL     OW 3136   6.920   4.978   4.799
  746SOL    HW1 3137   6.838   4.990   4.743
  746SOL    HW2 3138   6.897   4.986   4.895
  747SOL     OW 3139   4.536   5.313   2.883
  747SOL    HW1 3140   4.488   5.401   2.876
  747SOL    HW2 3141   4.634   5.328   2.876
  748SOL     OW 3142   5.841   4.510   1.195
  748SOL    HW1 3143   5.869   4.417   1.171
  748SOL    HW2 3144   5.804   4.555   1.114
  749SOL     OW 3145   4.838   4.613   5.280
  749SOL    HW1 3146   4.757   4.658   5.318
  749SOL    HW2 3147   4.811   4.527   5.236
  750SOL     OW 3148   2.329   2.047   3.264
  750SOL    HW1 3149   2.245   2.078   3.220
  750SOL    HW2 3150   2.408   2.077   3.211
  751SOL     OW 3151   3.635   0.885   0.549
  751SOL    HW1 3152   3.663   0.799   0.506
  751SOL    HW2 3153   3.584   0.940   0.482
  752SOL     OW 3154   3.414   2.872   4.966
  752SOL    HW1 3155   3.460   2.785   4.946
  752SOL    HW2 3156   3.366   2.864   5.054
  753SOL     OW 3157   3.757   4.122   3.841
  753SOL    HW1 3158   3.832   4.189   3.842
  753SOL    HW2 3159   3.725   4.109   3.747
  754SOL     OW 3160   4.911   0.276   6.833
  754SOL    HW1 3161   4.943   0.330   6.911
  754SOL    HW2 3162   4.871   0.336   6.765
  755SOL     OW 3163   4.579   4.607   5.088
  755SOL    HW1 3164   4.570   4.557   5.174
  755SOL    HW2 3165   4.497   4.594   5.033
  756SOL     OW 3166   3.192   5.235   6.321
  756SOL    HW1 3167   3.167   5.296   6.397
  756SOL    HW2 3168   3.162   5.276   6.235
  757SOL     OW 3169   1.430   0.074   1.884
  757SOL    HW1 3170   1.388   7.009   1.866
  757SOL    HW2 3171   1.499   0.094   1.815
  758SOL     OW 3172   4.172   1.393   4.174
  758SOL    HW1 3173   4.153   1.295   4.178
  758SOL    HW2 3174   4.207   1.425   4.262
  759SOL     OW 3175   0.059   3.436   4.048
  759SOL    HW1 3176   0.024   3.380   4.124
  759SOL    HW2 3177   0.087   3.376   3.973
  760SOL     OW 3178   6.305   5.526   3.590
  760SOL    HW1 3179   6.219   5.503   3.636
  760SOL    HW2 3180   6.324   5.624   3.602
  761SOL     OW 3181   4.898   4.853   6.121
  761SOL    HW1 3182   4.857   4.766   6.095
  761SOL    HW2 3183   4.866   4.925   6.059
  762SOL     OW 3184   3.713   5.386   4.103
  762SOL    HW1 3185   3.662   5.317   4.050
  762SOL    HW2 3186   3.741   5.346   4.190
  763SOL     OW 3187   5.333   0.551   0.482
  763SOL    HW1 3188   5.423   0.578   0.516
  763SOL    HW2 3189   5.262   0.596   0.536
  764SOL     OW 3190   5.183   6.399   5.168
  764SOL    HW1 3191   5.159   6.359   5.256
  764SOL    HW2 3192   5.262   6.460   5.179
  765SOL     OW 3193   5.583   6.159   0.675
  765SOL    HW1 3194   5.520   6.082   0.665
  765SOL    HW2 3195   5.664   6.130   0.725
  766SOL     OW 3196   2.585   2.022   4.364
  766SOL    HW1 3197   2.558   2.074   4.283
  766SOL    HW2 3198   2.565   1.925   4.350
  767SOL     OW 3199   6.564   5.953   3.904
  767SOL    HW1 3200   6.639   5.887   3.902
  767SOL    HW2 3201   6.553   5.995   3.814
  768SOL     OW 3202   2.103   5.457   2.211
  768SOL    HW1 3203   2.068   5.398   2.284
  768SOL    HW2 3204   2.036   5.462   2.137
  769SOL     OW 3205   3.419   1.877   5.286
  769SOL    HW1 3206   3.341   1.866   5.348
  769SOL    HW2 3207   3.421   1.971   5.251
  770SOL     OW 3208   1.263   5.032   5.580
  770SOL    HW1 3209   1.208   4.994   5.654
  770SOL    HW2 3210   1.255   4.973   5.499
  771SOL     OW 3211   1.210   4.820   2.122
  771SOL    HW1 3212   1.242   4.829   2.216
  771SOL    HW2 3213   1.218   4.725   2.092
  772SOL     OW 3214   5.698   4.966   0.601
  772SOL    HW1 3215   5.752   5.034   0.650
  772SOL    HW2 3216   5.734   4.955   0.508
  773SOL     OW 3217   2.369   4.419   3.558
  773SOL    HW1 3218   2.451   4.419   3.500
  773SOL    HW2 3219   2.382   4.484   3.633
  774SOL     OW 3220   2.055   1.975   3.731
  774SOL    HW1 3221   2.129   2.035   3.699
  774SOL    HW2 3222   2.011   1.932   3.652
  775SOL     OW 3223   1.276   4.221   2.324
  775SOL    HW1 3224   1.296   4.174   2.238
  775SOL    HW2 3225   1.361   4.259   2.361
  776SOL     OW 3226   3.106   4.962   6.309
  776SOL    HW1 3227   3.160   5.038   6.346
  776SOL    HW2 3228   3.164   4.908   6.248
  777SOL     OW 3229   2.101   3.638   6.532
  777SOL    HW1 3230   2.057   3.549   6.518
  777SOL    HW2 3231   2.048   3.690   6.600
  778SOL     OW 3232   3.420   5.638   6.396
  778SOL    HW1 3233   3.320   5.641   6.404
  778SOL    HW2 3234   3.457   5.730   6.411
  779SOL     OW 3235   6.168   1.770   3.038
  779SOL    HW1 3236   6.084   1.728   3.070
  779SOL    HW2 3237   6.240   1.701   3.032
  780SOL     OW 3238   6.699   1.824   4.342
  780SOL    HW1 3239   6.605   1.790   4.347
  780SOL    HW2 3240   6.763   1.747   4.346
  781SOL     OW 3241   0.393   4.673   6.465
  781SOL    HW1 3242   0.461   4.602   6.481
  781SOL    HW2 3243   0.348   4.656   6.377
  782SOL     OW 3244   2.506   4.300   5.260
  782SOL    HW1 3245   2.460   4.310   5.348
  782SOL    HW2 3246   2.492   4.207   5.226
  783SOL     OW 3247   6.797   5.016   6.522
  783SOL    HW1 3248   6.850   5.083   6.471
  783SOL    HW2 3249   6.803   5.037   6.620
  784SOL     OW 3250   1.941   5.477   0.438
  784SOL    HW1 3251   1.989   5.466   0.525
  784SOL    HW2 3252   2.005   5.506   0.368
  785SOL     OW 3253   0.509   0.389   4.720
  785SOL    HW1 3254   0.540   0.372   4.813
  785SOL    HW2 3255   0.411   0.369   4.713
  786SOL     OW 3256   6.065   0.719   4.168
  786SOL    HW1 3257   5.989   0.766   4.212
  786SOL    HW2 3258   6.066   0.743   4.071
  787SOL     OW 3259   1.887   6.533   1.475
  787SOL    HW1 3260   1.882   6.501   1.569
  787SOL    HW2 3261   1.798   6.570   1.447
  788SOL     OW 3262   2.200   3.035   2.306
  788SOL    HW1 3263   2.260   3.088   2.246
  788SOL    HW2 3264   2.115   3.085   2.322
  789SOL     OW 3265   3.977   5.359   2.538
  789SOL    HW1 3266   4.058   5.351   2.481
  789SOL    HW2 3267   3.965   5.275   2.591
  790SOL     OW 3268   0.483   3.147   2.354
  790SOL    HW1 3269   0.525   3.159   2.265
  790SOL    HW2 3270   0.385   3.166   2.348
  791SOL     OW 3271   3.268   0.613   3.628
  791SOL    HW1 3272   3.315   0.701   3.634
  791SOL    HW2 3273   3.241   0.584   3.720
  792SOL     OW 3274   2.748   0.599   1.101
  792SOL    HW1 3275   2.651   0.600   1.123
  792SOL    HW2 3276   2.766   0.530   1.031
  793SOL     OW 3277   1.879   5.813   4.731
  793SOL    HW1 3278   1.920   5.892   4.776
  793SOL    HW2 3279   1.790   5.794   4.773
  794SOL     OW 3280   3.212   3.587   2.875
  794SOL    HW1 3281   3.136   3.529   2.848
  794SOL    HW2 3282   3.241   3.563   2.968
  795SOL     OW 3283   4.851   0.463   5.334
  795SOL    HW1 3284   4.898   0.374   5.335
  795SOL    HW2 3285   4.918   0.535   5.353
  796SOL     OW 3286   1.012   2.042   0.197
  796SOL    HW1 3287   1.092   1.997   0.158
  796SOL    HW2 3288   1.042   2.107   0.267
  797SOL     OW 3289   3.525   6.827   1.348
  797SOL    HW1 3290   3.558   6.794   1.260
  797SOL    HW2 3291   3.500   6.750   1.406
  798SOL     OW 3292   5.030   4.342   1.654
  798SOL    HW1 3293   4.970   4.262   1.656
  798SOL    HW2 3294   4.987   4.418   1.704
  799SOL     OW 3295   2.694   2.378   6.127
  799SOL    HW1 3296   2.751   2.450   6.165
  799SOL    HW2 3297   2.752   2.299   6.103
  800SOL     OW 3298   5.330   3.109   3.156
  800SOL    HW1 3299   5.314   3.055   3.239
  800SOL    HW2 3300   5.301   3.057   3.076
  801SOL     OW 3301   2.070   5.766   6.586
  801SOL    HW1 3302   2.082   5.735   6.680
  801SOL    HW2 3303   2.043   5.862   6.586
  802SOL     OW 3304   4.534   2.564   6.241
  802SOL    HW1 3305   4.577   2.498   6.179
  802SOL    HW2 3306   4.450   2.525   6.279
  803SOL     OW 3307   2.241   2.349   3.737
  803SOL    HW1 3308   2.299   2.425   3.706
  803SOL    HW2 3309   2.224   2.357   3.835
  804SOL     OW 3310   4.882   0.426   2.998
  804SOL    HW1 3311   4.797   0.420   3.049
  804SOL    HW2 3312   4.956   0.388   3.053
  805SOL     OW 3313   3.486   1.232   3.843
  805SOL    HW1 3314   3.418   1.218   3.915
  805SOL    HW2 3315   3.546   1.308   3.868
  806SOL     OW 3316   3.171   6.296   5.907
  806SOL    HW1 3317   3.198   6.392   5.919
  806SOL    HW2 3318   3.156   6.278   5.809
  807SOL     OW 3319   1.062   6.020   6.282
  807SOL    HW1 3320   1.134   5.986   6.221
  807SOL    HW2 3321   1.017   6.098   6.239
  808SOL     OW 3322   5.427   2.621   6.073
  808SOL    HW1 3323   5.380   2.542   6.034
  808SOL    HW2 3324   5.517   2.593   6.106
  809SOL     OW 3325   3.150   6.094   6.735
  809SOL    HW1 3326   3.198   6.013   6.770
  809SOL    HW2 3327   3.170   6.173   6.793
  810SOL     OW 3328   3.507   4.039   6.991
  810SOL    HW1 3329   3.510   4.064   6.895
  810SOL    HW2 3330   3.459   3.951   7.001
  811SOL     OW 3331   5.556   5.612   4.080
  811SOL    HW1 3332   5.498   5.571   4.150
  811SOL    HW2 3333   5.551   5.557   3.996
  812SOL     OW 3334   0.862   3.497   1.512
  812SOL    HW1 3335   0.917   3.438   1.453
  812SOL    HW2 3336   0.765   3.475   1.501
  813SOL     OW 3337   2.498   1.665   4.878
  813SOL    HW1 3338   2.523   1.727   4.804
  813SOL    HW2 3339   2.408   1.626   4.860
  814SOL     OW 3340   0.358   4.544   1.635
  814SOL    HW1 3341   0.307   4.545   1.721
  814SOL    HW2 3342   0.295   4.532   1.559
  815SOL     OW 3343   4.822   2.449   4.466
  815SOL    HW1 3344   4.862   2.495   4.386
  815SOL    HW2 3345   4.760   2.512   4.513
  816SOL     OW 3346   5.030   3.822   6.152
  816SOL    HW1 3347   4.958   3.809   6.220
  816SOL    HW2 3348   5.099   3.885   6.188
  817SOL     OW 3349   0.057   4.979   6.313
  817SOL    HW1 3350   0.043   4.880   6.310
  817SOL    HW2 3351   0.127   5.001   6.380
  818SOL     OW 3352   6.991   1.499   4.860
  818SOL    HW1 3353   0.042   1.539   4.913
  818SOL    HW2 3354   6.923   1.569   4.839
  819SOL     OW 3355   5.528   3.076   1.568
  819SOL    HW1 3356   5.501   3.095   1.473
  819SOL    HW2 3357   5.455   3.025   1.613
  820SOL     OW 3358   2.541   2.089   4.954
  820SOL    HW1 3359   2.448   2.106   4.921
  820SOL    HW2 3360   2.545   1.999   4.997
  821SOL     OW 3361   4.618   3.846   6.879
  821SOL    HW1 3362   4.534   3.792   6.876
  821SOL    HW2 3363   4.679   3.818   6.806
  822SOL     OW 3364   0.001   5.177   3.651
  822SOL    HW1 3365   7.019   5.131   3.562
  822SOL    HW2 3366   6.949   5.147   3.709
  823SOL     OW 3367   1.867   2.878   4.421
  823SOL    HW1 3368   1.829   2.840   4.506
  823SOL    HW2 3369   1.911   2.966   4.440
  824SOL     OW 3370   5.167   0.533   6.774
  824SOL    HW1 3371   5.209   0.557   6.861
  824SOL    HW2 3372   5.173   0.610   6.711
  825SOL     OW 3373   6.161   5.538   0.615
  825SOL    HW1 3374   6.237   5.603   0.614
  825SOL    HW2 3375   6.172   5.472   0.541
  826SOL     OW 3376   3.719   1.988   0.328
  826SOL    HW1 3377   3.792   1.966   0.263
  826SOL    HW2 3378   3.630   1.968   0.286
  827SOL     OW 3379   3.241   3.902   4.799
  827SOL    HW1 3380   3.211   3.950   4.717
  827SOL    HW2 3381   3.341   3.910   4.808
  828SOL     OW 3382   0.518   6.618   6.420
  828SOL    HW1 3383   0.458   6.650   6.494
  828SOL    HW2 3384   0.507   6.519   6.409
  829SOL     OW 3385   3.877   3.384   1.828
  829SOL    HW1 3386   3.814   3.341   1.893
  829SOL    HW2 3387   3.826   3.441   1.764
  830SOL     OW 3388   6.632   4.446   5.879
  830SOL    HW1 3389   6.659   4.542   5.889
  830SOL    HW2 3390   6.708   4.388   5.909
  831SOL     OW 3391   5.760   1.163   2.957
  831SOL    HW1 3392   5.780   1.066   2.943
  831SOL    HW2 3393   5.693   1.193   2.889
  832SOL     OW 3394   3.360   1.658   4.745
  832SOL    HW1 3395   3.368   1.727   4.817
  832SOL    HW2 3396   3.286   1.683   4.684
  833SOL     OW 3397   4.200   3.030   0.235
  833SOL    HW1 3398   4.135   2.958   0.213
  833SOL    HW2 3399   4.152   3.108   0.275
  834SOL     OW 3400   5.304   2.843   0.149
  834SOL    HW1 3401   5.288   2.756   0.103
  834SOL    HW2 3402   5.224   2.866   0.205
  835SOL     OW 3403   6.801   0.236   4.828
  835SOL    HW1 3404   6.783   0.148   4.785
  835SOL    HW2 3405   6.754   0.240   4.917
  836SOL     OW 3406   5.506   0.362   4.282
  836SOL    HW1 3407   5.410   0.372   4.257
  836SOL    HW2 3408   5.517   0.280   4.339
  837SOL     OW 3409   1.431   0.531   6.658
  837SOL    HW1 3410   1.509   0.584   6.625
  837SOL    HW2 3411   1.427   0.535   6.758
  838SOL     OW 3412   2.081   5.605   3.554
  838SOL    HW1 3413   2.099   5.531   3.619
  838SOL    HW2 3414   2.168   5.637   3.515
  839SOL     OW 3415   1.302   2.368   0.123
  839SOL    HW1 3416   1.303   2.467   0.140
  839SOL    HW2 3417   1.210   2.332   0.140
  840SOL     OW 3418   4.304   5.091   1.072
  840SOL    HW1 3419   4.216   5.058   1.107
  840SOL    HW2 3420   4.343   5.022   1.011
  841SOL     OW 3421   2.382   5.482   6.782
  841SOL    HW1 3422   2.333   5.450   6.701
  841SOL    HW2 3423   2.437   5.562   6.758
  842SOL     OW 3424   4.449   6.386   0.714
  842SOL    HW1 3425   4.419   6.320   0.782
  842SOL    HW2 3426   4.491   6.464   0.760
  843SOL     OW 3427   1.421   0.853   1.764
  843SOL    HW1 3428   1.434   0.757   1.741
  843SOL    HW2 3429   1.409   0.862   1.863
  844SOL     OW 3430   6.968   0.033   1.441
  844SOL    HW1 3431   6.934   6.964   1.427
  844SOL    HW2 3432   0.034   0.030   1.486
  845SOL     OW 3433   3.867   1.727   1.962
  845SOL    HW1 3434   3.849   1.723   1.864
  845SOL    HW2 3435   3.804   1.792   2.005
  846SOL     OW 3436   1.700   2.047   0.904
  846SOL    HW1 3437   1.676   2.121   0.966
  846SOL    HW2 3438   1.777   1.996   0.942
  847SOL     OW 3439   2.540   3.531   1.446
  847SOL    HW1 3440   2.443   3.507   1.446
  847SOL    HW2 3441   2.580   3.509   1.535
  848SOL     OW 3442   6.498   5.973   0.012
  848SOL    HW1 3443   6.406   5.999   0.039
  848SOL    HW2 3444   6.564   6.035   0.055
  849SOL     OW 3445   5.994   2.865   6.738
  849SOL    HW1 3446   6.010   2.766   6.730
  849SOL    HW2 3447   5.950   2.885   6.825
  850SOL     OW 3448   1.539   0.940   4.545
  850SOL    HW1 3449   1.474   0.999   4.593
  850SOL    HW2 3450   1.632   0.974   4.560
  851SOL     OW 3451   5.093   2.782   6.361
  851SOL    HW1 3452   5.036   2.746   6.287
  851SOL    HW2 3453   5.127   2.872   6.336
  852SOL     OW 3454   0.104   4.796   2.019
  852SOL    HW1 3455   0.105   4.839   2.109
  852SOL    HW2 3456   0.013   4.803   1.979
  853SOL     OW 3457   3.066   3.194   0.583
  853SOL    HW1 3458   3.021   3.105   0.590
  853SOL    HW2 3459   3.085   3.229   0.675
  854SOL     OW 3460   6.666   0.104   5.242
  854SOL    HW1 3461   6.579   0.056   5.228
  854SOL    HW2 3462   6.722   0.052   5.307
  855SOL     OW 3463   4.777   2.153   0.616
  855SOL    HW1 3464   4.867   2.189   0.594
  855SOL    HW2 3465   4.719   2.228   0.651
  856SOL     OW 3466   2.030   5.409   1.929
  856SOL    HW1 3467   2.058   5.353   1.851
  856SOL    HW2 3468   2.000   5.499   1.897
  857SOL     OW 3469   6.714   5.359   4.834
  857SOL    HW1 3470   6.692   5.376   4.738
  857SOL    HW2 3471   6.631   5.334   4.884
  858SOL     OW 3472   4.281   4.023   0.212
  858SOL    HW1 3473   4.245   3.942   0.167
  858SOL    HW2 3474   4.347   3.996   0.282
  859SOL     OW 3475   5.073   5.334   5.162
  859SOL    HW1 3476   4.984   5.362   5.126
  859SOL    HW2 3477   5.103   5.400   5.231
  860SOL     OW 3478   4.637   3.229   5.775
  860SOL    HW1 3479   4.676   3.207   5.864
  860SOL    HW2 3480   4.557   3.171   5.757
  861SOL     OW 3481   1.353   5.664   2.951
  861SOL    HW1 3482   1.325   5.593   3.015
  861SOL    HW2 3483   1.434   5.710   2.986
  862SOL     OW 3484   0.943   4.210   3.790
  862SOL    HW1 3485   0.947   4.139   3.719
  862SOL    HW2 3486   0.849   4.244   3.798
  863SOL     OW 3487   6.219   0.509   1.324
  863SOL    HW1 3488   6.123   0.535   1.335
  863SOL    HW2 3489   6.275   0.590   1.310
  864SOL     OW 3490   6.006   5.800   2.719
  864SOL    HW1 3491   5.934   5.792   2.789
  864SOL    HW2 3492   6.081   5.855   2.754
  865SOL     OW 3493   1.483   5.520   4.665
  865SOL    HW1 3494   1.462   5.611   4.629
  865SOL    HW2 3495   1.398   5.472   4.687
  866SOL     OW 3496   3.122   0.357   1.665
  866SOL    HW1 3497   3.099   0.369   1.761
  866SOL    HW2 3498   3.085   0.434   1.612
  867SOL     OW 3499   5.980   3.494   5.712
  867SOL    HW1 3500   5.901   3.517   5.768
  867SOL    HW2 3501   5.948   3.458   5.624
  868SOL     OW 3502   0.569   1.936   1.798
  868SOL    HW1 3503   0.499   2.002   1.825
  868SOL    HW2 3504   0.660   1.978   1.804
  869SOL     OW 3505   7.017   3.753   2.943
  869SOL    HW1 3506   0.048   3.828   2.981
  869SOL    HW2 3507   0.043   3.667   2.954
  870SOL     OW 3508   3.570   5.323   2.188
  870SOL    HW1 3509   3.584   5.257   2.262
  870SOL    HW2 3510   3.524   5.279   2.111
  871SOL     OW 3511   5.046   1.903   4.228
  871SOL    HW1 3512   5.143   1.900   4.252
  871SOL    HW2 3513   5.023   1.994   4.192
  872SOL     OW 3514   1.243   2.025   5.024
  872SOL    HW1 3515   1.279   1.964   4.954
  872SOL    HW2 3516   1.302   2.105   5.032
  873SOL     OW 3517   4.291   0.325   6.480
  873SOL    HW1 3518   4.281   0.424   6.488
  873SOL    HW2 3519   4.376   0.297   6.524
  874SOL     OW 3520   5.826   3.681   1.918
  874SOL    HW1 3521   5.897   3.750   1.903
  874SOL    HW2 3522   5.870   3.595   1.945
  875SOL     OW 3523   5.103   5.703   1.913
  875SOL    HW1 3524   5.175   5.726   1.978
  875SOL    HW2 3525   5.145   5.674   1.827
  876SOL     OW 3526   5.513   0.635   6.748
  876SOL    HW1 3527   5.445   0.683   6.693
  876SOL    HW2 3528   5.505   0.536   6.734
  877SOL     OW 3529   1.150   3.420   6.926
  877SOL    HW1 3530   1.063   3.463   6.951
  877SOL    HW2 3531   1.196   3.387   7.008
  878SOL     OW 3532   3.979   6.466   4.323
  878SOL    HW1 3533   3.966   6.405   4.400
  878SOL    HW2 3534   3.929   6.551   4.339
  879SOL     OW 3535   5.744   6.606   6.825
  879SOL    HW1 3536   5.796   6.522   6.839
  879SOL    HW2 3537   5.802   6.685   6.844
  880SOL     OW 3538   2.891   3.667   3.109
  880SOL    HW1 3539   2.894   3.691   3.013
  880SOL    HW2 3540   2.962   3.717   3.159
  881SOL     OW 3541   4.321   2.003   0.728
  881SOL    HW1 3542   4.372   2.053   0.798
  881SOL    HW2 3543   4.250   2.063   0.689
  882SOL     OW 3544   1.834   3.052   3.419
  882SOL    HW1 3545   1.776   3.103   3.355
  882SOL    HW2 3546   1.928   3.053   3.386
  883SOL     OW 3547   2.472   6.937   3.292
  883SOL    HW1 3548   2.550   6.875   3.302
  883SOL    HW2 3549   2.435   6.930   3.200
  884SOL     OW 3550   2.921   3.550   5.669
  884SOL    HW1 3551   3.000   3.546   5.609
  884SOL    HW2 3552   2.859   3.475   5.648
  885SOL     OW 3553   4.474   2.840   6.183
  885SOL    HW1 3554   4.386   2.872   6.218
  885SOL    HW2 3555   4.494   2.749   6.220
  886SOL     OW 3556   3.581   1.641   6.746
  886SOL    HW1 3557   3.676   1.629   6.717
  886SOL    HW2 3558   3.530   1.558   6.725
  887SOL     OW 3559   5.344   1.169   4.929
  887SOL    HW1 3560   5.340   1.202   4.835
  887SOL    HW2 3561   5.438   1.177   4.963
  888SOL     OW 3562   6.844   6.365   1.720
  888SOL    HW1 3563   6.819   6.281   1.768
  888SOL    HW2 3564   6.937   6.391   1.744
  889SOL     OW 3565   0.361   3.305   0.010
  889SOL    HW1 3566   0.274   3.265   0.040
  889SOL    HW2 3567   0.418   3.323   0.090
  890SOL     OW 3568   2.431   6.267   4.470
  890SOL    HW1 3569   2.411   6.334   4.399
  890SOL    HW2 3570   2.425   6.175   4.433
  891SOL     OW 3571   5.259   4.970   2.085
  891SOL    HW1 3572   5.291   4.986   1.992
  891SOL    HW2 3573   5.312   5.026   2.149
  892SOL     OW 3574   2.445   4.775   0.730
  892SOL    HW1 3575   2.357   4.729   0.740
  892SOL    HW2 3576   2.462   4.793   0.633
  893SOL     OW 3577   1.150   5.378   2.744
  893SOL    HW1 3578   1.116   5.462   2.701
  893SOL    HW2 3579   1.083   5.345   2.811
  894SOL     OW 3580   1.172   4.185   0.702
  894SOL    HW1 3581   1.268   4.207   0.687
  894SOL    HW2 3582   1.156   4.089   0.680
  895SOL     OW 3583   0.013   5.715   4.380
  895SOL    HW1 3584   0.101   5.668   4.372
  895SOL    HW2 3585   6.989   5.713   4.293
  896SOL     OW 3586   0.705   0.705   6.356
  896SOL    HW1 3587   0.774   0.764   6.397
  896SOL    HW2 3588   0.701   0.618   6.406
  897SOL     OW 3589   4.624   1.314   0.531
  897SOL    HW1 3590   4.661   1.236   0.480
  897SOL    HW2 3591   4.526   1.300   0.547
  898SOL     OW 3592   4.160   0.650   2.977
  898SOL    HW1 3593   4.185   0.613   3.066
  898SOL    HW2 3594   4.148   0.575   2.912
  899SOL     OW 3595   6.904   5.882   0.088
  899SOL    HW1 3596   6.822   5.845   0.131
  899SOL    HW2 3597   6.984   5.829   0.117
  900SOL     OW 3598   5.482   5.240   1.016
  900SOL    HW1 3599   5.469   5.218   0.920
  900SOL    HW2 3600   5.395   5.229   1.065
  901SOL     OW 3601   1.522   0.438   2.909
  901SOL    HW1 3602   1.553   0.533   2.908
  901SOL    HW2 3603   1.513   0.406   3.003
  902SOL     OW 3604   6.548   2.661   1.509
  902SOL    HW1 3605   6.567   2.716   1.427
  902SOL    HW2 3606   6.630   2.660   1.567
  903SOL     OW 3607   0.077   1.469   0.829
  903SOL    HW1 3608   0.038   1.462   0.737
  903SOL    HW2 3609   0.014   1.428   0.895
  904SOL     OW 3610   2.304   0.943   2.840
  904SOL    HW1 3611   2.328   1.039   2.851
  904SOL    HW2 3612   2.388   0.889   2.829
  905SOL     OW 3613   5.996   2.054   6.547
  905SOL    HW1 3614   5.913   2.095   6.510
  905SOL    HW2 3615   6.035   2.114   6.618
  906SOL     OW 3616   5.269   2.618   6.986
  906SOL    HW1 3617   5.339   2.615   6.915
  906SOL    HW2 3618   5.181   2.592   6.948
  907SOL     OW 3619   5.302   4.577   6.806
  907SOL    HW1 3620   5.346   4.595   6.718
  907SOL    HW2 3621   5.297   4.478   6.821
  908SOL     OW 3622   1.060   4.313   2.647
  908SOL    HW1 3623   0.972   4.298   2.602
  908SOL    HW2 3624   1.046   4.313   2.746
  909SOL     OW 3625   5.377   5.445   5.946
  909SOL    HW1 3626   5.352   5.539   5.921
  909SOL    HW2 3627   5.358   5.431   6.043
  910SOL     OW 3628   2.846   4.715   0.751
  910SOL    HW1 3629   2.793   4.795   0.722
  910SOL    HW2 3630   2.865   4.657   0.672
  911SOL     OW 3631   1.267   4.607   5.926
  911SOL    HW1 3632   1.212   4.600   6.009
  911SOL    HW2 3633   1.346   4.666   5.944
  912SOL     OW 3634   4.956   1.836   4.684
  912SOL    HW1 3635   4.926   1.752   4.641
  912SOL    HW2 3636   5.045   1.863   4.648
  913SOL     OW 3637   5.414   6.408   2.835
  913SOL    HW1 3638   5.475   6.348   2.887
  913SOL    HW2 3639   5.345   6.447   2.896
  914SOL     OW 3640   3.486   6.671   6.688
  914SOL    HW1 3641   3.546   6.609   6.636
  914SOL    HW2 3642   3.489   6.646   6.785
  915SOL     OW 3643   5.021   5.874   1.547
  915SOL    HW1 3644   5.054   5.944   1.611
  915SOL    HW2 3645   5.072   5.882   1.461
  916SOL     OW 3646   1.691   3.193   2.671
  916SOL    HW1 3647   1.609   3.180   2.727
  916SOL    HW2 3648   1.755   3.117   2.687
  917SOL     OW 3649   0.239   6.674   0.005
  917SOL    HW1 3650   0.141   6.692   0.008
  917SOL    HW2 3651   0.263   6.607   0.075
  918SOL     OW 3652   3.330   6.289   0.336
  918SOL    HW1 3653   3.427   6.300   0.315
  918SOL    HW2 3654   3.308   6.341   0.419
  919SOL     OW 3655   5.002   1.348   5.579
  919SOL    HW1 3656   5.013   1.265   5.635
  919SOL    HW2 3657   4.933   1.407   5.620
  920SOL     OW 3658   3.029   5.022   1.947
  920SOL    HW1 3659   2.954   4.999   1.885
  920SOL    HW2 3660   3.103   4.955   1.937
  921SOL     OW 3661   5.090   5.216   4.882
  921SOL    HW1 3662   5.003   5.263   4.869
  921SOL    HW2 3663   5.136   5.253   4.962
  922SOL     OW 3664   3.397   2.898   3.878
  922SOL    HW1 3665   3.367   2.902   3.973
  922SOL    HW2 3666   3.320   2.917   3.817
  923SOL     OW 3667   2.367   3.492   5.748
  923SOL    HW1 3668   2.463   3.510   5.728
  923SOL    HW2 3669   2.349   3.506   5.845
  924SOL     OW 3670   0.169   3.179   1.689
  924SOL    HW1 3671   0.091   3.239   1.706
  924SOL    HW2 3672   0.242   3.200   1.754
  925SOL     OW 3673   0.978   1.744   0.295
  925SOL    HW1 3674   1.058   1.804   0.296
  925SOL    HW2 3675   0.938   1.741   0.387
  926SOL     OW 3676   1.925   1.562   1.734
  926SOL    HW1 3677   1.856   1.522   1.795
  926SOL    HW2 3678   1.897   1.548   1.639
  927SOL     OW 3679   6.971   3.872   4.250
  927SOL    HW1 3680   7.022   3.862   4.165
  927SOL    HW2 3681   6.874   3.887   4.231
  928SOL     OW 3682   3.269   4.516   5.898
  928SOL    HW1 3683   3.289   4.519   5.801
  928SOL    HW2 3684   3.353   4.529   5.950
  929SOL     OW 3685   0.445   1.676   4.051
  929SOL    HW1 3686   0.368   1.613   4.041
  929SOL    HW2 3687   0.451   1.706   4.146
  930SOL     OW 3688   5.317   5.444   4.923
  930SOL    HW1 3689   5.405   5.398   4.940
  930SOL    HW2 3690   5.320   5.537   4.960
  931SOL     OW 3691   6.040   0.707   3.280
  931SOL    HW1 3692   6.058   0.780   3.214
  931SOL    HW2 3693   6.104   0.713   3.356
  932SOL     OW 3694   3.563   0.743   3.946
  932SOL    HW1 3695   3.473   0.780   3.970
  932SOL    HW2 3696   3.631   0.816   3.952
  933SOL     OW 3697   1.580   5.699   1.978
  933SOL    HW1 3698   1.589   5.645   2.061
  933SOL    HW2 3699   1.585   5.638   1.898
  934SOL     OW 3700   1.571   3.517   0.767
  934SOL    HW1 3701   1.629   3.593   0.741
  934SOL    HW2 3702   1.622   3.456   0.828
  935SOL     OW 3703   5.797   2.824   5.472
  935SOL    HW1 3704   5.746   2.885   5.412
  935SOL    HW2 3705   5.885   2.802   5.430
  936SOL     OW 3706   2.118   0.871   6.078
  936SOL    HW1 3707   2.201   0.827   6.112
  936SOL    HW2 3708   2.132   0.970   6.072
  937SOL     OW 3709   3.395   1.954   6.160
  937SOL    HW1 3710   3.442   1.950   6.248
  937SOL    HW2 3711   3.462   1.950   6.086
  938SOL     OW 3712   5.195   5.971   4.482
  938SOL    HW1 3713   5.113   6.019   4.449
  938SOL    HW2 3714   5.272   5.991   4.422
  939SOL     OW 3715   1.267   0.216   5.678
  939SOL    HW1 3716   1.259   0.314   5.699
  939SOL    HW2 3717   1.314   0.171   5.754
  940SOL     OW 3718   1.722   5.149   0.827
  940SOL    HW1 3719   1.808   5.194   0.803
  940SOL    HW2 3720   1.740   5.073   0.889
  941SOL     OW 3721   3.534   6.928   0.743
  941SOL    HW1 3722   3.485   6.908   0.658
  941SOL    HW2 3723   3.570   6.844   0.782
  942SOL     OW 3724   6.413   4.580   0.019
  942SOL    HW1 3725   6.462   4.493   0.017
  942SOL    HW2 3726   6.315   4.564   0.011
  943SOL     OW 3727   3.718   5.563   1.356
  943SOL    HW1 3728   3.783   5.552   1.281
  943SOL    HW2 3729   3.625   5.551   1.321
  944SOL     OW 3730   6.619   6.073   3.397
  944SOL    HW1 3731   6.604   6.168   3.369
  944SOL    HW2 3732   6.586   6.061   3.491
  945SOL     OW 3733   0.431   5.536   6.303
  945SOL    HW1 3734   0.373   5.455   6.310
  945SOL    HW2 3735   0.373   5.617   6.291
  946SOL     OW 3736   5.748   2.350   4.338
  946SOL    HW1 3737   5.828   2.311   4.292
  946SOL    HW2 3738   5.752   2.328   4.436
  947SOL     OW 3739   3.649   3.838   3.243
  947SOL    HW1 3740   3.666   3.931   3.212
  947SOL    HW2 3741   3.557   3.810   3.213
  948SOL     OW 3742   3.265   1.324   3.557
  948SOL    HW1 3743   3.236   1.309   3.652
  948SOL    HW2 3744   3.362   1.349   3.556
  949SOL     OW 3745   2.961   0.387   5.844
  949SOL    HW1 3746   3.056   0.407   5.866
  949SOL    HW2 3747   2.910   0.472   5.833
  950SOL     OW 3748   6.981   0.240   2.133
  950SOL    HW1 3749   7.000   0.143   2.120
  950SOL    HW2 3750   0.043   0.292   2.132
  951SOL     OW 3751   1.544   0.357   3.158
  951SOL    HW1 3752   1.632   0.316   3.184
  951SOL    HW2 3753   1.483   0.359   3.237
  952SOL     OW 3754   3.863   1.938   3.631
  952SOL    HW1 3755   3.958   1.930   3.601
  952SOL    HW2 3756   3.822   1.847   3.636
  953SOL     OW 3757   0.554   5.012   5.914
  953SOL    HW1 3758   0.628   5.038   5.851
  953SOL    HW2 3759   0.485   5.084   5.915
  954SOL     OW 3760   4.819   6.757   2.173
  954SOL    HW1 3761   4.765   6.684   2.216
  954SOL    HW2 3762   4.813   6.749   2.074
  955SOL     OW 3763   2.360   5.360   1.290
  955SOL    HW1 3764   2.300   5.433   1.260
  955SOL    HW2 3765   2.445   5.363   1.237
  956SOL     OW 3766   4.158   0.758   1.115
  956SOL    HW1 3767   4.172   0.839   1.172
  956SOL    HW2 3768   4.072   0.714   1.141
  957SOL     OW 3769   6.101   6.909   3.163
  957SOL    HW1 3770   6.063   6.941   3.076
  957SOL    HW2 3771   6.118   6.988   3.223
  958SOL     OW 3772   5.187   6.240   1.482
  958SOL    HW1 3773   5.248   6.246   1.403
  958SOL    HW2 3774   5.238   6.262   1.565
  959SOL     OW 3775   5.043   0.023   3.237
  959SOL    HW1 3776   5.109   7.009   3.302
  959SOL    HW2 3777   4.982   0.087   3.284
  960SOL     OW 3778   1.679   6.518   6.314
  960SOL    HW1 3779   1.715   6.537   6.405
  960SOL    HW2 3780   1.674   6.419   6.300
  961SOL     OW 3781   3.849   1.396   3.067
  961SOL    HW1 3782   3.848   1.332   2.991
  961SOL    HW2 3783   3.920   1.368   3.133
  962SOL     OW 3784   0.010   0.384   4.791
  962SOL    HW1 3785   0.040   0.421   4.879
  962SOL    HW2 3786   6.961   0.317   4.806
  963SOL     OW 3787   5.873   2.905   1.226
  963SOL    HW1 3788   5.949   2.858   1.272
  963SOL    HW2 3789   5.806   2.934   1.294
  964SOL     OW 3790   3.691   6.504   4.883
  964SOL    HW1 3791   3.729   6.446   4.955
  964SOL    HW2 3792   3.635   6.576   4.924
  965SOL     OW 3793   5.511   2.345   3.833
  965SOL    HW1 3794   5.601   2.351   3.877
  965SOL    HW2 3795   5.440   2.338   3.903
  966SOL     OW 3796   5.262   1.240   4.093
  966SOL    HW1 3797   5.181   1.251   4.151
  966SOL    HW2 3798   5.333   1.191   4.142
  967SOL     OW 3799   4.229   5.090   6.569
  967SOL    HW1 3800   4.315   5.058   6.530
  967SOL    HW2 3801   4.208   5.181   6.533
  968SOL     OW 3802   3.648   0.555   1.208
  968SOL    HW1 3803   3.588   0.539   1.286
  968SOL    HW2 3804   3.602   0.527   1.124
  969SOL     OW 3805   2.764   3.662   6.415
  969SOL    HW1 3806   2.830   3.734   6.437
  969SOL    HW2 3807   2.695   3.657   6.488
  970SOL     OW 3808   4.950   6.690   5.727
  970SOL    HW1 3809   4.966   6.740   5.812
  970SOL    HW2 3810   4.963   6.592   5.743
  971SOL     OW 3811   5.178   3.560   3.553
  971SOL    HW1 3812   5.263   3.513   3.578
  971SOL    HW2 3813   5.196   3.657   3.540
  972SOL     OW 3814   0.320   2.606   0.569
  972SOL    HW1 3815   0.288   2.531   0.627
  972SOL    HW2 3816   0.348   2.683   0.626
  973SOL     OW 3817   0.002   2.510   5.007
  973SOL    HW1 3818   0.010   2.434   5.071
  973SOL    HW2 3819   7.021   2.475   4.914
  974SOL     OW 3820   0.888   3.997   2.551
  974SOL    HW1 3821   0.939   3.975   2.634
  974SOL    HW2 3822   0.938   4.065   2.499
  975SOL     OW 3823   3.273   0.415   2.571
  975SOL    HW1 3824   3.234   0.392   2.660
  975SOL    HW2 3825   3.366   0.380   2.565
  976SOL     OW 3826   0.182   3.218   3.501
  976SOL    HW1 3827   0.274   3.179   3.497
  976SOL    HW2 3828   0.115   3.145   3.486
  977SOL     OW 3829   6.482   1.578   1.960
  977SOL    HW1 3830   6.384   1.558   1.964
  977SOL    HW2 3831   6.499   1.645   1.887
  978SOL     OW 3832   4.818   2.967   0.368
  978SOL    HW1 3833   4.852   3.024   0.442
  978SOL    HW2 3834   4.768   2.889   0.405
  979SOL     OW 3835   0.288   4.938   6.485
  979SOL    HW1 3836   0.319   4.844   6.494
  979SOL    HW2 3837   0.359   4.992   6.438
  980SOL     OW 3838   4.442   1.085   4.288
  980SOL    HW1 3839   4.533   1.048   4.302
  980SOL    HW2 3840   4.449   1.175   4.244
  981SOL     OW 3841   0.731   6.456   5.447
  981SOL    HW1 3842   0.714   6.530   5.512
  981SOL    HW2 3843   0.658   6.452   5.379
  982SOL     OW 3844   0.090   1.287   6.857
  982SOL    HW1 3845   0.048   1.294   6.766
  982SOL    HW2 3846   0.026   1.241   6.919
  983SOL     OW 3847   0.441   4.088   3.251
  983SOL    HW1 3848   0.345   4.085   3.280
  983SOL    HW2 3849   0.446   4.084   3.151
  984SOL     OW 3850   0.376   3.792   4.094
  984SOL    HW1 3851   0.469   3.829   4.084
  984SOL    HW2 3852   0.382   3.692   4.100
  985SOL     OW 3853   6.047   5.820   4.980
  985SOL    HW1 3854   6.027   5.873   4.897
  985SOL    HW2 3855   6.034   5.723   4.961
  986SOL     OW 3856   4.413   5.385   1.289
  986SOL    HW1 3857   4.340   5.332   1.247
  986SOL    HW2 3858   4.494   5.329   1.299
  987SOL     OW 3859   4.814   4.569   4.849
  987SOL    HW1 3860   4.737   4.549   4.789
  987SOL    HW2 3861   4.890   4.508   4.826
  988SOL     OW 3862   2.787   4.772   2.166
  988SOL    HW1 3863   2.753   4.861   2.137
  988SOL    HW2 3864   2.801   4.714   2.086
  989SOL     OW 3865   0.655   2.853   0.900
  989SOL    HW1 3866   0.585   2.870   0.831
  989SOL    HW2 3867   0.622   2.881   0.990
  990SOL     OW 3868   3.911   0.309   5.042
  990SOL    HW1 3869   3.827   0.280   4.996
  990SOL    HW2 3870   3.910   0.277   5.137
  991SOL     OW 3871   1.078   5.700   4.345
  991SOL    HW1 3872   1.138   5.639   4.294
  991SOL    HW2 3873   1.047   5.774   4.285
  992SOL     OW 3874   6.812   2.752   0.183
  992SOL    HW1 3875   6.827   2.679   0.250
  992SOL    HW2 3876   6.764   2.716   0.103
  993SOL     OW 3877   1.709   4.279   0.160
  993SOL    HW1 3878   1.628   4.220   0.168
  993SOL    HW2 3879   1.701   4.336   0.078
  994SOL     OW 3880   2.949   0.162   0.948
  994SOL    HW1 3881   2.907   0.226   0.884
  994SOL    HW2 3882   2.879   0.104   0.989
  995SOL     OW 3883   6.045   3.846   5.308
  995SOL    HW1 3884   6.086   3.852   5.399
  995SOL    HW2 3885   6.088   3.771   5.257
  996SOL     OW 3886   4.241   6.600   4.823
  996SOL    HW1 3887   4.295   6.563   4.899
  996SOL    HW2 3888   4.154   6.551   4.817
  997SOL     OW 3889   1.779   6.140   3.559
  997SOL    HW1 3890   1.808   6.171   3.650
  997SOL    HW2 3891   1.776   6.219   3.497
  998SOL     OW 3892   4.564   0.418   6.700
  998SOL    HW1 3893   4.490   0.485   6.700
  998SOL    HW2 3894   4.650   0.463   6.678
  999SOL     OW 3895   5.627   2.912   2.632
  999SOL    HW1 3896   5.677   2.909   2.719
  999SOL    HW2 3897   5.687   2.881   2.558
 1000SOL     OW 3898   5.160   1.590   2.001
 1000SOL    HW1 3899   5.117   1.506   1.967
 1000SOL    HW2 3900   5.098   1.667   1.988
 1001SOL     OW 3901   2.810   6.643   2.867
 1001SOL    HW1 3902   2.727   6.696   2.884
 1001SOL    HW2 3903   2.890   6.697   2.895
 1002SOL     OW 3904   4.079   2.834   1.236
 1002SOL    HW1 3905   3.981   2.855   1.235
 1002SOL    HW2 3906   4.122   2.869   1.153
 1003SOL     OW 3907   0.987   0.198   2.959
 1003SOL    HW1 3908   0.931   0.247   3.025
 1003SOL    HW2 3909   0.960   0.225   2.866
 1004SOL     OW 3910   5.037   1.407   4.618
 1004SOL    HW1 3911   5.112   1.471   4.634
 1004SOL    HW2 3912   5.068   1.333   4.558
 1005SOL     OW 3913   0.757   5.015   1.876
 1005SOL    HW1 3914   0.711   4.926   1.882
 1005SOL    HW2 3915   0.853   5.004   1.900
 1006SOL     OW 3916   2.110   3.991   1.729
 1006SOL    HW1 3917   2.182   3.942   1.777
 1006SOL    HW2 3918   2.146   4.028   1.643
 1007SOL     OW 3919   4.727   0.737   6.469
 1007SOL    HW1 3920   4.701   0.651   6.424
 1007SOL    HW2 3921   4.663   0.809   6.442
 1008SOL     OW 3922   0.416   4.956   5.057
 1008SOL    HW1 3923   0.473   5.034   5.030
 1008SOL    HW2 3924   0.333   4.989   5.101
 1009SOL     OW 3925   6.978   5.886   6.033
 1009SOL    HW1 3926   7.006   5.932   6.117
 1009SOL    HW2 3927   6.895   5.833   6.051
 1010SOL     OW 3928   3.149   3.749   0.161
 1010SOL    HW1 3929   3.181   3.655   0.164
 1010SOL    HW2 3930   3.049   3.751   0.160
 1011SOL     OW 3931   6.429   4.735   2.576
 1011SOL    HW1 3932   6.342   4.752   2.622
 1011SOL    HW2 3933   6.464   4.646   2.604
 1012SOL     OW 3934   5.843   6.486   2.910
 1012SOL    HW1 3935   5.775   6.444   2.850
 1012SOL    HW2 3936   5.934   6.451   2.889
 1013SOL     OW 3937   0.161   0.454   6.206
 1013SOL    HW1 3938   0.080   0.434   6.150
 1013SOL    HW2 3939   0.233   0.388   6.185
 1014SOL     OW 3940   1.067   4.798   4.626
 1014SOL    HW1 3941   1.060   4.752   4.714
 1014SOL    HW2 3942   0.991   4.862   4.615
 1015SOL     OW 3943   1.988   6.262   0.311
 1015SOL    HW1 3944   1.982   6.291   0.216
 1015SOL    HW2 3945   2.059   6.314   0.358
 1016SOL     OW 3946   0.191   4.077   0.624
 1016SOL    HW1 3947   0.188   4.169   0.586
 1016SOL    HW2 3948   0.123   4.019   0.578
 1017SOL     OW 3949   2.423   1.288   2.867
 1017SOL    HW1 3950   2.437   1.240   2.954
 1017SOL    HW2 3951   2.331   1.269   2.833
 1018SOL     OW 3952   5.973   6.312   4.168
 1018SOL    HW1 3953   6.069   6.338   4.174
 1018SOL    HW2 3954   5.935   6.302   4.259
 1019SOL     OW 3955   5.971   3.892   1.071
 1019SOL    HW1 3956   6.029   3.956   1.122
 1019SOL    HW2 3957   6.025   3.848   1.000
 1020SOL     OW 3958   4.922   1.344   1.417
 1020SOL    HW1 3959   4.873   1.333   1.331
 1020SOL    HW2 3960   4.889   1.277   1.483
 1021SOL     OW 3961   0.911   6.703   0.871
 1021SOL    HW1 3962   0.878   6.793   0.842
 1021SOL    HW2 3963   0.978   6.715   0.944
 1022SOL     OW 3964   2.500   5.320   6.398
 1022SOL    HW1 3965   2.514   5.326   6.299
 1022SOL    HW2 3966   2.529   5.405   6.441
 1023SOL     OW 3967   0.902   1.713   2.369
 1023SOL    HW1 3968   0.815   1.753   2.342
 1023SOL    HW2 3969   0.962   1.784   2.405
 1024SOL     OW 3970   1.537   2.392   4.130
 1024SOL    HW1 3971   1.579   2.421   4.044
 1024SOL    HW2 3972   1.564   2.297   4.150
 1025SOL     OW 3973   4.877   4.636   1.087
 1025SOL    HW1 3974   4.917   4.617   0.998
 1025SOL    HW2 3975   4.843   4.731   1.088
 1026SOL     OW 3976   3.149   3.013   1.806
 1026SOL    HW1 3977   3.064   3.063   1.823
 1026SOL    HW2 3978   3.209   3.069   1.749
 1027SOL     OW 3979   6.498   6.679   0.230
 1027SOL    HW1 3980   6.429   6.736   0.184
 1027SOL    HW2 3981   6.587   6.722   0.222
 1028SOL     OW 3982   1.021   4.853   2.954
 1028SOL    HW1 3983   0.995   4.790   2.881
 1028SOL    HW2 3984   0.979   4.943   2.937
 1029SOL     OW 3985   1.179   0.803   5.111
 1029SOL    HW1 3986   1.250   0.767   5.171
 1029SOL    HW2 3987   1.130   0.877   5.157
 1030SOL     OW 3988   4.194   3.419   0.506
 1030SOL    HW1 3989   4.162   3.343   0.449
 1030SOL    HW2 3990   4.117   3.460   0.554
 1031SOL     OW 3991   4.601   3.816   0.550
 1031SOL    HW1 3992   4.680   3.754   0.544
 1031SOL    HW2 3993   4.535   3.778   0.615
 1032SOL     OW 3994   1.939   1.668   0.865
 1032SOL    HW1 3995   1.951   1.727   0.785
 1032SOL    HW2 3996   2.027   1.624   0.887
 1033SOL     OW 3997   0.193   1.003   1.717
 1033SOL    HW1 3998   0.274   0.945   1.728
 1033SOL    HW2 3999   0.172   1.048   1.804
 1034SOL     OW 4000   3.014   0.665   4.947
 1034SOL    HW1 4001   3.104   0.636   4.913
 1034SOL    HW2 4002   2.946   0.650   4.875
 1035SOL     OW 4003   1.422   0.443   0.501
 1035SOL    HW1 4004   1.363   0.419   0.424
 1035SOL    HW2 4005   1.403   0.536   0.531
 1036SOL     OW 4006   4.500   1.624   1.954
 1036SOL    HW1 4007   4.460   1.621   1.863
 1036SOL    HW2 4008   4.514   1.531   1.988
 1037SOL     OW 4009   1.563   3.434   2.710
 1037SOL    HW1 4010   1.634   3.370   2.679
 1037SOL    HW2 4011   1.591   3.527   2.688
 1038SOL     OW 4012   1.874   5.686   0.121
 1038SOL    HW1 4013   1.836   5.608   0.070
 1038SOL    HW2 4014   1.818   5.702   0.202
 1039SOL     OW 4015   3.389   3.729   3.180
 1039SOL    HW1 4016   3.323   3.655   3.192
 1039SOL    HW2 4017   3.432   3.721   3.090
 1040SOL     OW 4018   3.641   1.828   3.369
 1040SOL    HW1 4019   3.740   1.844   3.362
 1040SOL    HW2 4020   3.598   1.907   3.413
 1041SOL     OW 4021   6.657   6.396   6.492
 1041SOL    HW1 4022   6.757   6.391   6.495
 1041SOL    HW2 4023   6.624   6.438   6.576
 1042SOL     OW 4024   5.347   4.006   3.759
 1042SOL    HW1 4025   5.345   3.934   3.690
 1042SOL    HW2 4026   5.441   4.023   3.787
 1043SOL     OW 4027   2.643   1.698   3.937
 1043SOL    HW1 4028   2.712   1.629   3.960
 1043SOL    HW2 4029   2.575   1.703   4.009
 1044SOL     OW 4030   5.675   4.714   2.140
 1044SOL    HW1 4031   5.729   4.761   2.209
 1044SOL    HW2 4032   5.718   4.723   2.051
 1045SOL     OW 4033   2.050   0.249   2.451
 1045SOL    HW1 4034   1.984   0.311   2.410
 1045SOL    HW2 4035   2.072   0.278   2.544
 1046SOL     OW 4036   2.705   2.159   1.075
 1046SOL    HW1 4037   2.632   2.192   1.135
 1046SOL    HW2 4038   2.778   2.118   1.130
 1047SOL     OW 4039   4.228   0.553   3.226
 1047SOL    HW1 4040   4.188   0.610   3.298
 1047SOL    HW2 4041   4.188   0.461   3.230
 1048SOL     OW 4042   0.807   6.986   1.976
 1048SOL    HW1 4043   0.802   6.891   1.944
 1048SOL    HW2 4044   0.791   6.989   2.074
 1049SOL     OW 4045   3.854   6.443   0.036
 1049SOL    HW1 4046   3.816   6.534   0.020
 1049SOL    HW2 4047   3.920   6.421   6.988
 1050SOL     OW 4048   2.969   0.298   4.114
 1050SOL    HW1 4049   2.978   0.259   4.022
 1050SOL    HW2 4050   3.039   0.258   4.174
 1051SOL     OW 4051   1.847   1.324   5.438
 1051SOL    HW1 4052   1.788   1.379   5.496
 1051SOL    HW2 4053   1.931   1.302   5.487
 1052SOL     OW 4054   3.864   1.454   0.224
 1052SOL    HW1 4055   3.948   1.508   0.233
 1052SOL    HW2 4056   3.786   1.516   0.212
 1053SOL     OW 4057   5.150   2.471   4.646
 1053SOL    HW1 4058   5.235   2.481   4.698
 1053SOL    HW2 4059   5.092   2.403   4.690
 1054SOL     OW 4060   4.254   5.347   6.500
 1054SOL    HW1 4061   4.230   5.393   6.586
 1054SOL    HW2 4062   4.353   5.344   6.490
 1055SOL     OW 4063   4.753   5.666   6.696
 1055SOL    HW1 4064   4.782   5.760   6.680
 1055SOL    HW2 4065   4.686   5.639   6.627
 1056SOL     OW 4066   3.550   3.816   0.358
 1056SOL    HW1 4067   3.601   3.772   0.284
 1056SOL    HW2 4068   3.531   3.911   0.334
 1057SOL     OW 4069   3.243   2.909   6.418
 1057SOL    HW1 4070   3.199   2.950   6.498
 1057SOL    HW2 4071   3.326   2.960   6.396
 1058SOL     OW 4072   3.060   2.181   1.772
 1058SOL    HW1 4073   3.030   2.244   1.844
 1058SOL    HW2 4074   3.124   2.229   1.712
 1059SOL     OW 4075   2.450   6.297   2.345
 1059SOL    HW1 4076   2.439   6.336   2.436
 1059SOL    HW2 4077   2.381   6.336   2.283
 1060SOL     OW 4078   6.291   0.702   5.297
 1060SOL    HW1 4079   6.261   0.709   5.392
 1060SOL    HW2 4080   6.338   0.614   5.283
 1061SOL     OW 4081   0.325   3.214   6.094
 1061SOL    HW1 4082   0.389   3.210   6.171
 1061SOL    HW2 4083   0.362   3.162   6.017
 1062SOL     OW 4084   3.501   5.464   5.060
 1062SOL    HW1 4085   3.588   5.461   5.109
 1062SOL    HW2 4086   3.472   5.371   5.039
 1063SOL     OW 4087   3.111   6.799   4.129
 1063SOL    HW1 4088   3.210   6.803   4.137
 1063SOL    HW2 4089   3.085   6.741   4.053
 1064SOL     OW 4090   0.927   3.088   0.331
 1064SOL    HW1 4091   0.924   3.031   0.249
 1064SOL    HW2 4092   0.849   3.066   0.390
 1065SOL     OW 4093   5.863   0.971   4.615
 1065SOL    HW1 4094   5.856   0.873   4.597
 1065SOL    HW2 4095   5.803   1.021   4.553
 1066SOL     OW 4096   4.965   6.168   0.995
 1066SOL    HW1 4097   5.050   6.168   0.944
 1066SOL    HW2 4098   4.889   6.194   0.935
 1067SOL     OW 4099   2.499   1.640   0.457
 1067SOL    HW1 4100   2.501   1.731   0.418
 1067SOL    HW2 4101   2.483   1.646   0.556
 1068SOL     OW 4102   6.159   3.007   1.156
 1068SOL    HW1 4103   6.139   3.068   1.233
 1068SOL    HW2 4104   6.087   3.015   1.087
 1069SOL     OW 4105   6.605   2.856   2.589
 1069SOL    HW1 4106   6.559   2.767   2.590
 1069SOL    HW2 4107   6.656   2.867   2.504
 1070SOL     OW 4108   1.118   0.369   2.474
 1070SOL    HW1 4109   1.138   0.467   2.477
 1070SOL    HW2 4110   1.198   0.320   2.441
 1071SOL     OW 4111   0.685   3.013   6.018
 1071SOL    HW1 4112   0.662   3.045   5.926
 1071SOL    HW2 4113   0.640   2.925   6.034
 1072SOL     OW 4114   1.732   1.460   1.970
 1072SOL    HW1 4115   1.685   1.489   2.054
 1072SOL    HW2 4116   1.830   1.447   1.990
 1073SOL     OW 4117   5.580   2.550   2.886
 1073SOL    HW1 4118   5.544   2.629   2.836
 1073SOL    HW2 4119   5.636   2.582   2.962
 1074SOL     OW 4120   3.077   5.243   1.597
 1074SOL    HW1 4121   3.054   5.325   1.649
 1074SOL    HW2 4122   3.163   5.205   1.631
 1075SOL     OW 4123   6.823   3.930   5.109
 1075SOL    HW1 4124   6.920   3.912   5.123
 1075SOL    HW2 4125   6.808   4.029   5.102
 1076SOL     OW 4126   2.225   4.201   5.335
 1076SOL    HW1 4127   2.294   4.130   5.350
 1076SOL    HW2 4128   2.185   4.190   5.244
 1077SOL     OW 4129   6.820   6.503   0.187
 1077SOL    HW1 4130   6.752   6.456   0.244
 1077SOL    HW2 4131   6.903   6.447   0.182
 1078SOL     OW 4132   6.105   6.169   4.601
 1078SOL    HW1 4133   6.142   6.259   4.626
 1078SOL    HW2 4134   6.019   6.180   4.552
 1079SOL     OW 4135   0.677   6.660   1.102
 1079SOL    HW1 4136   0.773   6.644   1.121
 1079SOL    HW2 4137   0.653   6.621   1.012
 1080SOL     OW 4138   3.650   6.335   0.574
 1080SOL    HW1 4139   3.725   6.353   0.637
 1080SOL    HW2 4140   3.590   6.264   0.612
 1081SOL     OW 4141   6.770   6.766   3.775
 1081SOL    HW1 4142   6.762   6.862   3.802
 1081SOL    HW2 4143   6.800   6.760   3.680
 1082SOL     OW 4144   4.233   6.698   0.735
 1082SOL    HW1 4145   4.256   6.736   0.645
 1082SOL    HW2 4146   4.189   6.609   0.723
 1083SOL     OW 4147   6.008   3.751   2.221
 1083SOL    HW1 4148   6.086   3.808   2.248
 1083SOL    HW2 4149   5.990   3.683   2.292
 1084SOL     OW 4150   5.447   0.519   5.380
 1084SOL    HW1 4151   5.487   0.434   5.346
 1084SOL    HW2 4152   5.380   0.499   5.452
 1085SOL     OW 4153   2.114   3.608   4.989
 1085SOL    HW1 4154   2.146   3.517   5.015
 1085SOL    HW2 4155   2.192   3.670   4.986
 1086SOL     OW 4156   5.799   4.832   1.557
 1086SOL    HW1 4157   5.899   4.830   1.549
 1086SOL    HW2 4158   5.761   4.745   1.525
 1087SOL     OW 4159   4.201   0.148   5.843
 1087SOL    HW1 4160   4.294   0.184   5.836
 1087SOL    HW2 4161   4.154   0.193   5.919
 1088SOL     OW 4162   6.454   5.322   4.272
 1088SOL    HW1 4163   6.424   5.408   4.232
 1088SOL    HW2 4164   6.550   5.305   4.248
 1089SOL     OW 4165   5.472   5.379   3.949
 1089SOL    HW1 4166   5.558   5.378   3.897
 1089SOL    HW2 4167   5.483   5.322   4.031
 1090SOL     OW 4168   5.485   2.614   5.331
 1090SOL    HW1 4169   5.533   2.579   5.411
 1090SOL    HW2 4170   5.551   2.643   5.262
 1091SOL     OW 4171   2.161   3.372   3.195
 1091SOL    HW1 4172   2.164   3.420   3.283
 1091SOL    HW2 4173   2.183   3.437   3.122
 1092SOL     OW 4174   0.480   6.250   0.543
 1092SOL    HW1 4175   0.579   6.240   0.533
 1092SOL    HW2 4176   0.436   6.163   0.520
 1093SOL     OW 4177   1.261   0.827   3.616
 1093SOL    HW1 4178   1.328   0.861   3.683
 1093SOL    HW2 4179   1.278   0.872   3.528
 1094SOL     OW 4180   0.607   0.330   2.769
 1094SOL    HW1 4181   0.689   0.385   2.756
 1094SOL    HW2 4182   0.578   0.291   2.682
 1095SOL     OW 4183   5.887   4.059   0.479
 1095SOL    HW1 4184   5.823   3.983   0.468
 1095SOL    HW2 4185   5.955   4.035   0.548
 1096SOL     OW 4186   1.982   5.662   1.831
 1096SOL    HW1 4187   2.022   5.749   1.859
 1096SOL    HW2 4188   1.980   5.656   1.732
 1097SOL     OW 4189   3.075   6.369   4.658
 1097SOL    HW1 4190   3.106   6.380   4.564
 1097SOL    HW2 4191   3.150   6.334   4.714
 1098SOL     OW 4192   6.849   3.719   0.444
 1098SOL    HW1 4193   6.780   3.743   0.376
 1098SOL    HW2 4194   6.861   3.796   0.507
 1099SOL     OW 4195   5.207   0.354   6.551
 1099SOL    HW1 4196   5.178   0.397   6.637
 1099SOL    HW2 4197   5.233   0.425   6.486
 1100SOL     OW 4198   4.406   2.063   4.729
 1100SOL    HW1 4199   4.308   2.061   4.746
 1100SOL    HW2 4200   4.454   2.007   4.797
 1101SOL     OW 4201   4.882   2.755   6.584
 1101SOL    HW1 4202   4.796   2.763   6.534
 1101SOL    HW2 4203   4.959   2.767   6.522
 1102SOL     OW 4204   2.599   0.434   3.402
 1102SOL    HW1 4205   2.578   0.364   3.470
 1102SOL    HW2 4206   2.693   0.466   3.416
 1103SOL     OW 4207   3.436   5.962   1.151
 1103SOL    HW1 4208   3.347   5.922   1.174
 1103SOL    HW2 4209   3.488   5.976   1.235
 1104SOL     OW 4210   6.844   2.636   3.972
 1104SOL    HW1 4211   6.876   2.597   3.886
 1104SOL    HW2 4212   6.862   2.734   3.973
 1105SOL     OW 4213   4.960   1.127   6.424
 1105SOL    HW1 4214   5.036   1.167   6.372
 1105SOL    HW2 4215   4.928   1.045   6.377
 1106SOL     OW 4216   6.511   1.423   0.992
 1106SOL    HW1 4217   6.528   1.334   0.948
 1106SOL    HW2 4218   6.495   1.408   1.090
 1107SOL     OW 4219   0.877   1.146   6.899
 1107SOL    HW1 4220   0.881   1.214   6.825
 1107SOL    HW2 4221   0.868   1.193   6.987
 1108SOL     OW 4222   2.227   1.084   3.525
 1108SOL    HW1 4223   2.259   1.034   3.605
 1108SOL    HW2 4224   2.284   1.060   3.446
 1109SOL     OW 4225   4.679   2.053   5.212
 1109SOL    HW1 4226   4.642   2.092   5.296
 1109SOL    HW2 4227   4.724   1.966   5.232
 1110SOL     OW 4228   1.575   1.206   2.319
 1110SOL    HW1 4229   1.500   1.190   2.384
 1110SOL    HW2 4230   1.574   1.135   2.249
 1111SOL     OW 4231   5.746   3.451   6.387
 1111SOL    HW1 4232   5.650   3.433   6.407
 1111SOL    HW2 4233   5.757   3.546   6.360
 1112SOL     OW 4234   5.793   0.449   2.520
 1112SOL    HW1 4235   5.751   0.472   2.608
 1112SOL    HW2 4236   5.787   0.527   2.459
 1113SOL     OW 4237   6.702   3.168   2.875
 1113SOL    HW1 4238   6.643   3.104   2.825
 1113SOL    HW2 4239   6.748   3.229   2.810
 1114SOL     OW 4240   3.843   3.626   4.739
 1114SOL    HW1 4241   3.800   3.562   4.675
 1114SOL    HW2 4242   3.788   3.632   4.823
 1115SOL     OW 4243   2.460   4.973   5.657
 1115SOL    HW1 4244   2.406   5.021   5.726
 1115SOL    HW2 4245   2.551   5.015   5.650
 1116SOL     OW 4246   4.353   6.861   0.538
 1116SOL    HW1 4247   4.295   6.901   0.467
 1116SOL    HW2 4248   4.445   6.898   0.530
 1117SOL     OW 4249   1.956   2.367   1.588
 1117SOL    HW1 4250   2.025   2.311   1.542
 1117SOL    HW2 4251   1.962   2.461   1.556
 1118SOL     OW 4252   4.606   5.916   6.801
 1118SOL    HW1 4253   4.578   5.820   6.792
 1118SOL    HW2 4254   4.592   5.946   6.895
 1119SOL     OW 4255   3.593   4.892   3.709
 1119SOL    HW1 4256   3.621   4.908   3.804
 1119SOL    HW2 4257   3.494   4.899   3.702
 1120SOL     OW 4258   0.035   2.928   1.763
 1120SOL    HW1 4259   0.022   2.886   1.674
 1120SOL    HW2 4260   0.084   3.015   1.752
 1121SOL     OW 4261   6.564   4.650   5.212
 1121SOL    HW1 4262   6.578   4.747   5.191
 1121SOL    HW2 4263   6.537   4.640   5.308
 1122SOL     OW 4264   6.225   1.527   2.252
 1122SOL    HW1 4265   6.199   1.619   2.222
 1122SOL    HW2 4266   6.215   1.463   2.176
 1123SOL     OW 4267   3.891   1.581   4.683
 1123SOL    HW1 4268   3.809   1.616   4.638
 1123SOL    HW2 4269   3.873   1.571   4.781
 1124SOL     OW 4270   2.210   3.036   3.899
 1124SOL    HW1 4271   2.215   3.126   3.941
 1124SOL    HW2 4272   2.117   3.017   3.870
 1125SOL     OW 4273   1.347   3.594   3.536
 1125SOL    HW1 4274   1.288   3.657   3.484
 1125SOL    HW2 4275   1.294   3.516   3.566
 1126SOL     OW 4276   4.227   4.714   4.253
 1126SOL    HW1 4277   4.318   4.676   4.241
 1126SOL    HW2 4278   4.172   4.696   4.170
 1127SOL     OW 4279   6.641   6.747   1.730
 1127SOL    HW1 4280   6.603   6.838   1.717
 1127SOL    HW2 4281   6.593   6.682   1.671
 1128SOL     OW 4282   4.540   1.389   4.445
 1128SOL    HW1 4283   4.570   1.340   4.527
 1128SOL    HW2 4284   4.591   1.474   4.437
 1129SOL     OW 4285   1.238   0.283   0.071
 1129SOL    HW1 4286   1.168   0.300   0.001
 1129SOL    HW2 4287   1.329   0.299   0.031
 1130SOL     OW 4288   2.343   4.752   2.038
 1130SOL    HW1 4289   2.384   4.770   1.948
 1130SOL    HW2 4290   2.244   4.761   2.032
 1131SOL     OW 4291   2.465   5.821   3.849
 1131SOL    HW1 4292   2.512   5.847   3.933
 1131SOL    HW2 4293   2.371   5.797   3.870
 1132SOL     OW 4294   1.382   1.733   2.395
 1132SOL    HW1 4295   1.444   1.659   2.421
 1132SOL    HW2 4296   1.401   1.814   2.449
 1133SOL     OW 4297   1.309   6.340   6.425
 1133SOL    HW1 4298   1.339   6.266   6.365
 1133SOL    HW2 4299   1.224   6.314   6.470
 1134SOL     OW 4300   3.717   5.981   1.050
 1134SOL    HW1 4301   3.769   5.896   1.062
 1134SOL    HW2 4302   3.637   5.979   1.110
 1135SOL     OW 4303   1.640   6.983   3.090
 1135SOL    HW1 4304   1.659   6.904   3.148
 1135SOL    HW2 4305   1.710   6.990   3.019
 1136SOL     OW 4306   1.428   4.907   1.866
 1136SOL    HW1 4307   1.359   4.879   1.933
 1136SOL    HW2 4308   1.519   4.898   1.907
 1137SOL     OW 4309   1.444   6.100   4.525
 1137SOL    HW1 4310   1.439   6.060   4.434
 1137SOL    HW2 4311   1.399   6.040   4.591
 1138SOL     OW 4312   1.681   4.110   5.191
 1138SOL    HW1 4313   1.708   4.016   5.212
 1138SOL    HW2 4314   1.671   4.121   5.092
 1139SOL     OW 4315   2.744   5.140   4.848
 1139SOL    HW1 4316   2.843   5.126   4.852
 1139SOL    HW2 4317   2.725   5.236   4.824
 1140SOL     OW 4318   1.941   2.107   1.728
 1140SOL    HW1 4319   1.952   2.204   1.708
 1140SOL    HW2 4320   1.967   2.089   1.823
 1141SOL     OW 4321   6.903   4.975   5.590
 1141SOL    HW1 4322   6.977   4.960   5.525
 1141SOL    HW2 4323   6.875   5.071   5.588
 1142SOL     OW 4324   1.683   5.973   2.298
 1142SOL    HW1 4325   1.720   6.065   2.310
 1142SOL    HW2 4326   1.592   5.978   2.257
 1143SOL     OW 4327   0.001   3.884   1.715
 1143SOL    HW1 4328   7.001   3.801   1.662
 1143SOL    HW2 4329   0.020   3.959   1.652
 1144SOL     OW 4330   5.341   4.683   0.497
 1144SOL    HW1 4331   5.323   4.683   0.399
 1144SOL    HW2 4332   5.349   4.589   0.530
 1145SOL     OW 4333   5.673   0.030   0.167
 1145SOL    HW1 4334   5.671   0.065   0.074
 1145SOL    HW2 4335   5.694   0.104   0.231
 1146SOL     OW 4336   0.959   1.105   1.192
 1146SOL    HW1 4337   0.998   1.197   1.193
 1146SOL    HW2 4338   0.883   1.102   1.127
 1147SOL     OW 4339   1.862   6.140   0.903
 1147SOL    HW1 4340   1.956   6.145   0.937
 1147SOL    HW2 4341   1.861   6.159   0.805
 1148SOL     OW 4342   4.229   5.617   2.925
 1148SOL    HW1 4343   4.200   5.711   2.942
 1148SOL    HW2 4344   4.150   5.562   2.898
 1149SOL     OW 4345   4.903   3.027   1.772
 1149SOL    HW1 4346   4.848   3.041   1.690
 1149SOL    HW2 4347   4.845   3.037   1.853
 1150SOL     OW 4348   0.802   3.519   0.436
 1150SOL    HW1 4349   0.853   3.600   0.408
 1150SOL    HW2 4350   0.865   3.443   0.453
 1151SOL     OW 4351   5.843   5.457   4.198
 1151SOL    HW1 4352   5.743   5.456   4.192
 1151SOL    HW2 4353   5.881   5.379   4.147
 1152SOL     OW 4354   3.707   6.611   6.445
 1152SOL    HW1 4355   3.720   6.701   6.487
 1152SOL    HW2 4356   3.633   6.616   6.378
 1153SOL     OW 4357   6.145   6.899   1.582
 1153SOL    HW1 4358   6.104   6.820   1.627
 1153SOL    HW2 4359   6.208   6.867   1.510
 1154SOL     OW 4360   2.249   3.359   0.688
 1154SOL    HW1 4361   2.168   3.312   0.655
 1154SOL    HW2 4362   2.225   3.419   0.764
 1155SOL     OW 4363   3.538   5.602   4.215
 1155SOL    HW1 4364   3.527   5.688   4.166
 1155SOL    HW2 4365   3.609   5.546   4.170
 1156SOL     OW 4366   2.834   1.664   2.398
 1156SOL    HW1 4367   2.875   1.697   2.482
 1156SOL    HW2 4368   2.765   1.730   2.366
 1157SOL     OW 4369   2.958   1.407   0.540
 1157SOL    HW1 4370   2.937   1.334   0.605
 1157SOL    HW2 4371   2.878   1.424   0.482
 1158SOL     OW 4372   5.518   4.088   3.009
 1158SOL    HW1 4373   5.602   4.087   2.955
 1158SOL    HW2 4374   5.528   4.028   3.088
 1159SOL     OW 4375   6.109   5.048   0.305
 1159SOL    HW1 4376   6.189   5.002   0.344
 1159SOL    HW2 4377   6.109   5.036   0.206
 1160SOL     OW 4378   4.476   2.368   0.246
 1160SOL    HW1 4379   4.540   2.416   0.187
 1160SOL    HW2 4380   4.477   2.410   0.337
 1161SOL     OW 4381   6.360   5.388   1.130
 1161SOL    HW1 4382   6.283   5.333   1.095
 1161SOL    HW2 4383   6.424   5.328   1.179
 1162SOL     OW 4384   3.142   2.089   4.598
 1162SOL    HW1 4385   3.096   2.124   4.679
 1162SOL    HW2 4386   3.147   1.989   4.601
 1163SOL     OW 4387   5.898   2.107   1.510
 1163SOL    HW1 4388   5.855   2.176   1.567
 1163SOL    HW2 4389   5.866   2.016   1.536
 1164SOL     OW 4390   4.216   2.602   5.885
 1164SOL    HW1 4391   4.138   2.589   5.824
 1164SOL    HW2 4392   4.187   2.657   5.964
 1165SOL     OW 4393   4.762   6.806   3.450
 1165SOL    HW1 4394   4.745   6.878   3.384
 1165SOL    HW2 4395   4.810   6.844   3.529
 1166SOL     OW 4396   3.124   4.685   6.515
 1166SOL    HW1 4397   3.026   4.666   6.521
 1166SOL    HW2 4398   3.146   4.765   6.570
 1167SOL     OW 4399   4.547   4.399   2.919
 1167SOL    HW1 4400   4.599   4.363   2.841
 1167SOL    HW2 4401   4.484   4.470   2.887
 1168SOL     OW 4402   0.597   0.032   2.176
 1168SOL    HW1 4403   0.662   0.041   2.252
 1168SOL    HW2 4404   0.525   0.100   2.185
 1169SOL     OW 4405   4.572   1.278   5.704
 1169SOL    HW1 4406   4.499   1.320   5.650
 1169SOL    HW2 4407   4.554   1.293   5.801
 1170SOL     OW 4408   4.733   4.970   2.665
 1170SOL    HW1 4409   4.733   5.069   2.658
 1170SOL    HW2 4410   4.789   4.931   2.591
 1171SOL     OW 4411   0.243   5.823   0.688
 1171SOL    HW1 4412   0.236   5.892   0.760
 1171SOL    HW2 4413   0.182   5.747   0.708
 1172SOL     OW 4414   6.502   3.184   6.019
 1172SOL    HW1 4415   6.466   3.259   6.073
 1172SOL    HW2 4416   6.428   3.122   5.993
 1173SOL     OW 4417   3.627   2.626   0.612
 1173SOL    HW1 4418   3.682   2.681   0.674
 1173SOL    HW2 4419   3.684   2.591   0.538
 1174SOL     OW 4420   2.134   4.640   0.436
 1174SOL    HW1 4421   2.040   4.609   0.447
 1174SOL    HW2 4422   2.137   4.716   0.371
 1175SOL     OW 4423   3.210   2.988   4.376
 1175SOL    HW1 4424   3.156   3.068   4.401
 1175SOL    HW2 4425   3.245   2.944   4.459
 1176SOL     OW 4426   5.497   2.896   6.815
 1176SOL    HW1 4427   5.536   2.927   6.729
 1176SOL    HW2 4428   5.504   2.796   6.821
 1177SOL     OW 4429   1.023   1.464   4.190
 1177SOL    HW1 4430   1.111   1.439   4.230
 1177SOL    HW2 4431   1.025   1.447   4.091
 1178SOL     OW 4432   4.416   6.148   6.866
 1178SOL    HW1 4433   4.482   6.223   6.860
 1178SOL    HW2 4434   4.456   6.066   6.824
 1179SOL     OW 4435   0.647   5.801   0.218
 1179SOL    HW1 4436   0.735   5.816   0.263
 1179SOL    HW2 4437   0.602   5.889   0.202
 1180SOL     OW 4438   3.525   6.112   0.662
 1180SOL    HW1 4439   3.526   6.034   0.600
 1180SOL    HW2 4440   3.430   6.134   0.686
 1181SOL     OW 4441   6.388   6.606   6.499
 1181SOL    HW1 4442   6.437   6.542   6.558
 1181SOL    HW2 4443   6.454   6.670   6.458
 1182SOL     OW 4444   4.439   4.606   2.582
 1182SOL    HW1 4445   4.537   4.614   2.563
 1182SOL    HW2 4446   4.423   4.613   2.681
 1183SOL     OW 4447   1.951   3.901   6.356
 1183SOL    HW1 4448   2.050   3.917   6.355
 1183SOL    HW2 4449   1.909   3.946   6.277
 1184SOL     OW 4450   0.326   0.539   5.248
 1184SOL    HW1 4451   0.370   0.486   5.321
 1184SOL    HW2 4452   0.257   0.599   5.288
 1185SOL     OW 4453   6.228   1.173   0.027
 1185SOL    HW1 4454   6.217   1.075   0.042
 1185SOL    HW2 4455   6.288   1.212   0.097
 1186SOL     OW 4456   5.463   6.626   4.752
 1186SOL    HW1 4457   5.407   6.544   4.739
 1186SOL    HW2 4458   5.520   6.614   4.834
 1187SOL     OW 4459   6.352   1.290   5.686
 1187SOL    HW1 4460   6.419   1.228   5.645
 1187SOL    HW2 4461   6.301   1.241   5.757
 1188SOL     OW 4462   2.801   0.824   6.615
 1188SOL    HW1 4463   2.805   0.790   6.709
 1188SOL    HW2 4464   2.708   0.813   6.579
 1189SOL     OW 4465   5.376   3.437   3.893
 1189SOL    HW1 4466   5.301   3.503   3.894
 1189SOL    HW2 4467   5.352   3.360   3.833
 1190SOL     OW 4468   2.568   6.929   3.866
 1190SOL    HW1 4469   2.581   6.960   3.771
 1190SOL    HW2 4470   2.529   7.004   3.920
 1191SOL     OW 4471   4.348   6.644   2.630
 1191SOL    HW1 4472   4.286   6.640   2.708
 1191SOL    HW2 4473   4.391   6.735   2.626
 1192SOL     OW 4474   6.132   6.204   3.378
 1192SOL    HW1 4475   6.142   6.303   3.373
 1192SOL    HW2 4476   6.196   6.161   3.314
 1193SOL     OW 4477   0.263   5.600   4.372
 1193SOL    HW1 4478   0.340   5.556   4.417
 1193SOL    HW2 4479   0.287   5.695   4.350
 1194SOL     OW 4480   3.868   0.120   1.485
 1194SOL    HW1 4481   3.952   0.173   1.471
 1194SOL    HW2 4482   3.789   0.181   1.477
 1195SOL     OW 4483   5.201   2.542   3.658
 1195SOL    HW1 4484   5.156   2.623   3.622
 1195SOL    HW2 4485   5.212   2.474   3.586
 1196SOL     OW 4486   0.115   6.660   4.674
 1196SOL    HW1 4487   0.095   6.566   4.702
 1196SOL    HW2 4488   0.036   6.699   4.626
 1197SOL     OW 4489   2.030   5.962   0.356
 1197SOL    HW1 4490   2.002   6.058   0.360
 1197SOL    HW2 4491   2.062   5.941   0.263
 1198SOL     OW 4492   1.528   2.611   6.711
 1198SOL    HW1 4493   1.524   2.532   6.772
 1198SOL    HW2 4494   1.439   2.623   6.667
 1199SOL     OW 4495   6.481   3.622   1.679
 1199SOL    HW1 4496   6.393   3.576   1.684
 1199SOL    HW2 4497   6.508   3.631   1.583
 1200SOL     OW 4498   2.875   3.527   2.648
 1200SOL    HW1 4499   2.903   3.486   2.561
 1200SOL    HW2 4500   2.923   3.481   2.723
 1201SOL     OW 4501   1.374   1.835   4.859
 1201SOL    HW1 4502   1.397   1.820   4.763
 1201SOL    HW2 4503   1.370   1.746   4.906
 1202SOL     OW 4504   1.482   5.795   5.656
 1202SOL    HW1 4505   1.407   5.764   5.597
 1202SOL    HW2 4506   1.543   5.855   5.604
 1203SOL     OW 4507   3.377   5.634   5.633
 1203SOL    HW1 4508   3.465   5.675   5.659
 1203SOL    HW2 4509   3.378   5.612   5.535
 1204SOL     OW 4510   1.900   0.001   3.011
 1204SOL    HW1 4511   1.861   0.091   3.027
 1204SOL    HW2 4512   1.928   6.984   3.098
 1205SOL     OW 4513   5.547   3.949   2.166
 1205SOL    HW1 4514   5.548   3.849   2.167
 1205SOL    HW2 4515   5.508   3.981   2.080
 1206SOL     OW 4516   3.534   3.597   4.672
 1206SOL    HW1 4517   3.521   3.688   4.713
 1206SOL    HW2 4518   3.495   3.597   4.580
 1207SOL     OW 4519   1.142   5.827   2.838
 1207SOL    HW1 4520   1.211   5.759   2.861
 1207SOL    HW2 4521   1.186   5.913   2.814
 1208SOL     OW 4522   3.394   3.813   5.874
 1208SOL    HW1 4523   3.429   3.903   5.850
 1208SOL    HW2 4524   3.437   3.743   5.816
 1209SOL     OW 4525   3.585   6.427   5.683
 1209SOL    HW1 4526   3.534   6.510   5.661
 1209SOL    HW2 4527   3.569   6.402   5.779
 1210SOL     OW 4528   3.472   0.899   2.850
 1210SOL    HW1 4529   3.396   0.912   2.914
 1210SOL    HW2 4530   3.463   0.963   2.774
 1211SOL     OW 4531   1.006   2.723   0.194
 1211SOL    HW1 4532   1.039   2.756   0.106
 1211SOL    HW2 4533   0.949   2.641   0.180
 1212SOL     OW 4534   1.565   0.105   0.248
 1212SOL    HW1 4535   1.649   0.054   0.231
 1212SOL    HW2 4536   1.586   0.202   0.263
 1213SOL     OW 4537   5.433   3.100   1.283
 1213SOL    HW1 4538   5.361   3.042   1.245
 1213SOL    HW2 4539   5.509   3.105   1.219
 1214SOL     OW 4540   6.978   2.606   1.832
 1214SOL    HW1 4541   0.033   2.655   1.793
 1214SOL    HW2 4542   7.006   2.513   1.856
 1215SOL     OW 4543   1.546   5.963   3.551
 1215SOL    HW1 4544   1.574   5.883   3.499
 1215SOL    HW2 4545   1.625   6.023   3.565
 1216SOL     OW 4546   3.362   6.936   1.569
 1216SOL    HW1 4547   3.423   6.940   1.491
 1216SOL    HW2 4548   3.278   6.986   1.549
 1217SOL     OW 4549   2.937   4.728   0.154
 1217SOL    HW1 4550   3.002   4.789   0.108
 1217SOL    HW2 4551   2.844   4.761   0.138
 1218SOL     OW 4552   2.665   5.375   3.600
 1218SOL    HW1 4553   2.574   5.400   3.633
 1218SOL    HW2 4554   2.659   5.288   3.550
 1219SOL     OW 4555   3.644   6.542   2.502
 1219SOL    HW1 4556   3.565   6.484   2.479
 1219SOL    HW2 4557   3.645   6.622   2.443
 1220SOL     OW 4558   0.942   4.539   2.586
 1220SOL    HW1 4559   0.848   4.505   2.588
 1220SOL    HW2 4560   1.005   4.465   2.613
 1221SOL     OW 4561   4.771   4.672   6.961
 1221SOL    HW1 4562   4.691   4.617   6.985
 1221SOL    HW2 4563   4.847   4.612   6.937
 1222SOL     OW 4564   6.943   0.646   6.098
 1222SOL    HW1 4565   7.020   0.709   6.108
 1222SOL    HW2 4566   6.882   0.680   6.026
 1223SOL     OW 4567   3.442   6.664   0.909
 1223SOL    HW1 4568   3.467   6.573   0.941
 1223SOL    HW2 4569   3.459   6.670   0.811
 1224SOL     OW 4570   2.869   0.175   2.368
 1224SOL    HW1 4571   2.902   0.161   2.275
 1224SOL    HW2 4572   2.791   0.237   2.367
 1225SOL     OW 4573   3.009   4.111   5.808
 1225SOL    HW1 4574   3.043   4.038   5.868
 1225SOL    HW2 4575   2.940   4.164   5.855
 1226SOL     OW 4576   2.170   4.811   0.662
 1226SOL    HW1 4577   2.137   4.776   0.749
 1226SOL    HW2 4578   2.159   4.741   0.591
 1227SOL     OW 4579   0.958   3.204   5.781
 1227SOL    HW1 4580   1.049   3.168   5.802
 1227SOL    HW2 4581   0.948   3.214   5.682
 1228SOL     OW 4582   3.846   1.652   6.671
 1228SOL    HW1 4583   3.834   1.696   6.582
 1228SOL    HW2 4584   3.943   1.655   6.696
 1229SOL     OW 4585   2.868   4.371   6.647
 1229SOL    HW1 4586   2.884   4.433   6.724
 1229SOL    HW2 4587   2.897   4.279   6.671
 1230SOL     OW 4588   4.451   0.561   3.578
 1230SOL    HW1 4589   4.369   0.544   3.524
 1230SOL    HW2 4590   4.468   0.660   3.584
 1231SOL     OW 4591   1.128   4.325   4.624
 1231SOL    HW1 4592   1.180   4.385   4.685
 1231SOL    HW2 4593   1.136   4.230   4.656
 1232SOL     OW 4594   2.026   2.615   3.113
 1232SOL    HW1 4595   2.091   2.644   3.184
 1232SOL    HW2 4596   2.021   2.515   3.112
 1233SOL     OW 4597   0.926   3.210   4.394
 1233SOL    HW1 4598   0.944   3.224   4.296
 1233SOL    HW2 4599   0.940   3.297   4.442
 1234SOL     OW 4600   6.691   4.268   4.101
 1234SOL    HW1 4601   6.755   4.260   4.178
 1234SOL    HW2 4602   6.603   4.300   4.135
 1235SOL     OW 4603   6.445   5.746   4.114
 1235SOL    HW1 4604   6.428   5.757   4.016
 1235SOL    HW2 4605   6.429   5.833   4.160
 1236SOL     OW 4606   5.441   1.001   5.841
 1236SOL    HW1 4607   5.502   0.938   5.889
 1236SOL    HW2 4608   5.450   1.093   5.880
 1237SOL     OW 4609   2.882   4.959   6.488
 1237SOL    HW1 4610   2.967   4.953   6.437
 1237SOL    HW2 4611   2.846   4.868   6.505
 1238SOL     OW 4612   1.492   1.624   0.433
 1238SOL    HW1 4613   1.507   1.606   0.336
 1238SOL    HW2 4614   1.569   1.677   0.469
 1239SOL     OW 4615   0.762   0.111   5.532
 1239SOL    HW1 4616   0.732   0.189   5.587
 1239SOL    HW2 4617   0.846   0.072   5.572
 1240SOL     OW 4618   4.332   6.159   2.060
 1240SOL    HW1 4619   4.306   6.116   2.147
 1240SOL    HW2 4620   4.431   6.169   2.056
 1241SOL     OW 4621   0.449   2.545   4.260
 1241SOL    HW1 4622   0.371   2.607   4.250
 1241SOL    HW2 4623   0.504   2.548   4.177
 1242SOL     OW 4624   2.349   2.967   6.707
 1242SOL    HW1 4625   2.294   3.016   6.775
 1242SOL    HW2 4626   2.317   2.990   6.615
 1243SOL     OW 4627   2.637   5.193   5.349
 1243SOL    HW1 4628   2.596   5.137   5.277
 1243SOL    HW2 4629   2.603   5.287   5.342
 1244SOL     OW 4630   0.305   1.094   3.052
 1244SOL    HW1 4631   0.397   1.056   3.060
 1244SOL    HW2 4632   0.299   1.150   2.970
 1245SOL     OW 4633   3.088   3.075   5.790
 1245SOL    HW1 4634   3.066   3.062   5.694
 1245SOL    HW2 4635   3.088   3.173   5.812
 1246SOL     OW 4636   0.852   6.885   1.405
 1246SOL    HW1 4637   0.863   6.975   1.446
 1246SOL    HW2 4638   0.851   6.815   1.477
 1247SOL     OW 4639   1.444   6.685   6.621
 1247SOL    HW1 4640   1.471   6.703   6.526
 1247SOL    HW2 4641   1.349   6.712   6.634
 1248SOL     OW 4642   1.904   6.611   3.551
 1248SOL    HW1 4643   1.877   6.629   3.456
 1248SOL    HW2 4644   1.885   6.691   3.607
 1249SOL     OW 4645   5.715   2.932   3.428
 1249SOL    HW1 4646   5.782   3.003   3.450
 1249SOL    HW2 4647   5.670   2.901   3.512
 1250SOL     OW 4648   0.015   4.240   4.512
 1250SOL    HW1 4649   0.000   4.141   4.507
 1250SOL    HW2 4650   0.098   4.258   4.565
 1251SOL     OW 4651   3.436   0.025   6.283
 1251SOL    HW1 4652   3.416   7.009   6.373
 1251SOL    HW2 4653   3.431   0.125   6.288
 1252SOL     OW 4654   3.361   3.805   7.015
 1252SOL    HW1 4655   3.339   3.767   6.925
 1252SOL    HW2 4656   3.279   3.807   0.047
 1253SOL     OW 4657   4.059   0.082   2.608
 1253SOL    HW1 4658   3.980   0.123   2.654
 1253SOL    HW2 4659   4.027   0.014   2.543
 1254SOL     OW 4660   5.911   1.547   2.818
 1254SOL    HW1 4661   5.968   1.592   2.749
 1254SOL    HW2 4662   5.947   1.567   2.909
 1255SOL     OW 4663   6.068   0.511   0.275
 1255SOL    HW1 4664   6.106   0.512   0.367
 1255SOL    HW2 4665   6.135   0.550   0.211
 1256SOL     OW 4666   5.137   2.463   3.904
 1256SOL    HW1 4667   5.220   2.423   3.944
 1256SOL    HW2 4668   5.158   2.501   3.814
 1257SOL     OW 4669   6.025   1.444   3.929
 1257SOL    HW1 4670   5.934   1.477   3.906
 1257SOL    HW2 4671   6.090   1.470   3.857
 1258SOL     OW 4672   0.176   5.642   3.673
 1258SOL    HW1 4673   0.148   5.725   3.722
 1258SOL    HW2 4674   0.256   5.662   3.616
 1259SOL     OW 4675   4.450   2.465   4.971
 1259SOL    HW1 4676   4.352   2.447   4.984
 1259SOL    HW2 4677   4.483   2.412   4.893
 1260SOL     OW 4678   0.548   1.727   5.010
 1260SOL    HW1 4679   0.547   1.636   4.967
 1260SOL    HW2 4680   0.637   1.770   4.994
 1261SOL     OW 4681   6.658   3.756   0.991
 1261SOL    HW1 4682   6.733   3.823   0.989
 1261SOL    HW2 4683   6.620   3.748   0.899
 1262SOL     OW 4684   5.140   6.099   2.280
 1262SOL    HW1 4685   5.088   6.166   2.332
 1262SOL    HW2 4686   5.177   6.030   2.342
 1263SOL     OW 4687   6.876   2.304   3.732
 1263SOL    HW1 4688   6.949   2.315   3.799
 1263SOL    HW2 4689   6.909   2.248   3.656
 1264SOL     OW 4690   1.393   2.753   5.221
 1264SOL    HW1 4691   1.386   2.659   5.189
 1264SOL    HW2 4692   1.315   2.774   5.281
 1265SOL     OW 4693   5.524   0.138   5.500
 1265SOL    HW1 4694   5.426   0.116   5.509
 1265SOL    HW2 4695   5.557   0.175   5.587
 1266SOL     OW 4696   2.473   1.190   5.365
 1266SOL    HW1 4697   2.431   1.194   5.456
 1266SOL    HW2 4698   2.497   1.095   5.345
 1267SOL     OW 4699   3.564   0.417   2.490
 1267SOL    HW1 4700   3.636   0.442   2.424
 1267SOL    HW2 4701   3.566   0.481   2.567
 1268SOL     OW 4702   3.933   2.388   5.349
 1268SOL    HW1 4703   3.989   2.457   5.303
 1268SOL    HW2 4704   3.858   2.433   5.397
 1269SOL     OW 4705   6.073   1.795   3.565
 1269SOL    HW1 4706   5.982   1.825   3.597
 1269SOL    HW2 4707   6.124   1.757   3.642
 1270SOL     OW 4708   6.423   5.266   2.662
 1270SOL    HW1 4709   6.431   5.365   2.659
 1270SOL    HW2 4710   6.514   5.224   2.664
 1271SOL     OW 4711   2.547   1.458   1.221
 1271SOL    HW1 4712   2.583   1.542   1.261
 1271SOL    HW2 4713   2.569   1.380   1.281
 1272SOL     OW 4714   5.663   1.916   0.721
 1272SOL    HW1 4715   5.671   1.935   0.623
 1272SOL    HW2 4716   5.637   1.999   0.769
 1273SOL     OW 4717   2.231   4.514   5.899
 1273SOL    HW1 4718   2.310   4.457   5.876
 1273SOL    HW2 4719   2.254   4.610   5.889
 1274SOL     OW 4720   0.042   4.539   4.093
 1274SOL    HW1 4721   0.117   4.475   4.111
 1274SOL    HW2 4722   6.992   4.491   4.044
 1275SOL     OW 4723   2.044   1.742   2.877
 1275SOL    HW1 4724   2.135   1.783   2.891
 1275SOL    HW2 4725   1.995   1.793   2.806
 1276SOL     OW 4726   5.557   4.052   3.307
 1276SOL    HW1 4727   5.629   4.006   3.359
 1276SOL    HW2 4728   5.492   4.094   3.370
 1277SOL     OW 4729   0.875   6.155   6.683
 1277SOL    HW1 4730   0.874   6.075   6.744
 1277SOL    HW2 4731   0.781   6.180   6.660
 1278SOL     OW 4732   0.576   5.854   2.584
 1278SOL    HW1 4733   0.528   5.817   2.664
 1278SOL    HW2 4734   0.580   5.953   2.591
 1279SOL     OW 4735   2.629   3.239   1.020
 1279SOL    HW1 4736   2.720   3.238   0.981
 1279SOL    HW2 4737   2.561   3.222   0.949
 1280SOL     OW 4738   2.766   2.378   4.237
 1280SOL    HW1 4739   2.848   2.403   4.186
 1280SOL    HW2 4740   2.720   2.302   4.191
 1281SOL     OW 4741   5.665   6.409   4.632
 1281SOL    HW1 4742   5.568   6.385   4.629
 1281SOL    HW2 4743   5.697   6.405   4.727
 1282SOL     OW 4744   0.547   2.573   1.318
 1282SOL    HW1 4745   0.547   2.544   1.413
 1282SOL    HW2 4746   0.641   2.582   1.285
 1283SOL     OW 4747   0.011   1.581   4.007
 1283SOL    HW1 4748   6.984   1.591   4.093
 1283SOL    HW2 4749   6.996   1.642   3.938
 1284SOL     OW 4750   3.766   2.023   1.825
 1284SOL    HW1 4751   3.810   2.103   1.784
 1284SOL    HW2 4752   3.720   2.050   1.910
 1285SOL     OW 4753   4.726   1.270   4.291
 1285SOL    HW1 4754   4.684   1.241   4.205
 1285SOL    HW2 4755   4.656   1.305   4.353
 1286SOL     OW 4756   4.890   1.607   1.308
 1286SOL    HW1 4757   4.963   1.670   1.334
 1286SOL    HW2 4758   4.874   1.541   1.382
 1287SOL     OW 4759   5.053   4.916   5.391
 1287SOL    HW1 4760   5.033   4.841   5.455
 1287SOL    HW2 4761   5.131   4.968   5.425
 1288SOL     OW 4762   4.323   4.438   6.990
 1288SOL    HW1 4763   4.257   4.508   6.965
 1288SOL    HW2 4764   4.278   4.348   6.993
 1289SOL     OW 4765   6.510   6.929   0.603
 1289SOL    HW1 4766   6.448   6.856   0.574
 1289SOL    HW2 4767   6.475   6.970   0.688
 1290SOL     OW 4768   1.399   6.506   5.860
 1290SOL    HW1 4769   1.469   6.440   5.834
 1290SOL    HW2 4770   1.441   6.580   5.912
 1291SOL     OW 4771   6.020   5.274   3.750
 1291SOL    HW1 4772   6.043   5.371   3.744
 1291SOL    HW2 4773   6.096   5.219   3.713
 1292SOL     OW 4774   0.541   6.918   2.563
 1292SOL    HW1 4775   0.462   6.979   2.559
 1292SOL    HW2 4776   0.557   6.890   2.658
 1293SOL     OW 4777   4.775   1.112   0.977
 1293SOL    HW1 4778   4.753   1.173   0.901
 1293SOL    HW2 4779   4.826   1.033   0.943
 1294SOL     OW 4780   2.191   4.670   4.836
 1294SOL    HW1 4781   2.246   4.586   4.846
 1294SOL    HW2 4782   2.245   4.749   4.864
 1295SOL     OW 4783   0.042   4.467   0.252
 1295SOL    HW1 4784   0.027   4.377   0.293
 1295SOL    HW2 4785   0.074   4.530   0.322
 1296SOL     OW 4786   5.255   6.990   5.986
 1296SOL    HW1 4787   5.186   6.923   5.960
 1296SOL    HW2 4788   5.342   6.968   5.942
 1297SOL     OW 4789   6.363   6.695   0.539
 1297SOL    HW1 4790   6.320   6.621   0.589
 1297SOL    HW2 4791   6.404   6.659   0.455
 1298SOL     OW 4792   5.075   0.669   3.112
 1298SOL    HW1 4793   5.003   0.617   3.067
 1298SOL    HW2 4794   5.134   0.712   3.044
 1299SOL     OW 4795   1.000   3.262   4.746
 1299SOL    HW1 4796   1.014   3.304   4.835
 1299SOL    HW2 4797   0.923   3.199   4.750
 1300SOL     OW 4798   0.960   5.859   0.998
 1300SOL    HW1 4799   0.945   5.838   0.901
 1300SOL    HW2 4800   1.008   5.782   1.041
 1301SOL     OW 4801   6.885   0.419   0.237
 1301SOL    HW1 4802   6.947   0.458   0.168
 1301SOL    HW2 4803   6.791   0.425   0.205
 1302SOL     OW 4804   6.401   6.708   5.369
 1302SOL    HW1 4805   6.347   6.775   5.320
 1302SOL    HW2 4806   6.465   6.755   5.430
 1303SOL     OW 4807   2.973   6.774   2.022
 1303SOL    HW1 4808   3.061   6.729   2.009
 1303SOL    HW2 4809   2.900   6.715   1.988
 1304SOL     OW 4810   0.168   0.667   0.677
 1304SOL    HW1 4811   0.089   0.619   0.714
 1304SOL    HW2 4812   0.178   0.755   0.723
 1305SOL     OW 4813   3.984   4.424   6.203
 1305SOL    HW1 4814   4.078   4.440   6.171
 1305SOL    HW2 4815   3.921   4.483   6.153
 1306SOL     OW 4816   2.871   6.364   3.504
 1306SOL    HW1 4817   2.892   6.430   3.576
 1306SOL    HW2 4818   2.947   6.361   3.439
 1307SOL     OW 4819   1.783   3.146   4.288
 1307SOL    HW1 4820   1.727   3.214   4.240
 1307SOL    HW2 4821   1.737   3.057   4.285
 1308SOL     OW 4822   6.774   3.565   5.976
 1308SOL    HW1 4823   6.805   3.472   5.955
 1308SOL    HW2 4824   6.703   3.561   6.047
 1309SOL     OW 4825   5.842   3.743   6.427
 1309SOL    HW1 4826   5.751   3.745   6.468
 1309SOL    HW2 4827   5.900   3.811   6.471
 1310SOL     OW 4828   2.155   3.782   3.355
 1310SOL    HW1 4829   2.159   3.809   3.259
 1310SOL    HW2 4830   2.116   3.856   3.410
 1311SOL     OW 4831   5.591   5.311   0.549
 1311SOL    HW1 4832   5.601   5.217   0.516
 1311SOL    HW2 4833   5.558   5.369   0.474
 1312SOL     OW 4834   2.627   1.386   6.319
 1312SOL    HW1 4835   2.552   1.408   6.382
 1312SOL    HW2 4836   2.714   1.385   6.370
 1313SOL     OW 4837   5.887   5.627   1.285
 1313SOL    HW1 4838   5.858   5.718   1.256
 1313SOL    HW2 4839   5.933   5.632   1.373
 1314SOL     OW 4840   1.678   1.563   4.120
 1314SOL    HW1 4841   1.747   1.632   4.142
 1314SOL    HW2 4842   1.685   1.487   4.185
 1315SOL     OW 4843   6.105   0.844   3.001
 1315SOL    HW1 4844   6.179   0.909   2.982
 1315SOL    HW2 4845   6.143   0.753   3.015
 1316SOL     OW 4846   5.316   0.112   6.463
 1316SOL    HW1 4847   5.409   0.093   6.496
 1316SOL    HW2 4848   5.288   0.203   6.496
 1317SOL     OW 4849   2.837   2.938   5.340
 1317SOL    HW1 4850   2.825   2.842   5.314
 1317SOL    HW2 4851   2.930   2.968   5.316
 1318SOL     OW 4852   1.572   1.830   6.073
 1318SOL    HW1 4853   1.623   1.909   6.106
 1318SOL    HW2 4854   1.594   1.751   6.131
 1319SOL     OW 4855   0.147   0.723   0.022
 1319SOL    HW1 4856   0.152   0.628   7.016
 1319SOL    HW2 4857   0.239   0.754   0.047
 1320SOL     OW 4858   2.838   3.182   6.244
 1320SOL    HW1 4859   2.872   3.227   6.162
 1320SOL    HW2 4860   2.825   3.250   6.316
 1321SOL     OW 4861   6.919   2.716   1.040
 1321SOL    HW1 4862   6.852   2.647   1.069
 1321SOL    HW2 4863   6.900   2.744   0.946
 1322SOL     OW 4864   3.453   2.880   0.225
 1322SOL    HW1 4865   3.374   2.901   0.282
 1322SOL    HW2 4866   3.501   2.801   0.261
 1323SOL     OW 4867   4.108   0.303   1.420
 1323SOL    HW1 4868   4.050   0.382   1.399
 1323SOL    HW2 4869   4.134   0.258   1.334
 1324SOL     OW 4870   2.445   4.365   5.823
 1324SOL    HW1 4871   2.469   4.314   5.906
 1324SOL    HW2 4872   2.516   4.350   5.754
 1325SOL     OW 4873   3.404   6.098   5.121
 1325SOL    HW1 4874   3.457   6.103   5.036
 1325SOL    HW2 4875   3.463   6.122   5.198
 1326SOL     OW 4876   5.129   1.683   5.063
 1326SOL    HW1 4877   5.165   1.688   5.156
 1326SOL    HW2 4878   5.135   1.588   5.031
 1327SOL     OW 4879   4.675   5.393   2.487
 1327SOL    HW1 4880   4.689   5.349   2.399
 1327SOL    HW2 4881   4.759   5.386   2.542
 1328SOL     OW 4882   2.429   2.102   5.955
 1328SOL    HW1 4883   2.367   2.034   5.915
 1328SOL    HW2 4884   2.389   2.193   5.946
 1329SOL     OW 4885   1.287   3.150   3.728
 1329SOL    HW1 4886   1.386   3.156   3.714
 1329SOL    HW2 4887   1.260   3.055   3.737
 1330SOL     OW 4888   6.060   3.073   2.975
 1330SOL    HW1 4889   5.997   2.996   2.961
 1330SOL    HW2 4890   6.148   3.052   2.931
 1331SOL     OW 4891   4.687   2.279   3.728
 1331SOL    HW1 4892   4.781   2.280   3.763
 1331SOL    HW2 4893   4.628   2.331   3.789
 1332SOL     OW 4894   2.180   5.631   0.581
 1332SOL    HW1 4895   2.177   5.724   0.619
 1332SOL    HW2 4896   2.223   5.634   0.491
 1333SOL     OW 4897   3.320   3.852   2.916
 1333SOL    HW1 4898   3.266   3.923   2.961
 1333SOL    HW2 4899   3.262   3.772   2.898
 1334SOL     OW 4900   6.988   3.674   1.559
 1334SOL    HW1 4901   0.054   3.637   1.584
 1334SOL    HW2 4902   6.919   3.603   1.566
 1335SOL     OW 4903   0.278   3.844   3.848
 1335SOL    HW1 4904   0.238   3.755   3.826
 1335SOL    HW2 4905   0.295   3.850   3.947
 1336SOL     OW 4906   1.862   0.223   5.486
 1336SOL    HW1 4907   1.870   0.246   5.389
 1336SOL    HW2 4908   1.766   0.228   5.514
 1337SOL     OW 4909   0.484   6.898   2.007
 1337SOL    HW1 4910   0.416   6.833   2.042
 1337SOL    HW2 4911   0.520   6.952   2.083
 1338SOL     OW 4912   6.572   4.157   4.843
 1338SOL    HW1 4913   6.657   4.126   4.799
 1338SOL    HW2 4914   6.540   4.240   4.798
 1339SOL     OW 4915   5.750   1.107   6.726
 1339SOL    HW1 4916   5.825   1.172   6.740
 1339SOL    HW2 4917   5.781   1.034   6.665
 1340SOL     OW 4918   3.667   2.954   1.629
 1340SOL    HW1 4919   3.666   3.033   1.691
 1340SOL    HW2 4920   3.573   2.930   1.605
 1341SOL     OW 4921   4.940   5.253   6.693
 1341SOL    HW1 4922   4.991   5.307   6.761
 1341SOL    HW2 4923   4.940   5.157   6.720
 1342SOL     OW 4924   1.510   6.190   1.400
 1342SOL    HW1 4925   1.567   6.179   1.481
 1342SOL    HW2 4926   1.418   6.155   1.418
 1343SOL     OW 4927   4.813   5.760   2.865
 1343SOL    HW1 4928   4.847   5.764   2.959
 1343SOL    HW2 4929   4.714   5.745   2.867
 1344SOL     OW 4930   0.948   0.790   4.537
 1344SOL    HW1 4931   0.934   0.691   4.529
 1344SOL    HW2 4932   0.862   0.838   4.522
 1345SOL     OW 4933   1.448   6.760   6.366
 1345SOL    HW1 4934   1.523   6.808   6.320
 1345SOL    HW2 4935   1.363   6.808   6.348
 1346SOL     OW 4936   3.203   4.908   4.725
 1346SOL    HW1 4937   3.119   4.894   4.778
 1346SOL    HW2 4938   3.222   5.005   4.716
 1347SOL     OW 4939   1.787   0.455   6.668
 1347SOL    HW1 4940   1.781   0.374   6.726
 1347SOL    HW2 4941   1.862   0.513   6.700
 1348SOL     OW 4942   1.207   6.297   5.382
 1348SOL    HW1 4943   1.286   6.357   5.370
 1348SOL    HW2 4944   1.127   6.351   5.407
 1349SOL     OW 4945   5.310   3.856   3.982
 1349SOL    HW1 4946   5.289   3.777   3.925
 1349SOL    HW2 4947   5.359   3.925   3.928
 1350SOL     OW 4948   4.744   4.921   6.842
 1350SOL    HW1 4949   4.742   4.833   6.890
 1350SOL    HW2 4950   4.656   4.967   6.854
 1351SOL     OW 4951   0.148   2.454   5.897
 1351SOL    HW1 4952   0.113   2.441   5.990
 1351SOL    HW2 4953   0.072   2.472   5.835
 1352SOL     OW 4954   0.379   0.846   2.602
 1352SOL    HW1 4955   0.333   0.758   2.588
 1352SOL    HW2 4956   0.336   0.894   2.678
 1353SOL     OW 4957   6.747   1.281   6.832
 1353SOL    HW1 4958   6.741   1.268   6.931
 1353SOL    HW2 4959   6.718   1.374   6.810
 1354SOL     OW 4960   5.033   5.079   2.539
 1354SOL    HW1 4961   5.074   5.170   2.529
 1354SOL    HW2 4962   4.980   5.057   2.457
 1355SOL     OW 4963   4.484   3.581   5.292
 1355SOL    HW1 4964   4.562   3.595   5.230
 1355SOL    HW2 4965   4.434   3.499   5.264
 1356SOL     OW 4966   2.671   3.094   0.024
 1356SOL    HW1 4967   2.585   3.072   7.003
 1356SOL    HW2 4968   2.690   3.192   0.013
 1357SOL     OW 4969   1.475   2.604   5.708
 1357SOL    HW1 4970   1.561   2.632   5.663
 1357SOL    HW2 4971   1.421   2.550   5.644
 1358SOL     OW 4972   2.293   6.525   6.844
 1358SOL    HW1 4973   2.392   6.529   6.839
 1358SOL    HW2 4974   2.262   6.431   6.827
 1359SOL     OW 4975   6.079   4.000   0.708
 1359SOL    HW1 4976   6.129   4.071   0.759
 1359SOL    HW2 4977   6.128   3.913   0.717
 1360SOL     OW 4978   2.433   2.480   0.334
 1360SOL    HW1 4979   2.375   2.487   0.252
 1360SOL    HW2 4980   2.378   2.497   0.415
 1361SOL     OW 4981   6.620   4.793   4.813
 1361SOL    HW1 4982   6.550   4.732   4.849
 1361SOL    HW2 4983   6.671   4.833   4.889
 1362SOL     OW 4984   3.170   4.105   3.663
 1362SOL    HW1 4985   3.130   4.129   3.752
 1362SOL    HW2 4986   3.267   4.087   3.674
 1363SOL     OW 4987   0.730   6.541   4.092
 1363SOL    HW1 4988   0.679   6.545   4.178
 1363SOL    HW2 4989   0.784   6.624   4.082
 1364SOL     OW 4990   4.623   4.310   0.670
 1364SOL    HW1 4991   4.699   4.295   0.607
 1364SOL    HW2 4992   4.583   4.400   0.654
 1365SOL     OW 4993   6.200   2.614   6.781
 1365SOL    HW1 4994   6.207   2.643   6.686
 1365SOL    HW2 4995   6.227   2.690   6.841
 1366SOL     OW 4996   1.917   0.190   6.040
 1366SOL    HW1 4997   1.898   0.277   5.996
 1366SOL    HW2 4998   2.005   0.194   6.086
 1367SOL     OW 4999   2.971   1.870   2.026
 1367SOL    HW1 5000   2.985   1.969   2.034
 1367SOL    HW2 5001   3.055   1.822   2.050
 1368SOL     OW 5002   6.446   0.067   3.124
 1368SOL    HW1 5003   6.543   0.069   3.149
 1368SOL    HW2 5004   6.431   7.017   3.058
 1369SOL     OW 5005   0.918   0.267   2.654
 1369SOL    HW1 5006   0.873   0.354   2.675
 1369SOL    HW2 5007   0.998   0.283   2.597
 1370SOL     OW 5008   2.310   0.949   2.302
 1370SOL    HW1 5009   2.304   1.047   2.325
 1370SOL    HW2 5010   2.359   0.901   2.374
 1371SOL     OW 5011   3.662   0.402   6.155
 1371SOL    HW1 5012   3.718   0.367   6.230
 1371SOL    HW2 5013   3.670   0.501   6.150
 1372SOL     OW 5014   2.864   2.364   1.663
 1372SOL    HW1 5015   2.926   2.287   1.648
 1372SOL    HW2 5016   2.893   2.415   1.744
 1373SOL     OW 5017   1.500   6.042   6.758
 1373SOL    HW1 5018   1.537   6.052   6.851
 1373SOL    HW2 5019   1.490   5.945   6.737
 1374SOL     OW 5020   5.157   4.340   6.761
 1374SOL    HW1 5021   5.106   4.426   6.758
 1374SOL    HW2 5022   5.102   4.268   6.719
 1375SOL     OW 5023   0.861   4.426   4.669
 1375SOL    HW1 5024   0.817   4.357   4.611
 1375SOL    HW2 5025   0.958   4.405   4.678
 1376SOL     OW 5026   5.078   0.834   2.473
 1376SOL    HW1 5027   5.009   0.771   2.509
 1376SOL    HW2 5028   5.160   0.829   2.531
 1377SOL     OW 5029   0.811   4.671   4.420
 1377SOL    HW1 5030   0.711   4.680   4.418
 1377SOL    HW2 5031   0.841   4.651   4.514
 1378SOL     OW 5032   1.844   2.520   0.407
 1378SOL    HW1 5033   1.821   2.614   0.382
 1378SOL    HW2 5034   1.783   2.489   0.480
 1379SOL     OW 5035   3.758   6.264   1.188
 1379SOL    HW1 5036   3.697   6.187   1.203
 1379SOL    HW2 5037   3.836   6.235   1.133
 1380SOL     OW 5038   5.891   4.916   2.706
 1380SOL    HW1 5039   5.796   4.885   2.710
 1380SOL    HW2 5040   5.952   4.839   2.720
 1381SOL     OW 5041   5.584   6.745   2.323
 1381SOL    HW1 5042   5.603   6.713   2.231
 1381SOL    HW2 5043   5.502   6.803   2.322
 1382SOL     OW 5044   0.376   4.274   6.609
 1382SOL    HW1 5045   0.294   4.331   6.605
 1382SOL    HW2 5046   0.398   4.241   6.517
 1383SOL     OW 5047   2.561   0.216   0.731
 1383SOL    HW1 5048   2.547   0.304   0.686
 1383SOL    HW2 5049   2.627   0.162   0.679
 1384SOL     OW 5050   1.286   1.436   2.059
 1384SOL    HW1 5051   1.372   1.391   2.086
 1384SOL    HW2 5052   1.257   1.497   2.132
 1385SOL     OW 5053   5.227   3.246   4.049
 1385SOL    HW1 5054   5.269   3.224   4.137
 1385SOL    HW2 5055   5.256   3.337   4.020
 1386SOL     OW 5056   2.395   2.543   3.622
 1386SOL    HW1 5057   2.426   2.638   3.611
 1386SOL    HW2 5058   2.471   2.481   3.603
 1387SOL     OW 5059   3.197   0.658   4.135
 1387SOL    HW1 5060   3.130   0.616   4.195
 1387SOL    HW2 5061   3.284   0.667   4.183
 1388SOL     OW 5062   5.402   1.730   4.077
 1388SOL    HW1 5063   5.423   1.808   4.018
 1388SOL    HW2 5064   5.461   1.732   4.157
 1389SOL     OW 5065   6.961   0.389   3.453
 1389SOL    HW1 5066   6.987   0.313   3.513
 1389SOL    HW2 5067   0.020   0.438   3.424
 1390SOL     OW 5068   4.655   2.346   3.120
 1390SOL    HW1 5069   4.590   2.354   3.195
 1390SOL    HW2 5070   4.733   2.290   3.150
 1391SOL     OW 5071   5.520   0.611   4.735
 1391SOL    HW1 5072   5.435   0.660   4.759
 1391SOL    HW2 5073   5.533   0.613   4.636
 1392SOL     OW 5074   3.905   6.643   5.328
 1392SOL    HW1 5075   3.913   6.569   5.395
 1392SOL    HW2 5076   3.923   6.731   5.372
 1393SOL     OW 5077   4.782   0.203   0.054
 1393SOL    HW1 5078   4.848   0.231   7.008
 1393SOL    HW2 5079   4.829   0.185   0.140
 1394SOL     OW 5080   4.237   0.222   4.211
 1394SOL    HW1 5081   4.181   0.278   4.272
 1394SOL    HW2 5082   4.184   0.142   4.182
 1395SOL     OW 5083   0.264   5.408   2.438
 1395SOL    HW1 5084   0.270   5.406   2.338
 1395SOL    HW2 5085   0.181   5.361   2.468
 1396SOL     OW 5086   1.389   2.090   3.467
 1396SOL    HW1 5087   1.340   2.101   3.380
 1396SOL    HW2 5088   1.453   2.166   3.479
 1397SOL     OW 5089   2.028   4.843   5.031
 1397SOL    HW1 5090   2.096   4.785   4.988
 1397SOL    HW2 5091   1.982   4.898   4.961
 1398SOL     OW 5092   3.037   0.036   6.738
 1398SOL    HW1 5093   2.952   0.027   6.686
 1398SOL    HW2 5094   3.061   6.971   6.778
 1399SOL     OW 5095   3.777   0.027   7.012
 1399SOL    HW1 5096   3.808   0.122   7.021
 1399SOL    HW2 5097   3.803   6.999   0.069
 1400SOL     OW 5098   0.227   1.015   5.727
 1400SOL    HW1 5099   0.288   0.944   5.761
 1400SOL    HW2 5100   0.276   1.102   5.722
 1401SOL     OW 5101   5.428   6.981   2.303
 1401SOL    HW1 5102   5.481   7.000   2.220
 1401SOL    HW2 5103   5.387   0.042   2.337
 1402SOL     OW 5104   5.810   4.886   2.350
 1402SOL    HW1 5105   5.897   4.932   2.369
 1402SOL    HW2 5106   5.753   4.886   2.432
 1403SOL     OW 5107   2.881   3.753   6.712
 1403SOL    HW1 5108   2.914   3.832   6.661
 1403SOL    HW2 5109   2.933   3.672   6.685
 1404SOL     OW 5110   3.736   6.179   0.844
 1404SOL    HW1 5111   3.742   6.109   0.915
 1404SOL    HW2 5112   3.669   6.151   0.776
 1405SOL     OW 5113   0.906   3.486   6.996
 1405SOL    HW1 5114   0.888   3.394   0.008
 1405SOL    HW2 5115   0.840   3.550   0.012
 1406SOL     OW 5116   2.323   2.511   6.920
 1406SOL    HW1 5117   2.349   2.604   6.897
 1406SOL    HW2 5118   2.301   2.505   7.017
 1407SOL     OW 5119   0.161   2.558   1.493
 1407SOL    HW1 5120   0.206   2.583   1.407
 1407SOL    HW2 5121   0.111   2.473   1.480
 1408SOL     OW 5122   5.500   6.215   0.332
 1408SOL    HW1 5123   5.481   6.121   0.302
 1408SOL    HW2 5124   5.561   6.259   0.266
 1409SOL     OW 5125   6.409   1.749   5.890
 1409SOL    HW1 5126   6.469   1.723   5.966
 1409SOL    HW2 5127   6.322   1.701   5.898
 1410SOL     OW 5128   2.939   0.720   0.247
 1410SOL    HW1 5129   2.873   0.656   0.208
 1410SOL    HW2 5130   2.901   0.760   0.330
 1411SOL     OW 5131   3.669   6.055   6.778
 1411SOL    HW1 5132   3.636   6.076   6.870
 1411SOL    HW2 5133   3.660   6.137   6.720
 1412SOL     OW 5134   2.340   1.906   0.575
 1412SOL    HW1 5135   2.312   1.981   0.515
 1412SOL    HW2 5136   2.289   1.823   0.550
 1413SOL     OW 5137   2.347   1.632   5.297
 1413SOL    HW1 5138   2.404   1.560   5.259
 1413SOL    HW2 5139   2.253   1.599   5.309
 1414SOL     OW 5140   0.298   5.405   2.154
 1414SOL    HW1 5141   0.333   5.328   2.101
 1414SOL    HW2 5142   0.245   5.466   2.095
 1415SOL     OW 5143   3.913   1.875   5.237
 1415SOL    HW1 5144   3.824   1.913   5.213
 1415SOL    HW2 5145   3.909   1.839   5.331
 1416SOL     OW 5146   4.775   0.303   4.947
 1416SOL    HW1 5147   4.809   0.394   4.973
 1416SOL    HW2 5148   4.850   0.238   4.946
 1417SOL     OW 5149   3.783   3.651   4.390
 1417SOL    HW1 5150   3.794   3.552   4.388
 1417SOL    HW2 5151   3.847   3.691   4.455
 1418SOL     OW 5152   2.851   3.913   5.104
 1418SOL    HW1 5153   2.921   3.946   5.041
 1418SOL    HW2 5154   2.762   3.914   5.058
 1419SOL     OW 5155   0.786   5.863   1.891
 1419SOL    HW1 5156   0.772   5.786   1.953
 1419SOL    HW2 5157   0.799   5.829   1.797
 1420SOL     OW 5158   3.098   6.394   3.292
 1420SOL    HW1 5159   3.080   6.490   3.267
 1420SOL    HW2 5160   3.070   6.335   3.217
 1421SOL     OW 5161   1.765   5.515   0.845
 1421SOL    HW1 5162   1.802   5.594   0.894
 1421SOL    HW2 5163   1.771   5.434   0.903
 1422SOL     OW 5164   1.764   3.604   6.884
 1422SOL    HW1 5165   1.836   3.578   6.819
 1422SOL    HW2 5166   1.779   3.556   6.971
 1423SOL     OW 5167   4.953   1.008   4.574
 1423SOL    HW1 5168   5.014   0.995   4.652
 1423SOL    HW2 5169   4.858   1.002   4.605
 1424SOL     OW 5170   6.798   2.581   1.603
 1424SOL    HW1 5171   6.800   2.483   1.584
 1424SOL    HW2 5172   6.869   2.604   1.669
 1425SOL     OW 5173   5.724   6.437   3.149
 1425SOL    HW1 5174   5.765   6.481   3.069
 1425SOL    HW2 5175   5.666   6.361   3.118
 1426SOL     OW 5176   3.839   1.076   0.695
 1426SOL    HW1 5177   3.826   1.080   0.794
 1426SOL    HW2 5178   3.778   1.008   0.656
 1427SOL     OW 5179   0.774   0.384   4.172
 1427SOL    HW1 5180   0.720   0.366   4.090
 1427SOL    HW2 5181   0.793   0.482   4.179
 1428SOL     OW 5182   2.233   4.175   3.698
 1428SOL    HW1 5183   2.314   4.221   3.662
 1428SOL    HW2 5184   2.154   4.197   3.640
 1429SOL     OW 5185   6.475   0.127   2.125
 1429SOL    HW1 5186   6.498   0.194   2.056
 1429SOL    HW2 5187   6.516   0.152   2.212
 1430SOL     OW 5188   2.303   4.216   4.301
 1430SOL    HW1 5189   2.287   4.126   4.341
 1430SOL    HW2 5190   2.230   4.238   4.236
 1431SOL     OW 5191   3.533   2.201   0.487
 1431SOL    HW1 5192   3.473   2.151   0.424
 1431SOL    HW2 5193   3.498   2.294   0.499
 1432SOL     OW 5194   4.338   0.189   2.916
 1432SOL    HW1 5195   4.296   0.239   2.991
 1432SOL    HW2 5196   4.302   0.096   2.912
 1433SOL     OW 5197   3.035   2.074   4.014
 1433SOL    HW1 5198   3.122   2.064   4.063
 1433SOL    HW2 5199   3.004   1.985   3.982
 1434SOL     OW 5200   5.105   3.330   0.505
 1434SOL    HW1 5201   5.068   3.376   0.424
 1434SOL    HW2 5202   5.172   3.390   0.550
 1435SOL     OW 5203   0.409   6.180   3.997
 1435SOL    HW1 5204   0.427   6.220   4.087
 1435SOL    HW2 5205   0.442   6.242   3.925
 1436SOL     OW 5206   5.115   1.012   0.151
 1436SOL    HW1 5207   5.195   0.995   0.093
 1436SOL    HW2 5208   5.127   0.964   0.238
 1437SOL     OW 5209   4.136   1.678   0.762
 1437SOL    HW1 5210   4.081   1.654   0.842
 1437SOL    HW2 5211   4.170   1.595   0.719
 1438SOL     OW 5212   2.351   0.066   2.908
 1438SOL    HW1 5213   2.385   6.998   2.888
 1438SOL    HW2 5214   2.306   0.067   2.997
 1439SOL     OW 5215   0.502   5.418   5.093
 1439SOL    HW1 5216   0.582   5.457   5.048
 1439SOL    HW2 5217   0.447   5.368   5.026
 1440SOL     OW 5218   3.497   3.495   2.135
 1440SOL    HW1 5219   3.403   3.471   2.112
 1440SOL    HW2 5220   3.514   3.476   2.232
 1441SOL     OW 5221   0.067   2.032   5.962
 1441SOL    HW1 5222   0.151   2.080   5.938
 1441SOL    HW2 5223   0.066   1.941   5.920
 1442SOL     OW 5224   5.178   5.868   0.149
 1442SOL    HW1 5225   5.096   5.914   0.116
 1442SOL    HW2 5226   5.211   5.804   0.080
 1443SOL     OW 5227   1.597   2.814   3.544
 1443SOL    HW1 5228   1.562   2.894   3.496
 1443SOL    HW2 5229   1.689   2.794   3.511
 1444SOL     OW 5230   5.064   6.672   4.454
 1444SOL    HW1 5231   4.976   6.646   4.494
 1444SOL    HW2 5232   5.131   6.686   4.528
 1445SOL     OW 5233   6.932   2.241   0.182
 1445SOL    HW1 5234   6.875   2.302   0.127
 1445SOL    HW2 5235   6.913   2.147   0.157
 1446SOL     OW 5236   3.542   6.128   2.418
 1446SOL    HW1 5237   3.448   6.163   2.421
 1446SOL    HW2 5238   3.541   6.036   2.378
 1447SOL     OW 5239   6.895   0.475   4.441
 1447SOL    HW1 5240   6.958   0.536   4.393
 1447SOL    HW2 5241   6.879   0.510   4.534
 1448SOL     OW 5242   5.186   0.719   0.271
 1448SOL    HW1 5243   5.165   0.663   0.351
 1448SOL    HW2 5244   5.285   0.720   0.257
 1449SOL     OW 5245   4.488   5.351   0.183
 1449SOL    HW1 5246   4.488   5.271   0.124
 1449SOL    HW2 5247   4.435   5.332   0.266
 1450SOL     OW 5248   5.852   1.598   3.543
 1450SOL    HW1 5249   5.945   1.582   3.508
 1450SOL    HW2 5250   5.833   1.696   3.543
 1451SOL     OW 5251   1.051   0.013   1.847
 1451SOL    HW1 5252   1.109   6.968   1.890
 1451SOL    HW2 5253   0.959   0.009   1.887
 1452SOL     OW 5254   2.855   0.127   6.167
 1452SOL    HW1 5255   2.814   0.134   6.076
 1452SOL    HW2 5256   2.880   0.219   6.199
 1453SOL     OW 5257   5.258   4.014   4.365
 1453SOL    HW1 5258   5.276   3.929   4.414
 1453SOL    HW2 5259   5.339   4.072   4.370
 1454SOL     OW 5260   5.566   3.867   1.161
 1454SOL    HW1 5261   5.590   3.794   1.225
 1454SOL    HW2 5262   5.467   3.882   1.163
 1455SOL     OW 5263   1.821   2.059   1.472
 1455SOL    HW1 5264   1.873   2.091   1.551
 1455SOL    HW2 5265   1.734   2.021   1.503
 1456SOL     OW 5266   5.906   5.416   5.540
 1456SOL    HW1 5267   5.862   5.326   5.549
 1456SOL    HW2 5268   5.853   5.473   5.477
 1457SOL     OW 5269   1.638   0.693   4.513
 1457SOL    HW1 5270   1.568   0.628   4.483
 1457SOL    HW2 5271   1.594   0.781   4.533
 1458SOL     OW 5272   0.247   5.266   6.688
 1458SOL    HW1 5273   0.200   5.178   6.686
 1458SOL    HW2 5274   0.327   5.261   6.747
 1459SOL     OW 5275   2.349   6.981   1.607
 1459SOL    HW1 5276   2.299   7.020   1.530
 1459SOL    HW2 5277   2.382   6.890   1.582
 1460SOL     OW 5278   0.351   0.007   0.013
 1460SOL    HW1 5279   0.379   0.090   0.062
 1460SOL    HW2 5280   0.362   0.020   6.938
 1461SOL     OW 5281   4.959   5.081   2.220
 1461SOL    HW1 5282   4.994   4.988   2.233
 1461SOL    HW2 5283   5.028   5.137   2.174
 1462SOL     OW 5284   5.335   0.022   5.177
 1462SOL    HW1 5285   5.427   0.060   5.176
 1462SOL    HW2 5286   5.273   0.083   5.128
 1463SOL     OW 5287   0.824   2.461   5.447
 1463SOL    HW1 5288   0.843   2.429   5.540
 1463SOL    HW2 5289   0.771   2.392   5.399
 1464SOL     OW 5290   0.716   0.984   1.521
 1464SOL    HW1 5291   0.630   0.963   1.474
 1464SOL    HW2 5292   0.709   0.960   1.618
 1465SOL     OW 5293   1.631   1.307   3.615
 1465SOL    HW1 5294   1.594   1.266   3.698
 1465SOL    HW2 5295   1.575   1.278   3.537
 1466SOL     OW 5296   5.507   5.468   4.410
 1466SOL    HW1 5297   5.575   5.394   4.408
 1466SOL    HW2 5298   5.504   5.508   4.502
 1467SOL     OW 5299   6.734   3.958   3.945
 1467SOL    HW1 5300   6.680   3.972   4.028
 1467SOL    HW2 5301   6.731   3.862   3.919
 1468SOL     OW 5302   4.667   0.392   2.454
 1468SOL    HW1 5303   4.678   0.379   2.553
 1468SOL    HW2 5304   4.598   0.462   2.437
 1469SOL     OW 5305   0.878   0.401   2.145
 1469SOL    HW1 5306   0.975   0.424   2.150
 1469SOL    HW2 5307   0.838   0.442   2.063
 1470SOL     OW 5308   0.295   7.018   2.768
 1470SOL    HW1 5309   0.336   6.936   2.809
 1470SOL    HW2 5310   0.218   0.025   2.825
 1471SOL     OW 5311   6.251   0.811   1.039
 1471SOL    HW1 5312   6.184   0.758   0.986
 1471SOL    HW2 5313   6.209   0.844   1.123
 1472SOL     OW 5314   4.787   5.102   4.658
 1472SOL    HW1 5315   4.723   5.090   4.581
 1472SOL    HW2 5316   4.760   5.182   4.711
 1473SOL     OW 5317   6.562   3.796   3.674
 1473SOL    HW1 5318   6.571   3.885   3.720
 1473SOL    HW2 5319   6.530   3.728   3.740
 1474SOL     OW 5320   4.428   6.003   3.052
 1474SOL    HW1 5321   4.371   5.992   3.133
 1474SOL    HW2 5322   4.372   5.989   2.970
 1475SOL     OW 5323   6.420   6.759   3.148
 1475SOL    HW1 5324   6.382   6.791   3.061
 1475SOL    HW2 5325   6.357   6.695   3.190
 1476SOL     OW 5326   0.823   2.125   1.655
 1476SOL    HW1 5327   0.882   2.180   1.713
 1476SOL    HW2 5328   0.878   2.061   1.601
 1477SOL     OW 5329   2.724   6.563   4.394
 1477SOL    HW1 5330   2.795   6.532   4.331
 1477SOL    HW2 5331   2.656   6.491   4.407
 1478SOL     OW 5332   0.006   3.311   1.199
 1478SOL    HW1 5333   0.025   3.369   1.278
 1478SOL    HW2 5334   0.083   3.249   1.183
 1479SOL     OW 5335   1.097   5.639   0.178
 1479SOL    HW1 5336   1.103   5.543   0.203
 1479SOL    HW2 5337   1.001   5.667   0.176
 1480SOL     OW 5338   2.704   0.916   6.878
 1480SOL    HW1 5339   2.625   0.867   6.841
 1480SOL    HW2 5340   2.719   0.890   6.973
 1481SOL     OW 5341   0.095   3.194   0.002
 1481SOL    HW1 5342   0.086   3.207   0.101
 1481SOL    HW2 5343   0.012   3.228   6.981
 1482SOL     OW 5344   5.859   0.546   6.296
 1482SOL    HW1 5345   5.935   0.486   6.320
 1482SOL    HW2 5346   5.822   0.520   6.207
 1483SOL     OW 5347   6.343   1.898   6.470
 1483SOL    HW1 5348   6.345   1.944   6.559
 1483SOL    HW2 5349   6.250   1.868   6.450
 1484SOL     OW 5350   5.927   6.981   2.919
 1484SOL    HW1 5351   5.887   6.906   2.866
 1484SOL    HW2 5352   5.860   7.013   2.986
 1485SOL     OW 5353   5.501   3.383   4.168
 1485SOL    HW1 5354   5.506   3.317   4.093
 1485SOL    HW2 5355   5.574   3.450   4.158
 1486SOL     OW 5356   5.464   2.459   2.097
 1486SOL    HW1 5357   5.477   2.554   2.125
 1486SOL    HW2 5358   5.367   2.443   2.077
 1487SOL     OW 5359   0.131   0.476   5.725
 1487SOL    HW1 5360   0.128   0.416   5.645
 1487SOL    HW2 5361   0.198   0.442   5.790
 1488SOL     OW 5362   5.198   2.132   4.801
 1488SOL    HW1 5363   5.250   2.182   4.871
 1488SOL    HW2 5364   5.111   2.179   4.785
 1489SOL     OW 5365   3.572   5.193   4.818
 1489SOL    HW1 5366   3.569   5.220   4.914
 1489SOL    HW2 5367   3.578   5.093   4.812
 1490SOL     OW 5368   2.360   2.352   1.172
 1490SOL    HW1 5369   2.404   2.432   1.131
 1490SOL    HW2 5370   2.329   2.291   1.099
 1491SOL     OW 5371   0.448   2.217   4.887
 1491SOL    HW1 5372   0.492   2.307   4.890
 1491SOL    HW2 5373   0.419   2.197   4.794
 1492SOL     OW 5374   6.973   2.171   1.685
 1492SOL    HW1 5375   0.037   2.128   1.660
 1492SOL    HW2 5376   6.949   2.147   1.779
 1493SOL     OW 5377   6.012   2.386   5.362
 1493SOL    HW1 5378   6.045   2.401   5.456
 1493SOL    HW2 5379   5.967   2.297   5.356
 1494SOL     OW 5380   5.250   1.611   4.310
 1494SOL    HW1 5381   5.250   1.708   4.286
 1494SOL    HW2 5382   5.292   1.600   4.400
 1495SOL     OW 5383   1.466   3.744   2.405
 1495SOL    HW1 5384   1.509   3.731   2.494
 1495SOL    HW2 5385   1.380   3.693   2.402
 1496SOL     OW 5386   1.477   0.448   2.054
 1496SOL    HW1 5387   1.482   0.507   2.134
 1496SOL    HW2 5388   1.442   0.358   2.080
 1497SOL     OW 5389   5.728   4.994   5.754
 1497SOL    HW1 5390   5.738   5.088   5.720
 1497SOL    HW2 5391   5.663   4.993   5.829
 1498SOL     OW 5392   2.694   5.537   0.694
 1498SOL    HW1 5393   2.763   5.510   0.627
 1498SOL    HW2 5394   2.672   5.633   0.684
 1499SOL     OW 5395   0.906   4.089   4.341
 1499SOL    HW1 5396   0.868   4.074   4.433
 1499SOL    HW2 5397   0.929   4.185   4.329
 1500SOL     OW 5398   3.697   6.797   5.871
 1500SOL    HW1 5399   3.689   6.859   5.949
 1500SOL    HW2 5400   3.609   6.788   5.826
 1501SOL     OW 5401   3.354   0.335   0.772
 1501SOL    HW1 5402   3.381   0.429   0.796
 1501SOL    HW2 5403   3.421   0.271   0.810
 1502SOL     OW 5404   0.593   0.248   5.769
 1502SOL    HW1 5405   0.631   0.325   5.718
 1502SOL    HW2 5406   0.653   0.227   5.846
 1503SOL     OW 5407   3.292   3.907   5.067
 1503SOL    HW1 5408   3.231   3.978   5.101
 1503SOL    HW2 5409   3.298   3.914   4.967
 1504SOL     OW 5410   3.060   6.695   3.851
 1504SOL    HW1 5411   3.015   6.631   3.788
 1504SOL    HW2 5412   3.043   6.789   3.821
 1505SOL     OW 5413   5.231   6.975   2.675
 1505SOL    HW1 5414   5.149   6.938   2.631
 1505SOL    HW2 5415   5.229   0.051   2.669
 1506SOL     OW 5416   1.047   6.191   4.054
 1506SOL    HW1 5417   1.063   6.192   3.956
 1506SOL    HW2 5418   0.954   6.221   4.073
 1507SOL     OW 5419   2.065   1.884   6.910
 1507SOL    HW1 5420   2.139   1.949   6.894
 1507SOL    HW2 5421   1.980   1.933   6.927
 1508SOL     OW 5422   4.544   6.804   1.175
 1508SOL    HW1 5423   4.563   6.708   1.155
 1508SOL    HW2 5424   4.580   6.827   1.266
 1509SOL     OW 5425   5.750   1.566   6.572
 1509SOL    HW1 5426   5.703   1.481   6.598
 1509SOL    HW2 5427   5.817   1.547   6.501
 1510SOL     OW 5428   6.502   1.536   2.796
 1510SOL    HW1 5429   6.566   1.578   2.733
 1510SOL    HW2 5430   6.477   1.444   2.763
 1511SOL     OW 5431   1.051   2.813   6.955
 1511SOL    HW1 5432   1.115   2.839   6.882
 1511SOL    HW2 5433   0.972   2.768   6.914
 1512SOL     OW 5434   0.077   1.238   1.390
 1512SOL    HW1 5435   0.174   1.260   1.380
 1512SOL    HW2 5436   0.040   1.290   1.467
 1513SOL     OW 5437   2.567   0.812   2.806
 1513SOL    HW1 5438   2.632   0.795   2.733
 1513SOL    HW2 5439   2.591   0.896   2.853
 1514SOL     OW 5440   4.445   0.981   5.813
 1514SOL    HW1 5441   4.403   1.036   5.885
 1514SOL    HW2 5442   4.486   1.041   5.744
 1515SOL     OW 5443   5.285   5.156   5.239
 1515SOL    HW1 5444   5.298   5.097   5.159
 1515SOL    HW2 5445   5.223   5.231   5.215
 1516SOL     OW 5446   6.976   1.451   0.568
 1516SOL    HW1 5447   7.002   1.423   0.476
 1516SOL    HW2 5448   6.898   1.514   0.563
 1517SOL     OW 5449   3.295   5.453   2.465
 1517SOL    HW1 5450   3.236   5.388   2.512
 1517SOL    HW2 5451   3.244   5.494   2.389
 1518SOL     OW 5452   0.232   4.891   0.667
 1518SOL    HW1 5453   0.225   4.882   0.567
 1518SOL    HW2 5454   0.222   4.987   0.693
 1519SOL     OW 5455   0.256   4.117   1.060
 1519SOL    HW1 5456   0.269   4.087   0.966
 1519SOL    HW2 5457   0.227   4.213   1.060
 1520SOL     OW 5458   1.236   3.321   2.828
 1520SOL    HW1 5459   1.179   3.366   2.896
 1520SOL    HW2 5460   1.237   3.375   2.744
 1521SOL     OW 5461   2.441   4.794   5.221
 1521SOL    HW1 5462   2.386   4.728   5.172
 1521SOL    HW2 5463   2.536   4.787   5.192
 1522SOL     OW 5464   1.472   1.421   6.219
 1522SOL    HW1 5465   1.545   1.470   6.171
 1522SOL    HW2 5466   1.403   1.391   6.154
 1523SOL     OW 5467   5.825   1.470   1.357
 1523SOL    HW1 5468   5.743   1.421   1.326
 1523SOL    HW2 5469   5.904   1.408   1.355
 1524SOL     OW 5470   0.323   1.442   0.941
 1524SOL    HW1 5471   0.319   1.455   1.040
 1524SOL    HW2 5472   0.235   1.407   0.909
 1525SOL     OW 5473   5.054   1.658   5.934
 1525SOL    HW1 5474   5.041   1.680   5.837
 1525SOL    HW2 5475   4.965   1.656   5.980
 1526SOL     OW 5476   5.678   1.608   0.390
 1526SOL    HW1 5477   5.702   1.511   0.397
 1526SOL    HW2 5478   5.710   1.656   0.472
 1527SOL     OW 5479   3.117   0.974   5.884
 1527SOL    HW1 5480   3.177   0.922   5.823
 1527SOL    HW2 5481   3.061   0.911   5.938
 1528SOL     OW 5482   5.111   5.700   3.606
 1528SOL    HW1 5483   5.025   5.665   3.642
 1528SOL    HW2 5484   5.094   5.749   3.520
 1529SOL     OW 5485   1.788   6.949   5.475
 1529SOL    HW1 5486   1.870   6.903   5.509
 1529SOL    HW2 5487   1.810   0.021   5.454
 1530SOL     OW 5488   2.600   6.530   1.115
 1530SOL    HW1 5489   2.556   6.475   1.044
 1530SOL    HW2 5490   2.556   6.620   1.120
 1531SOL     OW 5491   5.340   0.734   6.541
 1531SOL    HW1 5492   5.261   0.786   6.510
 1531SOL    HW2 5493   5.424   0.786   6.524
 1532SOL     OW 5494   2.930   1.823   5.231
 1532SOL    HW1 5495   2.963   1.798   5.140
 1532SOL    HW2 5496   2.965   1.913   5.255
 1533SOL     OW 5497   4.463   3.268   6.726
 1533SOL    HW1 5498   4.401   3.311   6.791
 1533SOL    HW2 5499   4.472   3.171   6.748
 1534SOL     OW 5500   6.720   0.054   0.721
 1534SOL    HW1 5501   6.635   0.073   0.771
 1534SOL    HW2 5502   6.765   6.997   0.760
 1535SOL     OW 5503   5.058   4.303   4.756
 1535SOL    HW1 5504   5.055   4.286   4.658
 1535SOL    HW2 5505   4.967   4.286   4.796
 1536SOL     OW 5506   3.325   6.609   3.270
 1536SOL    HW1 5507   3.293   6.534   3.212
 1536SOL    HW2 5508   3.422   6.596   3.290
 1537SOL     OW 5509   2.992   5.727   4.646
 1537SOL    HW1 5510   2.983   5.660   4.720
 1537SOL    HW2 5511   2.958   5.815   4.678
 1538SOL     OW 5512   3.342   5.995   0.131
 1538SOL    HW1 5513   3.431   6.034   0.105
 1538SOL    HW2 5514   3.270   6.059   0.108
 1539SOL     OW 5515   2.688   6.452   1.834
 1539SOL    HW1 5516   2.765   6.415   1.783
 1539SOL    HW2 5517   2.608   6.459   1.774
 1540SOL     OW 5518   6.142   6.843   5.282
 1540SOL    HW1 5519   6.138   6.839   5.182
 1540SOL    HW2 5520   6.169   6.935   5.310
 1541SOL     OW 5521   5.301   1.245   1.688
 1541SOL    HW1 5522   5.395   1.222   1.662
 1541SOL    HW2 5523   5.245   1.256   1.606
 1542SOL     OW 5524   6.855   6.177   0.955
 1542SOL    HW1 5525   6.899   6.124   1.028
 1542SOL    HW2 5526   6.780   6.125   0.916
 1543SOL     OW 5527   3.297   3.260   3.100
 1543SOL    HW1 5528   3.328   3.310   3.019
 1543SOL    HW2 5529   3.363   3.272   3.174
 1544SOL     OW 5530   3.656   3.711   1.983
 1544SOL    HW1 5531   3.600   3.788   1.953
 1544SOL    HW2 5532   3.601   3.628   1.987
 1545SOL     OW 5533   0.118   6.787   4.930
 1545SOL    HW1 5534   0.100   6.757   4.836
 1545SOL    HW2 5535   0.172   6.717   4.977
 1546SOL     OW 5536   6.910   6.461   6.371
 1546SOL    HW1 5537   6.881   6.468   6.276
 1546SOL    HW2 5538   6.965   6.540   6.395
 1547SOL     OW 5539   3.490   5.825   0.293
 1547SOL    HW1 5540   3.424   5.891   0.256
 1547SOL    HW2 5541   3.544   5.786   0.218
 1548SOL     OW 5542   6.792   4.090   3.166
 1548SOL    HW1 5543   6.801   3.995   3.194
 1548SOL    HW2 5544   6.857   4.110   3.092
 1549SOL     OW 5545   6.630   2.379   0.891
 1549SOL    HW1 5546   6.599   2.469   0.922
 1549SOL    HW2 5547   6.598   2.308   0.953
 1550SOL     OW 5548   2.731   5.085   2.159
 1550SOL    HW1 5549   2.818   5.133   2.166
 1550SOL    HW2 5550   2.681   5.094   2.244
 1551SOL     OW 5551   0.568   2.239   1.647
 1551SOL    HW1 5552   0.663   2.209   1.640
 1551SOL    HW2 5553   0.528   2.244   1.555
 1552SOL     OW 5554   1.710   6.700   2.113
 1552SOL    HW1 5555   1.789   6.732   2.062
 1552SOL    HW2 5556   1.700   6.754   2.197
 1553SOL     OW 5557   5.822   1.315   5.836
 1553SOL    HW1 5558   5.920   1.310   5.820
 1553SOL    HW2 5559   5.773   1.273   5.759
 1554SOL     OW 5560   2.739   2.691   0.867
 1554SOL    HW1 5561   2.722   2.607   0.814
 1554SOL    HW2 5562   2.662   2.754   0.855
 1555SOL     OW 5563   4.009   1.313   0.660
 1555SOL    HW1 5564   4.042   1.325   0.567
 1555SOL    HW2 5565   3.909   1.319   0.662
 1556SOL     OW 5566   3.339   2.359   0.222
 1556SOL    HW1 5567   3.437   2.375   0.215
 1556SOL    HW2 5568   3.291   2.445   0.235
 1557SOL     OW 5569   1.212   2.968   0.838
 1557SOL    HW1 5570   1.205   3.056   0.884
 1557SOL    HW2 5571   1.143   2.906   0.874
 1558SOL     OW 5572   5.179   2.697   6.581
 1558SOL    HW1 5573   5.148   2.605   6.607
 1558SOL    HW2 5574   5.137   2.722   6.493
 1559SOL     OW 5575   2.639   6.498   3.428
 1559SOL    HW1 5576   2.671   6.592   3.435
 1559SOL    HW2 5577   2.717   6.436   3.439
 1560SOL     OW 5578   4.799   3.005   1.490
 1560SOL    HW1 5579   4.736   2.961   1.426
 1560SOL    HW2 5580   4.873   3.049   1.440
 1561SOL     OW 5581   5.436   6.386   0.596
 1561SOL    HW1 5582   5.491   6.316   0.641
 1561SOL    HW2 5583   5.476   6.408   0.507
 1562SOL     OW 5584   2.752   0.050   2.759
 1562SOL    HW1 5585   2.674   0.036   2.698
 1562SOL    HW2 5586   2.722   0.102   2.839
 1563SOL     OW 5587   2.163   3.908   3.724
 1563SOL    HW1 5588   2.222   3.988   3.712
 1563SOL    HW2 5589   2.150   3.890   3.822
 1564SOL     OW 5590   1.053   1.913   2.500
 1564SOL    HW1 5591   1.145   1.882   2.524
 1564SOL    HW2 5592   1.000   1.927   2.584
 1565SOL     OW 5593   4.921   1.864   4.991
 1565SOL    HW1 5594   5.017   1.846   5.012
 1565SOL    HW2 5595   4.909   1.870   4.892
 1566SOL     OW 5596   0.531   3.679   3.659
 1566SOL    HW1 5597   0.627   3.709   3.661
 1566SOL    HW2 5598   0.497   3.669   3.752
 1567SOL     OW 5599   5.543   0.155   4.826
 1567SOL    HW1 5600   5.601   0.235   4.839
 1567SOL    HW2 5601   5.456   0.169   4.874
 1568SOL     OW 5602   2.213   4.602   0.873
 1568SOL    HW1 5603   2.124   4.560   0.860
 1568SOL    HW2 5604   2.277   4.535   0.909
 1569SOL     OW 5605   2.095   1.179   2.456
 1569SOL    HW1 5606   2.010   1.200   2.407
 1569SOL    HW2 5607   2.173   1.202   2.397
 1570SOL     OW 5608   3.047   6.121   6.351
 1570SOL    HW1 5609   2.995   6.035   6.353
 1570SOL    HW2 5610   3.022   6.177   6.430
 1571SOL     OW 5611   6.973   1.878   4.249
 1571SOL    HW1 5612   0.018   1.929   4.198
 1571SOL    HW2 5613   6.885   1.926   4.245
 1572SOL     OW 5614   2.120   6.138   3.122
 1572SOL    HW1 5615   2.147   6.234   3.108
 1572SOL    HW2 5616   2.201   6.083   3.143
 1573SOL     OW 5617   5.628   5.756   0.558
 1573SOL    HW1 5618   5.612   5.660   0.535
 1573SOL    HW2 5619   5.685   5.798   0.487
 1574SOL     OW 5620   0.348   4.370   3.280
 1574SOL    HW1 5621   0.254   4.345   3.305
 1574SOL    HW2 5622   0.407   4.290   3.291
 1575SOL     OW 5623   0.094   2.138   0.536
 1575SOL    HW1 5624   0.100   2.152   0.437
 1575SOL    HW2 5625   0.146   2.057   0.561
 1576SOL     OW 5626   1.608   6.306   2.368
 1576SOL    HW1 5627   1.624   6.314   2.466
 1576SOL    HW2 5628   1.533   6.366   2.342
 1577SOL     OW 5629   4.454   5.784   4.076
 1577SOL    HW1 5630   4.405   5.723   4.138
 1577SOL    HW2 5631   4.527   5.733   4.030
 1578SOL     OW 5632   5.623   2.085   1.637
 1578SOL    HW1 5633   5.525   2.066   1.642
 1578SOL    HW2 5634   5.672   2.000   1.615
 1579SOL     OW 5635   1.847   3.125   1.903
 1579SOL    HW1 5636   1.925   3.099   1.961
 1579SOL    HW2 5637   1.762   3.105   1.951
 1580SOL     OW 5638   3.236   4.124   3.381
 1580SOL    HW1 5639   3.229   4.201   3.444
 1580SOL    HW2 5640   3.173   4.052   3.410
 1581SOL     OW 5641   5.011   4.742   5.128
 1581SOL    HW1 5642   5.012   4.833   5.170
 1581SOL    HW2 5643   4.979   4.675   5.194
 1582SOL     OW 5644   4.154   6.199   4.667
 1582SOL    HW1 5645   4.232   6.229   4.613
 1582SOL    HW2 5646   4.184   6.136   4.738
 1583SOL     OW 5647   1.136   4.854   5.397
 1583SOL    HW1 5648   1.138   4.843   5.298
 1583SOL    HW2 5649   1.174   4.773   5.441
 1584SOL     OW 5650   0.070   3.793   0.031
 1584SOL    HW1 5651   0.124   3.877   0.025
 1584SOL    HW2 5652   0.001   3.793   6.982
 1585SOL     OW 5653   5.041   6.383   4.651
 1585SOL    HW1 5654   5.116   6.362   4.588
 1585SOL    HW2 5655   5.003   6.473   4.629
 1586SOL     OW 5656   2.605   6.224   3.646
 1586SOL    HW1 5657   2.542   6.150   3.622
 1586SOL    HW2 5658   2.639   6.267   3.562
 1587SOL     OW 5659   3.595   6.354   0.302
 1587SOL    HW1 5660   3.613   6.369   0.399
 1587SOL    HW2 5661   3.676   6.315   0.259
 1588SOL     OW 5662   6.247   2.010   3.521
 1588SOL    HW1 5663   6.161   1.963   3.542
 1588SOL    HW2 5664   6.264   2.006   3.423
 1589SOL     OW 5665   6.965   1.995   4.560
 1589SOL    HW1 5666   0.036   2.020   4.537
 1589SOL    HW2 5667   6.933   1.925   4.496
 1590SOL     OW 5668   5.103   0.525   3.991
 1590SOL    HW1 5669   5.176   0.465   4.024
 1590SOL    HW2 5670   5.142   0.600   3.938
 1591SOL     OW 5671   0.575   5.593   0.404
 1591SOL    HW1 5672   0.610   5.669   0.350
 1591SOL    HW2 5673   0.478   5.606   0.422
 1592SOL     OW 5674   0.058   3.938   4.858
 1592SOL    HW1 5675   0.124   3.945   4.784
 1592SOL    HW2 5676   0.068   3.849   4.904
 1593SOL     OW 5677   3.813   5.799   1.462
 1593SOL    HW1 5678   3.912   5.793   1.472
 1593SOL    HW2 5679   3.781   5.732   1.395
 1594SOL     OW 5680   4.912   0.829   2.863
 1594SOL    HW1 5681   4.949   0.890   2.792
 1594SOL    HW2 5682   4.903   0.880   2.949
 1595SOL     OW 5683   0.717   3.606   6.726
 1595SOL    HW1 5684   0.680   3.521   6.688
 1595SOL    HW2 5685   0.773   3.584   6.806
 1596SOL     OW 5686   5.110   3.957   4.152
 1596SOL    HW1 5687   5.173   3.930   4.079
 1596SOL    HW2 5688   5.161   3.990   4.231
 1597SOL     OW 5689   3.950   6.235   0.574
 1597SOL    HW1 5690   3.923   6.233   0.478
 1597SOL    HW2 5691   3.949   6.141   0.610
 1598SOL     OW 5692   1.250   4.448   6.283
 1598SOL    HW1 5693   1.164   4.469   6.330
 1598SOL    HW2 5694   1.231   4.405   6.195
 1599SOL     OW 5695   4.442   5.862   3.780
 1599SOL    HW1 5696   4.351   5.828   3.800
 1599SOL    HW2 5697   4.486   5.894   3.864
 1600SOL     OW 5698   4.614   0.639   1.398
 1600SOL    HW1 5699   4.592   0.657   1.302
 1600SOL    HW2 5700   4.701   0.683   1.421
 1601SOL     OW 5701   6.295   0.843   4.916
 1601SOL    HW1 5702   6.373   0.795   4.878
 1601SOL    HW2 5703   6.291   0.935   4.877
 1602SOL     OW 5704   4.304   5.413   3.468
 1602SOL    HW1 5705   4.396   5.429   3.504
 1602SOL    HW2 5706   4.281   5.486   3.404
 1603SOL     OW 5707   3.382   5.167   2.032
 1603SOL    HW1 5708   3.326   5.246   2.006
 1603SOL    HW2 5709   3.357   5.089   1.975
 1604SOL     OW 5710   4.213   5.348   2.402
 1604SOL    HW1 5711   4.210   5.432   2.347
 1604SOL    HW2 5712   4.299   5.301   2.384
 1605SOL     OW 5713   4.778   5.223   0.541
 1605SOL    HW1 5714   4.765   5.125   0.523
 1605SOL    HW2 5715   4.790   5.271   0.454
 1606SOL     OW 5716   3.358   5.867   5.266
 1606SOL    HW1 5717   3.362   5.910   5.175
 1606SOL    HW2 5718   3.435   5.899   5.321
 1607SOL     OW 5719   4.852   3.701   3.872
 1607SOL    HW1 5720   4.836   3.658   3.961
 1607SOL    HW2 5721   4.838   3.634   3.799
 1608SOL     OW 5722   5.657   2.855   3.681
 1608SOL    HW1 5723   5.566   2.814   3.687
 1608SOL    HW2 5724   5.664   2.930   3.747
 1609SOL     OW 5725   1.763   6.984   0.810
 1609SOL    HW1 5726   1.729   0.049   0.841
 1609SOL    HW2 5727   1.737   6.913   0.876
 1610SOL     OW 5728   5.659   6.260   1.039
 1610SOL    HW1 5729   5.567   6.296   1.023
 1610SOL    HW2 5730   5.689   6.208   0.959
 1611SOL     OW 5731   0.604   3.920   6.816
 1611SOL    HW1 5732   0.626   4.015   6.797
 1611SOL    HW2 5733   0.666   3.884   6.886
 1612SOL     OW 5734   4.853   1.195   1.650
 1612SOL    HW1 5735   4.788   1.187   1.725
 1612SOL    HW2 5736   4.928   1.130   1.663
 1613SOL     OW 5737   0.273   6.318   2.700
 1613SOL    HW1 5738   0.230   6.295   2.613
 1613SOL    HW2 5739   0.372   6.326   2.687
 1614SOL     OW 5740   6.263   1.877   5.180
 1614SOL    HW1 5741   6.321   1.882   5.099
 1614SOL    HW2 5742   6.224   1.786   5.188
 1615SOL     OW 5743   7.019   3.439   5.018
 1615SOL    HW1 5744   6.938   3.483   5.057
 1615SOL    HW2 5745   6.990   3.373   4.949
 1616SOL     OW 5746   0.871   1.294   3.148
 1616SOL    HW1 5747   0.828   1.353   3.216
 1616SOL    HW2 5748   0.858   1.199   3.174
 1617SOL     OW 5749   6.703   5.674   4.136
 1617SOL    HW1 5750   6.605   5.682   4.115
 1617SOL    HW2 5751   6.715   5.671   4.235
 1618SOL     OW 5752   3.293   5.649   2.950
 1618SOL    HW1 5753   3.309   5.550   2.946
 1618SOL    HW2 5754   3.201   5.666   2.985
 1619SOL     OW 5755   1.157   3.710   6.600
 1619SOL    HW1 5756   1.213   3.789   6.574
 1619SOL    HW2 5757   1.061   3.731   6.582
 1620SOL     OW 5758   3.239   6.788   4.513
 1620SOL    HW1 5759   3.297   6.738   4.449
 1620SOL    HW2 5760   3.240   6.885   4.490
 1621SOL     OW 5761   5.225   4.796   1.007
 1621SOL    HW1 5762   5.211   4.739   1.089
 1621SOL    HW2 5763   5.143   4.850   0.991
 1622SOL     OW 5764   6.357   4.251   3.576
 1622SOL    HW1 5765   6.447   4.223   3.541
 1622SOL    HW2 5766   6.338   4.344   3.545
 1623SOL     OW 5767   0.920   2.480   3.873
 1623SOL    HW1 5768   0.909   2.452   3.969
 1623SOL    HW2 5769   0.944   2.401   3.818
 1624SOL     OW 5770   3.942   3.134   0.643
 1624SOL    HW1 5771   3.912   3.145   0.548
 1624SOL    HW2 5772   3.987   3.045   0.653
 1625SOL     OW 5773   0.662   6.726   0.398
 1625SOL    HW1 5774   0.617   6.694   0.481
 1625SOL    HW2 5775   0.752   6.763   0.421
 1626SOL     OW 5776   2.351   1.986   2.050
 1626SOL    HW1 5777   2.332   1.902   2.000
 1626SOL    HW2 5778   2.448   2.008   2.042
 1627SOL     OW 5779   4.381   1.617   5.864
 1627SOL    HW1 5780   4.310   1.686   5.854
 1627SOL    HW2 5781   4.462   1.658   5.905
 1628SOL     OW 5782   5.399   6.369   1.080
 1628SOL    HW1 5783   5.372   6.453   1.126
 1628SOL    HW2 5784   5.380   6.291   1.140
 1629SOL     OW 5785   1.603   0.033   3.521
 1629SOL    HW1 5786   1.606   0.132   3.533
 1629SOL    HW2 5787   1.556   7.015   3.598
 1630SOL     OW 5788   0.665   4.228   6.003
 1630SOL    HW1 5789   0.725   4.153   6.029
 1630SOL    HW2 5790   0.712   4.286   5.937
 1631SOL     OW 5791   5.354   3.604   0.259
 1631SOL    HW1 5792   5.357   3.599   0.160
 1631SOL    HW2 5793   5.397   3.523   0.299
 1632SOL     OW 5794   5.962   6.374   2.212
 1632SOL    HW1 5795   5.898   6.386   2.289
 1632SOL    HW2 5796   5.910   6.360   2.128
 1633SOL     OW 5797   5.824   3.656   4.616
 1633SOL    HW1 5798   5.770   3.627   4.696
 1633SOL    HW2 5799   5.862   3.575   4.571
 1634SOL     OW 5800   1.269   3.562   5.995
 1634SOL    HW1 5801   1.321   3.580   6.079
 1634SOL    HW2 5802   1.329   3.517   5.929
 1635SOL     OW 5803   2.166   0.297   3.476
 1635SOL    HW1 5804   2.253   0.250   3.463
 1635SOL    HW2 5805   2.092   0.239   3.442
 1636SOL     OW 5806   0.164   5.972   1.743
 1636SOL    HW1 5807   0.228   5.895   1.742
 1636SOL    HW2 5808   0.202   6.048   1.691
 1637SOL     OW 5809   1.488   1.616   2.652
 1637SOL    HW1 5810   1.524   1.524   2.664
 1637SOL    HW2 5811   1.549   1.682   2.696
 1638SOL     OW 5812   5.519   2.797   3.084
 1638SOL    HW1 5813   5.467   2.726   3.133
 1638SOL    HW2 5814   5.456   2.850   3.027
 1639SOL     OW 5815   4.788   2.315   1.734
 1639SOL    HW1 5816   4.724   2.390   1.716
 1639SOL    HW2 5817   4.818   2.320   1.830
 1640SOL     OW 5818   6.144   0.634   6.672
 1640SOL    HW1 5819   6.100   0.620   6.761
 1640SOL    HW2 5820   6.076   0.622   6.599
 1641SOL     OW 5821   5.778   1.247   3.212
 1641SOL    HW1 5822   5.767   1.223   3.115
 1641SOL    HW2 5823   5.770   1.165   3.267
 1642SOL     OW 5824   6.992   3.377   5.728
 1642SOL    HW1 5825   6.947   3.340   5.809
 1642SOL    HW2 5826   6.926   3.428   5.673
 1643SOL     OW 5827   2.139   5.387   3.711
 1643SOL    HW1 5828   2.079   5.307   3.701
 1643SOL    HW2 5829   2.130   5.425   3.803
 1644SOL     OW 5830   6.241   1.518   1.811
 1644SOL    HW1 5831   6.207   1.595   1.757
 1644SOL    HW2 5832   6.296   1.458   1.753
 1645SOL     OW 5833   2.458   0.971   4.793
 1645SOL    HW1 5834   2.395   0.935   4.724
 1645SOL    HW2 5835   2.521   0.898   4.821
 1646SOL     OW 5836   0.145   5.196   1.536
 1646SOL    HW1 5837   0.051   5.181   1.568
 1646SOL    HW2 5838   0.187   5.270   1.587
 1647SOL     OW 5839   6.343   3.441   4.987
 1647SOL    HW1 5840   6.416   3.499   4.950
 1647SOL    HW2 5841   6.368   3.411   5.079
 1648SOL     OW 5842   5.478   6.163   1.435
 1648SOL    HW1 5843   5.437   6.111   1.359
 1648SOL    HW2 5844   5.461   6.115   1.521
 1649SOL     OW 5845   3.496   1.210   2.842
 1649SOL    HW1 5846   3.550   1.253   2.768
 1649SOL    HW2 5847   3.504   1.266   2.925
 1650SOL     OW 5848   2.298   2.733   5.082
 1650SOL    HW1 5849   2.314   2.831   5.071
 1650SOL    HW2 5850   2.352   2.698   5.158
 1651SOL     OW 5851   0.976   2.162   4.063
 1651SOL    HW1 5852   0.928   2.086   4.107
 1651SOL    HW2 5853   0.948   2.168   3.967
 1652SOL     OW 5854   0.205   3.867   1.911
 1652SOL    HW1 5855   0.133   3.864   1.842
 1652SOL    HW2 5856   0.171   3.831   1.998
 1653SOL     OW 5857   6.726   4.582   1.810
 1653SOL    HW1 5858   6.755   4.492   1.776
 1653SOL    HW2 5859   6.653   4.617   1.752
 1654SOL     OW 5860   0.530   4.096   1.585
 1654SOL    HW1 5861   0.557   4.050   1.670
 1654SOL    HW2 5862   0.487   4.030   1.523
 1655SOL     OW 5863   6.991   0.890   5.864
 1655SOL    HW1 5864   7.024   0.887   5.959
 1655SOL    HW2 5865   0.037   0.931   5.806
 1656SOL     OW 5866   1.884   3.953   3.210
 1656SOL    HW1 5867   1.820   3.901   3.154
 1656SOL    HW2 5868   1.841   3.975   3.298
 1657SOL     OW 5869   0.870   0.534   6.089
 1657SOL    HW1 5870   0.917   0.589   6.158
 1657SOL    HW2 5871   0.790   0.490   6.130
 1658SOL     OW 5872   5.404   6.671   6.175
 1658SOL    HW1 5873   5.494   6.715   6.179
 1658SOL    HW2 5874   5.395   6.620   6.090
 1659SOL     OW 5875   3.893   0.087   5.958
 1659SOL    HW1 5876   3.816   0.131   5.913
 1659SOL    HW2 5877   3.899   7.016   5.927
 1660SOL     OW 5878   2.392   0.609   1.882
 1660SOL    HW1 5879   2.456   0.682   1.857
 1660SOL    HW2 5880   2.441   0.522   1.884
 1661SOL     OW 5881   5.101   4.063   3.195
 1661SOL    HW1 5882   5.175   4.067   3.128
 1661SOL    HW2 5883   5.034   3.994   3.167
 1662SOL     OW 5884   0.272   1.673   3.482
 1662SOL    HW1 5885   0.266   1.605   3.409
 1662SOL    HW2 5886   0.253   1.764   3.445
 1663SOL     OW 5887   5.305   3.920   1.218
 1663SOL    HW1 5888   5.288   3.974   1.136
 1663SOL    HW2 5889   5.297   3.979   1.299
 1664SOL     OW 5890   1.311   1.154   6.261
 1664SOL    HW1 5891   1.242   1.196   6.321
 1664SOL    HW2 5892   1.314   1.202   6.174
 1665SOL     OW 5893   2.316   3.742   6.421
 1665SOL    HW1 5894   2.297   3.840   6.413
 1665SOL    HW2 5895   2.240   3.697   6.469
 1666SOL     OW 5896   5.617   6.235   5.912
 1666SOL    HW1 5897   5.700   6.199   5.870
 1666SOL    HW2 5898   5.621   6.335   5.911
 1667SOL     OW 5899   0.037   5.320   0.907
 1667SOL    HW1 5900   0.001   5.226   0.909
 1667SOL    HW2 5901   0.117   5.326   0.967
 1668SOL     OW 5902   5.966   3.134   2.332
 1668SOL    HW1 5903   5.953   3.068   2.405
 1668SOL    HW2 5904   6.013   3.091   2.255
 1669SOL     OW 5905   6.405   2.716   5.542
 1669SOL    HW1 5906   6.402   2.793   5.478
 1669SOL    HW2 5907   6.402   2.630   5.491
 1670SOL     OW 5908   3.308   4.474   5.616
 1670SOL    HW1 5909   3.268   4.562   5.593
 1670SOL    HW2 5910   3.299   4.412   5.538
 1671SOL     OW 5911   5.170   1.993   0.739
 1671SOL    HW1 5912   5.143   2.061   0.671
 1671SOL    HW2 5913   5.163   2.033   0.830
 1672SOL     OW 5914   0.429   1.947   1.394
 1672SOL    HW1 5915   0.360   1.958   1.322
 1672SOL    HW2 5916   0.474   2.034   1.411
 1673SOL     OW 5917   1.562   0.307   4.872
 1673SOL    HW1 5918   1.569   0.208   4.860
 1673SOL    HW2 5919   1.559   0.328   4.970
 1674SOL     OW 5920   4.960   2.289   3.805
 1674SOL    HW1 5921   5.008   2.213   3.762
 1674SOL    HW2 5922   5.026   2.352   3.846
 1675SOL     OW 5923   5.623   0.338   2.161
 1675SOL    HW1 5924   5.671   0.425   2.157
 1675SOL    HW2 5925   5.619   0.298   2.069
 1676SOL     OW 5926   0.884   2.393   3.455
 1676SOL    HW1 5927   0.926   2.304   3.437
 1676SOL    HW2 5928   0.948   2.451   3.505
 1677SOL     OW 5929   2.917   3.415   3.204
 1677SOL    HW1 5930   2.852   3.489   3.185
 1677SOL    HW2 5931   2.919   3.351   3.127
 1678SOL     OW 5932   0.342   6.306   0.004
 1678SOL    HW1 5933   0.390   6.361   6.961
 1678SOL    HW2 5934   0.347   6.350   0.094
 1679SOL     OW 5935   5.964   1.812   0.549
 1679SOL    HW1 5936   5.977   1.847   0.457
 1679SOL    HW2 5937   6.035   1.848   0.609
 1680SOL     OW 5938   6.392   2.865   2.872
 1680SOL    HW1 5939   6.431   2.782   2.912
 1680SOL    HW2 5940   6.394   2.938   2.941
 1681SOL     OW 5941   3.284   5.867   4.749
 1681SOL    HW1 5942   3.377   5.853   4.784
 1681SOL    HW2 5943   3.226   5.791   4.777
 1682SOL     OW 5944   4.458   0.941   4.564
 1682SOL    HW1 5945   4.512   0.899   4.491
 1682SOL    HW2 5946   4.395   1.008   4.524
 1683SOL     OW 5947   0.711   2.692   3.110
 1683SOL    HW1 5948   0.770   2.614   3.132
 1683SOL    HW2 5949   0.723   2.763   3.180
 1684SOL     OW 5950   2.784   5.504   1.559
 1684SOL    HW1 5951   2.775   5.411   1.595
 1684SOL    HW2 5952   2.792   5.501   1.459
 1685SOL     OW 5953   0.132   1.261   5.445
 1685SOL    HW1 5954   0.090   1.273   5.355
 1685SOL    HW2 5955   0.232   1.270   5.436
 1686SOL     OW 5956   3.920   5.436   1.936
 1686SOL    HW1 5957   3.915   5.428   1.837
 1686SOL    HW2 5958   3.956   5.352   1.975
 1687SOL     OW 5959   5.082   3.783   0.723
 1687SOL    HW1 5960   5.065   3.769   0.625
 1687SOL    HW2 5961   5.099   3.880   0.740
 1688SOL     OW 5962   2.808   0.403   2.795
 1688SOL    HW1 5963   2.870   0.355   2.734
 1688SOL    HW2 5964   2.721   0.419   2.749
 1689SOL     OW 5965   3.838   0.672   1.783
 1689SOL    HW1 5966   3.766   0.718   1.731
 1689SOL    HW2 5967   3.824   0.687   1.881
 1690SOL     OW 5968   6.394   4.879   4.167
 1690SOL    HW1 5969   6.388   4.879   4.067
 1690SOL    HW2 5970   6.349   4.961   4.204
 1691SOL     OW 5971   3.993   2.684   5.412
 1691SOL    HW1 5972   3.898   2.688   5.381
 1691SOL    HW2 5973   4.053   2.665   5.334
 1692SOL     OW 5974   5.869   5.242   1.796
 1692SOL    HW1 5975   5.878   5.219   1.893
 1692SOL    HW2 5976   5.814   5.173   1.750
 1693SOL     OW 5977   5.526   6.940   5.907
 1693SOL    HW1 5978   5.557   6.901   5.994
 1693SOL    HW2 5979   5.537   6.872   5.834
 1694SOL     OW 5980   4.563   1.235   6.229
 1694SOL    HW1 5981   4.633   1.271   6.290
 1694SOL    HW2 5982   4.604   1.212   6.141
 1695SOL     OW 5983   3.898   0.296   5.311
 1695SOL    HW1 5984   3.891   0.330   5.405
 1695SOL    HW2 5985   3.941   0.206   5.312
 1696SOL     OW 5986   4.881   6.990   0.998
 1696SOL    HW1 5987   4.972   6.951   1.007
 1696SOL    HW2 5988   4.860   0.021   1.079
 1697SOL     OW 5989   4.592   2.814   1.738
 1697SOL    HW1 5990   4.580   2.908   1.771
 1697SOL    HW2 5991   4.658   2.767   1.796
 1698SOL     OW 5992   3.948   1.369   1.913
 1698SOL    HW1 5993   4.003   1.451   1.908
 1698SOL    HW2 5994   3.857   1.392   1.950
 1699SOL     OW 5995   1.942   0.673   0.943
 1699SOL    HW1 5996   1.894   0.717   0.867
 1699SOL    HW2 5997   2.000   0.600   0.906
 1700SOL     OW 5998   5.471   3.263   2.839
 1700SOL    HW1 5999   5.545   3.198   2.857
 1700SOL    HW2 6000   5.388   3.213   2.813
 1701SOL     OW 6001   1.136   5.767   4.943
 1701SOL    HW1 6002   1.057   5.821   4.914
 1701SOL    HW2 6003   1.113   5.670   4.937
 1702SOL     OW 6004   2.098   2.809   6.469
 1702SOL    HW1 6005   2.116   2.761   6.383
 1702SOL    HW2 6006   2.018   2.769   6.513
 1703SOL     OW 6007   1.236   1.942   2.054
 1703SOL    HW1 6008   1.256   1.954   2.152
 1703SOL    HW2 6009   1.299   1.875   2.016
 1704SOL     OW 6010   3.061   2.776   6.883
 1704SOL    HW1 6011   2.967   2.799   6.858
 1704SOL    HW2 6012   3.078   2.803   6.978
 1705SOL     OW 6013   5.262   3.058   0.508
 1705SOL    HW1 6014   5.304   3.069   0.598
 1705SOL    HW2 6015   5.235   3.147   0.472
 1706SOL     OW 6016   5.387   1.088   6.159
 1706SOL    HW1 6017   5.444   1.162   6.196
 1706SOL    HW2 6018   5.300   1.125   6.128
 1707SOL     OW 6019   3.774   1.016   1.836
 1707SOL    HW1 6020   3.872   0.999   1.829
 1707SOL    HW2 6021   3.737   1.039   1.745
 1708SOL     OW 6022   2.602   4.592   1.932
 1708SOL    HW1 6023   2.702   4.587   1.922
 1708SOL    HW2 6024   2.564   4.650   1.860
 1709SOL     OW 6025   5.294   4.442   1.578
 1709SOL    HW1 6026   5.284   4.499   1.496
 1709SOL    HW2 6027   5.204   4.413   1.609
 1710SOL     OW 6028   4.784   2.931   2.329
 1710SOL    HW1 6029   4.756   2.964   2.238
 1710SOL    HW2 6030   4.809   3.009   2.387
 1711SOL     OW 6031   4.099   5.538   0.123
 1711SOL    HW1 6032   4.112   5.607   0.194
 1711SOL    HW2 6033   4.001   5.517   0.113
 1712SOL     OW 6034   0.208   1.526   2.034
 1712SOL    HW1 6035   0.256   1.477   2.107
 1712SOL    HW2 6036   0.258   1.515   1.948
 1713SOL     OW 6037   3.081   1.491   2.357
 1713SOL    HW1 6038   2.992   1.533   2.378
 1713SOL    HW2 6039   3.111   1.522   2.267
 1714SOL     OW 6040   2.530   4.523   0.667
 1714SOL    HW1 6041   2.519   4.615   0.703
 1714SOL    HW2 6042   2.516   4.456   0.740
 1715SOL     OW 6043   0.970   6.148   1.071
 1715SOL    HW1 6044   0.883   6.101   1.079
 1715SOL    HW2 6045   1.013   6.125   0.984
 1716SOL     OW 6046   5.192   1.872   2.994
 1716SOL    HW1 6047   5.169   1.850   3.089
 1716SOL    HW2 6048   5.178   1.791   2.937
 1717SOL     OW 6049   4.144   6.586   3.576
 1717SOL    HW1 6050   4.169   6.515   3.642
 1717SOL    HW2 6051   4.190   6.568   3.489
 1718SOL     OW 6052   1.811   3.438   1.938
 1718SOL    HW1 6053   1.834   3.491   1.856
 1718SOL    HW2 6054   1.812   3.341   1.916
 1719SOL     OW 6055   1.087   5.279   3.158
 1719SOL    HW1 6056   1.025   5.232   3.094
 1719SOL    HW2 6057   1.078   5.238   3.248
 1720SOL     OW 6058   0.996   2.833   5.337
 1720SOL    HW1 6059   0.915   2.866   5.386
 1720SOL    HW2 6060   0.969   2.789   5.252
 1721SOL     OW 6061   2.084   2.426   0.363
 1721SOL    HW1 6062   2.129   2.415   0.452
 1721SOL    HW2 6063   1.991   2.460   0.377
 1722SOL     OW 6064   2.659   2.455   3.446
 1722SOL    HW1 6065   2.634   2.367   3.405
 1722SOL    HW2 6066   2.744   2.444   3.498
 1723SOL     OW 6067   6.371   4.432   1.456
 1723SOL    HW1 6068   6.286   4.426   1.510
 1723SOL    HW2 6069   6.386   4.344   1.410
 1724SOL     OW 6070   5.636   3.066   1.085
 1724SOL    HW1 6071   5.645   3.025   0.994
 1724SOL    HW2 6072   5.707   3.028   1.145
 1725SOL     OW 6073   1.960   6.544   5.741
 1725SOL    HW1 6074   1.995   6.584   5.656
 1725SOL    HW2 6075   1.955   6.615   5.811
 1726SOL     OW 6076   4.577   4.537   3.792
 1726SOL    HW1 6077   4.650   4.579   3.845
 1726SOL    HW2 6078   4.563   4.443   3.823
 1727SOL     OW 6079   3.372   2.853   3.355
 1727SOL    HW1 6080   3.431   2.832   3.277
 1727SOL    HW2 6081   3.426   2.849   3.439
 1728SOL     OW 6082   5.642   2.021   4.533
 1728SOL    HW1 6083   5.591   1.943   4.569
 1728SOL    HW2 6084   5.578   2.095   4.511
 1729SOL     OW 6085   1.116   3.021   2.859
 1729SOL    HW1 6086   1.197   2.975   2.821
 1729SOL    HW2 6087   1.113   3.115   2.826
 1730SOL     OW 6088   2.491   0.177   4.752
 1730SOL    HW1 6089   2.446   0.266   4.744
 1730SOL    HW2 6090   2.588   0.191   4.773
 1731SOL     OW 6091   4.823   4.300   3.673
 1731SOL    HW1 6092   4.908   4.251   3.694
 1731SOL    HW2 6093   4.841   4.398   3.665
 1732SOL     OW 6094   3.996   3.337   5.158
 1732SOL    HW1 6095   3.919   3.276   5.136
 1732SOL    HW2 6096   4.042   3.363   5.073
 1733SOL     OW 6097   1.681   2.200   6.593
 1733SOL    HW1 6098   1.677   2.272   6.662
 1733SOL    HW2 6099   1.612   2.218   6.523
 1734SOL     OW 6100   0.663   4.193   0.868
 1734SOL    HW1 6101   0.737   4.144   0.914
 1734SOL    HW2 6102   0.637   4.273   0.922
 1735SOL     OW 6103   2.971   5.245   6.126
 1735SOL    HW1 6104   2.973   5.338   6.089
 1735SOL    HW2 6105   2.915   5.244   6.209
 1736SOL     OW 6106   5.319   2.005   6.457
 1736SOL    HW1 6107   5.397   1.941   6.460
 1736SOL    HW2 6108   5.352   2.096   6.433
 1737SOL     OW 6109   2.751   0.950   6.043
 1737SOL    HW1 6110   2.732   0.866   5.992
 1737SOL    HW2 6111   2.841   0.943   6.087
 1738SOL     OW 6112   1.457   4.337   2.097
 1738SOL    HW1 6113   1.401   4.255   2.108
 1738SOL    HW2 6114   1.520   4.325   2.020
 1739SOL     OW 6115   4.944   5.372   2.620
 1739SOL    HW1 6116   4.968   5.469   2.624
 1739SOL    HW2 6117   4.915   5.341   2.710
 1740SOL     OW 6118   6.943   2.448   4.761
 1740SOL    HW1 6119   6.915   2.488   4.674
 1740SOL    HW2 6120   6.862   2.412   4.809
 1741SOL     OW 6121   1.064   2.929   4.628
 1741SOL    HW1 6122   1.109   3.014   4.655
 1741SOL    HW2 6123   1.131   2.867   4.587
 1742SOL     OW 6124   6.046   6.995   6.935
 1742SOL    HW1 6125   6.115   0.005   6.871
 1742SOL    HW2 6126   5.961   6.977   6.885
 1743SOL     OW 6127   1.477   2.201   1.517
 1743SOL    HW1 6128   1.520   2.291   1.528
 1743SOL    HW2 6129   1.537   2.130   1.552
 1744SOL     OW 6130   2.931   2.341   5.261
 1744SOL    HW1 6131   2.951   2.249   5.228
 1744SOL    HW2 6132   3.010   2.401   5.244
 1745SOL     OW 6133   6.547   6.426   0.313
 1745SOL    HW1 6134   6.543   6.518   0.274
 1745SOL    HW2 6135   6.550   6.432   0.413
 1746SOL     OW 6136   2.807   4.905   2.534
 1746SOL    HW1 6137   2.749   4.935   2.610
 1746SOL    HW2 6138   2.754   4.844   2.474
 1747SOL     OW 6139   3.395   0.276   2.292
 1747SOL    HW1 6140   3.371   0.370   2.317
 1747SOL    HW2 6141   3.324   0.214   2.324
 1748SOL     OW 6142   6.911   1.738   3.832
 1748SOL    HW1 6143   6.903   1.837   3.823
 1748SOL    HW2 6144   6.832   1.694   3.788
 1749SOL     OW 6145   6.358   5.673   1.986
 1749SOL    HW1 6146   6.345   5.588   2.037
 1749SOL    HW2 6147   6.279   5.732   1.998
 1750SOL     OW 6148   3.132   1.839   0.649
 1750SOL    HW1 6149   3.103   1.791   0.567
 1750SOL    HW2 6150   3.162   1.931   0.625
 1751SOL     OW 6151   6.121   4.155   4.740
 1751SOL    HW1 6152   6.153   4.240   4.781
 1751SOL    HW2 6153   6.195   4.088   4.741
 1752SOL     OW 6154   6.195   0.448   2.350
 1752SOL    HW1 6155   6.127   0.464   2.279
 1752SOL    HW2 6156   6.167   0.495   2.434
 1753SOL     OW 6157   6.786   1.769   1.534
 1753SOL    HW1 6158   6.831   1.843   1.484
 1753SOL    HW2 6159   6.854   1.700   1.560
 1754SOL     OW 6160   2.895   5.842   3.617
 1754SOL    HW1 6161   2.920   5.897   3.537
 1754SOL    HW2 6162   2.816   5.785   3.595
 1755SOL     OW 6163   6.335   6.661   5.046
 1755SOL    HW1 6164   6.240   6.692   5.043
 1755SOL    HW2 6165   6.395   6.741   5.036
 1756SOL     OW 6166   4.191   6.125   1.478
 1756SOL    HW1 6167   4.232   6.073   1.553
 1756SOL    HW2 6168   4.224   6.219   1.480
 1757SOL     OW 6169   3.057   4.889   5.098
 1757SOL    HW1 6170   2.967   4.914   5.133
 1757SOL    HW2 6171   3.055   4.796   5.062
 1758SOL     OW 6172   1.121   6.364   3.797
 1758SOL    HW1 6173   1.194   6.366   3.728
 1758SOL    HW2 6174   1.070   6.278   3.789
 1759SOL     OW 6175   1.674   5.037   6.517
 1759SOL    HW1 6176   1.659   4.974   6.441
 1759SOL    HW2 6177   1.590   5.090   6.533
 1760SOL     OW 6178   5.988   1.823   4.218
 1760SOL    HW1 6179   5.981   1.836   4.317
 1760SOL    HW2 6180   5.899   1.797   4.181
 1761SOL     OW 6181   5.498   1.910   3.885
 1761SOL    HW1 6182   5.445   1.889   3.803
 1761SOL    HW2 6183   5.570   1.975   3.863
 1762SOL     OW 6184   0.684   1.392   5.972
 1762SOL    HW1 6185   0.759   1.346   5.924
 1762SOL    HW2 6186   0.681   1.488   5.946
 1763SOL     OW 6187   1.974   5.125   3.621
 1763SOL    HW1 6188   1.890   5.165   3.586
 1763SOL    HW2 6189   1.956   5.082   3.710
 1764SOL     OW 6190   1.245   6.459   3.381
 1764SOL    HW1 6191   1.290   6.537   3.337
 1764SOL    HW2 6192   1.223   6.389   3.313
 1765SOL     OW 6193   5.175   3.594   1.943
 1765SOL    HW1 6194   5.170   3.496   1.923
 1765SOL    HW2 6195   5.084   3.635   1.930
 1766SOL     OW 6196   4.685   4.800   4.165
 1766SOL    HW1 6197   4.708   4.748   4.247
 1766SOL    HW2 6198   4.615   4.868   4.188
 1767SOL     OW 6199   1.122   4.247   1.842
 1767SOL    HW1 6200   1.162   4.158   1.864
 1767SOL    HW2 6201   1.027   4.249   1.873
 1768SOL     OW 6202   3.857   4.883   2.725
 1768SOL    HW1 6203   3.924   4.820   2.765
 1768SOL    HW2 6204   3.839   4.856   2.630
 1769SOL     OW 6205   5.592   0.380   0.856
 1769SOL    HW1 6206   5.625   0.474   0.849
 1769SOL    HW2 6207   5.603   0.347   0.950
 1770SOL     OW 6208   2.328   5.193   1.013
 1770SOL    HW1 6209   2.300   5.288   1.028
 1770SOL    HW2 6210   2.248   5.137   0.992
 1771SOL     OW 6211   1.147   2.639   6.160
 1771SOL    HW1 6212   1.077   2.682   6.103
 1771SOL    HW2 6213   1.228   2.697   6.164
 1772SOL     OW 6214   2.254   4.113   2.929
 1772SOL    HW1 6215   2.274   4.190   2.869
 1772SOL    HW2 6216   2.242   4.030   2.874
 1773SOL     OW 6217   2.152   6.279   5.169
 1773SOL    HW1 6218   2.146   6.244   5.075
 1773SOL    HW2 6219   2.246   6.273   5.201
 1774SOL     OW 6220   5.460   5.745   1.769
 1774SOL    HW1 6221   5.379   5.692   1.794
 1774SOL    HW2 6222   5.495   5.714   1.681
 1775SOL     OW 6223   1.216   6.260   0.541
 1775SOL    HW1 6224   1.244   6.307   0.625
 1775SOL    HW2 6225   1.251   6.309   0.462
 1776SOL     OW 6226   4.240   3.650   6.037
 1776SOL    HW1 6227   4.233   3.564   5.987
 1776SOL    HW2 6228   4.198   3.723   5.984
 1777SOL     OW 6229   4.481   6.193   0.154
 1777SOL    HW1 6230   4.552   6.229   0.216
 1777SOL    HW2 6231   4.460   6.261   0.084
 1778SOL     OW 6232   6.724   0.089   3.144
 1778SOL    HW1 6233   6.731   0.182   3.109
 1778SOL    HW2 6234   6.765   0.085   3.235
 1779SOL     OW 6235   6.253   0.076   4.837
 1779SOL    HW1 6236   6.256   0.004   4.767
 1779SOL    HW2 6237   6.159   0.086   4.870
 1780SOL     OW 6238   3.214   6.136   4.850
 1780SOL    HW1 6239   3.286   6.088   4.798
 1780SOL    HW2 6240   3.149   6.069   4.886
 1781SOL     OW 6241   4.604   1.751   5.970
 1781SOL    HW1 6242   4.643   1.748   6.062
 1781SOL    HW2 6243   4.672   1.719   5.903
 1782SOL     OW 6244   5.301   0.599   2.372
 1782SOL    HW1 6245   5.232   0.669   2.389
 1782SOL    HW2 6246   5.387   0.625   2.416
 1783SOL     OW 6247   1.524   3.319   6.937
 1783SOL    HW1 6248   1.485   3.298   0.003
 1783SOL    HW2 6249   1.494   3.410   6.907
 1784SOL     OW 6250   2.176   6.285   1.181
 1784SOL    HW1 6251   2.084   6.247   1.195
 1784SOL    HW2 6252   2.208   6.325   1.267
 1785SOL     OW 6253   1.705   6.102   4.534
 1785SOL    HW1 6254   1.607   6.094   4.519
 1785SOL    HW2 6255   1.751   6.024   4.491
 1786SOL     OW 6256   0.610   6.078   1.704
 1786SOL    HW1 6257   0.689   6.018   1.713
 1786SOL    HW2 6258   0.635   6.160   1.654
 1787SOL     OW 6259   1.810   2.436   5.951
 1787SOL    HW1 6260   1.718   2.399   5.959
 1787SOL    HW2 6261   1.861   2.384   5.883
 1788SOL     OW 6262   3.610   3.938   0.849
 1788SOL    HW1 6263   3.532   3.979   0.895
 1788SOL    HW2 6264   3.577   3.874   0.779
 1789SOL     OW 6265   5.847   2.881   1.820
 1789SOL    HW1 6266   5.750   2.884   1.844
 1789SOL    HW2 6267   5.884   2.974   1.820
 1790SOL     OW 6268   2.250   1.643   4.611
 1790SOL    HW1 6269   2.211   1.683   4.693
 1790SOL    HW2 6270   2.308   1.565   4.636
 1791SOL     OW 6271   6.029   0.440   3.762
 1791SOL    HW1 6272   6.028   0.364   3.826
 1791SOL    HW2 6273   6.099   0.506   3.789
 1792SOL     OW 6274   0.096   2.652   6.374
 1792SOL    HW1 6275   0.119   2.716   6.446
 1792SOL    HW2 6276   0.153   2.570   6.382
 1793SOL     OW 6277   0.353   1.329   4.511
 1793SOL    HW1 6278   0.331   1.389   4.587
 1793SOL    HW2 6279   0.269   1.305   4.462
 1794SOL     OW 6280   6.905   1.705   6.873
 1794SOL    HW1 6281   6.958   1.763   6.812
 1794SOL    HW2 6282   6.847   1.762   6.931
 1795SOL     OW 6283   5.626   5.191   0.262
 1795SOL    HW1 6284   5.563   5.143   0.200
 1795SOL    HW2 6285   5.683   5.124   0.309
 1796SOL     OW 6286   6.047   6.622   0.145
 1796SOL    HW1 6287   6.127   6.567   0.119
 1796SOL    HW2 6288   5.982   6.564   0.194
 1797SOL     OW 6289   2.768   6.030   5.373
 1797SOL    HW1 6290   2.737   6.077   5.291
 1797SOL    HW2 6291   2.866   6.012   5.367
 1798SOL     OW 6292   2.584   3.734   5.793
 1798SOL    HW1 6293   2.665   3.741   5.735
 1798SOL    HW2 6294   2.610   3.737   5.889
 1799SOL     OW 6295   3.564   1.269   2.203
 1799SOL    HW1 6296   3.537   1.280   2.299
 1799SOL    HW2 6297   3.490   1.300   2.143
 1800SOL     OW 6298   6.319   2.599   5.889
 1800SOL    HW1 6299   6.221   2.588   5.906
 1800SOL    HW2 6300   6.337   2.694   5.863
 1801SOL     OW 6301   7.002   1.089   2.427
 1801SOL    HW1 6302   6.914   1.056   2.460
 1801SOL    HW2 6303   7.023   1.046   2.339
 1802SOL     OW 6304   6.050   4.525   4.118
 1802SOL    HW1 6305   6.114   4.521   4.042
 1802SOL    HW2 6306   6.073   4.601   4.178
 1803SOL     OW 6307   0.183   6.298   3.857
 1803SOL    HW1 6308   0.252   6.250   3.910
 1803SOL    HW2 6309   0.196   6.279   3.759
 1804SOL     OW 6310   1.044   2.688   6.432
 1804SOL    HW1 6311   1.064   2.639   6.347
 1804SOL    HW2 6312   0.945   2.695   6.443
 1805SOL     OW 6313   6.257   4.774   6.375
 1805SOL    HW1 6314   6.265   4.679   6.348
 1805SOL    HW2 6315   6.244   4.779   6.474
 1806SOL     OW 6316   0.680   1.787   1.330
 1806SOL    HW1 6317   0.650   1.775   1.424
 1806SOL    HW2 6318   0.698   1.884   1.313
 1807SOL     OW 6319   6.330   2.718   2.264
 1807SOL    HW1 6320   6.361   2.804   2.305
 1807SOL    HW2 6321   6.407   2.655   2.256
 1808SOL     OW 6322   5.871   0.681   6.549
 1808SOL    HW1 6323   5.863   0.781   6.542
 1808SOL    HW2 6324   5.868   0.641   6.457
 1809SOL     OW 6325   5.165   0.224   5.089
 1809SOL    HW1 6326   5.232   0.276   5.035
 1809SOL    HW2 6327   5.130   0.282   5.163
 1810SOL     OW 6328   1.240   1.086   4.567
 1810SOL    HW1 6329   1.264   1.048   4.477
 1810SOL    HW2 6330   1.265   1.183   4.569
 1811SOL     OW 6331   3.167   5.847   2.005
 1811SOL    HW1 6332   3.235   5.796   1.952
 1811SOL    HW2 6333   3.143   5.931   1.955
 1812SOL     OW 6334   4.201   0.596   6.450
 1812SOL    HW1 6335   4.103   0.599   6.434
 1812SOL    HW2 6336   4.248   0.654   6.384
 1813SOL     OW 6337   5.346   3.074   2.115
 1813SOL    HW1 6338   5.300   3.018   2.046
 1813SOL    HW2 6339   5.312   3.050   2.206
 1814SOL     OW 6340   6.526   5.562   0.629
 1814SOL    HW1 6341   6.501   5.568   0.726
 1814SOL    HW2 6342   6.512   5.468   0.598
 1815SOL     OW 6343   6.141   5.206   1.075
 1815SOL    HW1 6344   6.095   5.284   1.119
 1815SOL    HW2 6345   6.077   5.129   1.070
 1816SOL     OW 6346   3.628   4.940   4.730
 1816SOL    HW1 6347   3.559   4.922   4.660
 1816SOL    HW2 6348   3.703   4.993   4.689
 1817SOL     OW 6349   6.862   2.941   3.519
 1817SOL    HW1 6350   6.946   2.889   3.504
 1817SOL    HW2 6351   6.859   2.973   3.614
 1818SOL     OW 6352   2.179   1.555   0.996
 1818SOL    HW1 6353   2.279   1.559   1.006
 1818SOL    HW2 6354   2.137   1.600   1.075
 1819SOL     OW 6355   0.927   3.950   1.361
 1819SOL    HW1 6356   0.853   3.918   1.303
 1819SOL    HW2 6357   1.009   3.895   1.343
 1820SOL     OW 6358   3.931   0.036   5.322
 1820SOL    HW1 6359   3.907   6.990   5.389
 1820SOL    HW2 6360   3.969   7.015   5.241
 1821SOL     OW 6361   3.975   1.804   2.720
 1821SOL    HW1 6362   3.877   1.805   2.740
 1821SOL    HW2 6363   3.997   1.725   2.662
 1822SOL     OW 6364   1.774   4.008   4.425
 1822SOL    HW1 6365   1.797   4.006   4.522
 1822SOL    HW2 6366   1.837   4.069   4.377
 1823SOL     OW 6367   3.817   7.006   3.428
 1823SOL    HW1 6368   3.788   6.961   3.512
 1823SOL    HW2 6369   3.737   0.024   3.384
 1824SOL     OW 6370   4.798   2.740   1.920
 1824SOL    HW1 6371   4.822   2.819   1.976
 1824SOL    HW2 6372   4.881   2.687   1.901
 1825SOL     OW 6373   1.310   3.689   0.315
 1825SOL    HW1 6374   1.378   3.693   0.242
 1825SOL    HW2 6375   1.259   3.775   0.319
 1826SOL     OW 6376   3.676   2.950   0.661
 1826SOL    HW1 6377   3.583   2.936   0.695
 1826SOL    HW2 6378   3.717   3.028   0.706
 1827SOL     OW 6379   5.087   4.454   0.580
 1827SOL    HW1 6380   5.085   4.552   0.597
 1827SOL    HW2 6381   5.179   4.419   0.597
 1828SOL     OW 6382   2.761   4.795   4.601
 1828SOL    HW1 6383   2.690   4.864   4.618
 1828SOL    HW2 6384   2.815   4.823   4.521
 1829SOL     OW 6385   2.446   6.420   1.721
 1829SOL    HW1 6386   2.432   6.481   1.799
 1829SOL    HW2 6387   2.363   6.418   1.665
 1830SOL     OW 6388   4.340   1.429   6.534
 1830SOL    HW1 6389   4.270   1.429   6.604
 1830SOL    HW2 6390   4.430   1.411   6.575
 1831SOL     OW 6391   3.825   4.701   0.447
 1831SOL    HW1 6392   3.922   4.684   0.465
 1831SOL    HW2 6393   3.813   4.731   0.352
 1832SOL     OW 6394   2.105   3.814   5.821
 1832SOL    HW1 6395   2.173   3.854   5.882
 1832SOL    HW2 6396   2.143   3.806   5.729
 1833SOL     OW 6397   5.817   1.064   0.044
 1833SOL    HW1 6398   5.836   1.029   0.136
 1833SOL    HW2 6399   5.853   1.000   6.999
 1834SOL     OW 6400   1.630   3.687   6.150
 1834SOL    HW1 6401   1.606   3.770   6.099
 1834SOL    HW2 6402   1.566   3.614   6.127
 1835SOL     OW 6403   6.185   6.753   0.893
 1835SOL    HW1 6404   6.166   6.841   0.935
 1835SOL    HW2 6405   6.269   6.714   0.932
 1836SOL     OW 6406   6.202   2.038   3.978
 1836SOL    HW1 6407   6.176   2.121   3.929
 1836SOL    HW2 6408   6.144   1.962   3.949
 1837SOL     OW 6409   1.304   1.687   0.133
 1837SOL    HW1 6410   1.400   1.662   0.120
 1837SOL    HW2 6411   1.293   1.738   0.218
 1838SOL     OW 6412   5.009   0.643   0.968
 1838SOL    HW1 6413   5.092   0.619   1.017
 1838SOL    HW2 6414   4.932   0.643   1.032
 1839SOL     OW 6415   6.786   1.172   6.357
 1839SOL    HW1 6416   6.858   1.113   6.320
 1839SOL    HW2 6417   6.707   1.116   6.382
 1840SOL     OW 6418   3.208   6.978   5.340
 1840SOL    HW1 6419   3.289   6.937   5.298
 1840SOL    HW2 6420   3.175   0.029   5.283
 1841SOL     OW 6421   2.088   0.510   1.520
 1841SOL    HW1 6422   2.005   0.555   1.552
 1841SOL    HW2 6423   2.135   0.467   1.597
 1842SOL     OW 6424   6.831   5.018   1.213
 1842SOL    HW1 6425   6.740   4.993   1.180
 1842SOL    HW2 6426   6.895   5.023   1.136
 1843SOL     OW 6427   3.084   1.354   6.795
 1843SOL    HW1 6428   2.995   1.399   6.786
 1843SOL    HW2 6429   3.074   1.256   6.782
 1844SOL     OW 6430   4.983   3.338   0.744
 1844SOL    HW1 6431   4.974   3.435   0.764
 1844SOL    HW2 6432   5.039   3.325   0.662
 1845SOL     OW 6433   1.204   2.735   4.463
 1845SOL    HW1 6434   1.152   2.659   4.425
 1845SOL    HW2 6435   1.289   2.701   4.504
 1846SOL     OW 6436   3.654   1.519   2.349
 1846SOL    HW1 6437   3.712   1.441   2.374
 1846SOL    HW2 6438   3.706   1.583   2.294
 1847SOL     OW 6439   2.526   5.584   0.282
 1847SOL    HW1 6440   2.448   5.617   0.335
 1847SOL    HW2 6441   2.560   5.657   0.223
 1848SOL     OW 6442   3.382   6.013   4.292
 1848SOL    HW1 6443   3.288   6.046   4.286
 1848SOL    HW2 6444   3.439   6.082   4.337
 1849SOL     OW 6445   4.802   2.714   2.731
 1849SOL    HW1 6446   4.848   2.638   2.777
 1849SOL    HW2 6447   4.765   2.777   2.799
 1850SOL     OW 6448   4.467   1.719   0.983
 1850SOL    HW1 6449   4.559   1.691   1.007
 1850SOL    HW2 6450   4.417   1.744   1.067
 1851SOL     OW 6451   0.901   4.941   4.235
 1851SOL    HW1 6452   0.910   4.929   4.333
 1851SOL    HW2 6453   0.980   4.991   4.200
 1852SOL     OW 6454   0.362   6.755   3.496
 1852SOL    HW1 6455   0.462   6.751   3.484
 1852SOL    HW2 6456   0.340   6.727   3.590
 1853SOL     OW 6457   0.707   1.640   5.919
 1853SOL    HW1 6458   0.712   1.693   6.003
 1853SOL    HW2 6459   0.654   1.691   5.851
 1854SOL     OW 6460   0.294   6.966   4.410
 1854SOL    HW1 6461   0.244   7.010   4.485
 1854SOL    HW2 6462   0.271   6.869   4.408
 1855SOL     OW 6463   6.616   1.436   4.774
 1855SOL    HW1 6464   6.595   1.490   4.855
 1855SOL    HW2 6465   6.547   1.451   4.704
 1856SOL     OW 6466   5.044   4.122   6.637
 1856SOL    HW1 6467   5.079   4.168   6.555
 1856SOL    HW2 6468   5.071   4.026   6.636
 1857SOL     OW 6469   3.948   0.899   6.474
 1857SOL    HW1 6470   4.043   0.910   6.448
 1857SOL    HW2 6471   3.932   0.945   6.562
 1858SOL     OW 6472   5.606   1.903   5.113
 1858SOL    HW1 6473   5.617   1.805   5.099
 1858SOL    HW2 6474   5.521   1.921   5.163
 1859SOL     OW 6475   6.862   6.700   2.601
 1859SOL    HW1 6476   6.916   6.763   2.545
 1859SOL    HW2 6477   6.855   6.735   2.695
 1860SOL     OW 6478   2.570   1.090   6.505
 1860SOL    HW1 6479   2.520   1.161   6.554
 1860SOL    HW2 6480   2.544   1.000   6.541
 1861SOL     OW 6481   6.622   6.539   5.462
 1861SOL    HW1 6482   6.668   6.468   5.410
 1861SOL    HW2 6483   6.536   6.564   5.417
 1862SOL     OW 6484   3.596   6.015   5.946
 1862SOL    HW1 6485   3.596   5.934   6.005
 1862SOL    HW2 6486   3.544   6.088   5.991
 1863SOL     OW 6487   6.816   1.291   1.252
 1863SOL    HW1 6488   6.875   1.335   1.320
 1863SOL    HW2 6489   6.721   1.319   1.268
 1864SOL     OW 6490   2.211   6.546   2.572
 1864SOL    HW1 6491   2.179   6.598   2.651
 1864SOL    HW2 6492   2.173   6.454   2.575
 1865SOL     OW 6493   6.508   2.000   6.268
 1865SOL    HW1 6494   6.450   1.999   6.187
 1865SOL    HW2 6495   6.460   1.956   6.344
 1866SOL     OW 6496   6.533   4.500   4.470
 1866SOL    HW1 6497   6.592   4.579   4.452
 1866SOL    HW2 6498   6.440   4.532   4.485
 1867SOL     OW 6499   1.214   1.198   1.443
 1867SOL    HW1 6500   1.174   1.290   1.436
 1867SOL    HW2 6501   1.230   1.176   1.539
 1868SOL     OW 6502   4.979   3.795   5.890
 1868SOL    HW1 6503   4.909   3.863   5.871
 1868SOL    HW2 6504   5.003   3.797   5.987
 1869SOL     OW 6505   5.082   0.896   5.100
 1869SOL    HW1 6506   5.093   0.807   5.144
 1869SOL    HW2 6507   5.150   0.960   5.137
 1870SOL     OW 6508   6.133   0.198   6.143
 1870SOL    HW1 6509   6.211   0.220   6.202
 1870SOL    HW2 6510   6.166   0.154   6.060
 1871SOL     OW 6511   1.956   5.370   0.051
 1871SOL    HW1 6512   2.010   5.290   0.026
 1871SOL    HW2 6513   1.876   5.376   7.016
 1872SOL     OW 6514   2.416   3.468   0.969
 1872SOL    HW1 6515   2.369   3.459   1.057
 1872SOL    HW2 6516   2.500   3.413   0.971
 1873SOL     OW 6517   5.676   2.144   2.290
 1873SOL    HW1 6518   5.727   2.065   2.325
 1873SOL    HW2 6519   5.624   2.116   2.209
 1874SOL     OW 6520   1.861   5.620   6.428
 1874SOL    HW1 6521   1.929   5.689   6.456
 1874SOL    HW2 6522   1.822   5.647   6.340
 1875SOL     OW 6523   1.064   6.422   2.364
 1875SOL    HW1 6524   1.006   6.349   2.402
 1875SOL    HW2 6525   1.139   6.440   2.428
 1876SOL     OW 6526   1.013   4.608   0.175
 1876SOL    HW1 6527   0.973   4.689   0.132
 1876SOL    HW2 6528   1.055   4.634   0.262
 1877SOL     OW 6529   1.182   1.153   3.242
 1877SOL    HW1 6530   1.086   1.156   3.269
 1877SOL    HW2 6531   1.218   1.246   3.237
 1878SOL     OW 6532   5.543   3.919   4.293
 1878SOL    HW1 6533   5.629   3.869   4.310
 1878SOL    HW2 6534   5.467   3.855   4.289
 1879SOL     OW 6535   4.061   6.505   5.118
 1879SOL    HW1 6536   4.044   6.599   5.146
 1879SOL    HW2 6537   4.100   6.454   5.194
 1880SOL     OW 6538   1.263   2.905   4.250
 1880SOL    HW1 6539   1.249   2.847   4.330
 1880SOL    HW2 6540   1.343   2.963   4.264
 1881SOL     OW 6541   2.130   1.632   3.509
 1881SOL    HW1 6542   2.168   1.622   3.600
 1881SOL    HW2 6543   2.033   1.658   3.516
 1882SOL     OW 6544   3.799   5.713   0.752
 1882SOL    HW1 6545   3.726   5.736   0.817
 1882SOL    HW2 6546   3.790   5.771   0.670
 1883SOL     OW 6547   2.099   3.437   2.318
 1883SOL    HW1 6548   2.008   3.428   2.357
 1883SOL    HW2 6549   2.096   3.418   2.220
 1884SOL     OW 6550   5.001   0.750   0.056
 1884SOL    HW1 6551   4.910   0.733   0.092
 1884SOL    HW2 6552   5.067   0.754   0.132
 1885SOL     OW 6553   0.264   1.228   0.426
 1885SOL    HW1 6554   0.285   1.212   0.330
 1885SOL    HW2 6555   0.240   1.324   0.440
 1886SOL     OW 6556   3.068   3.115   5.520
 1886SOL    HW1 6557   3.066   3.038   5.455
 1886SOL    HW2 6558   3.033   3.197   5.475
 1887SOL     OW 6559   0.656   5.863   4.966
 1887SOL    HW1 6560   0.695   5.778   4.932
 1887SOL    HW2 6561   0.679   5.873   5.063
 1888SOL     OW 6562   1.969   1.457   6.184
 1888SOL    HW1 6563   2.020   1.504   6.257
 1888SOL    HW2 6564   2.032   1.434   6.110
 1889SOL     OW 6565   3.599   3.290   0.128
 1889SOL    HW1 6566   3.560   3.371   0.085
 1889SOL    HW2 6567   3.594   3.213   0.064
 1890SOL     OW 6568   6.112   5.849   6.471
 1890SOL    HW1 6569   6.032   5.864   6.530
 1890SOL    HW2 6570   6.090   5.776   6.405
 1891SOL     OW 6571   5.113   3.572   6.587
 1891SOL    HW1 6572   5.190   3.511   6.570
 1891SOL    HW2 6573   5.057   3.579   6.505
 1892SOL     OW 6574   4.691   0.380   3.206
 1892SOL    HW1 6575   4.754   0.428   3.267
 1892SOL    HW2 6576   4.627   0.444   3.166
 1893SOL     OW 6577   2.874   1.037   6.375
 1893SOL    HW1 6578   2.866   1.137   6.377
 1893SOL    HW2 6579   2.826   0.998   6.453
 1894SOL     OW 6580   4.974   3.084   0.541
 1894SOL    HW1 6581   5.028   3.163   0.512
 1894SOL    HW2 6582   5.001   3.057   0.633
 1895SOL     OW 6583   4.597   5.471   3.505
 1895SOL    HW1 6584   4.662   5.497   3.434
 1895SOL    HW2 6585   4.591   5.543   3.574
 1896SOL     OW 6586   6.381   1.816   4.913
 1896SOL    HW1 6587   6.456   1.881   4.903
 1896SOL    HW2 6588   6.360   1.775   4.825
 1897SOL     OW 6589   4.940   5.258   3.446
 1897SOL    HW1 6590   4.972   5.177   3.397
 1897SOL    HW2 6591   4.870   5.232   3.513
 1898SOL     OW 6592   5.616   6.239   6.827
 1898SOL    HW1 6593   5.519   6.263   6.818
 1898SOL    HW2 6594   5.670   6.294   6.763
 1899SOL     OW 6595   2.372   2.769   3.464
 1899SOL    HW1 6596   2.295   2.705   3.465
 1899SOL    HW2 6597   2.355   2.841   3.532
 1900SOL     OW 6598   2.414   5.753   1.970
 1900SOL    HW1 6599   2.442   5.678   1.910
 1900SOL    HW2 6600   2.484   5.824   1.969
 1901SOL     OW 6601   1.457   0.938   5.488
 1901SOL    HW1 6602   1.550   0.903   5.484
 1901SOL    HW2 6603   1.457   1.035   5.464
 1902SOL     OW 6604   0.950   2.886   3.997
 1902SOL    HW1 6605   1.024   2.945   4.027
 1902SOL    HW2 6606   0.871   2.898   4.058
 1903SOL     OW 6607   6.338   4.818   3.873
 1903SOL    HW1 6608   6.431   4.820   3.836
 1903SOL    HW2 6609   6.274   4.852   3.804
 1904SOL     OW 6610   0.837   0.667   4.132
 1904SOL    HW1 6611   0.912   0.709   4.183
 1904SOL    HW2 6612   0.840   0.699   4.037
 1905SOL     OW 6613   6.202   3.105   5.433
 1905SOL    HW1 6614   6.103   3.116   5.432
 1905SOL    HW2 6615   6.246   3.195   5.421
 1906SOL     OW 6616   2.110   6.990   5.563
 1906SOL    HW1 6617   2.115   0.006   5.471
 1906SOL    HW2 6618   2.172   0.015   5.624
 1907SOL     OW 6619   4.223   6.998   2.990
 1907SOL    HW1 6620   4.186   6.950   2.911
 1907SOL    HW2 6621   4.150   0.027   3.034
 1908SOL     OW 6622   4.862   5.615   0.717
 1908SOL    HW1 6623   4.844   5.599   0.620
 1908SOL    HW2 6624   4.899   5.532   0.758
 1909SOL     OW 6625   5.534   5.173   3.546
 1909SOL    HW1 6626   5.529   5.090   3.491
 1909SOL    HW2 6627   5.514   5.151   3.641
 1910SOL     OW 6628   4.960   3.569   4.455
 1910SOL    HW1 6629   4.911   3.555   4.540
 1910SOL    HW2 6630   4.983   3.480   4.414
 1911SOL     OW 6631   0.897   2.311   5.689
 1911SOL    HW1 6632   0.840   2.369   5.747
 1911SOL    HW2 6633   0.978   2.281   5.740
 1912SOL     OW 6634   3.580   6.429   3.142
 1912SOL    HW1 6635   3.482   6.411   3.147
 1912SOL    HW2 6636   3.613   6.404   3.051
 1913SOL     OW 6637   2.740   3.958   5.938
 1913SOL    HW1 6638   2.674   3.958   6.013
 1913SOL    HW2 6639   2.756   4.053   5.909
 1914SOL     OW 6640   4.566   1.559   4.866
 1914SOL    HW1 6641   4.529   1.627   4.803
 1914SOL    HW2 6642   4.513   1.474   4.857
 1915SOL     OW 6643   2.806   6.893   5.713
 1915SOL    HW1 6644   2.866   6.894   5.634
 1915SOL    HW2 6645   2.859   6.866   5.794
 1916SOL     OW 6646   3.305   6.057   2.643
 1916SOL    HW1 6647   3.227   6.011   2.685
 1916SOL    HW2 6648   3.364   5.989   2.598
 1917SOL     OW 6649   3.795   3.833   3.940
 1917SOL    HW1 6650   3.707   3.868   3.972
 1917SOL    HW2 6651   3.843   3.904   3.888
 1918SOL     OW 6652   0.305   6.598   5.257
 1918SOL    HW1 6653   0.402   6.579   5.245
 1918SOL    HW2 6654   0.290   6.643   5.345
 1919SOL     OW 6655   6.157   0.819   2.440
 1919SOL    HW1 6656   6.161   0.895   2.505
 1919SOL    HW2 6657   6.189   0.849   2.351
 1920SOL     OW 6658   6.461   6.502   4.827
 1920SOL    HW1 6659   6.394   6.534   4.894
 1920SOL    HW2 6660   6.537   6.459   4.874
 1921SOL     OW 6661   2.258   6.520   0.115
 1921SOL    HW1 6662   2.286   6.606   0.156
 1921SOL    HW2 6663   2.291   6.515   0.021
 1922SOL     OW 6664   3.885   4.153   0.601
 1922SOL    HW1 6665   3.837   4.067   0.582
 1922SOL    HW2 6666   3.822   4.215   0.647
 1923SOL     OW 6667   1.661   3.094   0.894
 1923SOL    HW1 6668   1.646   3.001   0.861
 1923SOL    HW2 6669   1.578   3.127   0.939
 1924SOL     OW 6670   0.485   3.556   1.090
 1924SOL    HW1 6671   0.454   3.464   1.113
 1924SOL    HW2 6672   0.531   3.554   1.001
 1925SOL     OW 6673   3.104   4.396   0.229
 1925SOL    HW1 6674   3.146   4.310   0.258
 1925SOL    HW2 6675   3.153   4.473   0.270
 1926SOL     OW 6676   0.691   1.049   3.985
 1926SOL    HW1 6677   0.591   1.042   3.990
 1926SOL    HW2 6678   0.722   1.124   4.043
 1927SOL     OW 6679   5.225   3.314   1.330
 1927SOL    HW1 6680   5.269   3.235   1.287
 1927SOL    HW2 6681   5.211   3.294   1.428
 1928SOL     OW 6682   0.465   5.505   4.483
 1928SOL    HW1 6683   0.515   5.532   4.565
 1928SOL    HW2 6684   0.484   5.409   4.463
 1929SOL     OW 6685   0.898   5.527   3.242
 1929SOL    HW1 6686   0.953   5.458   3.195
 1929SOL    HW2 6687   0.886   5.606   3.182
 1930SOL     OW 6688   6.900   5.312   5.929
 1930SOL    HW1 6689   6.868   5.382   5.993
 1930SOL    HW2 6690   6.898   5.223   5.975
 1931SOL     OW 6691   0.891   1.936   4.189
 1931SOL    HW1 6692   0.814   1.877   4.167
 1931SOL    HW2 6693   0.977   1.886   4.178
 1932SOL     OW 6694   6.004   3.514   2.943
 1932SOL    HW1 6695   6.075   3.573   2.983
 1932SOL    HW2 6696   5.915   3.560   2.951
 1933SOL     OW 6697   3.041   5.132   0.334
 1933SOL    HW1 6698   3.084   5.066   0.394
 1933SOL    HW2 6699   2.965   5.088   0.285
 1934SOL     OW 6700   0.221   5.897   2.981
 1934SOL    HW1 6701   0.175   5.971   2.933
 1934SOL    HW2 6702   0.315   5.924   3.002
 1935SOL     OW 6703   1.520   1.127   3.168
 1935SOL    HW1 6704   1.491   1.173   3.084
 1935SOL    HW2 6705   1.507   1.028   3.157
 1936SOL     OW 6706   7.021   6.126   5.001
 1936SOL    HW1 6707   6.979   6.216   4.991
 1936SOL    HW2 6708   7.003   6.072   4.919
 1937SOL     OW 6709   4.123   1.328   2.817
 1937SOL    HW1 6710   4.171   1.246   2.849
 1937SOL    HW2 6711   4.183   1.380   2.757
 1938SOL     OW 6712   5.884   6.939   4.780
 1938SOL    HW1 6713   5.897   6.841   4.792
 1938SOL    HW2 6714   5.802   6.956   4.726
 1939SOL     OW 6715   3.274   0.207   4.250
 1939SOL    HW1 6716   3.371   0.216   4.225
 1939SOL    HW2 6717   3.267   0.161   4.338
 1940SOL     OW 6718   6.472   6.467   6.703
 1940SOL    HW1 6719   6.413   6.425   6.772
 1940SOL    HW2 6720   6.543   6.521   6.749
 1941SOL     OW 6721   4.418   5.189   2.186
 1941SOL    HW1 6722   4.410   5.270   2.128
 1941SOL    HW2 6723   4.430   5.108   2.129
 1942SOL     OW 6724   0.546   3.610   2.858
 1942SOL    HW1 6725   0.531   3.515   2.831
 1942SOL    HW2 6726   0.466   3.643   2.909
 1943SOL     OW 6727   2.983   5.987   3.416
 1943SOL    HW1 6728   3.081   6.005   3.404
 1943SOL    HW2 6729   2.939   5.981   3.327
 1944SOL     OW 6730   0.294   6.593   1.668
 1944SOL    HW1 6731   0.233   6.515   1.680
 1944SOL    HW2 6732   0.315   6.633   1.757
 1945SOL     OW 6733   3.266   4.869   2.988
 1945SOL    HW1 6734   3.286   4.912   3.077
 1945SOL    HW2 6735   3.342   4.885   2.926
 1946SOL     OW 6736   1.624   6.808   6.799
 1946SOL    HW1 6737   1.587   6.896   6.769
 1946SOL    HW2 6738   1.594   6.736   6.737
 1947SOL     OW 6739   4.680   0.138   3.067
 1947SOL    HW1 6740   4.613   0.117   2.996
 1947SOL    HW2 6741   4.663   0.230   3.102
 1948SOL     OW 6742   6.064   3.555   5.398
 1948SOL    HW1 6743   5.998   3.623   5.431
 1948SOL    HW2 6744   6.077   3.566   5.300
 1949SOL     OW 6745   4.302   4.281   6.713
 1949SOL    HW1 6746   4.205   4.277   6.688
 1949SOL    HW2 6747   4.312   4.262   6.811
 1950SOL     OW 6748   3.711   5.277   0.611
 1950SOL    HW1 6749   3.721   5.182   0.639
 1950SOL    HW2 6750   3.720   5.336   0.691
 1951SOL     OW 6751   6.282   2.222   0.490
 1951SOL    HW1 6752   6.195   2.271   0.479
 1951SOL    HW2 6753   6.346   2.281   0.539
 1952SOL     OW 6754   3.507   2.888   4.322
 1952SOL    HW1 6755   3.460   2.889   4.411
 1952SOL    HW2 6756   3.439   2.893   4.249
 1953SOL     OW 6757   0.252   2.880   4.559
 1953SOL    HW1 6758   0.268   2.975   4.588
 1953SOL    HW2 6759   0.336   2.843   4.520
 1954SOL     OW 6760   2.168   2.045   4.263
 1954SOL    HW1 6761   2.082   2.073   4.222
 1954SOL    HW2 6762   2.152   1.971   4.329
 1955SOL     OW 6763   5.733   5.685   2.170
 1955SOL    HW1 6764   5.646   5.665   2.215
 1955SOL    HW2 6765   5.716   5.736   2.085
 1956SOL     OW 6766   5.021   6.243   2.859
 1956SOL    HW1 6767   5.000   6.148   2.836
 1956SOL    HW2 6768   5.007   6.257   2.957
 1957SOL     OW 6769   1.639   6.314   4.707
 1957SOL    HW1 6770   1.545   6.316   4.741
 1957SOL    HW2 6771   1.646   6.245   4.635
 1958SOL     OW 6772   3.776   3.637   5.756
 1958SOL    HW1 6773   3.860   3.688   5.734
 1958SOL    HW2 6774   3.794   3.576   5.833
 1959SOL     OW 6775   2.362   0.846   0.531
 1959SOL    HW1 6776   2.453   0.823   0.495
 1959SOL    HW2 6777   2.372   0.902   0.613
 1960SOL     OW 6778   5.142   5.743   3.083
 1960SOL    HW1 6779   5.202   5.738   3.164
 1960SOL    HW2 6780   5.066   5.680   3.095
 1961SOL     OW 6781   5.536   5.093   5.357
 1961SOL    HW1 6782   5.597   5.063   5.284
 1961SOL    HW2 6783   5.447   5.116   5.319
 1962SOL     OW 6784   0.027   6.525   3.888
 1962SOL    HW1 6785   6.971   6.509   3.830
 1962SOL    HW2 6786   0.084   6.442   3.889
 1963SOL     OW 6787   2.052   0.738   3.650
 1963SOL    HW1 6788   2.044   0.825   3.602
 1963SOL    HW2 6789   2.001   0.668   3.599
 1964SOL     OW 6790   6.333   3.318   2.727
 1964SOL    HW1 6791   6.363   3.235   2.679
 1964SOL    HW2 6792   6.233   3.323   2.726
 1965SOL     OW 6793   2.133   6.613   3.341
 1965SOL    HW1 6794   2.142   6.697   3.395
 1965SOL    HW2 6795   2.037   6.583   3.342
 1966SOL     OW 6796   6.430   0.419   6.838
 1966SOL    HW1 6797   6.343   0.404   6.885
 1966SOL    HW2 6798   6.505   0.385   6.894
 1967SOL     OW 6799   5.735   3.452   5.116
 1967SOL    HW1 6800   5.682   3.522   5.163
 1967SOL    HW2 6801   5.712   3.452   5.019
 1968SOL     OW 6802   3.975   5.364   4.689
 1968SOL    HW1 6803   4.001   5.447   4.640
 1968SOL    HW2 6804   4.040   5.291   4.668
 1969SOL     OW 6805   6.677   1.498   1.750
 1969SOL    HW1 6806   6.692   1.468   1.844
 1969SOL    HW2 6807   6.652   1.595   1.750
 1970SOL     OW 6808   1.500   0.688   3.934
 1970SOL    HW1 6809   1.526   0.777   3.897
 1970SOL    HW2 6810   1.520   0.685   4.032
 1971SOL     OW 6811   0.458   1.807   6.393
 1971SOL    HW1 6812   0.488   1.901   6.411
 1971SOL    HW2 6813   0.372   1.790   6.441
 1972SOL     OW 6814   1.478   0.443   3.831
 1972SOL    HW1 6815   1.552   0.412   3.891
 1972SOL    HW2 6816   1.453   0.537   3.854
 1973SOL     OW 6817   2.513   3.410   0.254
 1973SOL    HW1 6818   2.601   3.373   0.223
 1973SOL    HW2 6819   2.507   3.405   0.353
 1974SOL     OW 6820   6.102   6.653   4.509
 1974SOL    HW1 6821   6.175   6.718   4.487
 1974SOL    HW2 6822   6.048   6.634   4.426
 1975SOL     OW 6823   2.700   0.349   3.178
 1975SOL    HW1 6824   2.770   0.278   3.183
 1975SOL    HW2 6825   2.663   0.366   3.269
 1976SOL     OW 6826   6.552   3.727   6.395
 1976SOL    HW1 6827   6.590   3.813   6.429
 1976SOL    HW2 6828   6.459   3.715   6.431
 1977SOL     OW 6829   3.236   2.268   5.387
 1977SOL    HW1 6830   3.217   2.324   5.307
 1977SOL    HW2 6831   3.151   2.227   5.420
 1978SOL     OW 6832   6.806   2.622   5.118
 1978SOL    HW1 6833   6.813   2.722   5.116
 1978SOL    HW2 6834   6.888   2.582   5.079
 1979SOL     OW 6835   6.472   4.031   2.379
 1979SOL    HW1 6836   6.517   4.097   2.318
 1979SOL    HW2 6837   6.491   3.938   2.346
 1980SOL     OW 6838   2.513   0.661   2.461
 1980SOL    HW1 6839   2.438   0.596   2.451
 1980SOL    HW2 6840   2.600   0.612   2.450
 1981SOL     OW 6841   5.060   2.971   2.085
 1981SOL    HW1 6842   4.965   3.001   2.072
 1981SOL    HW2 6843   5.085   2.982   2.181
 1982SOL     OW 6844   6.953   6.938   5.137
 1982SOL    HW1 6845   6.900   6.856   5.160
 1982SOL    HW2 6846   0.012   6.911   5.088
 1983SOL     OW 6847   0.633   4.576   2.283
 1983SOL    HW1 6848   0.584   4.662   2.269
 1983SOL    HW2 6849   0.607   4.511   2.212
 1984SOL     OW 6850   4.830   0.549   5.039
 1984SOL    HW1 6851   4.857   0.537   5.135
 1984SOL    HW2 6852   4.851   0.643   5.010
 1985SOL     OW 6853   1.325   6.151   1.142
 1985SOL    HW1 6854   1.409   6.160   1.195
 1985SOL    HW2 6855   1.251   6.119   1.201
 1986SOL     OW 6856   0.050   2.555   0.253
 1986SOL    HW1 6857   0.091   2.516   0.335
 1986SOL    HW2 6858   6.979   2.524   0.244
 1987SOL     OW 6859   2.505   4.158   6.681
 1987SOL    HW1 6860   2.513   4.207   6.594
 1987SOL    HW2 6861   2.597   4.139   6.716
 1988SOL     OW 6862   4.528   3.189   0.277
 1988SOL    HW1 6863   4.560   3.264   0.220
 1988SOL    HW2 6864   4.527   3.219   0.373
 1989SOL     OW 6865   1.966   2.186   4.130
 1989SOL    HW1 6866   2.041   2.151   4.073
 1989SOL    HW2 6867   1.948   2.281   4.106
 1990SOL     OW 6868   1.457   0.655   3.130
 1990SOL    HW1 6869   1.538   0.664   3.188
 1990SOL    HW2 6870   1.380   0.622   3.185
 1991SOL     OW 6871   4.829   6.383   2.707
 1991SOL    HW1 6872   4.748   6.356   2.761
 1991SOL    HW2 6873   4.911   6.370   2.763
 1992SOL     OW 6874   2.201   6.294   5.540
 1992SOL    HW1 6875   2.259   6.285   5.460
 1992SOL    HW2 6876   2.256   6.279   5.623
 1993SOL     OW 6877   3.064   3.229   4.425
 1993SOL    HW1 6878   2.966   3.218   4.444
 1993SOL    HW2 6879   3.105   3.289   4.494
 1994SOL     OW 6880   6.581   2.583   2.247
 1994SOL    HW1 6881   6.625   2.607   2.160
 1994SOL    HW2 6882   6.650   2.549   2.311
 1995SOL     OW 6883   3.753   2.258   1.393
 1995SOL    HW1 6884   3.727   2.163   1.375
 1995SOL    HW2 6885   3.817   2.262   1.470
 1996SOL     OW 6886   2.708   4.519   5.348
 1996SOL    HW1 6887   2.642   4.450   5.317
 1996SOL    HW2 6888   2.776   4.534   5.277
 1997SOL     OW 6889   5.688   6.293   3.519
 1997SOL    HW1 6890   5.590   6.298   3.501
 1997SOL    HW2 6891   5.709   6.344   3.602
 1998SOL     OW 6892   3.384   4.957   5.384
 1998SOL    HW1 6893   3.285   4.969   5.381
 1998SOL    HW2 6894   3.419   4.953   5.290
 1999SOL     OW 6895   2.337   1.745   1.928
 1999SOL    HW1 6896   2.286   1.668   1.965
 1999SOL    HW2 6897   2.414   1.712   1.875
 2000SOL     OW 6898   3.156   0.964   5.243
 2000SOL    HW1 6899   3.142   1.062   5.252
 2000SOL    HW2 6900   3.069   0.919   5.221
 2001SOL     OW 6901   2.280   3.097   0.415
 2001SOL    HW1 6902   2.205   3.151   0.376
 2001SOL    HW2 6903   2.246   3.006   0.440
 2002SOL     OW 6904   1.295   5.342   4.993
 2002SOL    HW1 6905   1.303   5.261   4.935
 2002SOL    HW2 6906   1.378   5.351   5.048
 2003SOL     OW 6907   6.761   4.315   3.333
 2003SOL    HW1 6908   6.758   4.238   3.270
 2003SOL    HW2 6909   6.778   4.399   3.282
 2004SOL     OW 6910   3.403   6.861   6.474
 2004SOL    HW1 6911   3.307   6.886   6.471
 2004SOL    HW2 6912   3.418   6.794   6.547
 2005SOL     OW 6913   2.697   6.583   5.199
 2005SOL    HW1 6914   2.740   6.672   5.216
 2005SOL    HW2 6915   2.669   6.542   5.286
 2006SOL     OW 6916   4.995   6.450   3.268
 2006SOL    HW1 6917   4.925   6.394   3.222
 2006SOL    HW2 6918   5.015   6.530   3.211
 2007SOL     OW 6919   6.548   5.318   6.550
 2007SOL    HW1 6920   6.495   5.253   6.605
 2007SOL    HW2 6921   6.593   5.384   6.611
 2008SOL     OW 6922   0.276   5.970   5.578
 2008SOL    HW1 6923   0.195   5.911   5.575
 2008SOL    HW2 6924   0.257   6.055   5.529
 2009SOL     OW 6925   1.101   0.251   6.784
 2009SOL    HW1 6926   1.085   0.155   6.760
 2009SOL    HW2 6927   1.015   0.301   6.778
 2010SOL     OW 6928   2.019   0.976   1.278
 2010SOL    HW1 6929   1.993   0.888   1.317
 2010SOL    HW2 6930   1.981   0.985   1.186
 2011SOL     OW 6931   0.239   2.006   4.946
 2011SOL    HW1 6932   0.308   2.079   4.944
 2011SOL    HW2 6933   0.156   2.036   4.899
 2012SOL     OW 6934   6.704   2.905   1.098
 2012SOL    HW1 6935   6.725   2.999   1.123
 2012SOL    HW2 6936   6.789   2.853   1.087
 2013SOL     OW 6937   4.127   2.284   1.863
 2013SOL    HW1 6938   4.143   2.324   1.953
 2013SOL    HW2 6939   4.107   2.186   1.873
 2014SOL     OW 6940   3.460   5.827   3.581
 2014SOL    HW1 6941   3.404   5.747   3.558
 2014SOL    HW2 6942   3.525   5.802   3.653
 2015SOL     OW 6943   3.505   6.660   0.643
 2015SOL    HW1 6944   3.572   6.684   0.573
 2015SOL    HW2 6945   3.446   6.588   0.609
 2016SOL     OW 6946   6.118   5.961   4.131
 2016SOL    HW1 6947   6.215   5.984   4.136
 2016SOL    HW2 6948   6.101   5.907   4.048
 2017SOL     OW 6949   2.280   5.074   2.286
 2017SOL    HW1 6950   2.308   5.144   2.351
 2017SOL    HW2 6951   2.204   5.021   2.324
 2018SOL     OW 6952   0.712   3.577   6.302
 2018SOL    HW1 6953   0.663   3.491   6.312
 2018SOL    HW2 6954   0.647   3.651   6.285
 2019SOL     OW 6955   5.437   1.454   2.811
 2019SOL    HW1 6956   5.455   1.356   2.805
 2019SOL    HW2 6957   5.433   1.481   2.907
 2020SOL     OW 6958   2.044   5.351   3.080
 2020SOL    HW1 6959   2.070   5.365   3.176
 2020SOL    HW2 6960   2.041   5.439   3.033
 2021SOL     OW 6961   2.090   6.813   1.734
 2021SOL    HW1 6962   2.172   6.756   1.728
 2021SOL    HW2 6963   2.113   6.899   1.779
 2022SOL     OW 6964   2.993   5.298   1.017
 2022SOL    HW1 6965   3.052   5.231   1.060
 2022SOL    HW2 6966   2.905   5.300   1.064
 2023SOL     OW 6967   6.389   1.533   6.245
 2023SOL    HW1 6968   6.451   1.566   6.173
 2023SOL    HW2 6969   6.297   1.571   6.229
 2024SOL     OW 6970   6.151   0.582   2.995
 2024SOL    HW1 6971   6.120   0.536   3.079
 2024SOL    HW2 6972   6.087   0.563   2.921
 2025SOL     OW 6973   6.111   0.576   0.933
 2025SOL    HW1 6974   6.126   0.574   0.834
 2025SOL    HW2 6975   6.173   0.512   0.978
 2026SOL     OW 6976   1.988   1.906   5.045
 2026SOL    HW1 6977   1.956   1.990   5.001
 2026SOL    HW2 6978   1.911   1.843   5.057
 2027SOL     OW 6979   0.069   0.785   2.279
 2027SOL    HW1 6980   0.023   0.864   2.238
 2027SOL    HW2 6981   0.002   0.724   2.321
 2028SOL     OW 6982   3.715   4.225   6.032
 2028SOL    HW1 6983   3.631   4.171   6.021
 2028SOL    HW2 6984   3.703   4.292   6.104
 2029SOL     OW 6985   1.845   0.517   0.408
 2029SOL    HW1 6986   1.838   0.617   0.411
 2029SOL    HW2 6987   1.922   0.487   0.463
 2030SOL     OW 6988   1.881   2.666   2.888
 2030SOL    HW1 6989   1.869   2.567   2.877
 2030SOL    HW2 6990   1.946   2.684   2.962
 2031SOL     OW 6991   5.953   0.290   2.970
 2031SOL    HW1 6992   5.976   0.337   3.055
 2031SOL    HW2 6993   6.034   0.241   2.937
 2032SOL     OW 6994   4.480   6.447   1.922
 2032SOL    HW1 6995   4.388   6.472   1.952
 2032SOL    HW2 6996   4.516   6.376   1.982
 2033SOL     OW 6997   6.921   5.013   6.802
 2033SOL    HW1 6998   7.018   5.033   6.790
 2033SOL    HW2 6999   6.907   4.914   6.804
 2034SOL     OW 7000   2.222   6.225   3.701
 2034SOL    HW1 7001   2.267   6.284   3.635
 2034SOL    HW2 7002   2.145   6.274   3.742
 2035SOL     OW 7003   0.389   2.018   2.075
 2035SOL    HW1 7004   0.376   2.078   1.997
 2035SOL    HW2 7005   0.414   2.072   2.155
 2036SOL     OW 7006   0.699   4.749   0.853
 2036SOL    HW1 7007   0.787   4.766   0.808
 2036SOL    HW2 7008   0.685   4.651   0.864
 2037SOL     OW 7009   0.425   1.862   7.019
 2037SOL    HW1 7010   0.374   1.948   0.007
 2037SOL    HW2 7011   0.387   1.793   0.057
 2038SOL     OW 7012   1.249   6.827   4.789
 2038SOL    HW1 7013   1.256   6.769   4.870
 2038SOL    HW2 7014   1.153   6.841   4.766
 2039SOL     OW 7015   1.352   5.356   1.877
 2039SOL    HW1 7016   1.281   5.408   1.829
 2039SOL    HW2 7017   1.334   5.259   1.866
 2040SOL     OW 7018   3.757   4.064   4.312
 2040SOL    HW1 7019   3.741   4.043   4.409
 2040SOL    HW2 7020   3.843   4.023   4.282
 2041SOL     OW 7021   5.712   3.167   6.671
 2041SOL    HW1 7022   5.731   3.070   6.681
 2041SOL    HW2 7023   5.762   3.218   6.741
 2042SOL     OW 7024   3.233   6.044   0.434
 2042SOL    HW1 7025   3.176   5.993   0.370
 2042SOL    HW2 7026   3.264   6.129   0.391
 2043SOL     OW 7027   4.432   5.166   2.451
 2043SOL    HW1 7028   4.428   5.171   2.351
 2043SOL    HW2 7029   4.504   5.227   2.485
 2044SOL     OW 7030   6.369   1.031   2.192
 2044SOL    HW1 7031   6.294   0.980   2.149
 2044SOL    HW2 7032   6.437   0.966   2.226
 2045SOL     OW 7033   3.077   6.385   6.528
 2045SOL    HW1 7034   3.061   6.463   6.588
 2045SOL    HW2 7035   3.165   6.342   6.551
 2046SOL     OW 7036   6.273   6.969   5.667
 2046SOL    HW1 7037   6.272   6.996   5.570
 2046SOL    HW2 7038   6.360   6.926   5.688
 2047SOL     OW 7039   5.018   2.743   0.113
 2047SOL    HW1 7040   4.951   2.799   0.065
 2047SOL    HW2 7041   5.049   2.791   0.195
 2048SOL     OW 7042   4.953   6.407   5.721
 2048SOL    HW1 7043   4.988   6.369   5.807
 2048SOL    HW2 7044   4.980   6.348   5.645
 2049SOL     OW 7045   4.901   5.962   0.058
 2049SOL    HW1 7046   4.823   5.919   0.103
 2049SOL    HW2 7047   4.902   5.936   6.985
 2050SOL     OW 7048   5.600   0.439   4.038
 2050SOL    HW1 7049   5.693   0.474   4.035
 2050SOL    HW2 7050   5.572   0.426   4.133
 2051SOL     OW 7051   2.877   5.185   0.791
 2051SOL    HW1 7052   2.914   5.231   0.711
 2051SOL    HW2 7053   2.916   5.227   0.874
 2052SOL     OW 7054   1.201   3.195   0.671
 2052SOL    HW1 7055   1.210   3.111   0.724
 2052SOL    HW2 7056   1.105   3.225   0.672
 2053SOL     OW 7057   5.014   1.595   0.723
 2053SOL    HW1 7058   4.919   1.571   0.704
 2053SOL    HW2 7059   5.052   1.528   0.787
 2054SOL     OW 7060   0.146   3.553   1.304
 2054SOL    HW1 7061   0.126   3.629   1.242
 2054SOL    HW2 7062   0.239   3.564   1.341
 2055SOL     OW 7063   6.417   1.658   4.094
 2055SOL    HW1 7064   6.404   1.717   4.174
 2055SOL    HW2 7065   6.425   1.714   4.012
 2056SOL     OW 7066   1.247   7.007   2.233
 2056SOL    HW1 7067   1.183   0.060   2.227
 2056SOL    HW2 7068   1.210   6.938   2.295
 2057SOL     OW 7069   5.417   2.627   4.550
 2057SOL    HW1 7070   5.423   2.590   4.643
 2057SOL    HW2 7071   5.444   2.724   4.552
 2058SOL     OW 7072   0.329   1.525   1.746
 2058SOL    HW1 7073   0.368   1.606   1.703
 2058SOL    HW2 7074   0.365   1.443   1.701
 2059SOL     OW 7075   1.496   0.572   6.351
 2059SOL    HW1 7076   1.427   0.507   6.317
 2059SOL    HW2 7077   1.581   0.523   6.372
 2060SOL     OW 7078   6.976   5.551   2.308
 2060SOL    HW1 7079   0.041   5.540   2.262
 2060SOL    HW2 7080   6.954   5.648   2.316
 2061SOL     OW 7081   1.127   0.942   1.348
 2061SOL    HW1 7082   1.178   1.024   1.372
 2061SOL    HW2 7083   1.052   0.966   1.287
 2062SOL     OW 7084   3.922   0.343   4.109
 2062SOL    HW1 7085   3.951   0.402   4.184
 2062SOL    HW2 7086   3.955   0.250   4.125
 2063SOL     OW 7087   1.972   1.837   0.655
 2063SOL    HW1 7088   2.016   1.784   0.583
 2063SOL    HW2 7089   1.974   1.934   0.631
 2064SOL     OW 7090   1.255   1.838   0.369
 2064SOL    HW1 7091   1.212   1.891   0.443
 2064SOL    HW2 7092   1.331   1.785   0.405
 2065SOL     OW 7093   6.941   3.962   2.744
 2065SOL    HW1 7094   6.904   4.041   2.793
 2065SOL    HW2 7095   6.985   3.901   2.809
 2066SOL     OW 7096   1.381   6.548   3.134
 2066SOL    HW1 7097   1.428   6.478   3.081
 2066SOL    HW2 7098   1.443   6.623   3.153
 2067SOL     OW 7099   0.189   6.779   0.419
 2067SOL    HW1 7100   0.258   6.784   0.347
 2067SOL    HW2 7101   0.223   6.720   0.493
 2068SOL     OW 7102   2.082   1.541   5.338
 2068SOL    HW1 7103   2.011   1.560   5.406
 2068SOL    HW2 7104   2.058   1.459   5.286
 2069SOL     OW 7105   1.213   2.247   1.567
 2069SOL    HW1 7106   1.312   2.257   1.556
 2069SOL    HW2 7107   1.184   2.161   1.525
 2070SOL     OW 7108   0.678   1.097   2.597
 2070SOL    HW1 7109   0.774   1.125   2.593
 2070SOL    HW2 7110   0.622   1.175   2.624
 2071SOL     OW 7111   2.421   6.288   5.290
 2071SOL    HW1 7112   2.479   6.231   5.348
 2071SOL    HW2 7113   2.478   6.353   5.239
 2072SOL     OW 7114   5.060   4.832   2.220
 2072SOL    HW1 7115   5.128   4.866   2.155
 2072SOL    HW2 7116   5.078   4.735   2.240
 2073SOL     OW 7117   3.133   6.403   5.019
 2073SOL    HW1 7118   3.179   6.437   4.937
 2073SOL    HW2 7119   3.117   6.304   5.009
 2074SOL     OW 7120   6.186   2.720   2.739
 2074SOL    HW1 7121   6.272   2.760   2.771
 2074SOL    HW2 7122   6.203   2.627   2.706
 2075SOL     OW 7123   3.415   3.450   5.924
 2075SOL    HW1 7124   3.480   3.388   5.969
 2075SOL    HW2 7125   3.405   3.422   5.828
 2076SOL     OW 7126   5.155   0.265   0.948
 2076SOL    HW1 7127   5.120   0.266   1.041
 2076SOL    HW2 7128   5.158   0.170   0.915
 2077SOL     OW 7129   5.055   1.464   3.737
 2077SOL    HW1 7130   5.121   1.392   3.716
 2077SOL    HW2 7131   4.983   1.427   3.796
 2078SOL     OW 7132   4.013   5.570   4.987
 2078SOL    HW1 7133   4.093   5.598   4.934
 2078SOL    HW2 7134   3.958   5.506   4.934
 2079SOL     OW 7135   5.799   0.355   3.634
 2079SOL    HW1 7136   5.756   0.295   3.701
 2079SOL    HW2 7137   5.879   0.399   3.675
 2080SOL     OW 7138   2.923   1.728   4.093
 2080SOL    HW1 7139   2.955   1.774   4.011
 2080SOL    HW2 7140   2.880   1.641   4.068
 2081SOL     OW 7141   1.468   6.403   4.133
 2081SOL    HW1 7142   1.486   6.362   4.043
 2081SOL    HW2 7143   1.527   6.482   4.146
 2082SOL     OW 7144   4.701   0.395   2.016
 2082SOL    HW1 7145   4.680   0.355   1.927
 2082SOL    HW2 7146   4.661   0.339   2.088
 2083SOL     OW 7147   4.112   4.525   5.810
 2083SOL    HW1 7148   4.106   4.439   5.758
 2083SOL    HW2 7149   4.032   4.581   5.789
 2084SOL     OW 7150   6.754   2.361   2.699
 2084SOL    HW1 7151   6.846   2.358   2.738
 2084SOL    HW2 7152   6.714   2.270   2.702
 2085SOL     OW 7153   5.622   6.020   6.405
 2085SOL    HW1 7154   5.674   5.981   6.482
 2085SOL    HW2 7155   5.674   6.096   6.366
 2086SOL     OW 7156   3.829   5.497   0.050
 2086SOL    HW1 7157   3.785   5.515   6.986
 2086SOL    HW2 7158   3.820   5.400   0.072
 2087SOL     OW 7159   6.035   5.868   3.602
 2087SOL    HW1 7160   5.949   5.902   3.564
 2087SOL    HW2 7161   6.067   5.791   3.548
 2088SOL     OW 7162   2.221   0.044   1.387
 2088SOL    HW1 7163   2.204   0.141   1.368
 2088SOL    HW2 7164   2.219   7.017   1.301
 2089SOL     OW 7165   2.739   0.876   0.144
 2089SOL    HW1 7166   2.822   0.830   0.174
 2089SOL    HW2 7167   2.750   0.975   0.153
 2090SOL     OW 7168   3.114   3.331   3.905
 2090SOL    HW1 7169   3.051   3.381   3.846
 2090SOL    HW2 7170   3.182   3.284   3.849
 2091SOL     OW 7171   2.533   4.942   0.940
 2091SOL    HW1 7172   2.480   5.026   0.945
 2091SOL    HW2 7173   2.513   4.894   0.855
 2092SOL     OW 7174   7.015   5.868   1.118
 2092SOL    HW1 7175   7.017   5.880   1.218
 2092SOL    HW2 7176   6.975   5.780   1.096
 2093SOL     OW 7177   0.851   2.841   1.381
 2093SOL    HW1 7178   0.941   2.859   1.339
 2093SOL    HW2 7179   0.830   2.914   1.446
 2094SOL     OW 7180   6.422   0.272   1.701
 2094SOL    HW1 7181   6.455   0.299   1.610
 2094SOL    HW2 7182   6.412   0.173   1.705
 2095SOL     OW 7183   6.667   5.065   4.738
 2095SOL    HW1 7184   6.635   5.114   4.657
 2095SOL    HW2 7185   6.617   4.978   4.746
 2096SOL     OW 7186   4.841   3.710   3.432
 2096SOL    HW1 7187   4.866   3.672   3.522
 2096SOL    HW2 7188   4.784   3.791   3.445
 2097SOL     OW 7189   6.282   3.698   6.539
 2097SOL    HW1 7190   6.280   3.771   6.608
 2097SOL    HW2 7191   6.252   3.735   6.451
 2098SOL     OW 7192   3.999   6.795   3.916
 2098SOL    HW1 7193   3.937   6.745   3.977
 2098SOL    HW2 7194   4.093   6.787   3.951
 2099SOL     OW 7195   2.859   1.819   3.063
 2099SOL    HW1 7196   2.883   1.754   3.135
 2099SOL    HW2 7197   2.942   1.860   3.025
 2100SOL     OW 7198   3.764   4.829   0.152
 2100SOL    HW1 7199   3.727   4.826   0.059
 2100SOL    HW2 7200   3.696   4.791   0.215
 2101SOL     OW 7201   0.055   0.758   1.872
 2101SOL    HW1 7202   0.105   0.715   1.947
 2101SOL    HW2 7203   0.107   0.836   1.838
 2102SOL     OW 7204   0.071   5.280   1.915
 2102SOL    HW1 7205   0.110   5.372   1.918
 2102SOL    HW2 7206   0.142   5.215   1.889
 2103SOL     OW 7207   3.251   3.443   6.223
 2103SOL    HW1 7208   3.244   3.504   6.143
 2103SOL    HW2 7209   3.185   3.368   6.213
 2104SOL     OW 7210   1.688   4.218   5.691
 2104SOL    HW1 7211   1.748   4.292   5.662
 2104SOL    HW2 7212   1.649   4.173   5.610
 2105SOL     OW 7213   5.678   5.873   1.508
 2105SOL    HW1 7214   5.581   5.869   1.485
 2105SOL    HW2 7215   5.724   5.938   1.448
 2106SOL     OW 7216   5.646   5.667   6.401
 2106SOL    HW1 7217   5.692   5.647   6.488
 2106SOL    HW2 7218   5.699   5.735   6.350
 2107SOL     OW 7219   2.781   4.910   0.435
 2107SOL    HW1 7220   2.789   4.927   0.533
 2107SOL    HW2 7221   2.857   4.852   0.405
 2108SOL     OW 7222   5.607   4.340   6.202
 2108SOL    HW1 7223   5.636   4.378   6.114
 2108SOL    HW2 7224   5.684   4.336   6.264
 2109SOL     OW 7225   5.535   5.849   2.921
 2109SOL    HW1 7226   5.560   5.796   3.002
 2109SOL    HW2 7227   5.444   5.888   2.933
 2110SOL     OW 7228   1.721   4.976   5.173
 2110SOL    HW1 7229   1.658   4.909   5.213
 2110SOL    HW2 7230   1.729   4.959   5.075
 2111SOL     OW 7231   2.094   2.761   0.079
 2111SOL    HW1 7232   2.033   2.811   0.141
 2111SOL    HW2 7233   2.050   2.752   7.013
 2112SOL     OW 7234   5.444   3.346   0.310
 2112SOL    HW1 7235   5.493   3.266   0.344
 2112SOL    HW2 7236   5.374   3.317   0.245
 2113SOL     OW 7237   6.600   1.528   3.257
 2113SOL    HW1 7238   6.601   1.583   3.173
 2113SOL    HW2 7239   6.667   1.455   3.249
 2114SOL     OW 7240   2.023   3.204   0.336
 2114SOL    HW1 7241   2.018   3.109   0.307
 2114SOL    HW2 7242   1.990   3.263   0.262
 2115SOL     OW 7243   3.198   5.769   1.649
 2115SOL    HW1 7244   3.187   5.866   1.625
 2115SOL    HW2 7245   3.262   5.726   1.584
 2116SOL     OW 7246   0.688   4.252   3.793
 2116SOL    HW1 7247   0.657   4.213   3.880
 2116SOL    HW2 7248   0.638   4.209   3.717
 2117SOL     OW 7249   0.241   5.994   6.244
 2117SOL    HW1 7250   0.155   6.033   6.212
 2117SOL    HW2 7251   0.315   6.061   6.231
 2118SOL     OW 7252   0.232   3.225   2.439
 2118SOL    HW1 7253   0.202   3.319   2.427
 2118SOL    HW2 7254   0.192   3.187   2.522
 2119SOL     OW 7255   3.857   6.826   0.965
 2119SOL    HW1 7256   3.941   6.778   0.990
 2119SOL    HW2 7257   3.816   6.782   0.885
 2120SOL     OW 7258   6.442   4.472   2.236
 2120SOL    HW1 7259   6.379   4.433   2.303
 2120SOL    HW2 7260   6.463   4.566   2.262
 2121SOL     OW 7261   0.773   4.014   4.922
 2121SOL    HW1 7262   0.816   3.970   5.001
 2121SOL    HW2 7263   0.688   3.967   4.900
 2122SOL     OW 7264   4.494   5.156   5.533
 2122SOL    HW1 7265   4.449   5.070   5.507
 2122SOL    HW2 7266   4.503   5.214   5.452
 2123SOL     OW 7267   4.395   4.689   3.939
 2123SOL    HW1 7268   4.399   4.659   4.035
 2123SOL    HW2 7269   4.473   4.651   3.889
 2124SOL     OW 7270   3.216   1.966   1.273
 2124SOL    HW1 7271   3.289   2.033   1.285
 2124SOL    HW2 7272   3.220   1.898   1.346
 2125SOL     OW 7273   4.809   6.450   0.538
 2125SOL    HW1 7274   4.816   6.375   0.471
 2125SOL    HW2 7275   4.724   6.499   0.524
 2126SOL     OW 7276   3.096   1.230   1.934
 2126SOL    HW1 7277   3.066   1.222   2.029
 2126SOL    HW2 7278   3.022   1.202   1.874
 2127SOL     OW 7279   5.888   3.058   4.993
 2127SOL    HW1 7280   5.985   3.035   4.980
 2127SOL    HW2 7281   5.842   2.984   5.041
 2128SOL     OW 7282   0.562   4.345   4.398
 2128SOL    HW1 7283   0.655   4.380   4.397
 2128SOL    HW2 7284   0.535   4.323   4.492
 2129SOL     OW 7285   4.194   2.364   5.627
 2129SOL    HW1 7286   4.282   2.394   5.664
 2129SOL    HW2 7287   4.125   2.434   5.645
 2130SOL     OW 7288   5.073   0.862   3.287
 2130SOL    HW1 7289   5.036   0.797   3.221
 2130SOL    HW2 7290   5.172   0.849   3.295
 2131SOL     OW 7291   5.387   1.781   6.719
 2131SOL    HW1 7292   5.310   1.723   6.746
 2131SOL    HW2 7293   5.427   1.747   6.634
 2132SOL     OW 7294   1.706   3.697   1.277
 2132SOL    HW1 7295   1.685   3.681   1.181
 2132SOL    HW2 7296   1.739   3.790   1.289
 2133SOL     OW 7297   2.272   4.097   6.100
 2133SOL    HW1 7298   2.249   4.194   6.094
 2133SOL    HW2 7299   2.274   4.056   6.009
 2134SOL     OW 7300   0.198   6.399   0.813
 2134SOL    HW1 7301   0.155   6.340   0.745
 2134SOL    HW2 7302   0.132   6.419   0.886
 2135SOL     OW 7303   6.734   4.448   5.068
 2135SOL    HW1 7304   6.821   4.443   5.119
 2135SOL    HW2 7305   6.671   4.509   5.116
 2136SOL     OW 7306   1.342   5.469   0.133
 2136SOL    HW1 7307   1.392   5.530   0.196
 2136SOL    HW2 7308   1.361   5.374   0.156
 2137SOL     OW 7309   1.617   6.428   3.751
 2137SOL    HW1 7310   1.641   6.332   3.762
 2137SOL    HW2 7311   1.671   6.483   3.815
 2138SOL     OW 7312   5.265   1.812   2.351
 2138SOL    HW1 7313   5.326   1.888   2.372
 2138SOL    HW2 7314   5.179   1.824   2.400
 2139SOL     OW 7315   2.577   6.995   5.369
 2139SOL    HW1 7316   2.557   0.046   5.305
 2139SOL    HW2 7317   2.492   6.963   5.411
 2140SOL     OW 7318   2.450   1.718   4.121
 2140SOL    HW1 7319   2.452   1.733   4.220
 2140SOL    HW2 7320   2.367   1.668   4.096
 2141SOL     OW 7321   6.796   3.409   3.399
 2141SOL    HW1 7322   6.785   3.315   3.367
 2141SOL    HW2 7323   6.775   3.472   3.324
 2142SOL     OW 7324   1.456   2.556   2.515
 2142SOL    HW1 7325   1.383   2.583   2.453
 2142SOL    HW2 7326   1.544   2.567   2.469
 2143SOL     OW 7327   0.222   5.336   5.625
 2143SOL    HW1 7328   0.134   5.358   5.583
 2143SOL    HW2 7329   0.237   5.237   5.622
 2144SOL     OW 7330   6.318   4.606   2.878
 2144SOL    HW1 7331   6.295   4.529   2.819
 2144SOL    HW2 7332   6.234   4.650   2.909
 2145SOL     OW 7333   4.377   1.335   3.404
 2145SOL    HW1 7334   4.469   1.317   3.438
 2145SOL    HW2 7335   4.364   1.288   3.317
 2146SOL     OW 7336   2.422   2.291   6.375
 2146SOL    HW1 7337   2.425   2.338   6.287
 2146SOL    HW2 7338   2.390   2.355   6.445
 2147SOL     OW 7339   5.936   6.645   4.295
 2147SOL    HW1 7340   5.909   6.612   4.205
 2147SOL    HW2 7341   5.855   6.654   4.353
 2148SOL     OW 7342   7.016   2.335   5.525
 2148SOL    HW1 7343   6.972   2.330   5.615
 2148SOL    HW2 7344   0.004   2.430   5.499
 2149SOL     OW 7345   0.968   6.679   6.822
 2149SOL    HW1 7346   0.869   6.693   6.830
 2149SOL    HW2 7347   1.014   6.729   6.895
 2150SOL     OW 7348   1.482   3.236   1.083
 2150SOL    HW1 7349   1.473   3.336   1.086
 2150SOL    HW2 7350   1.574   3.210   1.114
 2151SOL     OW 7351   0.808   4.783   0.035
 2151SOL    HW1 7352   0.865   4.863   0.054
 2151SOL    HW2 7353   0.817   4.758   6.962
 2152SOL     OW 7354   5.288   6.140   3.725
 2152SOL    HW1 7355   5.280   6.046   3.691
 2152SOL    HW2 7356   5.371   6.149   3.779
 2153SOL     OW 7357   5.141   6.767   4.221
 2153SOL    HW1 7358   5.113   6.737   4.312
 2153SOL    HW2 7359   5.089   6.717   4.152
 2154SOL     OW 7360   2.391   6.860   2.285
 2154SOL    HW1 7361   2.433   6.949   2.268
 2154SOL    HW2 7362   2.366   6.853   2.382
 2155SOL     OW 7363   4.232   0.769   0.841
 2155SOL    HW1 7364   4.173   0.765   0.922
 2155SOL    HW2 7365   4.277   0.680   0.829
 2156SOL     OW 7366   5.640   2.575   5.091
 2156SOL    HW1 7367   5.603   2.488   5.125
 2156SOL    HW2 7368   5.610   2.589   4.997
 2157SOL     OW 7369   3.801   6.153   4.830
 2157SOL    HW1 7370   3.879   6.182   4.885
 2157SOL    HW2 7371   3.830   6.082   4.766
 2158SOL     OW 7372   2.970   6.801   0.513
 2158SOL    HW1 7373   2.900   6.810   0.584
 2158SOL    HW2 7374   2.982   6.888   0.467
 2159SOL     OW 7375   0.599   1.143   5.877
 2159SOL    HW1 7376   0.532   1.167   5.807
 2159SOL    HW2 7377   0.643   1.225   5.912
 2160SOL     OW 7378   5.564   0.373   6.628
 2160SOL    HW1 7379   5.522   0.290   6.665
 2160SOL    HW2 7380   5.583   0.360   6.530
 2161SOL     OW 7381   1.733   3.749   0.739
 2161SOL    HW1 7382   1.681   3.789   0.663
 2161SOL    HW2 7383   1.830   3.748   0.715
 2162SOL     OW 7384   1.920   0.189   1.206
 2162SOL    HW1 7385   1.891   0.119   1.271
 2162SOL    HW2 7386   1.853   0.263   1.205
 2163SOL     OW 7387   1.531   3.262   3.361
 2163SOL    HW1 7388   1.612   3.260   3.301
 2163SOL    HW2 7389   1.559   3.287   3.453
 2164SOL     OW 7390   2.104   3.678   2.200
 2164SOL    HW1 7391   2.165   3.644   2.128
 2164SOL    HW2 7392   2.084   3.603   2.263
 2165SOL     OW 7393   6.331   1.081   4.662
 2165SOL    HW1 7394   6.411   1.136   4.637
 2165SOL    HW2 7395   6.260   1.093   4.593
 2166SOL     OW 7396   6.891   3.130   2.255
 2166SOL    HW1 7397   6.832   3.159   2.179
 2166SOL    HW2 7398   6.970   3.191   2.260
 2167SOL     OW 7399   1.826   2.116   2.858
 2167SOL    HW1 7400   1.820   2.088   2.954
 2167SOL    HW2 7401   1.748   2.079   2.808
 2168SOL     OW 7402   1.871   1.973   3.371
 2168SOL    HW1 7403   1.809   2.009   3.441
 2168SOL    HW2 7404   1.946   1.924   3.415
 2169SOL     OW 7405   6.829   6.847   1.366
 2169SOL    HW1 7406   6.868   6.858   1.275
 2169SOL    HW2 7407   6.743   6.896   1.372
 2170SOL     OW 7408   1.370   3.521   6.241
 2170SOL    HW1 7409   1.360   3.430   6.201
 2170SOL    HW2 7410   1.345   3.519   6.337
 2171SOL     OW 7411   6.697   5.995   0.824
 2171SOL    HW1 7412   6.734   5.927   0.760
 2171SOL    HW2 7413   6.631   5.951   0.884
 2172SOL     OW 7414   2.511   1.854   5.088
 2172SOL    HW1 7415   2.424   1.892   5.121
 2172SOL    HW2 7416   2.493   1.778   5.026
 2173SOL     OW 7417   4.942   0.636   4.633
 2173SOL    HW1 7418   4.892   0.593   4.557
 2173SOL    HW2 7419   4.946   0.735   4.619
 2174SOL     OW 7420   5.907   0.665   5.917
 2174SOL    HW1 7421   5.984   0.701   5.969
 2174SOL    HW2 7422   5.879   0.577   5.955
 2175SOL     OW 7423   3.426   3.777   5.476
 2175SOL    HW1 7424   3.328   3.776   5.457
 2175SOL    HW2 7425   3.442   3.820   5.565
 2176SOL     OW 7426   5.990   2.139   3.291
 2176SOL    HW1 7427   6.073   2.086   3.272
 2176SOL    HW2 7428   5.980   2.211   3.222
 2177SOL     OW 7429   1.202   1.301   4.949
 2177SOL    HW1 7430   1.184   1.350   4.864
 2177SOL    HW2 7431   1.273   1.232   4.933
 2178SOL     OW 7432   1.272   2.681   2.698
 2178SOL    HW1 7433   1.187   2.640   2.731
 2178SOL    HW2 7434   1.328   2.611   2.653
 2179SOL     OW 7435   1.525   3.756   6.875
 2179SOL    HW1 7436   1.603   3.701   6.848
 2179SOL    HW2 7437   1.442   3.721   6.831
 2180SOL     OW 7438   0.801   5.725   2.478
 2180SOL    HW1 7439   0.773   5.659   2.408
 2180SOL    HW2 7440   0.720   5.759   2.526
 2181SOL     OW 7441   4.103   4.908   4.415
 2181SOL    HW1 7442   4.152   4.852   4.349
 2181SOL    HW2 7443   4.005   4.884   4.413
 2182SOL     OW 7444   0.318   6.398   1.384
 2182SOL    HW1 7445   0.389   6.457   1.422
 2182SOL    HW2 7446   0.230   6.446   1.384
 2183SOL     OW 7447   3.321   3.169   6.768
 2183SOL    HW1 7448   3.292   3.181   6.863
 2183SOL    HW2 7449   3.249   3.120   6.718
 2184SOL     OW 7450   6.437   1.332   0.613
 2184SOL    HW1 7451   6.474   1.310   0.704
 2184SOL    HW2 7452   6.403   1.249   0.570
 2185SOL     OW 7453   1.020   1.032   6.009
 2185SOL    HW1 7454   0.979   1.118   5.977
 2185SOL    HW2 7455   1.034   1.037   6.108
 2186SOL     OW 7456   6.690   6.158   5.481
 2186SOL    HW1 7457   6.725   6.209   5.403
 2186SOL    HW2 7458   6.591   6.148   5.473
 2187SOL     OW 7459   5.743   4.739   1.853
 2187SOL    HW1 7460   5.802   4.775   1.781
 2187SOL    HW2 7461   5.658   4.705   1.812
 2188SOL     OW 7462   2.807   0.998   0.838
 2188SOL    HW1 7463   2.778   1.080   0.887
 2188SOL    HW2 7464   2.812   0.921   0.901
 2189SOL     OW 7465   1.825   0.682   2.071
 2189SOL    HW1 7466   1.863   0.711   1.983
 2189SOL    HW2 7467   1.881   0.608   2.108
 2190SOL     OW 7468   6.878   4.778   1.892
 2190SOL    HW1 7469   6.831   4.692   1.872
 2190SOL    HW2 7470   6.819   4.835   1.950
 2191SOL     OW 7471   3.226   0.461   6.792
 2191SOL    HW1 7472   3.202   0.378   6.842
 2191SOL    HW2 7473   3.325   0.464   6.778
 2192SOL     OW 7474   4.931   1.732   1.945
 2192SOL    HW1 7475   4.871   1.705   1.870
 2192SOL    HW2 7476   4.901   1.688   2.030
 2193SOL     OW 7477   2.370   0.407   4.803
 2193SOL    HW1 7478   2.375   0.414   4.902
 2193SOL    HW2 7479   2.277   0.427   4.773
 2194SOL     OW 7480   0.482   4.023   6.064
 2194SOL    HW1 7481   0.408   4.027   5.996
 2194SOL    HW2 7482   0.557   4.082   6.035
 2195SOL     OW 7483   0.212   3.975   4.634
 2195SOL    HW1 7484   0.243   3.921   4.556
 2195SOL    HW2 7485   0.218   4.072   4.612
 2196SOL     OW 7486   3.480   0.820   0.042
 2196SOL    HW1 7487   3.415   0.838   0.115
 2196SOL    HW2 7488   3.441   0.848   6.978
 2197SOL     OW 7489   3.436   5.608   6.045
 2197SOL    HW1 7490   3.443   5.553   6.128
 2197SOL    HW2 7491   3.392   5.695   6.066
 2198SOL     OW 7492   1.241   1.070   6.775
 2198SOL    HW1 7493   1.204   1.162   6.785
 2198SOL    HW2 7494   1.195   1.023   6.699
 2199SOL     OW 7495   4.163   6.886   3.535
 2199SOL    HW1 7496   4.145   6.787   3.540
 2199SOL    HW2 7497   4.130   6.931   3.617
 2200SOL     OW 7498   2.519   2.479   4.007
 2200SOL    HW1 7499   2.526   2.383   4.033
 2200SOL    HW2 7500   2.610   2.516   3.991
 2201SOL     OW 7501   5.786   3.815   5.222
 2201SOL    HW1 7502   5.811   3.819   5.125
 2201SOL    HW2 7503   5.869   3.804   5.277
 2202SOL     OW 7504   3.540   6.818   3.299
 2202SOL    HW1 7505   3.480   6.750   3.256
 2202SOL    HW2 7506   3.632   6.781   3.308
 2203SOL     OW 7507   2.193   5.660   1.176
 2203SOL    HW1 7508   2.228   5.730   1.239
 2203SOL    HW2 7509   2.094   5.654   1.184
 2204SOL     OW 7510   5.759   2.338   0.946
 2204SOL    HW1 7511   5.806   2.337   1.035
 2204SOL    HW2 7512   5.823   2.369   0.876
 2205SOL     OW 7513   6.112   5.879   1.177
 2205SOL    HW1 7514   6.012   5.878   1.185
 2205SOL    HW2 7515   6.142   5.806   1.117
 2206SOL     OW 7516   3.517   2.628   5.880
 2206SOL    HW1 7517   3.541   2.568   5.804
 2206SOL    HW2 7518   3.598   2.642   5.937
 2207SOL     OW 7519   4.803   5.859   1.810
 2207SOL    HW1 7520   4.753   5.788   1.860
 2207SOL    HW2 7521   4.899   5.831   1.801
 2208SOL     OW 7522   0.044   6.583   3.198
 2208SOL    HW1 7523   0.063   6.592   3.296
 2208SOL    HW2 7524   6.970   6.598   3.182
 2209SOL     OW 7525   3.030   5.603   3.496
 2209SOL    HW1 7526   2.990   5.547   3.568
 2209SOL    HW2 7527   2.997   5.697   3.504
 2210SOL     OW 7528   5.397   0.067   1.651
 2210SOL    HW1 7529   5.481   0.014   1.647
 2210SOL    HW2 7530   5.363   0.068   1.746
 2211SOL     OW 7531   1.534   1.812   0.939
 2211SOL    HW1 7532   1.609   1.876   0.921
 2211SOL    HW2 7533   1.464   1.821   0.868
 2212SOL     OW 7534   2.845   5.921   6.344
 2212SOL    HW1 7535   2.762   5.967   6.313
 2212SOL    HW2 7536   2.830   5.885   6.437
 2213SOL     OW 7537   3.393   1.478   5.063
 2213SOL    HW1 7538   3.325   1.443   5.128
 2213SOL    HW2 7539   3.462   1.530   5.112
 2214SOL     OW 7540   4.036   4.183   6.691
 2214SOL    HW1 7541   4.007   4.099   6.645
 2214SOL    HW2 7542   3.989   4.191   6.779
 2215SOL     OW 7543   4.988   6.185   0.652
 2215SOL    HW1 7544   5.072   6.146   0.691
 2215SOL    HW2 7545   4.934   6.227   0.725
 2216SOL     OW 7546   0.610   5.856   6.901
 2216SOL    HW1 7547   0.616   5.929   6.968
 2216SOL    HW2 7548   0.698   5.845   6.856
 2217SOL     OW 7549   4.418   1.293   3.725
 2217SOL    HW1 7550   4.514   1.288   3.696
 2217SOL    HW2 7551   4.411   1.357   3.802
 2218SOL     OW 7552   6.651   5.218   5.398
 2218SOL    HW1 7553   6.721   5.234   5.467
 2218SOL    HW2 7554   6.623   5.305   5.358
 2219SOL     OW 7555   5.258   1.173   0.874
 2219SOL    HW1 7556   5.183   1.237   0.888
 2219SOL    HW2 7557   5.305   1.194   0.788
 2220SOL     OW 7558   6.780   6.012   4.138
 2220SOL    HW1 7559   6.731   6.015   4.051
 2220SOL    HW2 7560   6.870   5.971   4.124
 2221SOL     OW 7561   5.840   0.873   4.253
 2221SOL    HW1 7562   5.844   0.948   4.187
 2221SOL    HW2 7563   5.767   0.810   4.228
 2222SOL     OW 7564   4.142   0.323   3.089
 2222SOL    HW1 7565   4.115   0.361   3.000
 2222SOL    HW2 7566   4.087   0.242   3.108
 2223SOL     OW 7567   0.854   0.186   5.278
 2223SOL    HW1 7568   0.899   0.270   5.251
 2223SOL    HW2 7569   0.846   0.182   5.378
 2224SOL     OW 7570   5.239   4.397   0.079
 2224SOL    HW1 7571   5.175   4.321   0.093
 2224SOL    HW2 7572   5.319   4.363   0.030
 2225SOL     OW 7573   0.021   6.441   1.381
 2225SOL    HW1 7574   0.008   6.521   1.439
 2225SOL    HW2 7575   6.982   6.369   1.409
 2226SOL     OW 7576   2.501   3.924   7.023
 2226SOL    HW1 7577   2.534   3.881   0.083
 2226SOL    HW2 7578   2.503   4.024   0.010
 2227SOL     OW 7579   4.120   2.255   2.137
 2227SOL    HW1 7580   4.033   2.215   2.109
 2227SOL    HW2 7581   4.184   2.182   2.163
 2228SOL     OW 7582   5.800   5.683   6.688
 2228SOL    HW1 7583   5.836   5.592   6.708
 2228SOL    HW2 7584   5.715   5.697   6.739
 2229SOL     OW 7585   3.100   3.402   4.174
 2229SOL    HW1 7586   3.117   3.376   4.079
 2229SOL    HW2 7587   3.130   3.328   4.234
 2230SOL     OW 7588   6.168   0.761   6.287
 2230SOL    HW1 7589   6.070   0.777   6.288
 2230SOL    HW2 7590   6.215   0.839   6.327
 2231SOL     OW 7591   1.575   0.295   6.066
 2231SOL    HW1 7592   1.590   0.217   6.128
 2231SOL    HW2 7593   1.660   0.347   6.058
 2232SOL     OW 7594   1.883   0.690   6.114
 2232SOL    HW1 7595   1.821   0.744   6.169
 2232SOL    HW2 7596   1.959   0.747   6.082
 2233SOL     OW 7597   2.975   4.879   1.139
 2233SOL    HW1 7598   2.988   4.883   1.040
 2233SOL    HW2 7599   2.877   4.873   1.160
 2234SOL     OW 7600   4.994   2.004   1.943
 2234SOL    HW1 7601   4.997   2.049   2.033
 2234SOL    HW2 7602   4.980   1.906   1.956
 2235SOL     OW 7603   0.669   2.030   2.563
 2235SOL    HW1 7604   0.711   2.116   2.534
 2235SOL    HW2 7605   0.604   2.047   2.636
 2236SOL     OW 7606   2.690   5.121   5.612
 2236SOL    HW1 7607   2.683   5.144   5.515
 2236SOL    HW2 7608   2.783   5.090   5.632
 2237SOL     OW 7609   6.375   6.330   5.641
 2237SOL    HW1 7610   6.332   6.389   5.709
 2237SOL    HW2 7611   6.465   6.302   5.674
 2238SOL     OW 7612   6.366   3.460   2.388
 2238SOL    HW1 7613   6.268   3.444   2.382
 2238SOL    HW2 7614   6.384   3.546   2.434
 2239SOL     OW 7615   4.670   6.686   2.860
 2239SOL    HW1 7616   4.598   6.724   2.919
 2239SOL    HW2 7617   4.656   6.717   2.766
 2240SOL     OW 7618   5.172   5.337   2.458
 2240SOL    HW1 7619   5.254   5.351   2.513
 2240SOL    HW2 7620   5.091   5.354   2.514
 2241SOL     OW 7621   0.395   1.635   2.606
 2241SOL    HW1 7622   0.350   1.546   2.603
 2241SOL    HW2 7623   0.490   1.625   2.577
 2242SOL     OW 7624   5.168   2.311   4.383
 2242SOL    HW1 7625   5.205   2.402   4.362
 2242SOL    HW2 7626   5.131   2.312   4.476
 2243SOL     OW 7627   2.468   6.786   0.749
 2243SOL    HW1 7628   2.427   6.864   0.701
 2243SOL    HW2 7629   2.466   6.706   0.690
 2244SOL     OW 7630   2.216   1.836   0.893
 2244SOL    HW1 7631   2.235   1.874   0.802
 2244SOL    HW2 7632   2.246   1.741   0.896
 2245SOL     OW 7633   0.478   0.419   0.260
 2245SOL    HW1 7634   0.507   0.470   0.341
 2245SOL    HW2 7635   0.515   0.464   0.178
 2246SOL     OW 7636   4.154   1.747   5.373
 2246SOL    HW1 7637   4.068   1.765   5.422
 2246SOL    HW2 7638   4.180   1.829   5.321
 2247SOL     OW 7639   2.951   3.189   2.106
 2247SOL    HW1 7640   2.908   3.149   2.026
 2247SOL    HW2 7641   2.938   3.288   2.105
 2248SOL     OW 7642   5.213   3.853   5.081
 2248SOL    HW1 7643   5.135   3.904   5.043
 2248SOL    HW2 7644   5.224   3.767   5.032
 2249SOL     OW 7645   2.505   6.694   3.624
 2249SOL    HW1 7646   2.494   6.623   3.693
 2249SOL    HW2 7647   2.598   6.691   3.588
 2250SOL     OW 7648   4.338   6.083   6.320
 2250SOL    HW1 7649   4.326   6.159   6.256
 2250SOL    HW2 7650   4.302   6.109   6.409
 2251SOL     OW 7651   4.545   6.314   4.793
 2251SOL    HW1 7652   4.505   6.225   4.815
 2251SOL    HW2 7653   4.615   6.302   4.723
 2252SOL     OW 7654   3.892   0.683   2.502
 2252SOL    HW1 7655   3.823   0.720   2.565
 2252SOL    HW2 7656   3.852   0.607   2.451
 2253SOL     OW 7657   0.321   3.257   1.918
 2253SOL    HW1 7658   0.316   3.347   1.962
 2253SOL    HW2 7659   0.399   3.206   1.954
 2254SOL     OW 7660   4.103   3.182   2.728
 2254SOL    HW1 7661   4.043   3.113   2.768
 2254SOL    HW2 7662   4.177   3.203   2.793
 2255SOL     OW 7663   1.629   2.590   6.223
 2255SOL    HW1 7664   1.614   2.661   6.155
 2255SOL    HW2 7665   1.722   2.556   6.216
 2256SOL     OW 7666   5.600   0.332   1.128
 2256SOL    HW1 7667   5.585   0.236   1.151
 2256SOL    HW2 7668   5.694   0.358   1.150
 2257SOL     OW 7669   6.787   0.656   5.200
 2257SOL    HW1 7670   6.823   0.563   5.195
 2257SOL    HW2 7671   6.835   0.707   5.271
 2258SOL     OW 7672   2.164   6.808   4.193
 2258SOL    HW1 7673   2.237   6.874   4.172
 2258SOL    HW2 7674   2.083   6.857   4.225
 2259SOL     OW 7675   6.045   1.542   4.752
 2259SOL    HW1 7676   6.109   1.477   4.793
 2259SOL    HW2 7677   6.022   1.513   4.659
 2260SOL     OW 7678   0.857   3.706   1.205
 2260SOL    HW1 7679   0.843   3.622   1.153
 2260SOL    HW2 7680   0.771   3.731   1.251
 2261SOL     OW 7681   5.382   4.186   6.984
 2261SOL    HW1 7682   5.471   4.181   6.939
 2261SOL    HW2 7683   5.356   4.096   7.018
 2262SOL     OW 7684   6.572   6.502   4.239
 2262SOL    HW1 7685   6.637   6.562   4.191
 2262SOL    HW2 7686   6.483   6.548   4.245
 2263SOL     OW 7687   2.067   4.213   6.421
 2263SOL    HW1 7688   1.979   4.246   6.389
 2263SOL    HW2 7689   2.054   4.159   6.504
 2264SOL     OW 7690   2.361   0.206   5.482
 2264SOL    HW1 7691   2.272   0.249   5.494
 2264SOL    HW2 7692   2.376   0.138   5.553
 2265SOL     OW 7693   6.673   6.278   3.956
 2265SOL    HW1 7694   6.766   6.259   3.987
 2265SOL    HW2 7695   6.631   6.346   4.017
 2266SOL     OW 7696   4.418   2.992   6.780
 2266SOL    HW1 7697   4.512   2.968   6.802
 2266SOL    HW2 7698   4.371   3.024   6.863
 2267SOL     OW 7699   5.526   2.901   4.663
 2267SOL    HW1 7700   5.616   2.878   4.627
 2267SOL    HW2 7701   5.525   2.888   4.762
 2268SOL     OW 7702   1.445   6.474   5.069
 2268SOL    HW1 7703   1.440   6.375   5.084
 2268SOL    HW2 7704   1.435   6.522   5.156
 2269SOL     OW 7705   1.726   2.615   5.557
 2269SOL    HW1 7706   1.713   2.645   5.463
 2269SOL    HW2 7707   1.824   2.620   5.580
 2270SOL     OW 7708   4.835   1.139   6.114
 2270SOL    HW1 7709   4.859   1.233   6.139
 2270SOL    HW2 7710   4.834   1.130   6.015
 2271SOL     OW 7711   4.143   5.752   5.418
 2271SOL    HW1 7712   4.122   5.847   5.397
 2271SOL    HW2 7713   4.088   5.692   5.359
 2272SOL     OW 7714   5.528   1.272   5.898
 2272SOL    HW1 7715   5.568   1.262   5.806
 2272SOL    HW2 7716   5.446   1.328   5.892
 2273SOL     OW 7717   1.184   2.904   3.682
 2273SOL    HW1 7718   1.152   2.833   3.744
 2273SOL    HW2 7719   1.206   2.863   3.593
 2274SOL     OW 7720   1.335   0.981   0.010
 2274SOL    HW1 7721   1.250   0.981   0.063
 2274SOL    HW2 7722   1.315   0.999   6.938
 2275SOL     OW 7723   5.273   3.795   2.939
 2275SOL    HW1 7724   5.234   3.887   2.941
 2275SOL    HW2 7725   5.242   3.744   3.019
 2276SOL     OW 7726   1.885   1.889   1.034
 2276SOL    HW1 7727   1.847   1.862   1.122
 2276SOL    HW2 7728   1.904   1.808   0.979
 2277SOL     OW 7729   3.977   3.101   3.237
 2277SOL    HW1 7730   4.043   3.116   3.163
 2277SOL    HW2 7731   3.913   3.178   3.240
 2278SOL     OW 7732   0.484   2.880   3.735
 2278SOL    HW1 7733   0.583   2.893   3.728
 2278SOL    HW2 7734   0.466   2.793   3.780
 2279SOL     OW 7735   1.142   5.295   5.868
 2279SOL    HW1 7736   1.208   5.283   5.942
 2279SOL    HW2 7737   1.168   5.375   5.813
 2280SOL     OW 7738   5.023   1.703   5.679
 2280SOL    HW1 7739   4.970   1.648   5.615
 2280SOL    HW2 7740   5.030   1.797   5.645
 2281SOL     OW 7741   5.618   6.906   2.532
 2281SOL    HW1 7742   5.698   6.963   2.549
 2281SOL    HW2 7743   5.629   6.860   2.444
 2282SOL     OW 7744   3.574   6.173   6.218
 2282SOL    HW1 7745   3.539   6.230   6.143
 2282SOL    HW2 7746   3.502   6.112   6.250
 2283SOL     OW 7747   0.254   0.712   4.471
 2283SOL    HW1 7748   0.239   0.642   4.400
 2283SOL    HW2 7749   0.352   0.717   4.492
 2284SOL     OW 7750   1.160   2.952   6.465
 2284SOL    HW1 7751   1.147   2.984   6.559
 2284SOL    HW2 7752   1.115   2.863   6.454
 2285SOL     OW 7753   1.843   4.085   6.814
 2285SOL    HW1 7754   1.814   4.179   6.796
 2285SOL    HW2 7755   1.774   4.039   6.870
 2286SOL     OW 7756   4.505   5.075   3.020
 2286SOL    HW1 7757   4.587   5.087   3.076
 2286SOL    HW2 7758   4.506   5.141   2.945
 2287SOL     OW 7759   1.066   1.479   3.902
 2287SOL    HW1 7760   0.987   1.528   3.866
 2287SOL    HW2 7761   1.148   1.536   3.894
 2288SOL     OW 7762   6.999   5.474   2.618
 2288SOL    HW1 7763   0.075   5.485   2.623
 2288SOL    HW2 7764   6.961   5.477   2.710
 2289SOL     OW 7765   0.716   5.658   0.804
 2289SOL    HW1 7766   0.683   5.752   0.793
 2289SOL    HW2 7767   0.809   5.652   0.767
 2290SOL     OW 7768   0.934   5.258   6.843
 2290SOL    HW1 7769   0.933   5.354   6.870
 2290SOL    HW2 7770   1.012   5.212   6.886
 2291SOL     OW 7771   2.323   1.474   6.841
 2291SOL    HW1 7772   2.385   1.536   6.793
 2291SOL    HW2 7773   2.240   1.461   6.787
 2292SOL     OW 7774   2.429   1.425   4.289
 2292SOL    HW1 7775   2.473   1.373   4.362
 2292SOL    HW2 7776   2.497   1.476   4.238
 2293SOL     OW 7777   5.594   3.621   2.597
 2293SOL    HW1 7778   5.573   3.648   2.691
 2293SOL    HW2 7779   5.522   3.655   2.536
 2294SOL     OW 7780   3.918   6.296   0.275
 2294SOL    HW1 7781   3.880   6.320   0.185
 2294SOL    HW2 7782   3.984   6.221   0.264
 2295SOL     OW 7783   0.449   1.772   1.609
 2295SOL    HW1 7784   0.438   1.837   1.534
 2295SOL    HW2 7785   0.471   1.822   1.693
 2296SOL     OW 7786   3.089   6.996   0.791
 2296SOL    HW1 7787   3.057   0.062   0.823
 2296SOL    HW2 7788   3.129   6.946   0.868
 2297SOL     OW 7789   4.280   6.170   6.593
 2297SOL    HW1 7790   4.196   6.218   6.568
 2297SOL    HW2 7791   4.295   6.178   6.692
 2298SOL     OW 7792   4.255   2.937   6.319
 2298SOL    HW1 7793   4.252   2.913   6.417
 2298SOL    HW2 7794   4.245   3.036   6.308
 2299SOL     OW 7795   4.296   7.006   0.060
 2299SOL    HW1 7796   4.385   6.986   0.019
 2299SOL    HW2 7797   4.237   0.027   7.017
 2300SOL     OW 7798   1.269   4.384   1.038
 2300SOL    HW1 7799   1.218   4.453   1.090
 2300SOL    HW2 7800   1.356   4.423   1.007
 2301SOL     OW 7801   4.135   3.500   1.876
 2301SOL    HW1 7802   4.120   3.598   1.892
 2301SOL    HW2 7803   4.057   3.462   1.826
 2302SOL     OW 7804   2.391   5.540   3.148
 2302SOL    HW1 7805   2.410   5.542   3.246
 2302SOL    HW2 7806   2.374   5.633   3.115
 2303SOL     OW 7807   0.111   3.088   5.131
 2303SOL    HW1 7808   0.112   3.177   5.177
 2303SOL    HW2 7809   0.167   3.023   5.184
 2304SOL     OW 7810   2.535   1.234   4.454
 2304SOL    HW1 7811   2.570   1.162   4.394
 2304SOL    HW2 7812   2.591   1.238   4.537
 2305SOL     OW 7813   4.196   4.697   1.951
 2305SOL    HW1 7814   4.145   4.737   1.874
 2305SOL    HW2 7815   4.209   4.599   1.935
 2306SOL     OW 7816   6.999   4.192   0.404
 2306SOL    HW1 7817   0.041   4.226   0.471
 2306SOL    HW2 7818   0.001   4.099   0.377
 2307SOL     OW 7819   0.103   1.472   2.903
 2307SOL    HW1 7820   0.043   1.425   2.968
 2307SOL    HW2 7821   0.126   1.562   2.940
 2308SOL     OW 7822   0.020   6.923   0.253
 2308SOL    HW1 7823   0.028   7.020   0.279
 2308SOL    HW2 7824   0.053   6.866   0.328
 2309SOL     OW 7825   3.537   5.083   5.902
 2309SOL    HW1 7826   3.538   5.097   6.001
 2309SOL    HW2 7827   3.480   5.004   5.880
 2310SOL     OW 7828   5.576   1.719   2.964
 2310SOL    HW1 7829   5.641   1.646   2.988
 2310SOL    HW2 7830   5.560   1.718   2.865
 2311SOL     OW 7831   2.573   0.438   2.699
 2311SOL    HW1 7832   2.618   0.480   2.621
 2311SOL    HW2 7833   2.477   0.421   2.677
 2312SOL     OW 7834   2.654   1.260   2.682
 2312SOL    HW1 7835   2.626   1.230   2.591
 2312SOL    HW2 7836   2.575   1.301   2.729
 2313SOL     OW 7837   5.003   3.813   1.630
 2313SOL    HW1 7838   4.993   3.772   1.539
 2313SOL    HW2 7839   4.917   3.803   1.680
 2314SOL     OW 7840   6.800   6.599   3.192
 2314SOL    HW1 7841   6.793   6.542   3.110
 2314SOL    HW2 7842   6.760   6.688   3.174
 2315SOL     OW 7843   4.062   5.960   4.418
 2315SOL    HW1 7844   4.153   5.981   4.452
 2315SOL    HW2 7845   4.042   5.863   4.430
 2316SOL     OW 7846   2.764   1.747   5.885
 2316SOL    HW1 7847   2.845   1.698   5.918
 2316SOL    HW2 7848   2.749   1.828   5.942
 2317SOL     OW 7849   0.140   5.639   2.873
 2317SOL    HW1 7850   0.165   5.695   2.952
 2317SOL    HW2 7851   0.047   5.603   2.886
 2318SOL     OW 7852   1.339   4.699   5.518
 2318SOL    HW1 7853   1.402   4.741   5.583
 2318SOL    HW2 7854   1.384   4.622   5.473
 2319SOL     OW 7855   1.839   4.910   3.372
 2319SOL    HW1 7856   1.886   4.824   3.353
 2319SOL    HW2 7857   1.879   4.983   3.317
 2320SOL     OW 7858   1.101   2.109   5.230
 2320SOL    HW1 7859   1.159   2.085   5.152
 2320SOL    HW2 7860   1.090   2.208   5.234
 2321SOL     OW 7861   2.351   4.859   5.946
 2321SOL    HW1 7862   2.429   4.797   5.955
 2321SOL    HW2 7863   2.294   4.831   5.870
 2322SOL     OW 7864   1.775   3.907   1.552
 2322SOL    HW1 7865   1.854   3.881   1.607
 2322SOL    HW2 7866   1.691   3.888   1.603
 2323SOL     OW 7867   2.722   5.120   1.194
 2323SOL    HW1 7868   2.660   5.198   1.186
 2323SOL    HW2 7869   2.722   5.069   1.108
 2324SOL     OW 7870   6.884   5.231   2.826
 2324SOL    HW1 7871   6.798   5.228   2.775
 2324SOL    HW2 7872   6.955   5.181   2.777
 2325SOL     OW 7873   6.588   5.429   1.737
 2325SOL    HW1 7874   6.571   5.335   1.767
 2325SOL    HW2 7875   6.579   5.435   1.638
 2326SOL     OW 7876   2.003   0.627   0.164
 2326SOL    HW1 7877   1.962   0.610   0.253
 2326SOL    HW2 7878   2.056   0.711   0.167
 2327SOL     OW 7879   0.267   0.078   2.480
 2327SOL    HW1 7880   0.250   0.027   2.395
 2327SOL    HW2 7881   0.269   0.014   2.557
 2328SOL     OW 7882   2.129   3.372   2.837
 2328SOL    HW1 7883   2.134   3.450   2.899
 2328SOL    HW2 7884   2.055   3.311   2.866
 2329SOL     OW 7885   0.624   5.365   2.797
 2329SOL    HW1 7886   0.581   5.388   2.710
 2329SOL    HW2 7887   0.668   5.275   2.789
 2330SOL     OW 7888   6.166   3.188   0.698
 2330SOL    HW1 7889   6.080   3.232   0.724
 2330SOL    HW2 7890   6.238   3.216   0.761
 2331SOL     OW 7891   4.567   5.990   1.433
 2331SOL    HW1 7892   4.469   6.003   1.444
 2331SOL    HW2 7893   4.613   6.007   1.520
 2332SOL     OW 7894   5.849   6.907   6.018
 2332SOL    HW1 7895   5.940   6.893   6.058
 2332SOL    HW2 7896   5.857   6.959   5.934
 2333SOL     OW 7897   0.276   4.379   2.425
 2333SOL    HW1 7898   0.329   4.437   2.363
 2333SOL    HW2 7899   0.210   4.325   2.372
 2334SOL     OW 7900   2.944   1.863   6.363
 2334SOL    HW1 7901   2.906   1.919   6.437
 2334SOL    HW2 7902   2.870   1.815   6.317
 2335SOL     OW 7903   6.517   0.942   3.332
 2335SOL    HW1 7904   6.520   0.895   3.420
 2335SOL    HW2 7905   6.608   0.979   3.312
 2336SOL     OW 7906   1.781   1.696   3.004
 2336SOL    HW1 7907   1.784   1.712   3.102
 2336SOL    HW2 7908   1.872   1.710   2.965
 2337SOL     OW 7909   4.419   1.811   1.660
 2337SOL    HW1 7910   4.476   1.869   1.718
 2337SOL    HW2 7911   4.337   1.783   1.710
 2338SOL     OW 7912   0.149   3.872   3.599
 2338SOL    HW1 7913   0.207   3.921   3.663
 2338SOL    HW2 7914   0.105   3.795   3.646
 2339SOL     OW 7915   3.552   3.013   2.897
 2339SOL    HW1 7916   3.586   2.999   2.804
 2339SOL    HW2 7917   3.623   2.987   2.963
 2340SOL     OW 7918   2.276   4.979   6.583
 2340SOL    HW1 7919   2.227   4.935   6.658
 2340SOL    HW2 7920   2.329   5.056   6.617
 2341SOL     OW 7921   2.476   4.710   3.458
 2341SOL    HW1 7922   2.416   4.678   3.385
 2341SOL    HW2 7923   2.470   4.810   3.464
 2342SOL     OW 7924   3.227   0.488   3.853
 2342SOL    HW1 7925   3.253   0.502   3.949
 2342SOL    HW2 7926   3.212   0.390   3.836
 2343SOL     OW 7927   1.072   0.290   1.799
 2343SOL    HW1 7928   0.981   0.326   1.779
 2343SOL    HW2 7929   1.065   0.202   1.844
 2344SOL     OW 7930   5.597   3.815   0.521
 2344SOL    HW1 7931   5.696   3.800   0.516
 2344SOL    HW2 7932   5.573   3.853   0.610
 2345SOL     OW 7933   2.727   5.426   4.851
 2345SOL    HW1 7934   2.777   5.451   4.934
 2345SOL    HW2 7935   2.664   5.501   4.827
 2346SOL     OW 7936   3.992   3.630   6.773
 2346SOL    HW1 7937   4.012   3.700   6.842
 2346SOL    HW2 7938   4.062   3.632   6.702
 2347SOL     OW 7939   1.032   1.836   1.938
 2347SOL    HW1 7940   1.091   1.760   1.912
 2347SOL    HW2 7941   1.088   1.911   1.974
 2348SOL     OW 7942   0.114   5.173   2.730
 2348SOL    HW1 7943   0.155   5.123   2.807
 2348SOL    HW2 7944   0.152   5.265   2.726
 2349SOL     OW 7945   0.715   4.375   5.727
 2349SOL    HW1 7946   0.626   4.419   5.710
 2349SOL    HW2 7947   0.732   4.308   5.655
 2350SOL     OW 7948   5.975   3.580   6.713
 2350SOL    HW1 7949   5.981   3.611   6.618
 2350SOL    HW2 7950   5.955   3.482   6.714
 2351SOL     OW 7951   2.928   5.162   2.439
 2351SOL    HW1 7952   2.899   5.080   2.488
 2351SOL    HW2 7953   2.968   5.136   2.351
 2352SOL     OW 7954   0.133   2.866   3.821
 2352SOL    HW1 7955   0.105   2.833   3.731
 2352SOL    HW2 7956   0.222   2.912   3.814
 2353SOL     OW 7957   3.335   5.577   4.624
 2353SOL    HW1 7958   3.362   5.639   4.550
 2353SOL    HW2 7959   3.378   5.607   4.710
 2354SOL     OW 7960   1.858   2.781   3.483
 2354SOL    HW1 7961   1.879   2.764   3.579
 2354SOL    HW2 7962   1.852   2.880   3.467
 2355SOL     OW 7963   2.365   6.004   5.093
 2355SOL    HW1 7964   2.349   6.048   5.182
 2355SOL    HW2 7965   2.356   6.071   5.020
 2356SOL     OW 7966   6.397   3.025   0.046
 2356SOL    HW1 7967   6.351   3.089   7.008
 2356SOL    HW2 7968   6.491   3.056   0.061
 2357SOL     OW 7969   2.471   6.399   2.604
 2357SOL    HW1 7970   2.427   6.489   2.602
 2357SOL    HW2 7971   2.555   6.404   2.657
 2358SOL     OW 7972   3.736   5.042   6.642
 2358SOL    HW1 7973   3.664   5.000   6.587
 2358SOL    HW2 7974   3.700   5.063   6.733
 2359SOL     OW 7975   1.595   0.056   4.781
 2359SOL    HW1 7976   1.694   0.051   4.765
 2359SOL    HW2 7977   1.548   7.019   4.718
 2360SOL     OW 7978   6.799   3.570   0.099
 2360SOL    HW1 7979   6.779   3.653   0.151
 2360SOL    HW2 7980   6.822   3.595   0.005
 2361SOL     OW 7981   3.490   1.163   6.562
 2361SOL    HW1 7982   3.448   1.073   6.570
 2361SOL    HW2 7983   3.433   1.222   6.505
 2362SOL     OW 7984   3.306   5.595   3.473
 2362SOL    HW1 7985   3.333   5.603   3.377
 2362SOL    HW2 7986   3.206   5.588   3.480
 2363SOL     OW 7987   3.728   0.631   4.325
 2363SOL    HW1 7988   3.748   0.724   4.356
 2363SOL    HW2 7989   3.813   0.582   4.308
 2364SOL     OW 7990   1.139   2.419   0.798
 2364SOL    HW1 7991   1.169   2.499   0.747
 2364SOL    HW2 7992   1.217   2.375   0.841
 2365SOL     OW 7993   5.694   2.318   6.616
 2365SOL    HW1 7994   5.683   2.230   6.571
 2365SOL    HW2 7995   5.604   2.355   6.639
 2366SOL     OW 7996   4.050   5.433   0.755
 2366SOL    HW1 7997   3.957   5.451   0.787
 2366SOL    HW2 7998   4.110   5.418   0.834
 2367SOL     OW 7999   2.456   3.294   5.975
 2367SOL    HW1 8000   2.373   3.258   5.932
 2367SOL    HW2 8001   2.536   3.248   5.936
 2368SOL     OW 8002   6.403   6.110   2.471
 2368SOL    HW1 8003   6.393   6.065   2.382
 2368SOL    HW2 8004   6.317   6.105   2.521
 2369SOL     OW 8005   2.306   0.916   3.310
 2369SOL    HW1 8006   2.371   0.842   3.325
 2369SOL    HW2 8007   2.320   0.954   3.218
 2370SOL     OW 8008   6.259   1.913   6.800
 2370SOL    HW1 8009   6.221   1.832   6.756
 2370SOL    HW2 8010   6.342   1.889   6.850
 2371SOL     OW 8011   2.437   6.674   1.580
 2371SOL    HW1 8012   2.526   6.718   1.587
 2371SOL    HW2 8013   2.444   6.595   1.519
 2372SOL     OW 8014   6.699   3.455   2.946
 2372SOL    HW1 8015   6.780   3.444   2.887
 2372SOL    HW2 8016   6.618   3.466   2.889
 2373SOL     OW 8017   2.260   3.377   6.407
 2373SOL    HW1 8018   2.180   3.389   6.466
 2373SOL    HW2 8019   2.245   3.424   6.320
 2374SOL     OW 8020   5.847   3.126   4.742
 2374SOL    HW1 8021   5.858   3.108   4.840
 2374SOL    HW2 8022   5.935   3.151   4.702
 2375SOL     OW 8023   3.084   6.574   5.217
 2375SOL    HW1 8024   3.128   6.535   5.298
 2375SOL    HW2 8025   3.084   6.506   5.143
 2376SOL     OW 8026   6.494   3.307   4.575
 2376SOL    HW1 8027   6.487   3.274   4.669
 2376SOL    HW2 8028   6.560   3.252   4.524
 2377SOL     OW 8029   3.887   3.480   3.815
 2377SOL    HW1 8030   3.815   3.452   3.751
 2377SOL    HW2 8031   3.972   3.495   3.764
 2378SOL     OW 8032   5.485   2.621   6.836
 2378SOL    HW1 8033   5.467   2.540   6.781
 2378SOL    HW2 8034   5.583   2.631   6.850
 2379SOL     OW 8035   6.691   6.849   0.201
 2379SOL    HW1 8036   6.599   6.887   0.194
 2379SOL    HW2 8037   6.733   6.879   0.287
 2380SOL     OW 8038   6.346   1.879   2.293
 2380SOL    HW1 8039   6.417   1.822   2.252
 2380SOL    HW2 8040   6.369   1.976   2.281
 2381SOL     OW 8041   1.649   6.825   3.350
 2381SOL    HW1 8042   1.642   6.750   3.416
 2381SOL    HW2 8043   1.640   6.913   3.397
 2382SOL     OW 8044   1.328   3.653   5.259
 2382SOL    HW1 8045   1.382   3.569   5.259
 2382SOL    HW2 8046   1.388   3.731   5.279
 2383SOL     OW 8047   5.969   5.972   1.521
 2383SOL    HW1 8048   5.921   5.912   1.585
 2383SOL    HW2 8049   6.058   5.934   1.500
 2384SOL     OW 8050   4.552   2.048   1.772
 2384SOL    HW1 8051   4.529   2.121   1.836
 2384SOL    HW2 8052   4.629   2.077   1.714
 2385SOL     OW 8053   0.707   2.141   6.316
 2385SOL    HW1 8054   0.645   2.116   6.390
 2385SOL    HW2 8055   0.727   2.239   6.319
 2386SOL     OW 8056   4.480   5.381   4.070
 2386SOL    HW1 8057   4.519   5.467   4.103
 2386SOL    HW2 8058   4.544   5.337   4.007
 2387SOL     OW 8059   2.130   1.307   3.627
 2387SOL    HW1 8060   2.149   1.219   3.583
 2387SOL    HW2 8061   2.043   1.343   3.593
 2388SOL     OW 8062   6.462   1.698   4.384
 2388SOL    HW1 8063   6.407   1.779   4.366
 2388SOL    HW2 8064   6.409   1.616   4.365
 2389SOL     OW 8065   4.332   5.891   2.809
 2389SOL    HW1 8066   4.379   5.879   2.721
 2389SOL    HW2 8067   4.245   5.938   2.793
 2390SOL     OW 8068   3.211   4.274   1.415
 2390SOL    HW1 8069   3.221   4.301   1.319
 2390SOL    HW2 8070   3.265   4.191   1.432
 2391SOL     OW 8071   3.894   5.034   5.460
 2391SOL    HW1 8072   3.970   5.004   5.517
 2391SOL    HW2 8073   3.905   4.997   5.368
 2392SOL     OW 8074   3.814   1.247   0.041
 2392SOL    HW1 8075   3.840   1.316   0.108
 2392SOL    HW2 8076   3.801   1.291   6.975
 2393SOL     OW 8077   4.112   5.009   5.630
 2393SOL    HW1 8078   4.205   4.977   5.612
 2393SOL    HW2 8079   4.111   5.109   5.632
 2394SOL     OW 8080   0.346   4.694   5.377
 2394SOL    HW1 8081   0.339   4.650   5.467
 2394SOL    HW2 8082   0.434   4.742   5.371
 2395SOL     OW 8083   4.061   0.329   6.029
 2395SOL    HW1 8084   3.979   0.272   6.041
 2395SOL    HW2 8085   4.122   0.316   6.106
 2396SOL     OW 8086   4.069   4.468   0.979
 2396SOL    HW1 8087   4.047   4.385   0.929
 2396SOL    HW2 8088   4.126   4.445   1.059
 2397SOL     OW 8089   0.032   3.870   3.982
 2397SOL    HW1 8090   0.057   3.928   3.904
 2397SOL    HW2 8091   6.989   3.802   3.953
 2398SOL     OW 8092   4.209   4.747   5.700
 2398SOL    HW1 8093   4.142   4.776   5.632
 2398SOL    HW2 8094   4.187   4.655   5.733
 2399SOL     OW 8095   4.243   2.121   1.674
 2399SOL    HW1 8096   4.169   2.164   1.725
 2399SOL    HW2 8097   4.331   2.150   1.712
 2400SOL     OW 8098   2.408   5.394   1.566
 2400SOL    HW1 8099   2.392   5.378   1.468
 2400SOL    HW2 8100   2.392   5.309   1.617
 2401SOL     OW 8101   0.203   6.320   6.233
 2401SOL    HW1 8102   0.190   6.275   6.321
 2401SOL    HW2 8103   0.301   6.331   6.215
 2402SOL     OW 8104   6.910   6.446   4.165
 2402SOL    HW1 8105   6.899   6.361   4.216
 2402SOL    HW2 8106   6.969   6.430   4.087
 2403SOL     OW 8107   0.233   1.645   5.013
 2403SOL    HW1 8108   0.177   1.671   5.092
 2403SOL    HW2 8109   0.329   1.649   5.038
 2404SOL     OW 8110   1.265   0.483   0.274
 2404SOL    HW1 8111   1.274   0.420   0.196
 2404SOL    HW2 8112   1.297   0.574   0.247
 2405SOL     OW 8113   2.912   4.128   1.465
 2405SOL    HW1 8114   2.863   4.110   1.379
 2405SOL    HW2 8115   2.913   4.227   1.483
 2406SOL     OW 8116   4.572   1.012   1.305
 2406SOL    HW1 8117   4.529   0.922   1.317
 2406SOL    HW2 8118   4.522   1.063   1.234
 2407SOL     OW 8119   4.831   0.705   3.948
 2407SOL    HW1 8120   4.898   0.635   3.973
 2407SOL    HW2 8121   4.808   0.696   3.851
 2408SOL     OW 8122   4.622   4.447   2.132
 2408SOL    HW1 8123   4.550   4.516   2.141
 2408SOL    HW2 8124   4.589   4.372   2.075
 2409SOL     OW 8125   1.261   4.103   0.442
 2409SOL    HW1 8126   1.359   4.122   0.437
 2409SOL    HW2 8127   1.212   4.187   0.464
 2410SOL     OW 8128   3.230   2.960   2.650
 2410SOL    HW1 8129   3.162   2.897   2.613
 2410SOL    HW2 8130   3.233   2.951   2.750
 2411SOL     OW 8131   4.627   6.700   4.432
 2411SOL    HW1 8132   4.640   6.634   4.358
 2411SOL    HW2 8133   4.598   6.788   4.393
 2412SOL     OW 8134   4.470   3.525   0.843
 2412SOL    HW1 8135   4.497   3.599   0.905
 2412SOL    HW2 8136   4.492   3.437   0.885
 2413SOL     OW 8137   4.996   6.851   2.609
 2413SOL    HW1 8138   4.953   6.934   2.646
 2413SOL    HW2 8139   4.936   6.773   2.627
 2414SOL     OW 8140   5.580   3.690   4.087
 2414SOL    HW1 8141   5.637   3.771   4.081
 2414SOL    HW2 8142   5.498   3.711   4.141
 2415SOL     OW 8143   4.616   1.026   3.165
 2415SOL    HW1 8144   4.596   1.082   3.246
 2415SOL    HW2 8145   4.572   0.937   3.175
 2416SOL     OW 8146   5.496   1.690   6.489
 2416SOL    HW1 8147   5.483   1.658   6.395
 2416SOL    HW2 8148   5.573   1.642   6.531
 2417SOL     OW 8149   3.356   4.162   4.569
 2417SOL    HW1 8150   3.328   4.250   4.606
 2417SOL    HW2 8151   3.456   4.152   4.578
 2418SOL     OW 8152   3.295   2.888   2.912
 2418SOL    HW1 8153   3.377   2.944   2.924
 2418SOL    HW2 8154   3.310   2.798   2.953
 2419SOL     OW 8155   0.364   0.222   2.957
 2419SOL    HW1 8156   0.343   0.163   2.878
 2419SOL    HW2 8157   0.426   0.295   2.928
 2420SOL     OW 8158   2.177   7.008   1.963
 2420SOL    HW1 8159   2.135   0.021   2.046
 2420SOL    HW2 8160   2.254   6.949   1.988
 2421SOL     OW 8161   3.452   1.840   3.781
 2421SOL    HW1 8162   3.422   1.747   3.764
 2421SOL    HW2 8163   3.381   1.905   3.752
 2422SOL     OW 8164   4.434   1.507   0.793
 2422SOL    HW1 8165   4.528   1.489   0.822
 2422SOL    HW2 8166   4.416   1.605   0.797
 2423SOL     OW 8167   2.015   4.769   2.243
 2423SOL    HW1 8168   1.925   4.795   2.279
 2423SOL    HW2 8169   2.082   4.771   2.317
 2424SOL     OW 8170   6.064   7.004   0.934
 2424SOL    HW1 8171   6.069   7.013   1.034
 2424SOL    HW2 8172   5.974   6.970   0.908
 2425SOL     OW 8173   0.019   6.672   4.130
 2425SOL    HW1 8174   6.979   6.606   4.169
 2425SOL    HW2 8175   0.027   6.658   4.031
 2426SOL     OW 8176   2.592   4.579   4.214
 2426SOL    HW1 8177   2.591   4.504   4.149
 2426SOL    HW2 8178   2.566   4.546   4.305
 2427SOL     OW 8179   6.023   0.264   5.792
 2427SOL    HW1 8180   5.936   0.312   5.787
 2427SOL    HW2 8181   6.007   0.166   5.781
 2428SOL     OW 8182   6.220   0.651   0.690
 2428SOL    HW1 8183   6.280   0.730   0.700
 2428SOL    HW2 8184   6.126   0.683   0.674
 2429SOL     OW 8185   5.092   5.243   2.051
 2429SOL    HW1 8186   5.096   5.227   1.952
 2429SOL    HW2 8187   5.056   5.334   2.068
 2430SOL     OW 8188   5.146   0.213   2.604
 2430SOL    HW1 8189   5.213   0.267   2.553
 2430SOL    HW2 8190   5.072   0.185   2.543
 2431SOL     OW 8191   4.395   0.336   2.268
 2431SOL    HW1 8192   4.346   0.273   2.327
 2431SOL    HW2 8193   4.337   0.362   2.191
 2432SOL     OW 8194   2.508   5.998   2.796
 2432SOL    HW1 8195   2.459   5.912   2.782
 2432SOL    HW2 8196   2.559   5.994   2.881
 2433SOL     OW 8197   4.556   0.290   0.900
 2433SOL    HW1 8198   4.526   0.288   0.805
 2433SOL    HW2 8199   4.649   0.326   0.905
 2434SOL     OW 8200   3.826   3.122   5.038
 2434SOL    HW1 8201   3.834   3.052   5.108
 2434SOL    HW2 8202   3.892   3.106   4.965
 2435SOL     OW 8203   6.454   5.752   5.663
 2435SOL    HW1 8204   6.373   5.752   5.604
 2435SOL    HW2 8205   6.533   5.721   5.612
 2436SOL     OW 8206   3.014   4.935   0.875
 2436SOL    HW1 8207   3.024   5.006   0.805
 2436SOL    HW2 8208   2.960   4.860   0.839
 2437SOL     OW 8209   6.991   0.435   5.940
 2437SOL    HW1 8210   0.013   0.457   5.854
 2437SOL    HW2 8211   6.984   0.517   5.997
 2438SOL     OW 8212   2.842   3.256   0.869
 2438SOL    HW1 8213   2.883   3.182   0.817
 2438SOL    HW2 8214   2.912   3.322   0.896
 2439SOL     OW 8215   5.690   4.399   5.959
 2439SOL    HW1 8216   5.788   4.387   5.946
 2439SOL    HW2 8217   5.641   4.336   5.900
 2440SOL     OW 8218   5.544   4.894   5.558
 2440SOL    HW1 8219   5.619   4.917   5.621
 2440SOL    HW2 8220   5.554   4.946   5.474
 2441SOL     OW 8221   6.404   2.097   0.897
 2441SOL    HW1 8222   6.474   2.114   0.827
 2441SOL    HW2 8223   6.438   2.128   0.986
 2442SOL     OW 8224   0.229   2.202   5.525
 2442SOL    HW1 8225   0.204   2.107   5.508
 2442SOL    HW2 8226   0.146   2.259   5.527
 2443SOL     OW 8227   2.696   4.809   5.171
 2443SOL    HW1 8228   2.742   4.759   5.098
 2443SOL    HW2 8229   2.759   4.819   5.249
 2444SOL     OW 8230   3.354   2.830   5.553
 2444SOL    HW1 8231   3.324   2.811   5.647
 2444SOL    HW2 8232   3.313   2.762   5.491
 2445SOL     OW 8233   0.879   6.957   0.827
 2445SOL    HW1 8234   0.871   0.003   0.755
 2445SOL    HW2 8235   0.880   7.003   0.916
 2446SOL     OW 8236   5.359   3.287   6.132
 2446SOL    HW1 8237   5.300   3.365   6.155
 2446SOL    HW2 8238   5.306   3.218   6.083
 2447SOL     OW 8239   0.487   3.141   6.314
 2447SOL    HW1 8240   0.577   3.097   6.311
 2447SOL    HW2 8241   0.418   3.075   6.344
 2448SOL     OW 8242   6.981   6.933   4.085
 2448SOL    HW1 8243   7.016   6.847   4.124
 2448SOL    HW2 8244   0.031   6.980   4.038
 2449SOL     OW 8245   0.769   3.011   4.975
 2449SOL    HW1 8246   0.848   3.015   5.036
 2449SOL    HW2 8247   0.795   3.048   4.885
 2450SOL     OW 8248   2.082   2.642   1.635
 2450SOL    HW1 8249   2.046   2.735   1.626
 2450SOL    HW2 8250   2.074   2.613   1.730
 2451SOL     OW 8251   2.123   6.362   4.183
 2451SOL    HW1 8252   2.110   6.278   4.237
 2451SOL    HW2 8253   2.219   6.370   4.156
 2452SOL     OW 8254   2.294   2.546   4.469
 2452SOL    HW1 8255   2.270   2.482   4.396
 2452SOL    HW2 8256   2.389   2.531   4.496
 2453SOL     OW 8257   0.467   3.627   1.361
 2453SOL    HW1 8258   0.462   3.612   1.262
 2453SOL    HW2 8259   0.508   3.547   1.405
 2454SOL     OW 8260   2.065   0.115   1.761
 2454SOL    HW1 8261   2.100   0.069   1.844
 2454SOL    HW2 8262   2.141   0.135   1.700
 2455SOL     OW 8263   5.418   3.577   1.350
 2455SOL    HW1 8264   5.512   3.605   1.331
 2455SOL    HW2 8265   5.416   3.519   1.431
 2456SOL     OW 8266   2.538   0.042   1.143
 2456SOL    HW1 8267   2.600   7.021   1.079
 2456SOL    HW2 8268   2.453   7.014   1.151
 2457SOL     OW 8269   5.748   6.079   1.286
 2457SOL    HW1 8270   5.809   6.156   1.307
 2457SOL    HW2 8271   5.654   6.112   1.278
 2458SOL     OW 8272   0.303   6.264   1.779
 2458SOL    HW1 8273   0.366   6.210   1.835
 2458SOL    HW2 8274   0.306   6.231   1.685
 2459SOL     OW 8275   1.011   1.462   0.411
 2459SOL    HW1 8276   0.917   1.480   0.384
 2459SOL    HW2 8277   1.070   1.463   0.330
 2460SOL     OW 8278   2.846   4.541   1.391
 2460SOL    HW1 8279   2.882   4.471   1.452
 2460SOL    HW2 8280   2.793   4.607   1.443
 2461SOL     OW 8281   5.025   1.060   2.673
 2461SOL    HW1 8282   4.937   1.092   2.707
 2461SOL    HW2 8283   5.027   1.066   2.573
 2462SOL     OW 8284   2.568   3.957   6.151
 2462SOL    HW1 8285   2.609   3.921   6.234
 2462SOL    HW2 8286   2.483   3.909   6.131
 2463SOL     OW 8287   0.930   2.610   5.055
 2463SOL    HW1 8288   0.876   2.543   5.106
 2463SOL    HW2 8289   0.994   2.562   4.995
 2464SOL     OW 8290   0.982   3.318   0.499
 2464SOL    HW1 8291   1.070   3.342   0.458
 2464SOL    HW2 8292   0.948   3.233   0.458
 2465SOL     OW 8293   5.932   5.119   2.031
 2465SOL    HW1 8294   5.932   5.021   2.052
 2465SOL    HW2 8295   5.846   5.160   2.062
 2466SOL     OW 8296   3.720   1.235   1.606
 2466SOL    HW1 8297   3.820   1.226   1.614
 2466SOL    HW2 8298   3.691   1.321   1.648
 2467SOL     OW 8299   0.643   1.090   4.667
 2467SOL    HW1 8300   0.721   1.094   4.730
 2467SOL    HW2 8301   0.562   1.060   4.716
 2468SOL     OW 8302   6.127   4.502   0.081
 2468SOL    HW1 8303   6.091   4.453   0.001
 2468SOL    HW2 8304   6.083   4.591   0.088
 2469SOL     OW 8305   2.949   2.498   5.543
 2469SOL    HW1 8306   3.013   2.518   5.617
 2469SOL    HW2 8307   2.958   2.402   5.515
 2470SOL     OW 8308   5.482   2.752   0.731
 2470SOL    HW1 8309   5.477   2.660   0.693
 2470SOL    HW2 8310   5.442   2.752   0.823
 2471SOL     OW 8311   0.223   1.235   2.843
 2471SOL    HW1 8312   0.184   1.323   2.869
 2471SOL    HW2 8313   0.203   1.217   2.746
 2472SOL     OW 8314   5.838   1.286   3.612
 2472SOL    HW1 8315   5.748   1.270   3.570
 2472SOL    HW2 8316   5.902   1.317   3.542
 2473SOL     OW 8317   0.494   6.155   5.245
 2473SOL    HW1 8318   0.491   6.092   5.322
 2473SOL    HW2 8319   0.580   6.206   5.246
 2474SOL     OW 8320   6.359   6.630   4.322
 2474SOL    HW1 8321   6.391   6.623   4.417
 2474SOL    HW2 8322   6.386   6.718   4.284
 2475SOL     OW 8323   4.385   2.012   6.421
 2475SOL    HW1 8324   4.322   2.037   6.495
 2475SOL    HW2 8325   4.366   2.067   6.340
 2476SOL     OW 8326   0.535   1.275   3.425
 2476SOL    HW1 8327   0.447   1.282   3.379
 2476SOL    HW2 8328   0.560   1.179   3.435
 2477SOL     OW 8329   4.399   4.861   2.449
 2477SOL    HW1 8330   4.489   4.906   2.445
 2477SOL    HW2 8331   4.406   4.777   2.503
 2478SOL     OW 8332   0.200   6.955   2.267
 2478SOL    HW1 8333   0.134   6.993   2.202
 2478SOL    HW2 8334   0.247   6.877   2.225
 2479SOL     OW 8335   0.796   2.680   6.925
 2479SOL    HW1 8336   0.766   2.610   6.989
 2479SOL    HW2 8337   0.835   2.637   6.844
 2480SOL     OW 8338   6.602   5.147   1.728
 2480SOL    HW1 8339   6.518   5.179   1.685
 2480SOL    HW2 8340   6.629   5.060   1.687
 2481SOL     OW 8341   3.895   5.163   2.341
 2481SOL    HW1 8342   3.880   5.160   2.439
 2481SOL    HW2 8343   3.864   5.251   2.305
 2482SOL     OW 8344   4.643   2.470   5.220
 2482SOL    HW1 8345   4.569   2.468   5.152
 2482SOL    HW2 8346   4.622   2.406   5.293
 2483SOL     OW 8347   0.619   3.032   6.984
 2483SOL    HW1 8348   0.609   2.964   6.912
 2483SOL    HW2 8349   0.529   3.050   0.002
 2484SOL     OW 8350   3.851   4.046   5.858
 2484SOL    HW1 8351   3.915   4.110   5.901
 2484SOL    HW2 8352   3.761   4.055   5.901
 2485SOL     OW 8353   0.875   5.967   0.040
 2485SOL    HW1 8354   0.941   5.949   6.990
 2485SOL    HW2 8355   0.887   5.899   0.112
 2486SOL     OW 8356   0.603   5.544   3.863
 2486SOL    HW1 8357   0.590   5.447   3.843
 2486SOL    HW2 8358   0.626   5.556   3.960
 2487SOL     OW 8359   3.654   1.491   1.707
 2487SOL    HW1 8360   3.565   1.532   1.689
 2487SOL    HW2 8361   3.723   1.563   1.714
 2488SOL     OW 8362   3.417   6.083   6.548
 2488SOL    HW1 8363   3.394   6.180   6.539
 2488SOL    HW2 8364   3.416   6.057   6.644
 2489SOL     OW 8365   0.266   5.904   4.409
 2489SOL    HW1 8366   0.300   5.953   4.329
 2489SOL    HW2 8367   0.224   5.968   4.472
 2490SOL     OW 8368   5.805   2.985   1.471
 2490SOL    HW1 8369   5.716   3.022   1.496
 2490SOL    HW2 8370   5.854   2.958   1.554
 2491SOL     OW 8371   0.051   4.531   3.342
 2491SOL    HW1 8372   0.041   4.547   3.244
 2491SOL    HW2 8373   0.059   4.433   3.359
 2492SOL     OW 8374   4.337   1.586   6.303
 2492SOL    HW1 8375   4.296   1.543   6.222
 2492SOL    HW2 8376   4.321   1.529   6.383
 2493SOL     OW 8377   6.302   0.514   4.962
 2493SOL    HW1 8378   6.379   0.551   5.014
 2493SOL    HW2 8379   6.318   0.417   4.942
 2494SOL     OW 8380   4.551   5.152   1.174
 2494SOL    HW1 8381   4.458   5.143   1.136
 2494SOL    HW2 8382   4.617   5.144   1.099
 2495SOL     OW 8383   6.670   0.983   2.478
 2495SOL    HW1 8384   6.620   0.919   2.420
 2495SOL    HW2 8385   6.695   0.937   2.564
 2496SOL     OW 8386   1.941   5.235   0.697
 2496SOL    HW1 8387   1.970   5.317   0.746
 2496SOL    HW2 8388   2.020   5.191   0.655
 2497SOL     OW 8389   5.347   0.510   6.364
 2497SOL    HW1 8390   5.357   0.577   6.437
 2497SOL    HW2 8391   5.435   0.465   6.347
 2498SOL     OW 8392   0.799   3.088   4.715
 2498SOL    HW1 8393   0.744   3.163   4.680
 2498SOL    HW2 8394   0.810   3.018   4.644
 2499SOL     OW 8395   5.278   1.015   0.629
 2499SOL    HW1 8396   5.275   1.115   0.620
 2499SOL    HW2 8397   5.371   0.983   0.613
 2500SOL     OW 8398   4.466   3.754   6.507
 2500SOL    HW1 8399   4.389   3.766   6.445
 2500SOL    HW2 8400   4.496   3.844   6.541
 2501SOL     OW 8401   6.633   4.910   1.005
 2501SOL    HW1 8402   6.583   4.842   1.060
 2501SOL    HW2 8403   6.579   4.932   0.924
 2502SOL     OW 8404   0.464   0.787   3.569
 2502SOL    HW1 8405   0.415   0.849   3.631
 2502SOL    HW2 8406   0.429   0.694   3.582
 2503SOL     OW 8407   5.600   6.610   4.022
 2503SOL    HW1 8408   5.597   6.687   4.086
 2503SOL    HW2 8409   5.627   6.527   4.070
 2504SOL     OW 8410   2.543   4.561   3.091
 2504SOL    HW1 8411   2.614   4.621   3.127
 2504SOL    HW2 8412   2.521   4.588   2.997
 2505SOL     OW 8413   4.665   4.158   5.104
 2505SOL    HW1 8414   4.706   4.113   5.024
 2505SOL    HW2 8415   4.693   4.111   5.187
 2506SOL     OW 8416   0.834   0.807   0.679
 2506SOL    HW1 8417   0.887   0.834   0.760
 2506SOL    HW2 8418   0.807   0.888   0.628
 2507SOL     OW 8419   6.138   6.260   6.965
 2507SOL    HW1 8420   6.207   6.333   6.961
 2507SOL    HW2 8421   6.169   6.182   6.911
 2508SOL     OW 8422   1.699   2.377   1.844
 2508SOL    HW1 8423   1.601   2.366   1.855
 2508SOL    HW2 8424   1.717   2.441   1.769
 2509SOL     OW 8425   5.893   0.767   3.640
 2509SOL    HW1 8426   5.863   0.741   3.548
 2509SOL    HW2 8427   5.817   0.757   3.704
 2510SOL     OW 8428   4.221   6.439   2.464
 2510SOL    HW1 8429   4.204   6.364   2.528
 2510SOL    HW2 8430   4.263   6.515   2.513
 2511SOL     OW 8431   0.668   6.497   3.831
 2511SOL    HW1 8432   0.678   6.508   3.930
 2511SOL    HW2 8433   0.755   6.467   3.792
 2512SOL     OW 8434   6.053   3.813   4.390
 2512SOL    HW1 8435   6.142   3.779   4.361
 2512SOL    HW2 8436   6.063   3.903   4.432
 2513SOL     OW 8437   7.000   4.594   0.697
 2513SOL    HW1 8438   6.939   4.533   0.647
 2513SOL    HW2 8439   6.957   4.684   0.707
 2514SOL     OW 8440   7.013   2.184   3.541
 2514SOL    HW1 8441   0.055   2.250   3.577
 2514SOL    HW2 8442   0.038   2.108   3.498
 2515SOL     OW 8443   1.003   4.466   6.404
 2515SOL    HW1 8444   0.944   4.387   6.421
 2515SOL    HW2 8445   0.948   4.543   6.373
 2516SOL     OW 8446   5.271   6.589   3.773
 2516SOL    HW1 8447   5.298   6.674   3.818
 2516SOL    HW2 8448   5.303   6.590   3.678
 2517SOL     OW 8449   2.100   5.465   0.793
 2517SOL    HW1 8450   2.189   5.447   0.834
 2517SOL    HW2 8451   2.110   5.532   0.720
 2518SOL     OW 8452   2.664   2.744   0.230
 2518SOL    HW1 8453   2.670   2.685   0.310
 2518SOL    HW2 8454   2.596   2.815   0.247
 2519SOL     OW 8455   5.783   4.130   5.355
 2519SOL    HW1 8456   5.718   4.119   5.280
 2519SOL    HW2 8457   5.774   4.221   5.395
 2520SOL     OW 8458   3.378   5.606   1.447
 2520SOL    HW1 8459   3.287   5.613   1.404
 2520SOL    HW2 8460   3.429   5.532   1.404
 2521SOL     OW 8461   5.685   6.488   5.890
 2521SOL    HW1 8462   5.766   6.547   5.882
 2521SOL    HW2 8463   5.603   6.541   5.865
 2522SOL     OW 8464   2.267   5.083   5.085
 2522SOL    HW1 8465   2.336   5.090   5.157
 2522SOL    HW2 8466   2.189   5.031   5.119
 2523SOL     OW 8467   0.980   1.635   5.854
 2523SOL    HW1 8468   0.888   1.642   5.893
 2523SOL    HW2 8469   0.989   1.698   5.777
 2524SOL     OW 8470   1.761   0.108   4.377
 2524SOL    HW1 8471   1.751   0.124   4.278
 2524SOL    HW2 8472   1.734   0.014   4.398
 2525SOL     OW 8473   2.561   4.638   2.212
 2525SOL    HW1 8474   2.565   4.601   2.119
 2525SOL    HW2 8475   2.646   4.688   2.232
 2526SOL     OW 8476   1.375   2.647   4.697
 2526SOL    HW1 8477   1.385   2.711   4.773
 2526SOL    HW2 8478   1.459   2.594   4.687
 2527SOL     OW 8479   6.724   7.019   3.904
 2527SOL    HW1 8480   6.632   6.989   3.928
 2527SOL    HW2 8481   6.783   7.015   3.985
 2528SOL     OW 8482   5.216   5.700   0.349
 2528SOL    HW1 8483   5.261   5.726   0.434
 2528SOL    HW2 8484   5.218   5.777   0.285
 2529SOL     OW 8485   5.110   4.403   5.620
 2529SOL    HW1 8486   5.049   4.327   5.640
 2529SOL    HW2 8487   5.125   4.456   5.703
 2530SOL     OW 8488   0.983   6.276   3.469
 2530SOL    HW1 8489   0.948   6.184   3.449
 2530SOL    HW2 8490   0.964   6.336   3.391
 2531SOL     OW 8491   5.594   1.615   6.970
 2531SOL    HW1 8492   5.673   1.566   6.934
 2531SOL    HW2 8493   5.532   1.639   6.895
 2532SOL     OW 8494   1.008   5.145   5.384
 2532SOL    HW1 8495   0.955   5.162   5.301
 2532SOL    HW2 8496   1.056   5.058   5.375
 2533SOL     OW 8497   5.774   0.489   5.196
 2533SOL    HW1 8498   5.746   0.422   5.265
 2533SOL    HW2 8499   5.873   0.503   5.202
 2534SOL     OW 8500   6.428   1.479   3.742
 2534SOL    HW1 8501   6.441   1.456   3.839
 2534SOL    HW2 8502   6.487   1.421   3.686
 2535SOL     OW 8503   2.816   1.192   2.190
 2535SOL    HW1 8504   2.914   1.208   2.199
 2535SOL    HW2 8505   2.766   1.273   2.222
 2536SOL     OW 8506   0.259   0.568   4.200
 2536SOL    HW1 8507   0.188   0.499   4.213
 2536SOL    HW2 8508   0.261   0.598   4.105
 2537SOL     OW 8509   3.161   6.279   2.534
 2537SOL    HW1 8510   3.222   6.214   2.579
 2537SOL    HW2 8511   3.077   6.232   2.506
 2538SOL     OW 8512   0.545   5.095   5.537
 2538SOL    HW1 8513   0.573   5.179   5.490
 2538SOL    HW2 8514   0.624   5.057   5.587
 2539SOL     OW 8515   2.049   0.496   5.789
 2539SOL    HW1 8516   2.099   0.580   5.767
 2539SOL    HW2 8517   2.041   0.440   5.706
 2540SOL     OW 8518   4.823   2.279   2.687
 2540SOL    HW1 8519   4.873   2.213   2.631
 2540SOL    HW2 8520   4.768   2.338   2.629
 2541SOL     OW 8521   1.125   1.522   6.945
 2541SOL    HW1 8522   1.148   1.513   0.019
 2541SOL    HW2 8523   1.126   1.618   6.919
 2542SOL     OW 8524   3.957   1.592   3.339
 2542SOL    HW1 8525   3.944   1.662   3.268
 2542SOL    HW2 8526   4.055   1.580   3.356
 2543SOL     OW 8527   5.858   0.353   5.457
 2543SOL    HW1 8528   5.948   0.368   5.415
 2543SOL    HW2 8529   5.819   0.268   5.422
 2544SOL     OW 8530   0.147   6.749   1.151
 2544SOL    HW1 8531   0.216   6.793   1.093
 2544SOL    HW2 8532   0.183   6.739   1.244
 2545SOL     OW 8533   6.920   1.218   0.056
 2545SOL    HW1 8534   6.982   1.165   0.112
 2545SOL    HW2 8535   6.827   1.183   0.066
 2546SOL     OW 8536   6.317   3.747   2.478
 2546SOL    HW1 8537   6.288   3.732   2.573
 2546SOL    HW2 8538   6.254   3.812   2.435
 2547SOL     OW 8539   5.491   3.281   0.971
 2547SOL    HW1 8540   5.528   3.353   0.913
 2547SOL    HW2 8541   5.564   3.244   1.029
 2548SOL     OW 8542   6.455   0.428   5.278
 2548SOL    HW1 8543   6.480   0.392   5.188
 2548SOL    HW2 8544   6.531   0.415   5.342
 2549SOL     OW 8545   2.916   5.277   0.527
 2549SOL    HW1 8546   2.967   5.230   0.454
 2549SOL    HW2 8547   2.819   5.278   0.504
 2550SOL     OW 8548   3.793   6.974   1.308
 2550SOL    HW1 8549   3.715   6.922   1.341
 2550SOL    HW2 8550   3.810   0.028   1.370
 2551SOL     OW 8551   3.754   4.552   1.458
 2551SOL    HW1 8552   3.795   4.533   1.548
 2551SOL    HW2 8553   3.804   4.502   1.388
 2552SOL     OW 8554   2.454   4.605   1.585
 2552SOL    HW1 8555   2.455   4.530   1.651
 2552SOL    HW2 8556   2.511   4.582   1.507
 2553SOL     OW 8557   4.870   1.405   0.184
 2553SOL    HW1 8558   4.899   1.474   0.251
 2553SOL    HW2 8559   4.786   1.435   0.140
 2554SOL     OW 8560   0.859   5.468   0.980
 2554SOL    HW1 8561   0.837   5.395   0.915
 2554SOL    HW2 8562   0.809   5.550   0.955
 2555SOL     OW 8563   0.718   6.706   5.137
 2555SOL    HW1 8564   0.737   6.786   5.193
 2555SOL    HW2 8565   0.795   6.642   5.143
 2556SOL     OW 8566   5.138   0.031   0.815
 2556SOL    HW1 8567   5.073   6.999   0.763
 2556SOL    HW2 8568   5.213   6.996   0.846
 2557SOL     OW 8569   2.670   1.384   6.808
 2557SOL    HW1 8570   2.728   1.302   6.810
 2557SOL    HW2 8571   2.604   1.380   6.884
 2558SOL     OW 8572   5.024   2.053   1.489
 2558SOL    HW1 8573   5.032   1.980   1.421
 2558SOL    HW2 8574   5.114   2.076   1.524
 2559SOL     OW 8575   6.140   5.141   3.539
 2559SOL    HW1 8576   6.194   5.089   3.473
 2559SOL    HW2 8577   6.046   5.152   3.505
 2560SOL     OW 8578   4.519   2.439   2.060
 2560SOL    HW1 8579   4.527   2.493   1.976
 2560SOL    HW2 8580   4.575   2.481   2.131
 2561SOL     OW 8581   3.437   0.118   4.832
 2561SOL    HW1 8582   3.373   0.196   4.831
 2561SOL    HW2 8583   3.386   0.034   4.850
 2562SOL     OW 8584   1.650   6.889   5.230
 2562SOL    HW1 8585   1.688   6.913   5.319
 2562SOL    HW2 8586   1.695   6.808   5.195
 2563SOL     OW 8587   4.069   2.596   6.246
 2563SOL    HW1 8588   3.973   2.617   6.266
 2563SOL    HW2 8589   4.119   2.587   6.332
 2564SOL     OW 8590   1.408   1.275   0.624
 2564SOL    HW1 8591   1.437   1.187   0.588
 2564SOL    HW2 8592   1.467   1.301   0.701
 2565SOL     OW 8593   0.485   0.739   0.803
 2565SOL    HW1 8594   0.582   0.729   0.780
 2565SOL    HW2 8595   0.459   0.835   0.795
 2566SOL     OW 8596   3.129   1.587   0.808
 2566SOL    HW1 8597   3.123   1.668   0.750
 2566SOL    HW2 8598   3.189   1.520   0.765
 2567SOL     OW 8599   1.981   0.702   6.693
 2567SOL    HW1 8600   2.065   0.745   6.725
 2567SOL    HW2 8601   1.960   0.735   6.600
 2568SOL     OW 8602   2.470   5.799   0.958
 2568SOL    HW1 8603   2.486   5.886   1.004
 2568SOL    HW2 8604   2.377   5.798   0.920
 2569SOL     OW 8605   1.910   6.391   6.665
 2569SOL    HW1 8606   1.890   6.478   6.619
 2569SOL    HW2 8607   1.956   6.330   6.600
 2570SOL     OW 8608   0.389   6.887   3.896
 2570SOL    HW1 8609   0.443   6.834   3.831
 2570SOL    HW2 8610   0.384   6.839   3.983
 2571SOL     OW 8611   3.683   3.663   2.660
 2571SOL    HW1 8612   3.593   3.704   2.646
 2571SOL    HW2 8613   3.753   3.734   2.655
 2572SOL     OW 8614   2.280   5.795   2.485
 2572SOL    HW1 8615   2.352   5.773   2.419
 2572SOL    HW2 8616   2.203   5.838   2.438
 2573SOL     OW 8617   0.050   1.071   3.168
 2573SOL    HW1 8618   0.036   1.071   3.267
 2573SOL    HW2 8619   0.142   1.037   3.147
 2574SOL     OW 8620   0.365   3.542   2.063
 2574SOL    HW1 8621   0.427   3.620   2.059
 2574SOL    HW2 8622   0.410   3.467   2.112
 2575SOL     OW 8623   4.509   3.835   5.499
 2575SOL    HW1 8624   4.410   3.847   5.499
 2575SOL    HW2 8625   4.539   3.799   5.411
 2576SOL     OW 8626   0.826   0.318   3.187
 2576SOL    HW1 8627   0.727   0.312   3.203
 2576SOL    HW2 8628   0.874   0.312   3.274
 2577SOL     OW 8629   1.786   4.602   1.043
 2577SOL    HW1 8630   1.708   4.665   1.044
 2577SOL    HW2 8631   1.841   4.615   1.126
 2578SOL     OW 8632   4.506   2.766   5.132
 2578SOL    HW1 8633   4.502   2.766   5.032
 2578SOL    HW2 8634   4.568   2.838   5.164
 2579SOL     OW 8635   0.338   1.165   6.694
 2579SOL    HW1 8636   0.335   1.242   6.630
 2579SOL    HW2 8637   0.427   1.120   6.688
 2580SOL     OW 8638   1.795   2.129   5.347
 2580SOL    HW1 8639   1.886   2.133   5.387
 2580SOL    HW2 8640   1.727   2.110   5.419
 2581SOL     OW 8641   5.694   6.615   4.419
 2581SOL    HW1 8642   5.685   6.544   4.349
 2581SOL    HW2 8643   5.688   6.574   4.510
 2582SOL     OW 8644   6.753   4.553   3.212
 2582SOL    HW1 8645   6.843   4.557   3.169
 2582SOL    HW2 8646   6.692   4.620   3.169
 2583SOL     OW 8647   2.780   1.214   0.049
 2583SOL    HW1 8648   2.769   1.170   6.984
 2583SOL    HW2 8649   2.877   1.233   0.065
 2584SOL     OW 8650   4.481   0.851   3.300
 2584SOL    HW1 8651   4.569   0.804   3.308
 2584SOL    HW2 8652   4.469   0.913   3.377
 2585SOL     OW 8653   3.694   0.572   2.278
 2585SOL    HW1 8654   3.719   0.635   2.204
 2585SOL    HW2 8655   3.635   0.500   2.242
 2586SOL     OW 8656   0.663   1.816   3.944
 2586SOL    HW1 8657   0.581   1.783   3.990
 2586SOL    HW2 8658   0.637   1.852   3.854
 2587SOL     OW 8659   6.667   5.142   2.668
 2587SOL    HW1 8660   6.639   5.051   2.699
 2587SOL    HW2 8661   6.720   5.133   2.584
 2588SOL     OW 8662   3.829   6.632   2.654
 2588SOL    HW1 8663   3.772   6.585   2.586
 2588SOL    HW2 8664   3.784   6.718   2.680
 2589SOL     OW 8665   4.369   6.349   1.474
 2589SOL    HW1 8666   4.384   6.393   1.385
 2589SOL    HW2 8667   4.457   6.326   1.516
 2590SOL     OW 8668   3.653   5.992   3.930
 2590SOL    HW1 8669   3.603   6.077   3.912
 2590SOL    HW2 8670   3.751   6.008   3.920
 2591SOL     OW 8671   5.931   0.292   0.186
 2591SOL    HW1 8672   5.837   0.278   0.214
 2591SOL    HW2 8673   5.969   0.370   0.235
 2592SOL     OW 8674   2.828   4.816   1.776
 2592SOL    HW1 8675   2.769   4.885   1.820
 2592SOL    HW2 8676   2.832   4.735   1.835
 2593SOL     OW 8677   3.221   6.932   3.602
 2593SOL    HW1 8678   3.280   6.992   3.550
 2593SOL    HW2 8679   3.227   6.955   3.699
 2594SOL     OW 8680   1.844   5.974   0.017
 2594SOL    HW1 8681   1.874   5.911   0.089
 2594SOL    HW2 8682   1.749   6.001   0.034
 2595SOL     OW 8683   6.988   3.190   4.493
 2595SOL    HW1 8684   6.983   3.093   4.515
 2595SOL    HW2 8685   0.058   3.216   4.473
 2596SOL     OW 8686   4.350   1.835   1.212
 2596SOL    HW1 8687   4.339   1.892   1.293
 2596SOL    HW2 8688   4.270   1.776   1.202
 2597SOL     OW 8689   2.428   2.432   6.138
 2597SOL    HW1 8690   2.523   2.403   6.140
 2597SOL    HW2 8691   2.393   2.427   6.045
 2598SOL     OW 8692   0.045   0.819   2.633
 2598SOL    HW1 8693   0.090   0.892   2.581
 2598SOL    HW2 8694   0.095   0.803   2.717
 2599SOL     OW 8695   5.014   5.493   6.265
 2599SOL    HW1 8696   5.015   5.456   6.359
 2599SOL    HW2 8697   5.099   5.468   6.219
 2600SOL     OW 8698   0.765   2.401   4.607
 2600SOL    HW1 8699   0.694   2.380   4.539
 2600SOL    HW2 8700   0.795   2.496   4.595
 2601SOL     OW 8701   4.064   3.336   5.445
 2601SOL    HW1 8702   4.069   3.403   5.371
 2601SOL    HW2 8703   3.999   3.367   5.514
 2602SOL     OW 8704   6.086   6.388   6.229
 2602SOL    HW1 8705   6.067   6.365   6.324
 2602SOL    HW2 8706   6.000   6.407   6.181
 2603SOL     OW 8707   1.576   1.954   6.629
 2603SOL    HW1 8708   1.608   2.046   6.607
 2603SOL    HW2 8709   1.560   1.948   6.728
 2604SOL     OW 8710   5.256   1.627   0.992
 2604SOL    HW1 8711   5.263   1.680   1.077
 2604SOL    HW2 8712   5.267   1.689   0.914
 2605SOL     OW 8713   5.651   3.270   4.595
 2605SOL    HW1 8714   5.714   3.232   4.663
 2605SOL    HW2 8715   5.568   3.214   4.592
 2606SOL     OW 8716   6.542   4.614   1.615
 2606SOL    HW1 8717   6.483   4.689   1.586
 2606SOL    HW2 8718   6.510   4.528   1.576
 2607SOL     OW 8719   1.022   1.152   4.159
 2607SOL    HW1 8720   0.938   1.192   4.195
 2607SOL    HW2 8721   1.015   1.143   4.059
 2608SOL     OW 8722   4.785   0.383   0.512
 2608SOL    HW1 8723   4.701   0.342   0.549
 2608SOL    HW2 8724   4.859   0.372   0.578
 2609SOL     OW 8725   0.921   3.284   3.413
 2609SOL    HW1 8726   0.894   3.375   3.446
 2609SOL    HW2 8727   0.889   3.271   3.320
 2610SOL     OW 8728   5.293   5.847   4.707
 2610SOL    HW1 8729   5.241   5.762   4.710
 2610SOL    HW2 8730   5.239   5.917   4.660
 2611SOL     OW 8731   3.112   5.559   2.275
 2611SOL    HW1 8732   3.078   5.546   2.182
 2611SOL    HW2 8733   3.115   5.657   2.297
 2612SOL     OW 8734   0.459   0.422   5.462
 2612SOL    HW1 8735   0.427   0.335   5.501
 2612SOL    HW2 8736   0.448   0.494   5.531
 2613SOL     OW 8737   4.240   0.928   0.545
 2613SOL    HW1 8738   4.146   0.939   0.578
 2613SOL    HW2 8739   4.239   0.903   0.448
 2614SOL     OW 8740   6.278   5.777   6.751
 2614SOL    HW1 8741   6.282   5.785   6.651
 2614SOL    HW2 8742   6.316   5.689   6.779
 2615SOL     OW 8743   5.969   3.749   1.515
 2615SOL    HW1 8744   6.019   3.812   1.574
 2615SOL    HW2 8745   5.871   3.768   1.521
 2616SOL     OW 8746   4.146   3.775   1.958
 2616SOL    HW1 8747   4.173   3.826   2.039
 2616SOL    HW2 8748   4.168   3.828   1.876
 2617SOL     OW 8749   2.245   6.524   1.062
 2617SOL    HW1 8750   2.223   6.436   1.102
 2617SOL    HW2 8751   2.162   6.565   1.024
 2618SOL     OW 8752   1.514   6.580   0.217
 2618SOL    HW1 8753   1.549   6.567   0.310
 2618SOL    HW2 8754   1.589   6.611   0.158
 2619SOL     OW 8755   6.408   1.313   1.693
 2619SOL    HW1 8756   6.440   1.274   1.779
 2619SOL    HW2 8757   6.486   1.343   1.639
 2620SOL     OW 8758   1.336   5.928   4.314
 2620SOL    HW1 8759   1.246   5.964   4.289
 2620SOL    HW2 8760   1.349   5.838   4.272
 2621SOL     OW 8761   0.845   5.657   4.474
 2621SOL    HW1 8762   0.790   5.675   4.393
 2621SOL    HW2 8763   0.942   5.672   4.453
 2622SOL     OW 8764   2.244   2.339   4.833
 2622SOL    HW1 8765   2.301   2.416   4.807
 2622SOL    HW2 8766   2.149   2.368   4.840
 2623SOL     OW 8767   3.399   0.286   6.313
 2623SOL    HW1 8768   3.432   0.333   6.232
 2623SOL    HW2 8769   3.448   0.321   6.394
 2624SOL     OW 8770   5.933   2.220   4.166
 2624SOL    HW1 8771   5.990   2.259   4.093
 2624SOL    HW2 8772   5.860   2.166   4.126
 2625SOL     OW 8773   3.213   0.302   5.989
 2625SOL    HW1 8774   3.200   0.215   6.036
 2625SOL    HW2 8775   3.220   0.376   6.056
 2626SOL     OW 8776   1.504   6.881   2.534
 2626SOL    HW1 8777   1.498   6.902   2.631
 2626SOL    HW2 8778   1.415   6.852   2.500
 2627SOL     OW 8779   0.322   0.141   5.011
 2627SOL    HW1 8780   0.390   0.161   5.082
 2627SOL    HW2 8781   0.231   0.132   5.053
 2628SOL     OW 8782   4.230   5.995   0.463
 2628SOL    HW1 8783   4.220   6.094   0.472
 2628SOL    HW2 8784   4.328   5.972   0.458
 2629SOL     OW 8785   2.963   3.701   1.962
 2629SOL    HW1 8786   3.012   3.787   1.954
 2629SOL    HW2 8787   2.930   3.689   2.056
 2630SOL     OW 8788   3.046   2.198   2.649
 2630SOL    HW1 8789   3.042   2.197   2.749
 2630SOL    HW2 8790   3.134   2.161   2.618
 2631SOL     OW 8791   3.961   6.264   4.503
 2631SOL    HW1 8792   4.034   6.224   4.558
 2631SOL    HW2 8793   3.882   6.202   4.501
 2632SOL     OW 8794   4.916   1.428   1.097
 2632SOL    HW1 8795   4.943   1.487   1.174
 2632SOL    HW2 8796   4.844   1.365   1.126
 2633SOL     OW 8797   6.946   2.663   6.667
 2633SOL    HW1 8798   6.855   2.632   6.638
 2633SOL    HW2 8799   6.955   2.761   6.650
 2634SOL     OW 8800   3.400   4.863   0.784
 2634SOL    HW1 8801   3.470   4.878   0.713
 2634SOL    HW2 8802   3.330   4.800   0.749
 2635SOL     OW 8803   5.925   4.914   3.376
 2635SOL    HW1 8804   5.989   4.873   3.441
 2635SOL    HW2 8805   5.903   5.007   3.404
 2636SOL     OW 8806   5.927   5.899   5.431
 2636SOL    HW1 8807   5.941   5.984   5.482
 2636SOL    HW2 8808   5.829   5.883   5.419
 2637SOL     OW 8809   5.156   6.520   2.437
 2637SOL    HW1 8810   5.195   6.607   2.467
 2637SOL    HW2 8811   5.153   6.456   2.514
 2638SOL     OW 8812   4.803   5.726   1.211
 2638SOL    HW1 8813   4.731   5.735   1.142
 2638SOL    HW2 8814   4.884   5.778   1.182
 2639SOL     OW 8815   7.014   6.322   6.955
 2639SOL    HW1 8816   6.965   6.243   6.993
 2639SOL    HW2 8817   0.074   6.291   6.911
 2640SOL     OW 8818   6.504   6.806   6.332
 2640SOL    HW1 8819   6.564   6.882   6.306
 2640SOL    HW2 8820   6.545   6.720   6.302
 2641SOL     OW 8821   6.885   5.840   0.673
 2641SOL    HW1 8822   6.949   5.900   0.625
 2641SOL    HW2 8823   6.935   5.760   0.708
 2642SOL     OW 8824   6.498   0.618   3.967
 2642SOL    HW1 8825   6.574   0.593   4.028
 2642SOL    HW2 8826   6.479   0.716   3.976
 2643SOL     OW 8827   2.381   0.093   2.254
 2643SOL    HW1 8828   2.410   0.174   2.203
 2643SOL    HW2 8829   2.282   0.094   2.265
 2644SOL     OW 8830   6.994   5.890   4.822
 2644SOL    HW1 8831   6.975   5.847   4.734
 2644SOL    HW2 8832   6.966   5.829   4.896
 2645SOL     OW 8833   5.921   6.066   6.259
 2645SOL    HW1 8834   5.968   6.063   6.347
 2645SOL    HW2 8835   5.983   6.103   6.190
 2646SOL     OW 8836   5.927   6.081   6.752
 2646SOL    HW1 8837   5.876   6.027   6.818
 2646SOL    HW2 8838   6.020   6.095   6.786
 2647SOL     OW 8839   3.186   3.494   6.992
 2647SOL    HW1 8840   3.096   3.534   7.012
 2647SOL    HW2 8841   3.203   3.497   6.893
 2648SOL     OW 8842   4.119   1.356   3.510
 2648SOL    HW1 8843   4.214   1.327   3.495
 2648SOL    HW2 8844   4.113   1.455   3.501
 2649SOL     OW 8845   2.840   3.566   5.215
 2649SOL    HW1 8846   2.877   3.564   5.122
 2649SOL    HW2 8847   2.885   3.638   5.268
 2650SOL     OW 8848   0.179   6.561   2.797
 2650SOL    HW1 8849   0.239   6.484   2.777
 2650SOL    HW2 8850   0.096   6.554   2.741
 2651SOL     OW 8851   1.015   0.329   3.420
 2651SOL    HW1 8852   1.115   0.340   3.419
 2651SOL    HW2 8853   0.978   0.373   3.502
 2652SOL     OW 8854   3.040   3.397   2.814
 2652SOL    HW1 8855   3.009   3.339   2.889
 2652SOL    HW2 8856   3.088   3.342   2.746
 2653SOL     OW 8857   0.065   6.005   0.554
 2653SOL    HW1 8858   0.039   6.056   0.473
 2653SOL    HW2 8859   0.165   5.995   0.557
 2654SOL     OW 8860   6.584   1.664   6.091
 2654SOL    HW1 8861   6.627   1.575   6.077
 2654SOL    HW2 8862   6.654   1.735   6.093
 2655SOL     OW 8863   5.361   5.152   4.697
 2655SOL    HW1 8864   5.288   5.215   4.721
 2655SOL    HW2 8865   5.358   5.133   4.599
 2656SOL     OW 8866   5.970   3.497   4.960
 2656SOL    HW1 8867   6.001   3.419   4.904
 2656SOL    HW2 8868   5.899   3.467   5.023
 2657SOL     OW 8869   3.834   2.081   6.088
 2657SOL    HW1 8870   3.736   2.069   6.072
 2657SOL    HW2 8871   3.849   2.162   6.145
 2658SOL     OW 8872   5.958   4.077   5.093
 2658SOL    HW1 8873   5.912   4.039   5.174
 2658SOL    HW2 8874   6.051   4.104   5.118
 2659SOL     OW 8875   6.719   1.583   3.717
 2659SOL    HW1 8876   6.746   1.583   3.620
 2659SOL    HW2 8877   6.748   1.497   3.759
 2660SOL     OW 8878   0.273   2.169   3.004
 2660SOL    HW1 8879   0.308   2.255   3.041
 2660SOL    HW2 8880   0.182   2.151   3.042
 2661SOL     OW 8881   3.356   0.084   3.111
 2661SOL    HW1 8882   3.378   0.031   3.192
 2661SOL    HW2 8883   3.356   0.181   3.134
 2662SOL     OW 8884   3.596   1.139   3.587
 2662SOL    HW1 8885   3.561   1.182   3.671
 2662SOL    HW2 8886   3.663   1.199   3.544
 2663SOL     OW 8887   0.358   4.570   3.096
 2663SOL    HW1 8888   0.341   4.501   3.166
 2663SOL    HW2 8889   0.457   4.584   3.086
 2664SOL     OW 8890   4.179   3.978   1.741
 2664SOL    HW1 8891   4.271   4.014   1.759
 2664SOL    HW2 8892   4.111   4.042   1.776
 2665SOL     OW 8893   4.621   6.902   4.891
 2665SOL    HW1 8894   4.683   6.892   4.813
 2665SOL    HW2 8895   4.528   6.880   4.864
 2666SOL     OW 8896   4.522   6.231   1.728
 2666SOL    HW1 8897   4.454   6.166   1.695
 2666SOL    HW2 8898   4.479   6.295   1.792
 2667SOL     OW 8899   2.023   5.391   3.374
 2667SOL    HW1 8900   2.084   5.314   3.394
 2667SOL    HW2 8901   2.057   5.473   3.422
 2668SOL     OW 8902   6.414   2.466   5.428
 2668SOL    HW1 8903   6.353   2.421   5.363
 2668SOL    HW2 8904   6.504   2.478   5.385
 2669SOL     OW 8905   4.148   6.142   5.189
 2669SOL    HW1 8906   4.117   6.175   5.099
 2669SOL    HW2 8907   4.230   6.086   5.177
 2670SOL     OW 8908   2.994   6.588   4.324
 2670SOL    HW1 8909   3.049   6.553   4.400
 2670SOL    HW2 8910   3.035   6.673   4.290
 2671SOL     OW 8911   3.390   4.344   6.284
 2671SOL    HW1 8912   3.363   4.298   6.200
 2671SOL    HW2 8913   3.349   4.435   6.287
 2672SOL     OW 8914   0.752   4.257   6.974
 2672SOL    HW1 8915   0.829   4.321   6.976
 2672SOL    HW2 8916   0.715   4.251   6.882
 2673SOL     OW 8917   3.531   2.110   3.426
 2673SOL    HW1 8918   3.473   2.104   3.345
 2673SOL    HW2 8919   3.617   2.155   3.403
 2674SOL     OW 8920   6.469   5.735   5.173
 2674SOL    HW1 8921   6.540   5.789   5.129
 2674SOL    HW2 8922   6.387   5.792   5.185
 2675SOL     OW 8923   0.180   4.796   5.763
 2675SOL    HW1 8924   0.249   4.790   5.691
 2675SOL    HW2 8925   0.104   4.736   5.742
 2676SOL     OW 8926   4.619   0.353   1.728
 2676SOL    HW1 8927   4.544   0.400   1.681
 2676SOL    HW2 8928   4.596   0.257   1.739
 2677SOL     OW 8929   2.282   4.570   2.256
 2677SOL    HW1 8930   2.246   4.651   2.210
 2677SOL    HW2 8931   2.378   4.558   2.232
 2678SOL     OW 8932   0.553   6.311   6.386
 2678SOL    HW1 8933   0.532   6.250   6.309
 2678SOL    HW2 8934   0.547   6.260   6.472
 2679SOL     OW 8935   2.677   5.359   1.911
 2679SOL    HW1 8936   2.709   5.273   1.872
 2679SOL    HW2 8937   2.652   5.346   2.007
 2680SOL     OW 8938   1.206   2.807   1.261
 2680SOL    HW1 8939   1.279   2.870   1.235
 2680SOL    HW2 8940   1.213   2.724   1.205
 2681SOL     OW 8941   1.917   1.782   2.034
 2681SOL    HW1 8942   1.945   1.878   2.039
 2681SOL    HW2 8943   1.871   1.765   1.947
 2682SOL     OW 8944   6.583   2.640   4.203
 2682SOL    HW1 8945   6.524   2.662   4.125
 2682SOL    HW2 8946   6.672   2.682   4.191
 2683SOL     OW 8947   1.766   6.942   0.225
 2683SOL    HW1 8948   1.762   6.865   0.161
 2683SOL    HW2 8949   1.834   6.924   0.296
 2684SOL     OW 8950   2.481   5.421   2.667
 2684SOL    HW1 8951   2.505   5.504   2.616
 2684SOL    HW2 8952   2.537   5.415   2.749
 2685SOL     OW 8953   5.457   5.685   5.642
 2685SOL    HW1 8954   5.365   5.709   5.611
 2685SOL    HW2 8955   5.523   5.750   5.605
 2686SOL     OW 8956   1.264   3.236   5.165
 2686SOL    HW1 8957   1.333   3.275   5.226
 2686SOL    HW2 8958   1.308   3.194   5.086
 2687SOL     OW 8959   4.578   4.847   3.423
 2687SOL    HW1 8960   4.660   4.850   3.366
 2687SOL    HW2 8961   4.562   4.753   3.453
 2688SOL     OW 8962   3.795   4.414   5.824
 2688SOL    HW1 8963   3.773   4.331   5.876
 2688SOL    HW2 8964   3.731   4.423   5.748
 2689SOL     OW 8965   6.426   2.798   4.557
 2689SOL    HW1 8966   6.397   2.860   4.630
 2689SOL    HW2 8967   6.373   2.817   4.474
 2690SOL     OW 8968   3.280   3.154   3.776
 2690SOL    HW1 8969   3.259   3.110   3.689
 2690SOL    HW2 8970   3.375   3.186   3.775
 2691SOL     OW 8971   1.479   6.374   1.701
 2691SOL    HW1 8972   1.559   6.325   1.664
 2691SOL    HW2 8973   1.464   6.346   1.796
 2692SOL     OW 8974   0.047   5.035   3.413
 2692SOL    HW1 8975   0.015   5.110   3.354
 2692SOL    HW2 8976   0.145   5.020   3.397
 2693SOL     OW 8977   1.817   3.472   3.039
 2693SOL    HW1 8978   1.864   3.538   2.981
 2693SOL    HW2 8979   1.721   3.499   3.050
 2694SOL     OW 8980   1.997   1.517   2.716
 2694SOL    HW1 8981   1.944   1.478   2.790
 2694SOL    HW2 8982   2.048   1.596   2.749
 2695SOL     OW 8983   4.055   2.258   2.728
 2695SOL    HW1 8984   4.098   2.168   2.721
 2695SOL    HW2 8985   4.074   2.310   2.645
 2696SOL     OW 8986   3.946   3.677   5.370
 2696SOL    HW1 8987   3.910   3.766   5.395
 2696SOL    HW2 8988   4.044   3.685   5.351
 2697SOL     OW 8989   2.418   1.094   5.027
 2697SOL    HW1 8990   2.334   1.146   5.045
 2697SOL    HW2 8991   2.410   1.048   4.939
 2698SOL     OW 8992   1.935   2.655   6.612
 2698SOL    HW1 8993   1.922   2.566   6.656
 2698SOL    HW2 8994   1.854   2.678   6.559
 2699SOL     OW 8995   1.726   5.664   3.264
 2699SOL    HW1 8996   1.724   5.700   3.171
 2699SOL    HW2 8997   1.799   5.709   3.316
 2700SOL     OW 8998   2.045   4.470   3.212
 2700SOL    HW1 8999   2.101   4.405   3.265
 2700SOL    HW2 9000   1.978   4.419   3.159
 2701SOL     OW 9001   3.242   0.557   5.625
 2701SOL    HW1 9002   3.252   0.592   5.532
 2701SOL    HW2 9003   3.278   0.623   5.690
 2702SOL     OW 9004   6.658   6.254   2.504
 2702SOL    HW1 9005   6.568   6.293   2.523
 2702SOL    HW2 9006   6.680   6.186   2.574
 2703SOL     OW 9007   1.799   1.994   3.099
 2703SOL    HW1 9008   1.700   2.002   3.098
 2703SOL    HW2 9009   1.830   1.973   3.192
 2704SOL     OW 9010   1.500   5.942   0.618
 2704SOL    HW1 9011   1.488   5.997   0.700
 2704SOL    HW2 9012   1.437   5.973   0.547
 2705SOL     OW 9013   0.271   3.854   2.743
 2705SOL    HW1 9014   0.245   3.931   2.801
 2705SOL    HW2 9015   0.341   3.800   2.789
 2706SOL     OW 9016   6.558   2.394   3.511
 2706SOL    HW1 9017   6.555   2.341   3.596
 2706SOL    HW2 9018   6.653   2.421   3.491
 2707SOL     OW 9019   2.857   1.313   6.461
 2707SOL    HW1 9020   2.805   1.295   6.545
 2707SOL    HW2 9021   2.930   1.378   6.481
 2708SOL     OW 9022   1.420   4.615   0.172
 2708SOL    HW1 9023   1.443   4.535   0.116
 2708SOL    HW2 9024   1.474   4.693   0.141
 2709SOL     OW 9025   4.771   6.637   1.552
 2709SOL    HW1 9026   4.716   6.623   1.634
 2709SOL    HW2 9027   4.789   6.549   1.508
 2710SOL     OW 9028   6.613   4.049   2.604
 2710SOL    HW1 9029   6.648   4.143   2.613
 2710SOL    HW2 9030   6.555   4.042   2.524
 2711SOL     OW 9031   1.207   6.847   2.486
 2711SOL    HW1 9032   1.151   6.785   2.431
 2711SOL    HW2 9033   1.151   6.883   2.561
 2712SOL     OW 9034   3.655   5.337   2.735
 2712SOL    HW1 9035   3.565   5.318   2.773
 2712SOL    HW2 9036   3.646   5.372   2.641
 2713SOL     OW 9037   2.010   2.611   5.544
 2713SOL    HW1 9038   2.106   2.602   5.568
 2713SOL    HW2 9039   1.992   2.564   5.458
 2714SOL     OW 9040   5.797   0.078   6.395
 2714SOL    HW1 9041   5.793   7.007   6.363
 2714SOL    HW2 9042   5.807   0.140   6.317
 2715SOL     OW 9043   6.181   0.353   6.922
 2715SOL    HW1 9044   6.164   0.394   7.011
 2715SOL    HW2 9045   6.141   0.261   6.919
 2716SOL     OW 9046   6.415   6.594   2.175
 2716SOL    HW1 9047   6.507   6.628   2.155
 2716SOL    HW2 9048   6.420   6.496   2.198
 2717SOL     OW 9049   0.880   0.101   3.401
 2717SOL    HW1 9050   0.945   0.027   3.383
 2717SOL    HW2 9051   0.927   0.188   3.402
 2718SOL     OW 9052   0.750   4.232   3.374
 2718SOL    HW1 9053   0.770   4.330   3.381
 2718SOL    HW2 9054   0.788   4.196   3.289
 2719SOL     OW 9055   4.327   4.937   3.182
 2719SOL    HW1 9056   4.372   4.888   3.257
 2719SOL    HW2 9057   4.397   4.982   3.126
 2720SOL     OW 9058   1.196   6.358   4.230
 2720SOL    HW1 9059   1.138   6.296   4.177
 2720SOL    HW2 9060   1.285   6.366   4.184
 2721SOL     OW 9061   4.989   6.477   3.790
 2721SOL    HW1 9062   5.087   6.482   3.774
 2721SOL    HW2 9063   4.968   6.394   3.842
 2722SOL     OW 9064   1.201   6.033   1.713
 2722SOL    HW1 9065   1.237   6.089   1.787
 2722SOL    HW2 9066   1.249   5.945   1.711
 2723SOL     OW 9067   2.133   1.837   4.448
 2723SOL    HW1 9068   2.217   1.785   4.467
 2723SOL    HW2 9069   2.055   1.788   4.486
 2724SOL     OW 9070   4.010   5.893   6.176
 2724SOL    HW1 9071   4.045   5.961   6.112
 2724SOL    HW2 9072   4.078   5.821   6.189
 2725SOL     OW 9073   2.805   4.790   3.891
 2725SOL    HW1 9074   2.764   4.719   3.833
 2725SOL    HW2 9075   2.752   4.875   3.882
 2726SOL     OW 9076   4.865   6.612   2.569
 2726SOL    HW1 9077   4.840   6.521   2.602
 2726SOL    HW2 9078   4.940   6.605   2.503
 2727SOL     OW 9079   2.042   6.087   4.022
 2727SOL    HW1 9080   2.042   6.075   3.922
 2727SOL    HW2 9081   2.135   6.108   4.053
 2728SOL     OW 9082   2.763   6.825   5.293
 2728SOL    HW1 9083   2.839   6.837   5.358
 2728SOL    HW2 9084   2.694   6.895   5.309
 2729SOL     OW 9085   7.003   4.821   2.974
 2729SOL    HW1 9086   6.964   4.793   2.886
 2729SOL    HW2 9087   6.981   4.916   2.992
 2730SOL     OW 9088   1.316   4.712   1.114
 2730SOL    HW1 9089   1.311   4.662   1.200
 2730SOL    HW2 9090   1.260   4.666   1.045
 2731SOL     OW 9091   2.751   3.802   1.015
 2731SOL    HW1 9092   2.686   3.842   1.079
 2731SOL    HW2 9093   2.842   3.798   1.057
 2732SOL     OW 9094   5.165   3.326   4.734
 2732SOL    HW1 9095   5.077   3.303   4.691
 2732SOL    HW2 9096   5.148   3.376   4.820
 2733SOL     OW 9097   2.101   0.436   6.491
 2733SOL    HW1 9098   2.055   0.444   6.402
 2733SOL    HW2 9099   2.195   0.467   6.482
 2734SOL     OW 9100   2.441   0.254   4.251
 2734SOL    HW1 9101   2.359   0.288   4.298
 2734SOL    HW2 9102   2.511   0.326   4.251
 2735SOL     OW 9103   1.391   5.548   1.391
 2735SOL    HW1 9104   1.325   5.488   1.437
 2735SOL    HW2 9105   1.424   5.617   1.456
 2736SOL     OW 9106   3.935   6.848   6.339
 2736SOL    HW1 9107   4.003   6.822   6.407
 2736SOL    HW2 9108   3.846   6.858   6.384
 2737SOL     OW 9109   4.302   3.335   5.641
 2737SOL    HW1 9110   4.283   3.327   5.543
 2737SOL    HW2 9111   4.224   3.375   5.688
 2738SOL     OW 9112   5.833   3.909   3.977
 2738SOL    HW1 9113   5.883   3.899   3.891
 2738SOL    HW2 9114   5.846   4.002   4.012
 2739SOL     OW 9115   4.865   4.329   0.512
 2739SOL    HW1 9116   4.824   4.369   0.430
 2739SOL    HW2 9117   4.932   4.392   0.551
 2740SOL     OW 9118   6.223   2.488   4.213
 2740SOL    HW1 9119   6.221   2.397   4.171
 2740SOL    HW2 9120   6.301   2.494   4.276
 2741SOL     OW 9121   2.166   3.371   4.763
 2741SOL    HW1 9122   2.210   3.307   4.700
 2741SOL    HW2 9123   2.074   3.339   4.785
 2742SOL     OW 9124   2.715   6.271   5.540
 2742SOL    HW1 9125   2.725   6.198   5.473
 2742SOL    HW2 9126   2.699   6.232   5.631
 2743SOL     OW 9127   5.834   4.639   7.005
 2743SOL    HW1 9128   5.835   4.601   6.913
 2743SOL    HW2 9129   5.928   4.654   0.013
 2744SOL     OW 9130   4.691   6.904   0.352
 2744SOL    HW1 9131   4.758   6.955   0.406
 2744SOL    HW2 9132   4.643   6.967   0.290
 2745SOL     OW 9133   2.908   5.974   2.140
 2745SOL    HW1 9134   2.984   6.026   2.177
 2745SOL    HW2 9135   2.939   5.920   2.062
 2746SOL     OW 9136   1.041   2.209   6.086
 2746SOL    HW1 9137   0.983   2.160   6.020
 2746SOL    HW2 9138   1.081   2.143   6.149
 2747SOL     OW 9139   5.283   5.917   3.569
 2747SOL    HW1 9140   5.244   5.854   3.636
 2747SOL    HW2 9141   5.293   5.870   3.481
 2748SOL     OW 9142   5.259   0.656   4.842
 2748SOL    HW1 9143   5.210   0.742   4.826
 2748SOL    HW2 9144   5.193   0.583   4.859
 2749SOL     OW 9145   4.840   4.649   3.590
 2749SOL    HW1 9146   4.908   4.722   3.593
 2749SOL    HW2 9147   4.768   4.668   3.656
 2750SOL     OW 9148   0.919   6.793   0.464
 2750SOL    HW1 9149   0.964   6.881   0.479
 2750SOL    HW2 9150   0.974   6.739   0.399
 2751SOL     OW 9151   1.900   0.112   6.666
 2751SOL    HW1 9152   1.840   0.170   6.722
 2751SOL    HW2 9153   1.996   0.136   6.685
 2752SOL     OW 9154   0.450   6.769   6.164
 2752SOL    HW1 9155   0.506   6.740   6.241
 2752SOL    HW2 9156   0.430   6.691   6.105
 2753SOL     OW 9157   3.580   5.328   5.387
 2753SOL    HW1 9158   3.594   5.274   5.469
 2753SOL    HW2 9159   3.607   5.423   5.405
 2754SOL     OW 9160   0.807   5.943   4.325
 2754SOL    HW1 9161   0.737   5.933   4.255
 2754SOL    HW2 9162   0.764   5.962   4.413
 2755SOL     OW 9163   4.782   6.226   2.503
 2755SOL    HW1 9164   4.832   6.267   2.427
 2755SOL    HW2 9165   4.794   6.281   2.585
 2756SOL     OW 9166   0.252   2.914   5.269
 2756SOL    HW1 9167   0.250   2.815   5.255
 2756SOL    HW2 9168   0.336   2.951   5.231
 2757SOL     OW 9169   5.167   3.924   6.414
 2757SOL    HW1 9170   5.130   3.890   6.500
 2757SOL    HW2 9171   5.132   4.016   6.396
 2758SOL     OW 9172   0.192   6.670   1.931
 2758SOL    HW1 9173   0.105   6.665   1.980
 2758SOL    HW2 9174   0.264   6.700   1.994
 2759SOL     OW 9175   3.480   3.723   5.108
 2759SOL    HW1 9176   3.420   3.643   5.111
 2759SOL    HW2 9177   3.425   3.805   5.089
 2760SOL     OW 9178   5.528   5.619   2.678
 2760SOL    HW1 9179   5.573   5.708   2.677
 2760SOL    HW2 9180   5.464   5.614   2.755
 2761SOL     OW 9181   1.188   3.287   3.934
 2761SOL    HW1 9182   1.204   3.237   3.849
 2761SOL    HW2 9183   1.266   3.348   3.952
 2762SOL     OW 9184   3.984   1.283   1.679
 2762SOL    HW1 9185   4.044   1.348   1.633
 2762SOL    HW2 9186   3.971   1.311   1.774
 2763SOL     OW 9187   5.906   1.121   4.126
 2763SOL    HW1 9188   5.914   1.214   4.160
 2763SOL    HW2 9189   5.934   1.119   4.030
 2764SOL     OW 9190   0.085   2.817   3.494
 2764SOL    HW1 9191   0.102   2.870   3.411
 2764SOL    HW2 9192   0.055   2.725   3.469
 2765SOL     OW 9193   0.136   6.552   6.109
 2765SOL    HW1 9194   0.158   6.470   6.162
 2765SOL    HW2 9195   0.131   6.529   6.012
 2766SOL     OW 9196   4.566   0.087   0.191
 2766SOL    HW1 9197   4.627   0.130   0.124
 2766SOL    HW2 9198   4.520   0.159   0.245
 2767SOL     OW 9199   0.441   5.531   5.681
 2767SOL    HW1 9200   0.374   5.464   5.647
 2767SOL    HW2 9201   0.424   5.549   5.778
 2768SOL     OW 9202   3.468   6.235   1.491
 2768SOL    HW1 9203   3.419   6.186   1.563
 2768SOL    HW2 9204   3.558   6.264   1.526
 2769SOL     OW 9205   0.730   5.002   5.694
 2769SOL    HW1 9206   0.808   5.061   5.674
 2769SOL    HW2 9207   0.760   4.907   5.699
 2770SOL     OW 9208   2.252   6.687   0.400
 2770SOL    HW1 9209   2.273   6.751   0.326
 2770SOL    HW2 9210   2.284   6.725   0.487
 2771SOL     OW 9211   4.150   6.827   5.144
 2771SOL    HW1 9212   4.187   6.756   5.203
 2771SOL    HW2 9213   4.218   6.898   5.129
 2772SOL     OW 9214   5.341   1.819   3.660
 2772SOL    HW1 9215   5.248   1.791   3.685
 2772SOL    HW2 9216   5.389   1.743   3.617
 2773SOL     OW 9217   5.761   2.454   6.372
 2773SOL    HW1 9218   5.773   2.424   6.467
 2773SOL    HW2 9219   5.701   2.534   6.369
 2774SOL     OW 9220   6.682   0.252   4.240
 2774SOL    HW1 9221   6.781   0.264   4.228
 2774SOL    HW2 9222   6.635   0.283   4.158
 2775SOL     OW 9223   0.431   2.196   4.606
 2775SOL    HW1 9224   0.362   2.153   4.548
 2775SOL    HW2 9225   0.474   2.272   4.555
 2776SOL     OW 9226   4.533   4.010   6.324
 2776SOL    HW1 9227   4.500   4.009   6.418
 2776SOL    HW2 9228   4.606   4.078   6.316
 2777SOL     OW 9229   1.957   2.227   0.179
 2777SOL    HW1 9230   2.005   2.291   0.239
 2777SOL    HW2 9231   1.899   2.278   0.115
 2778SOL     OW 9232   3.268   0.273   5.709
 2778SOL    HW1 9233   3.288   0.367   5.680
 2778SOL    HW2 9234   3.261   0.270   5.808
 2779SOL     OW 9235   5.475   1.253   2.550
 2779SOL    HW1 9236   5.395   1.242   2.491
 2779SOL    HW2 9237   5.558   1.227   2.499
 2780SOL     OW 9238   0.367   1.031   4.760
 2780SOL    HW1 9239   0.377   1.111   4.820
 2780SOL    HW2 9240   0.331   1.060   4.672
 2781SOL     OW 9241   0.517   0.502   2.984
 2781SOL    HW1 9242   0.548   0.451   2.904
 2781SOL    HW2 9243   0.521   0.600   2.964
 2782SOL     OW 9244   5.482   6.871   5.368
 2782SOL    HW1 9245   5.480   6.961   5.411
 2782SOL    HW2 9246   5.390   6.833   5.365
 2783SOL     OW 9247   5.594   2.749   1.355
 2783SOL    HW1 9248   5.590   2.702   1.443
 2783SOL    HW2 9249   5.502   2.774   1.326
 2784SOL     OW 9250   0.300   2.724   2.046
 2784SOL    HW1 9251   0.307   2.664   1.967
 2784SOL    HW2 9252   0.229   2.793   2.029
 2785SOL     OW 9253   5.223   3.660   3.160
 2785SOL    HW1 9254   5.246   3.733   3.224
 2785SOL    HW2 9255   5.264   3.574   3.192
 2786SOL     OW 9256   0.293   5.668   0.486
 2786SOL    HW1 9257   0.281   5.720   0.570
 2786SOL    HW2 9258   0.294   5.570   0.506
 2787SOL     OW 9259   0.513   6.258   5.627
 2787SOL    HW1 9260   0.549   6.201   5.553
 2787SOL    HW2 9261   0.586   6.276   5.693
 2788SOL     OW 9262   3.102   6.563   0.645
 2788SOL    HW1 9263   3.063   6.633   0.585
 2788SOL    HW2 9264   3.103   6.597   0.740
 2789SOL     OW 9265   1.782   2.016   3.787
 2789SOL    HW1 9266   1.882   2.018   3.784
 2789SOL    HW2 9267   1.751   2.033   3.881
 2790SOL     OW 9268   6.864   5.521   1.598
 2790SOL    HW1 9269   6.876   5.423   1.616
 2790SOL    HW2 9270   6.842   5.568   1.684
 2791SOL     OW 9271   0.556   3.173   5.051
 2791SOL    HW1 9272   0.518   3.202   4.964
 2791SOL    HW2 9273   0.622   3.099   5.036
 2792SOL     OW 9274   3.195   1.975   5.799
 2792SOL    HW1 9275   3.212   2.071   5.780
 2792SOL    HW2 9276   3.201   1.958   5.897
 2793SOL     OW 9277   3.954   3.371   6.691
 2793SOL    HW1 9278   3.988   3.465   6.698
 2793SOL    HW2 9279   3.857   3.373   6.666
 2794SOL     OW 9280   1.817   1.994   6.806
 2794SOL    HW1 9281   1.803   2.084   6.764
 2794SOL    HW2 9282   1.731   1.961   6.844
 2795SOL     OW 9283   1.655   6.797   0.631
 2795SOL    HW1 9284   1.558   6.811   0.652
 2795SOL    HW2 9285   1.711   6.851   0.694
 2796SOL     OW 9286   2.558   5.789   0.061
 2796SOL    HW1 9287   2.490   5.842   0.009
 2796SOL    HW2 9288   2.612   5.852   0.117
 2797SOL     OW 9289   4.980   3.654   4.131
 2797SOL    HW1 9290   4.948   3.698   4.215
 2797SOL    HW2 9291   5.079   3.666   4.123
 2798SOL     OW 9292   5.289   2.104   2.380
 2798SOL    HW1 9293   5.343   2.136   2.458
 2798SOL    HW2 9294   5.205   2.158   2.373
 2799SOL     OW 9295   3.286   6.429   5.328
 2799SOL    HW1 9296   3.222   6.372   5.276
 2799SOL    HW2 9297   3.368   6.377   5.348
 2800SOL     OW 9298   4.909   1.174   0.041
 2800SOL    HW1 9299   4.971   1.100   0.067
 2800SOL    HW2 9300   4.916   1.249   0.107
 2801SOL     OW 9301   0.507   4.537   3.933
 2801SOL    HW1 9302   0.490   4.518   3.837
 2801SOL    HW2 9303   0.488   4.633   3.952
 2802SOL     OW 9304   1.304   5.112   4.830
 2802SOL    HW1 9305   1.262   5.089   4.742
 2802SOL    HW2 9306   1.400   5.085   4.828
 2803SOL     OW 9307   3.330   2.157   6.562
 2803SOL    HW1 9308   3.430   2.151   6.567
 2803SOL    HW2 9309   3.298   2.232   6.620
 2804SOL     OW 9310   6.584   3.017   3.756
 2804SOL    HW1 9311   6.519   3.052   3.823
 2804SOL    HW2 9312   6.560   2.923   3.731
 2805SOL     OW 9313   4.438   4.354   0.874
 2805SOL    HW1 9314   4.519   4.343   0.816
 2805SOL    HW2 9315   4.454   4.313   0.963
 2806SOL     OW 9316   0.524   3.330   4.821
 2806SOL    HW1 9317   0.475   3.377   4.895
 2806SOL    HW2 9318   0.458   3.284   4.762
 2807SOL     OW 9319   4.684   1.540   4.061
 2807SOL    HW1 9320   4.754   1.609   4.043
 2807SOL    HW2 9321   4.597   1.567   4.020
 2808SOL     OW 9322   1.550   6.024   6.092
 2808SOL    HW1 9323   1.478   5.992   6.154
 2808SOL    HW2 9324   1.586   5.947   6.040
 2809SOL     OW 9325   0.497   5.649   1.092
 2809SOL    HW1 9326   0.434   5.725   1.078
 2809SOL    HW2 9327   0.495   5.589   1.011
 2810SOL     OW 9328   0.700   6.154   2.841
 2810SOL    HW1 9329   0.751   6.068   2.834
 2810SOL    HW2 9330   0.658   6.161   2.931
 2811SOL     OW 9331   0.806   1.115   0.632
 2811SOL    HW1 9332   0.743   1.187   0.600
 2811SOL    HW2 9333   0.863   1.151   0.706
 2812SOL     OW 9334   2.185   1.269   1.031
 2812SOL    HW1 9335   2.171   1.364   1.004
 2812SOL    HW2 9336   2.139   1.252   1.118
 2813SOL     OW 9337   6.774   2.047   0.971
 2813SOL    HW1 9338   6.723   2.062   0.886
 2813SOL    HW2 9339   6.791   2.135   1.016
 2814SOL     OW 9340   2.748   4.108   6.780
 2814SOL    HW1 9341   2.806   4.062   6.712
 2814SOL    HW2 9342   2.801   4.123   6.864
 2815SOL     OW 9343   6.958   5.268   4.612
 2815SOL    HW1 9344   6.877   5.303   4.659
 2815SOL    HW2 9345   7.013   5.216   4.677
 2816SOL     OW 9346   0.956   4.946   4.921
 2816SOL    HW1 9347   0.921   4.987   4.837
 2816SOL    HW2 9348   0.896   4.871   4.950
 2817SOL     OW 9349   2.726   0.856   2.207
 2817SOL    HW1 9350   2.772   0.913   2.275
 2817SOL    HW2 9351   2.692   0.913   2.133
 2818SOL     OW 9352   1.765   1.004   0.644
 2818SOL    HW1 9353   1.861   1.032   0.639
 2818SOL    HW2 9354   1.714   1.051   0.572
 2819SOL     OW 9355   7.013   0.901   6.465
 2819SOL    HW1 9356   7.018   0.810   6.506
 2819SOL    HW2 9357   0.082   0.938   6.454
 2820SOL     OW 9358   2.278   1.783   0.239
 2820SOL    HW1 9359   2.377   1.784   0.252
 2820SOL    HW2 9360   2.244   1.878   0.235
 2821SOL     OW 9361   3.396   2.254   6.106
 2821SOL    HW1 9362   3.364   2.165   6.138
 2821SOL    HW2 9363   3.448   2.243   6.021
 2822SOL     OW 9364   4.351   2.948   0.766
 2822SOL    HW1 9365   4.343   3.032   0.713
 2822SOL    HW2 9366   4.388   2.875   0.708
 2823SOL     OW 9367   5.929   3.526   2.335
 2823SOL    HW1 9368   5.832   3.502   2.330
 2823SOL    HW2 9369   5.977   3.457   2.388
 2824SOL     OW 9370   0.822   4.740   5.662
 2824SOL    HW1 9371   0.893   4.679   5.627
 2824SOL    HW2 9372   0.745   4.686   5.697
 2825SOL     OW 9373   5.509   1.846   6.019
 2825SOL    HW1 9374   5.468   1.934   5.999
 2825SOL    HW2 9375   5.438   1.780   6.041
 2826SOL     OW 9376   2.764   3.344   0.032
 2826SOL    HW1 9377   2.791   3.428   7.007
 2826SOL    HW2 9378   2.845   3.298   0.067
 2827SOL     OW 9379   6.374   1.479   6.599
 2827SOL    HW1 9380   6.441   1.552   6.584
 2827SOL    HW2 9381   6.282   1.515   6.587
 2828SOL     OW 9382   1.567   3.925   0.589
 2828SOL    HW1 9383   1.551   4.021   0.612
 2828SOL    HW2 9384   1.510   3.867   0.647
 2829SOL     OW 9385   3.297   4.079   1.684
 2829SOL    HW1 9386   3.202   4.091   1.714
 2829SOL    HW2 9387   3.333   3.993   1.720
 2830SOL     OW 9388   3.104   5.764   4.374
 2830SOL    HW1 9389   3.135   5.858   4.358
 2830SOL    HW2 9390   3.102   5.746   4.472
 2831SOL     OW 9391   6.525   1.763   1.770
 2831SOL    HW1 9392   6.457   1.836   1.783
 2831SOL    HW2 9393   6.533   1.742   1.673
 2832SOL     OW 9394   1.222   3.717   1.958
 2832SOL    HW1 9395   1.259   3.672   2.039
 2832SOL    HW2 9396   1.147   3.663   1.921
 2833SOL     OW 9397   6.743   3.302   3.681
 2833SOL    HW1 9398   6.772   3.343   3.595
 2833SOL    HW2 9399   6.727   3.205   3.668
 2834SOL     OW 9400   3.295   0.626   4.519
 2834SOL    HW1 9401   3.349   0.650   4.438
 2834SOL    HW2 9402   3.254   0.708   4.557
 2835SOL     OW 9403   6.637   1.186   0.039
 2835SOL    HW1 9404   6.543   1.186   0.073
 2835SOL    HW2 9405   6.663   1.093   0.011
 2836SOL     OW 9406   3.167   6.052   1.736
 2836SOL    HW1 9407   3.149   6.150   1.723
 2836SOL    HW2 9408   3.265   6.037   1.737
 2837SOL     OW 9409   5.681   3.419   2.355
 2837SOL    HW1 9410   5.645   3.464   2.436
 2837SOL    HW2 9411   5.614   3.424   2.281
 2838SOL     OW 9412   6.578   3.783   5.601
 2838SOL    HW1 9413   6.584   3.858   5.535
 2838SOL    HW2 9414   6.652   3.793   5.668
 2839SOL     OW 9415   6.050   2.959   5.853
 2839SOL    HW1 9416   5.994   3.038   5.877
 2839SOL    HW2 9417   6.146   2.978   5.874
 2840SOL     OW 9418   5.898   6.662   5.271
 2840SOL    HW1 9419   5.916   6.594   5.199
 2840SOL    HW2 9420   5.977   6.722   5.280
 2841SOL     OW 9421   5.538   3.684   2.863
 2841SOL    HW1 9422   5.530   3.597   2.911
 2841SOL    HW2 9423   5.452   3.734   2.870
 2842SOL     OW 9424   0.581   0.031   3.799
 2842SOL    HW1 9425   0.497   7.004   3.819
 2842SOL    HW2 9426   0.636   7.004   3.732
 2843SOL     OW 9427   1.750   3.164   4.687
 2843SOL    HW1 9428   1.741   3.085   4.748
 2843SOL    HW2 9429   1.668   3.221   4.695
 2844SOL     OW 9430   5.326   4.243   0.386
 2844SOL    HW1 9431   5.375   4.259   0.300
 2844SOL    HW2 9432   5.229   4.228   0.367
 2845SOL     OW 9433   3.588   1.542   1.393
 2845SOL    HW1 9434   3.549   1.498   1.475
 2845SOL    HW2 9435   3.620   1.472   1.330
 2846SOL     OW 9436   4.964   6.783   6.668
 2846SOL    HW1 9437   4.918   6.841   6.735
 2846SOL    HW2 9438   5.043   6.740   6.710
 2847SOL     OW 9439   5.417   4.705   2.109
 2847SOL    HW1 9440   5.382   4.798   2.123
 2847SOL    HW2 9441   5.516   4.705   2.122
 2848SOL     OW 9442   0.361   3.583   0.072
 2848SOL    HW1 9443   0.373   3.488   0.044
 2848SOL    HW2 9444   0.268   3.613   0.053
 2849SOL     OW 9445   5.811   0.706   1.747
 2849SOL    HW1 9446   5.798   0.608   1.738
 2849SOL    HW2 9447   5.904   0.730   1.719
 2850SOL     OW 9448   0.592   1.121   1.152
 2850SOL    HW1 9449   0.590   1.034   1.203
 2850SOL    HW2 9450   0.675   1.125   1.096
 2851SOL     OW 9451   3.395   3.608   1.788
 2851SOL    HW1 9452   3.367   3.651   1.702
 2851SOL    HW2 9453   3.347   3.652   1.864
 2852SOL     OW 9454   0.325   5.629   5.173
 2852SOL    HW1 9455   0.352   5.723   5.196
 2852SOL    HW2 9456   0.406   5.579   5.141
 2853SOL     OW 9457   0.524   4.383   5.086
 2853SOL    HW1 9458   0.603   4.405   5.029
 2853SOL    HW2 9459   0.465   4.463   5.092
 2854SOL     OW 9460   3.413   0.177   6.957
 2854SOL    HW1 9461   3.315   0.189   6.942
 2854SOL    HW2 9462   3.449   0.114   6.887
 2855SOL     OW 9463   1.893   2.128   4.399
 2855SOL    HW1 9464   1.947   2.170   4.326
 2855SOL    HW2 9465   1.898   2.185   4.481
 2856SOL     OW 9466   1.304   5.911   4.771
 2856SOL    HW1 9467   1.249   5.857   4.835
 2856SOL    HW2 9468   1.387   5.942   4.817
 2857SOL     OW 9469   0.163   4.340   0.560
 2857SOL    HW1 9470   0.141   4.389   0.644
 2857SOL    HW2 9471   0.242   4.384   0.515
 2858SOL     OW 9472   5.493   4.423   3.481
 2858SOL    HW1 9473   5.496   4.325   3.504
 2858SOL    HW2 9474   5.442   4.436   3.396
 2859SOL     OW 9475   6.261   4.665   1.836
 2859SOL    HW1 9476   6.247   4.735   1.907
 2859SOL    HW2 9477   6.204   4.687   1.757
 2860SOL     OW 9478   1.545   6.557   3.486
 2860SOL    HW1 9479   1.578   6.518   3.572
 2860SOL    HW2 9480   1.460   6.608   3.503
 2861SOL     OW 9481   5.080   3.953   5.313
 2861SOL    HW1 9482   5.025   4.030   5.346
 2861SOL    HW2 9483   5.083   3.954   5.213
 2862SOL     OW 9484   4.404   0.924   6.856
 2862SOL    HW1 9485   4.500   0.939   6.833
 2862SOL    HW2 9486   4.398   0.864   6.936
 2863SOL     OW 9487   5.747   1.785   5.914
 2863SOL    HW1 9488   5.677   1.777   5.986
 2863SOL    HW2 9489   5.791   1.875   5.921
 2864SOL     OW 9490   4.306   4.206   1.350
 2864SOL    HW1 9491   4.323   4.117   1.308
 2864SOL    HW2 9492   4.212   4.209   1.384
 2865SOL     OW 9493   5.569   4.979   6.025
 2865SOL    HW1 9494   5.586   5.075   6.048
 2865SOL    HW2 9495   5.505   4.974   5.948
 2866SOL     OW 9496   3.851   5.523   1.113
 2866SOL    HW1 9497   3.802   5.580   1.047
 2866SOL    HW2 9498   3.949   5.527   1.093
 2867SOL     OW 9499   0.164   6.158   2.903
 2867SOL    HW1 9500   0.215   6.211   2.835
 2867SOL    HW2 9501   0.068   6.184   2.900
 2868SOL     OW 9502   6.843   6.958   5.485
 2868SOL    HW1 9503   6.890   6.883   5.531
 2868SOL    HW2 9504   6.863   0.020   5.533
 2869SOL     OW 9505   5.534   4.617   5.649
 2869SOL    HW1 9506   5.632   4.599   5.646
 2869SOL    HW2 9507   5.516   4.709   5.613
 2870SOL     OW 9508   0.566   1.372   1.304
 2870SOL    HW1 9509   0.563   1.298   1.237
 2870SOL    HW2 9510   0.553   1.334   1.396
 2871SOL     OW 9511   5.099   1.650   3.523
 2871SOL    HW1 9512   5.101   1.585   3.599
 2871SOL    HW2 9513   5.073   1.602   3.439
 2872SOL     OW 9514   3.644   1.980   2.716
 2872SOL    HW1 9515   3.708   2.054   2.739
 2872SOL    HW2 9516   3.642   1.969   2.616
 2873SOL     OW 9517   0.948   6.720   2.948
 2873SOL    HW1 9518   0.974   6.765   2.862
 2873SOL    HW2 9519   0.950   6.620   2.935
 2874SOL     OW 9520   2.170   1.314   3.182
 2874SOL    HW1 9521   2.197   1.398   3.136
 2874SOL    HW2 9522   2.071   1.315   3.200
 2875SOL     OW 9523   2.257   0.216   2.679
 2875SOL    HW1 9524   2.232   0.119   2.675
 2875SOL    HW2 9525   2.310   0.233   2.763
 2876SOL     OW 9526   0.613   6.695   0.663
 2876SOL    HW1 9527   0.612   6.610   0.716
 2876SOL    HW2 9528   0.698   6.745   0.682
 2877SOL     OW 9529   1.691   3.450   5.960
 2877SOL    HW1 9530   1.747   3.373   5.990
 2877SOL    HW2 9531   1.750   3.529   5.940
 2878SOL     OW 9532   3.175   2.979   4.811
 2878SOL    HW1 9533   3.106   2.913   4.841
 2878SOL    HW2 9534   3.262   2.959   4.856
 2879SOL     OW 9535   5.525   5.505   0.371
 2879SOL    HW1 9536   5.499   5.601   0.362
 2879SOL    HW2 9537   5.454   5.447   0.330
 2880SOL     OW 9538   1.318   1.837   3.066
 2880SOL    HW1 9539   1.373   1.780   3.127
 2880SOL    HW2 9540   1.236   1.788   3.038
 2881SOL     OW 9541   5.209   5.116   0.460
 2881SOL    HW1 9542   5.297   5.080   0.432
 2881SOL    HW2 9543   5.139   5.045   0.455
 2882SOL     OW 9544   4.318   6.538   6.745
 2882SOL    HW1 9545   4.281   6.628   6.767
 2882SOL    HW2 9546   4.339   6.534   6.647
 2883SOL     OW 9547   5.460   6.088   3.190
 2883SOL    HW1 9548   5.384   6.026   3.169
 2883SOL    HW2 9549   5.448   6.125   3.283
 2884SOL     OW 9550   6.072   5.651   3.434
 2884SOL    HW1 9551   5.974   5.654   3.411
 2884SOL    HW2 9552   6.108   5.560   3.414
 2885SOL     OW 9553   0.428   3.487   3.511
 2885SOL    HW1 9554   0.462   3.564   3.564
 2885SOL    HW2 9555   0.505   3.429   3.482
 2886SOL     OW 9556   2.362   4.447   4.831
 2886SOL    HW1 9557   2.436   4.486   4.777
 2886SOL    HW2 9558   2.326   4.366   4.784
 2887SOL     OW 9559   0.235   5.404   2.753
 2887SOL    HW1 9560   0.308   5.369   2.811
 2887SOL    HW2 9561   0.217   5.500   2.776
 2888SOL     OW 9562   4.616   6.308   6.575
 2888SOL    HW1 9563   4.712   6.313   6.600
 2888SOL    HW2 9564   4.579   6.219   6.601
 2889SOL     OW 9565   3.738   6.106   4.490
 2889SOL    HW1 9566   3.656   6.161   4.477
 2889SOL    HW2 9567   3.718   6.010   4.470
 2890SOL     OW 9568   1.915   2.466   0.021
 2890SOL    HW1 9569   1.819   2.480   0.045
 2890SOL    HW2 9570   1.972   2.530   0.074
 2891SOL     OW 9571   1.114   1.459   5.169
 2891SOL    HW1 9572   1.034   1.519   5.168
 2891SOL    HW2 9573   1.111   1.399   5.090
 2892SOL     OW 9574   5.230   4.269   2.046
 2892SOL    HW1 9575   5.287   4.306   2.119
 2892SOL    HW2 9576   5.229   4.332   1.969
 2893SOL     OW 9577   6.701   4.937   5.067
 2893SOL    HW1 9578   6.682   4.917   5.163
 2893SOL    HW2 9579   6.696   5.036   5.052
 2894SOL     OW 9580   1.762   5.346   1.075
 2894SOL    HW1 9581   1.671   5.321   1.109
 2894SOL    HW2 9582   1.806   5.407   1.140
 2895SOL     OW 9583   4.804   6.907   6.106
 2895SOL    HW1 9584   4.782   6.899   6.203
 2895SOL    HW2 9585   4.721   6.932   6.055
 2896SOL     OW 9586   6.200   0.406   5.332
 2896SOL    HW1 9587   6.295   0.422   5.307
 2896SOL    HW2 9588   6.196   0.367   5.424
 2897SOL     OW 9589   3.641   5.786   3.366
 2897SOL    HW1 9590   3.610   5.729   3.289
 2897SOL    HW2 9591   3.566   5.796   3.431
 2898SOL     OW 9592   5.101   2.976   3.350
 2898SOL    HW1 9593   5.195   2.977   3.386
 2898SOL    HW2 9594   5.095   2.910   3.275
 2899SOL     OW 9595   6.287   2.514   0.802
 2899SOL    HW1 9596   6.244   2.449   0.866
 2899SOL    HW2 9597   6.331   2.587   0.854
 2900SOL     OW 9598   2.409   2.785   5.635
 2900SOL    HW1 9599   2.408   2.868   5.691
 2900SOL    HW2 9600   2.495   2.781   5.584
 2901SOL     OW 9601   1.462   3.692   1.846
 2901SOL    HW1 9602   1.363   3.697   1.857
 2901SOL    HW2 9603   1.484   3.638   1.764
 2902SOL     OW 9604   5.550   5.789   3.198
 2902SOL    HW1 9605   5.542   5.888   3.209
 2902SOL    HW2 9606   5.621   5.754   3.260
 2903SOL     OW 9607   0.425   5.233   0.793
 2903SOL    HW1 9608   0.339   5.194   0.761
 2903SOL    HW2 9609   0.502   5.183   0.753
 2904SOL     OW 9610   2.930   4.838   4.810
 2904SOL    HW1 9611   2.878   4.818   4.727
 2904SOL    HW2 9612   2.900   4.776   4.883
 2905SOL     OW 9613   0.874   5.069   1.575
 2905SOL    HW1 9614   0.849   4.988   1.523
 2905SOL    HW2 9615   0.838   5.062   1.668
 2906SOL     OW 9616   0.086   6.236   5.981
 2906SOL    HW1 9617   0.129   6.233   6.071
 2906SOL    HW2 9618   0.079   6.144   5.943
 2907SOL     OW 9619   6.775   1.038   5.357
 2907SOL    HW1 9620   6.833   1.084   5.289
 2907SOL    HW2 9621   6.764   0.942   5.332
 2908SOL     OW 9622   4.161   6.631   4.119
 2908SOL    HW1 9623   4.244   6.575   4.116
 2908SOL    HW2 9624   4.094   6.588   4.180
 2909SOL     OW 9625   0.173   0.021   1.589
 2909SOL    HW1 9626   0.269   0.003   1.566
 2909SOL    HW2 9627   0.130   6.960   1.620
 2910SOL     OW 9628   1.403   0.716   4.251
 2910SOL    HW1 9629   1.380   0.705   4.348
 2910SOL    HW2 9630   1.358   0.646   4.197
 2911SOL     OW 9631   6.885   4.258   4.287
 2911SOL    HW1 9632   6.810   4.203   4.324
 2911SOL    HW2 9633   6.952   4.277   4.359
 2912SOL     OW 9634   0.649   1.538   2.194
 2912SOL    HW1 9635   0.578   1.608   2.208
 2912SOL    HW2 9636   0.724   1.577   2.142
 2913SOL     OW 9637   1.005   6.700   4.032
 2913SOL    HW1 9638   1.030   6.696   3.935
 2913SOL    HW2 9639   0.943   6.777   4.047
 2914SOL     OW 9640   3.599   4.088   1.268
 2914SOL    HW1 9641   3.583   4.164   1.331
 2914SOL    HW2 9642   3.651   4.017   1.314
 2915SOL     OW 9643   1.910   0.918   4.320
 2915SOL    HW1 9644   1.974   0.915   4.397
 2915SOL    HW2 9645   1.825   0.963   4.348
 2916SOL     OW 9646   0.614   5.322   6.549
 2916SOL    HW1 9647   0.565   5.401   6.587
 2916SOL    HW2 9648   0.696   5.304   6.603
 2917SOL     OW 9649   2.336   0.339   3.144
 2917SOL    HW1 9650   2.397   0.388   3.082
 2917SOL    HW2 9651   2.283   0.405   3.197
 2918SOL     OW 9652   5.231   2.417   1.239
 2918SOL    HW1 9653   5.139   2.413   1.278
 2918SOL    HW2 9654   5.268   2.324   1.232
 2919SOL     OW 9655   0.898   6.444   4.782
 2919SOL    HW1 9656   0.984   6.488   4.757
 2919SOL    HW2 9657   0.864   6.391   4.704
 2920SOL     OW 9658   2.783   2.650   1.678
 2920SOL    HW1 9659   2.865   2.704   1.659
 2920SOL    HW2 9660   2.803   2.585   1.752
 2921SOL     OW 9661   0.623   5.893   3.462
 2921SOL    HW1 9662   0.708   5.940   3.439
 2921SOL    HW2 9663   0.546   5.955   3.453
 2922SOL     OW 9664   3.708   5.179   3.514
 2922SOL    HW1 9665   3.684   5.137   3.426
 2922SOL    HW2 9666   3.626   5.189   3.570
 2923SOL     OW 9667   1.834   5.519   4.545
 2923SOL    HW1 9668   1.849   5.614   4.518
 2923SOL    HW2 9669   1.842   5.459   4.465
 2924SOL     OW 9670   5.193   1.299   6.458
 2924SOL    HW1 9671   5.202   1.285   6.557
 2924SOL    HW2 9672   5.278   1.271   6.414
 2925SOL     OW 9673   5.579   6.651   5.010
 2925SOL    HW1 9674   5.496   6.704   5.026
 2925SOL    HW2 9675   5.658   6.712   5.010
 2926SOL     OW 9676   6.112   2.880   4.894
 2926SOL    HW1 9677   6.197   2.927   4.918
 2926SOL    HW2 9678   6.083   2.822   4.970
 2927SOL     OW 9679   1.349   1.979   2.570
 2927SOL    HW1 9680   1.436   2.004   2.612
 2927SOL    HW2 9681   1.311   2.059   2.524
 2928SOL     OW 9682   5.372   4.418   0.590
 2928SOL    HW1 9683   5.380   4.344   0.523
 2928SOL    HW2 9684   5.393   4.384   0.681
 2929SOL     OW 9685   2.135   1.903   3.433
 2929SOL    HW1 9686   2.202   1.948   3.374
 2929SOL    HW2 9687   2.167   1.811   3.455
 2930SOL     OW 9688   0.592   3.430   4.326
 2930SOL    HW1 9689   0.690   3.437   4.306
 2930SOL    HW2 9690   0.540   3.472   4.252
 2931SOL     OW 9691   6.158   4.406   6.499
 2931SOL    HW1 9692   6.230   4.342   6.526
 2931SOL    HW2 9693   6.161   4.487   6.558
 2932SOL     OW 9694   6.484   5.841   0.950
 2932SOL    HW1 9695   6.394   5.797   0.939
 2932SOL    HW2 9696   6.553   5.771   0.969
 2933SOL     OW 9697   0.859   7.003   6.899
 2933SOL    HW1 9698   0.948   7.013   6.854
 2933SOL    HW2 9699   0.786   0.008   6.837
 2934SOL     OW 9700   5.706   5.077   1.616
 2934SOL    HW1 9701   5.733   4.983   1.593
 2934SOL    HW2 9702   5.617   5.076   1.661
 2935SOL     OW 9703   0.676   3.950   5.806
 2935SOL    HW1 9704   0.644   3.857   5.824
 2935SOL    HW2 9705   0.771   3.959   5.835
 2936SOL     OW 9706   4.203   6.457   2.057
 2936SOL    HW1 9707   4.126   6.468   2.120
 2936SOL    HW2 9708   4.194   6.370   2.009
 2937SOL     OW 9709   6.212   3.720   3.347
 2937SOL    HW1 9710   6.222   3.784   3.270
 2937SOL    HW2 9711   6.124   3.674   3.341
 2938SOL     OW 9712   0.639   5.229   0.356
 2938SOL    HW1 9713   0.663   5.134   0.375
 2938SOL    HW2 9714   0.540   5.240   0.359
 2939SOL     OW 9715   6.438   6.563   1.603
 2939SOL    HW1 9716   6.452   6.505   1.523
 2939SOL    HW2 9717   6.401   6.508   1.678
 2940SOL     OW 9718   4.574   6.692   4.073
 2940SOL    HW1 9719   4.557   6.738   3.986
 2940SOL    HW2 9720   4.587   6.760   4.145
 2941SOL     OW 9721   2.990   4.851   2.955
 2941SOL    HW1 9722   3.088   4.864   2.969
 2941SOL    HW2 9723   2.947   4.827   3.042
 2942SOL     OW 9724   3.491   2.380   1.701
 2942SOL    HW1 9725   3.547   2.448   1.654
 2942SOL    HW2 9726   3.538   2.352   1.786
 2943SOL     OW 9727   0.457   4.033   3.809
 2943SOL    HW1 9728   0.514   3.992   3.738
 2943SOL    HW2 9729   0.379   3.974   3.828
 2944SOL     OW 9730   0.902   5.993   3.398
 2944SOL    HW1 9731   0.961   5.980   3.319
 2944SOL    HW2 9732   0.943   5.949   3.478
 2945SOL     OW 9733   5.920   3.388   1.218
 2945SOL    HW1 9734   5.897   3.340   1.133
 2945SOL    HW2 9735   5.883   3.481   1.215
 2946SOL     OW 9736   3.339   3.544   4.238
 2946SOL    HW1 9737   3.242   3.527   4.225
 2946SOL    HW2 9738   3.370   3.614   4.174
 2947SOL     OW 9739   6.279   5.257   7.003
 2947SOL    HW1 9740   6.332   5.238   6.920
 2947SOL    HW2 9741   6.264   5.356   7.010
 2948SOL     OW 9742   6.450   3.986   1.127
 2948SOL    HW1 9743   6.415   4.021   1.214
 2948SOL    HW2 9744   6.499   3.900   1.144
 2949SOL     OW 9745   1.510   6.504   0.910
 2949SOL    HW1 9746   1.455   6.436   0.862
 2949SOL    HW2 9747   1.469   6.523   0.999
 2950SOL     OW 9748   5.717   5.453   2.560
 2950SOL    HW1 9749   5.691   5.373   2.614
 2950SOL    HW2 9750   5.692   5.536   2.609
 2951SOL     OW 9751   0.779   2.324   1.269
 2951SOL    HW1 9752   0.681   2.343   1.273
 2951SOL    HW2 9753   0.828   2.389   1.327
 2952SOL     OW 9754   0.361   1.421   3.840
 2952SOL    HW1 9755   0.335   1.394   3.933
 2952SOL    HW2 9756   0.423   1.352   3.802
 2953SOL     OW 9757   1.459   6.107   3.065
 2953SOL    HW1 9758   1.491   6.201   3.081
 2953SOL    HW2 9759   1.437   6.065   3.153
 2954SOL     OW 9760   0.848   4.219   6.368
 2954SOL    HW1 9761   0.829   4.120   6.364
 2954SOL    HW2 9762   0.818   4.262   6.282
 2955SOL     OW 9763   1.807   4.580   6.537
 2955SOL    HW1 9764   1.786   4.487   6.569
 2955SOL    HW2 9765   1.774   4.646   6.604
 2956SOL     OW 9766   5.442   3.859   4.699
 2956SOL    HW1 9767   5.387   3.928   4.746
 2956SOL    HW2 9768   5.536   3.892   4.688
 2957SOL     OW 9769   1.632   5.587   2.403
 2957SOL    HW1 9770   1.661   5.505   2.355
 2957SOL    HW2 9771   1.699   5.609   2.475
 2958SOL     OW 9772   1.694   4.770   1.662
 2958SOL    HW1 9773   1.679   4.795   1.566
 2958SOL    HW2 9774   1.625   4.704   1.690
 2959SOL     OW 9775   6.724   4.543   4.247
 2959SOL    HW1 9776   6.708   4.477   4.173
 2959SOL    HW2 9777   6.745   4.633   4.207
 2960SOL     OW 9778   4.737   6.454   1.233
 2960SOL    HW1 9779   4.653   6.494   1.198
 2960SOL    HW2 9780   4.715   6.382   1.299
 2961SOL     OW 9781   5.822   2.478   1.758
 2961SOL    HW1 9782   5.840   2.531   1.841
 2961SOL    HW2 9783   5.756   2.406   1.779
 2962SOL     OW 9784   0.228   0.160   3.628
 2962SOL    HW1 9785   0.195   0.081   3.679
 2962SOL    HW2 9786   0.304   0.202   3.678
 2963SOL     OW 9787   2.185   1.048   5.646
 2963SOL    HW1 9788   2.097   1.030   5.690
 2963SOL    HW2 9789   2.251   1.080   5.714
 2964SOL     OW 9790   1.541   0.170   6.484
 2964SOL    HW1 9791   1.578   0.262   6.486
 2964SOL    HW2 9792   1.445   0.172   6.513
 2965SOL     OW 9793   5.864   0.799   6.251
 2965SOL    HW1 9794   5.856   0.702   6.271
 2965SOL    HW2 9795   5.775   0.843   6.260
 2966SOL     OW 9796   3.828   5.676   2.986
 2966SOL    HW1 9797   3.757   5.694   3.054
 2966SOL    HW2 9798   3.881   5.760   2.971
 2967SOL     OW 9799   5.666   6.881   5.178
 2967SOL    HW1 9800   5.588   6.862   5.238
 2967SOL    HW2 9801   5.736   6.811   5.192
 2968SOL     OW 9802   1.488   4.326   1.500
 2968SOL    HW1 9803   1.437   4.325   1.414
 2968SOL    HW2 9804   1.560   4.395   1.494
 2969SOL     OW 9805   4.655   2.718   4.595
 2969SOL    HW1 9806   4.626   2.691   4.504
 2969SOL    HW2 9807   4.664   2.817   4.600
 2970SOL     OW 9808   2.349   2.625   5.896
 2970SOL    HW1 9809   2.395   2.662   5.815
 2970SOL    HW2 9810   2.323   2.701   5.956
 2971SOL     OW 9811   4.233   3.605   6.616
 2971SOL    HW1 9812   4.239   3.555   6.702
 2971SOL    HW2 9813   4.325   3.618   6.578
 2972SOL     OW 9814   0.577   5.920   6.375
 2972SOL    HW1 9815   0.618   6.010   6.389
 2972SOL    HW2 9816   0.610   5.881   6.289
 2973SOL     OW 9817   5.359   0.794   4.242
 2973SOL    HW1 9818   5.293   0.779   4.315
 2973SOL    HW2 9819   5.314   0.836   4.164
 2974SOL     OW 9820   5.725   6.177   2.464
 2974SOL    HW1 9821   5.673   6.210   2.385
 2974SOL    HW2 9822   5.752   6.082   2.448
 2975SOL     OW 9823   7.022   3.279   4.805
 2975SOL    HW1 9824   0.020   3.334   4.725
 2975SOL    HW2 9825   0.073   3.215   4.823
 2976SOL     OW 9826   3.699   0.537   1.548
 2976SOL    HW1 9827   3.677   0.502   1.639
 2976SOL    HW2 9828   3.698   0.637   1.551
 2977SOL     OW 9829   1.615   1.491   1.746
 2977SOL    HW1 9830   1.644   1.471   1.840
 2977SOL    HW2 9831   1.636   1.586   1.724
 2978SOL     OW 9832   3.514   5.844   0.556
 2978SOL    HW1 9833   3.449   5.792   0.612
 2978SOL    HW2 9834   3.489   5.836   0.460
 2979SOL     OW 9835   2.746   1.269   5.672
 2979SOL    HW1 9836   2.705   1.338   5.612
 2979SOL    HW2 9837   2.682   1.246   5.745
 2980SOL     OW 9838   3.652   2.917   3.849
 2980SOL    HW1 9839   3.563   2.874   3.864
 2980SOL    HW2 9840   3.705   2.917   3.934
 2981SOL     OW 9841   3.231   2.370   1.608
 2981SOL    HW1 9842   3.300   2.371   1.681
 2981SOL    HW2 9843   3.232   2.458   1.560
 2982SOL     OW 9844   1.589   0.765   1.195
 2982SOL    HW1 9845   1.646   0.846   1.209
 2982SOL    HW2 9846   1.498   0.782   1.232
 2983SOL     OW 9847   6.373   2.899   6.603
 2983SOL    HW1 9848   6.327   2.939   6.682
 2983SOL    HW2 9849   6.320   2.821   6.570
 2984SOL     OW 9850   0.453   5.972   1.341
 2984SOL    HW1 9851   0.386   5.925   1.283
 2984SOL    HW2 9852   0.481   6.057   1.296
 2985SOL     OW 9853   6.402   0.492   5.696
 2985SOL    HW1 9854   6.410   0.446   5.785
 2985SOL    HW2 9855   6.488   0.538   5.674
 2986SOL     OW 9856   3.180   3.241   2.644
 2986SOL    HW1 9857   3.173   3.282   2.553
 2986SOL    HW2 9858   3.196   3.143   2.636
 2987SOL     OW 9859   2.335   5.790   4.846
 2987SOL    HW1 9860   2.334   5.707   4.902
 2987SOL    HW2 9861   2.337   5.871   4.906
 2988SOL     OW 9862   0.257   1.641   6.750
 2988SOL    HW1 9863   0.195   1.631   6.827
 2988SOL    HW2 9864   0.351   1.631   6.781
 2989SOL     OW 9865   5.778   3.715   5.778
 2989SOL    HW1 9866   5.782   3.743   5.682
 2989SOL    HW2 9867   5.862   3.742   5.824
 2990SOL     OW 9868   5.262   1.091   5.191
 2990SOL    HW1 9869   5.187   1.142   5.235
 2990SOL    HW2 9870   5.278   1.128   5.100
 2991SOL     OW 9871   6.600   2.874   6.830
 2991SOL    HW1 9872   6.503   2.854   6.836
 2991SOL    HW2 9873   6.624   2.899   6.736
 2992SOL     OW 9874   1.077   4.128   5.396
 2992SOL    HW1 9875   1.111   4.053   5.338
 2992SOL    HW2 9876   1.148   4.154   5.461
 2993SOL     OW 9877   3.568   4.759   0.317
 2993SOL    HW1 9878   3.522   4.734   0.402
 2993SOL    HW2 9879   3.502   4.802   0.255
 2994SOL     OW 9880   2.601   5.052   5.065
 2994SOL    HW1 9881   2.642   4.962   5.080
 2994SOL    HW2 9882   2.625   5.085   4.973
 2995SOL     OW 9883   4.882   0.328   1.571
 2995SOL    HW1 9884   4.960   0.330   1.633
 2995SOL    HW2 9885   4.808   0.383   1.609
 2996SOL     OW 9886   6.791   0.837   4.331
 2996SOL    HW1 9887   6.798   0.909   4.262
 2996SOL    HW2 9888   6.771   0.878   4.420
 2997SOL     OW 9889   4.607   5.899   4.369
 2997SOL    HW1 9890   4.563   5.826   4.422
 2997SOL    HW2 9891   4.548   5.980   4.367
 2998SOL     OW 9892   2.519   0.372   1.874
 2998SOL    HW1 9893   2.611   0.365   1.911
 2998SOL    HW2 9894   2.496   0.288   1.825
 2999SOL     OW 9895   1.223   4.664   0.344
 2999SOL    HW1 9896   1.229   4.632   0.439
 2999SOL    HW2 9897   1.303   4.631   0.293
 3000SOL     OW 9898   2.353   3.908   5.886
 3000SOL    HW1 9899   2.416   3.833   5.865
 3000SOL    HW2 9900   2.347   3.969   5.807
 3001SOL     OW 9901   3.937   0.619   6.392
 3001SOL    HW1 9902   3.895   0.693   6.444
 3001SOL    HW2 9903   3.936   0.642   6.295
 3002SOL     OW 9904   1.241   2.085   2.299
 3002SOL    HW1 9905   1.282   2.174   2.318
 3002SOL    HW2 9906   1.141   2.091   2.310
 3003SOL     OW 9907   0.727   6.139   0.554
 3003SOL    HW1 9908   0.729   6.085   0.470
 3003SOL    HW2 9909   0.713   6.079   0.632
 3004SOL     OW 9910   3.225   0.063   4.025
 3004SOL    HW1 9911   3.153   7.023   4.054
 3004SOL    HW2 9912   3.251   0.120   4.103
 3005SOL     OW 9913   2.384   2.127   0.990
 3005SOL    HW1 9914   2.298   2.097   1.029
 3005SOL    HW2 9915   2.456   2.061   1.012
 3006SOL     OW 9916   5.639   1.254   5.638
 3006SOL    HW1 9917   5.584   1.180   5.598
 3006SOL    HW2 9918   5.680   1.308   5.565
 3007SOL     OW 9919   6.422   5.771   5.952
 3007SOL    HW1 9920   6.415   5.782   5.853
 3007SOL    HW2 9921   6.368   5.842   5.998
 3008SOL     OW 9922   5.230   3.998   5.684
 3008SOL    HW1 9923   5.211   4.040   5.773
 3008SOL    HW2 9924   5.195   3.904   5.684
 3009SOL     OW 9925   5.583   3.203   2.005
 3009SOL    HW1 9926   5.606   3.151   1.923
 3009SOL    HW2 9927   5.511   3.155   2.056
 3010SOL     OW 9928   4.480   4.971   2.009
 3010SOL    HW1 9929   4.525   5.026   1.939
 3010SOL    HW2 9930   4.544   4.903   2.044
 3011SOL     OW 9931   6.104   6.886   0.163
 3011SOL    HW1 9932   6.052   6.913   0.082
 3011SOL    HW2 9933   6.109   6.787   0.168
 3012SOL     OW 9934   2.351   1.422   4.690
 3012SOL    HW1 9935   2.419   1.356   4.658
 3012SOL    HW2 9936   2.261   1.377   4.696
 3013SOL     OW 9937   0.805   5.437   5.232
 3013SOL    HW1 9938   0.728   5.500   5.246
 3013SOL    HW2 9939   0.876   5.457   5.300
 3014SOL     OW 9940   3.902   0.569   6.982
 3014SOL    HW1 9941   3.941   0.660   6.974
 3014SOL    HW2 9942   3.810   0.576   7.021
 3015SOL     OW 9943   2.305   0.066   5.730
 3015SOL    HW1 9944   2.262   0.138   5.785
 3015SOL    HW2 9945   2.346   7.021   5.790
 3016SOL     OW 9946   2.961   0.598   3.868
 3016SOL    HW1 9947   3.060   0.585   3.862
 3016SOL    HW2 9948   2.942   0.692   3.896
 3017SOL     OW 9949   0.973   6.244   6.958
 3017SOL    HW1 9950   0.971   6.234   6.858
 3017SOL    HW2 9951   0.929   6.165   7.000
 3018SOL     OW 9952   2.874   2.512   1.422
 3018SOL    HW1 9953   2.948   2.450   1.396
 3018SOL    HW2 9954   2.853   2.499   1.519
 3019SOL     OW 9955   1.445   0.461   5.376
 3019SOL    HW1 9956   1.406   0.509   5.298
 3019SOL    HW2 9957   1.372   0.429   5.437
 3020SOL     OW 9958   4.745   4.411   0.294
 3020SOL    HW1 9959   4.670   4.473   0.318
 3020SOL    HW2 9960   4.708   4.321   0.271
 3021SOL     OW 9961   4.714   6.282   4.566
 3021SOL    HW1 9962   4.796   6.335   4.589
 3021SOL    HW2 9963   4.711   6.265   4.468
 3022SOL     OW 9964   4.187   6.898   4.163
 3022SOL    HW1 9965   4.285   6.902   4.145
 3022SOL    HW2 9966   4.153   6.805   4.148
 3023SOL     OW 9967   5.560   4.430   5.227
 3023SOL    HW1 9968   5.629   4.473   5.169
 3023SOL    HW2 9969   5.562   4.331   5.212
 3024SOL     OW 9970   6.390   1.203   0.222
 3024SOL    HW1 9971   6.430   1.285   0.264
 3024SOL    HW2 9972   6.379   1.132   0.292
 3025SOL     OW 9973   4.308   5.337   0.979
 3025SOL    HW1 9974   4.325   5.239   0.988
 3025SOL    HW2 9975   4.385   5.381   0.933
 3026SOL     OW 9976   0.468   0.275   2.529
 3026SOL    HW1 9977   0.544   0.247   2.470
 3026SOL    HW2 9978   0.391   0.213   2.515
 3027SOL     OW 9979   4.262   6.955   0.816
 3027SOL    HW1 9980   4.308   6.959   0.728
 3027SOL    HW2 9981   4.225   6.863   0.831
 3028SOL     OW 9982   3.707   3.392   4.614
 3028SOL    HW1 9983   3.623   3.445   4.627
 3028SOL    HW2 9984   3.683   3.299   4.587
 3029SOL     OW 9985   0.350   2.445   5.070
 3029SOL    HW1 9986   0.310   2.394   4.994
 3029SOL    HW2 9987   0.354   2.388   5.152
 3030SOL     OW 9988   0.946   2.811   6.052
 3030SOL    HW1 9989   0.947   2.817   5.952
 3030SOL    HW2 9990   0.955   2.903   6.091
 3031SOL     OW 9991   0.862   4.747   6.809
 3031SOL    HW1 9992   0.790   4.774   6.745
 3031SOL    HW2 9993   0.905   4.663   6.778
 3032SOL     OW 9994   3.651   6.862   3.671
 3032SOL    HW1 9995   3.614   6.914   3.747
 3032SOL    HW2 9996   3.623   6.766   3.678
 3033SOL     OW 9997   2.078   1.167   6.686
 3033SOL    HW1 9998   2.091   1.147   6.589
 3033SOL    HW2 9999   2.035   1.256   6.697
 3034SOL     OW10000   5.428   3.454   3.529
 3034SOL    HW110001   5.481   3.538   3.537
 3034SOL    HW210002   5.489   3.375   3.537
 3035SOL     OW10003   6.895   3.315   6.815
 3035SOL    HW110004   6.858   3.405   6.835
 3035SOL    HW210005   6.946   3.318   6.729
 3036SOL     OW10006   3.147   2.122   6.330
 3036SOL    HW110007   3.057   2.110   6.370
 3036SOL    HW210008   3.212   2.146   6.402
 3037SOL     OW10009   0.573   4.867   6.341
 3037SOL    HW110010   0.649   4.832   6.286
 3037SOL    HW210011   0.518   4.791   6.375
 3038SOL     OW10012   6.127   4.589   5.342
 3038SOL    HW110013   6.108   4.491   5.345
 3038SOL    HW210014   6.059   4.638   5.396
 3039SOL     OW10015   5.603   3.411   6.068
 3039SOL    HW110016   5.591   3.509   6.085
 3039SOL    HW210017   5.518   3.364   6.089
 3040SOL     OW10018   3.980   6.536   6.547
 3040SOL    HW110019   3.897   6.542   6.491
 3040SOL    HW210020   4.023   6.446   6.534
 3041SOL     OW10021   2.120   5.265   6.720
 3041SOL    HW110022   2.042   5.221   6.764
 3041SOL    HW210023   2.088   5.329   6.651
 3042SOL     OW10024   0.023   5.063   4.013
 3042SOL    HW110025   0.091   5.074   4.085
 3042SOL    HW210026   0.017   4.966   3.988
 3043SOL     OW10027   2.787   4.093   1.228
 3043SOL    HW110028   2.753   4.185   1.211
 3043SOL    HW210029   2.714   4.027   1.211
 3044SOL     OW10030   3.992   3.477   4.926
 3044SOL    HW110031   4.001   3.391   4.876
 3044SOL    HW210032   3.937   3.541   4.873
 3045SOL     OW10033   5.336   0.546   2.710
 3045SOL    HW110034   5.323   0.639   2.675
 3045SOL    HW210035   5.247   0.507   2.736
 3046SOL     OW10036   6.013   5.428   1.124
 3046SOL    HW110037   5.952   5.472   1.190
 3046SOL    HW210038   6.010   5.477   1.037
 3047SOL     OW10039   5.635   1.392   3.977
 3047SOL    HW110040   5.691   1.438   3.907
 3047SOL    HW210041   5.540   1.389   3.947
 3048SOL     OW10042   4.240   4.540   1.592
 3048SOL    HW110043   4.250   4.615   1.657
 3048SOL    HW210044   4.165   4.559   1.528
 3049SOL     OW10045   0.400   1.258   2.005
 3049SOL    HW110046   0.466   1.272   1.932
 3049SOL    HW210047   0.445   1.268   2.094
 3050SOL     OW10048   3.869   2.340   5.922
 3050SOL    HW110049   3.901   2.280   5.848
 3050SOL    HW210050   3.916   2.316   6.006
 3051SOL     OW10051   2.382   5.223   6.655
 3051SOL    HW110052   2.283   5.225   6.666
 3051SOL    HW210053   2.407   5.266   6.568
 3052SOL     OW10054   6.048   6.391   3.693
 3052SOL    HW110055   6.114   6.442   3.638
 3052SOL    HW210056   6.092   6.307   3.727
 3053SOL     OW10057   0.868   4.827   6.383
 3053SOL    HW110058   0.956   4.849   6.425
 3053SOL    HW210059   0.860   4.873   6.295
 3054SOL     OW10060   6.148   6.631   3.159
 3054SOL    HW110061   6.132   6.730   3.158
 3054SOL    HW210062   6.132   6.595   3.067
 3055SOL     OW10063   5.013   6.586   0.392
 3055SOL    HW110064   5.035   6.535   0.309
 3055SOL    HW210065   4.933   6.546   0.436
 3056SOL     OW10066   4.533   2.216   1.320
 3056SOL    HW110067   4.513   2.245   1.413
 3056SOL    HW210068   4.571   2.123   1.321
 3057SOL     OW10069   6.888   3.911   3.477
 3057SOL    HW110070   6.829   3.831   3.478
 3057SOL    HW210071   6.983   3.883   3.485
 3058SOL     OW10072   6.918   4.922   5.881
 3058SOL    HW110073   6.882   4.958   5.796
 3058SOL    HW210074   7.018   4.914   5.875
 3059SOL     OW10075   1.240   2.668   3.140
 3059SOL    HW110076   1.260   2.580   3.185
 3059SOL    HW210077   1.299   2.679   3.060
 3060SOL     OW10078   5.882   3.768   3.528
 3060SOL    HW110079   5.926   3.702   3.467
 3060SOL    HW210080   5.917   3.755   3.621
 3061SOL     OW10081   5.828   6.501   2.415
 3061SOL    HW110082   5.818   6.441   2.495
 3061SOL    HW210083   5.738   6.526   2.380
 3062SOL     OW10084   3.686   5.205   1.436
 3062SOL    HW110085   3.596   5.183   1.401
 3062SOL    HW210086   3.721   5.128   1.490
 3063SOL     OW10087   6.477   4.571   0.360
 3063SOL    HW110088   6.502   4.554   0.265
 3063SOL    HW210089   6.378   4.580   0.368
 3064SOL     OW10090   4.916   1.929   6.247
 3064SOL    HW110091   4.859   1.929   6.165
 3064SOL    HW210092   4.894   2.009   6.303
 3065SOL     OW10093   5.503   0.979   6.430
 3065SOL    HW110094   5.581   0.976   6.494
 3065SOL    HW210095   5.478   1.074   6.413
 3066SOL     OW10096   5.484   0.406   6.037
 3066SOL    HW110097   5.438   0.441   5.956
 3066SOL    HW210098   5.435   0.327   6.073
 3067SOL     OW10099   1.696   2.002   4.531
 3067SOL    HW110100   1.773   2.029   4.475
 3067SOL    HW210101   1.646   2.083   4.561
 3068SOL     OW10102   5.831   6.949   0.797
 3068SOL    HW110103   5.834   6.889   0.717
 3068SOL    HW210104   5.836   0.021   0.767
 3069SOL     OW10105   5.418   6.212   3.443
 3069SOL    HW110106   5.365   6.151   3.502
 3069SOL    HW210107   5.360   6.288   3.413
 3070SOL     OW10108   2.882   0.917   1.347
 3070SOL    HW110109   2.922   0.989   1.404
 3070SOL    HW210110   2.953   0.853   1.319
 3071SOL     OW10111   5.749   4.579   5.050
 3071SOL    HW110112   5.807   4.513   5.097
 3071SOL    HW210113   5.754   4.564   4.951
 3072SOL     OW10114   1.392   6.720   5.262
 3072SOL    HW110115   1.358   6.729   5.355
 3072SOL    HW210116   1.472   6.779   5.250
 3073SOL     OW10117   6.652   5.815   2.728
 3073SOL    HW110118   6.578   5.795   2.664
 3073SOL    HW210119   6.613   5.831   2.819
 3074SOL     OW10120   3.284   2.792   1.878
 3074SOL    HW110121   3.345   2.813   1.954
 3074SOL    HW210122   3.224   2.870   1.861
 3075SOL     OW10123   4.039   5.106   1.195
 3075SOL    HW110124   4.055   5.125   1.292
 3075SOL    HW210125   3.952   5.146   1.167
 3076SOL     OW10126   1.876   1.785   4.079
 3076SOL    HW110127   1.931   1.766   3.998
 3076SOL    HW210128   1.820   1.866   4.063
 3077SOL     OW10129   6.949   3.459   2.087
 3077SOL    HW110130   6.995   3.378   2.050
 3077SOL    HW210131   6.925   3.444   2.183
 3078SOL     OW10132   6.722   4.178   1.196
 3078SOL    HW110133   6.631   4.221   1.203
 3078SOL    HW210134   6.765   4.206   1.110
 3079SOL     OW10135   0.916   4.076   4.069
 3079SOL    HW110136   0.919   4.097   4.166
 3079SOL    HW210137   0.994   4.119   4.023
 3080SOL     OW10138   3.903   4.697   1.755
 3080SOL    HW110139   3.909   4.599   1.736
 3080SOL    HW210140   3.821   4.716   1.808
 3081SOL     OW10141   2.106   2.819   6.186
 3081SOL    HW110142   2.024   2.877   6.182
 3081SOL    HW210143   2.171   2.848   6.115
 3082SOL     OW10144   5.615   4.189   5.146
 3082SOL    HW110145   5.539   4.128   5.125
 3082SOL    HW210146   5.667   4.208   5.062
 3083SOL     OW10147   4.225   5.782   1.272
 3083SOL    HW110148   4.287   5.790   1.194
 3083SOL    HW210149   4.242   5.694   1.318
 3084SOL     OW10150   6.688   5.276   4.154
 3084SOL    HW110151   6.718   5.235   4.068
 3084SOL    HW210152   6.764   5.276   4.219
 3085SOL     OW10153   6.863   5.885   6.827
 3085SOL    HW110154   6.768   5.898   6.798
 3085SOL    HW210155   6.869   5.891   6.926
 3086SOL     OW10156   6.030   6.400   6.532
 3086SOL    HW110157   5.945   6.397   6.585
 3086SOL    HW210158   6.069   6.492   6.537
 3087SOL     OW10159   3.057   0.173   2.134
 3087SOL    HW110160   3.123   0.152   2.206
 3087SOL    HW210161   3.095   0.243   2.073
 3088SOL     OW10162   2.602   3.477   5.325
 3088SOL    HW110163   2.541   3.546   5.364
 3088SOL    HW210164   2.682   3.522   5.286
 3089SOL     OW10165   4.003   6.367   6.841
 3089SOL    HW110166   3.924   6.403   6.790
 3089SOL    HW210167   4.087   6.409   6.807
 3090SOL     OW10168   1.699   2.594   2.412
 3090SOL    HW110169   1.767   2.523   2.395
 3090SOL    HW210170   1.730   2.653   2.487
 3091SOL     OW10171   1.311   2.614   6.550
 3091SOL    HW110172   1.219   2.637   6.518
 3091SOL    HW210173   1.354   2.552   6.485
 3092SOL     OW10174   5.339   1.345   3.361
 3092SOL    HW110175   5.337   1.246   3.350
 3092SOL    HW210176   5.250   1.378   3.393
 3093SOL     OW10177   6.556   4.843   6.465
 3093SOL    HW110178   6.628   4.911   6.451
 3093SOL    HW210179   6.505   4.830   6.380
 3094SOL     OW10180   2.122   1.377   5.969
 3094SOL    HW110181   2.080   1.391   5.879
 3094SOL    HW210182   2.219   1.400   5.964
 3095SOL     OW10183   1.741   3.852   5.294
 3095SOL    HW110184   1.776   3.782   5.232
 3095SOL    HW210185   1.657   3.818   5.338
 3096SOL     OW10186   1.866   2.686   3.718
 3096SOL    HW110187   1.769   2.685   3.741
 3096SOL    HW210188   1.920   2.705   3.800
 3097SOL     OW10189   5.710   2.933   5.737
 3097SOL    HW110190   5.627   2.942   5.682
 3097SOL    HW210191   5.785   2.900   5.680
 3098SOL     OW10192   1.584   3.175   2.415
 3098SOL    HW110193   1.562   3.078   2.410
 3098SOL    HW210194   1.626   3.195   2.504
 3099SOL     OW10195   0.705   6.757   5.492
 3099SOL    HW110196   0.715   6.815   5.411
 3099SOL    HW210197   0.777   6.778   5.558
 3100SOL     OW10198   6.225   4.424   2.423
 3100SOL    HW110199   6.144   4.370   2.398
 3100SOL    HW210200   6.206   4.521   2.407
 3101SOL     OW10201   4.869   0.327   4.606
 3101SOL    HW110202   4.851   0.276   4.521
 3101SOL    HW210203   4.823   0.281   4.682
 3102SOL     OW10204   5.784   3.958   2.445
 3102SOL    HW110205   5.715   3.997   2.506
 3102SOL    HW210206   5.761   3.980   2.351
 3103SOL     OW10207   1.460   1.731   2.111
 3103SOL    HW110208   1.442   1.632   2.111
 3103SOL    HW210209   1.445   1.767   2.203
 3104SOL     OW10210   5.838   2.030   5.919
 3104SOL    HW110211   5.784   2.055   5.839
 3104SOL    HW210212   5.912   2.097   5.932
 3105SOL     OW10213   5.653   4.300   0.499
 3105SOL    HW110214   5.614   4.235   0.564
 3105SOL    HW210215   5.671   4.254   0.412
 3106SOL     OW10216   5.471   1.573   6.237
 3106SOL    HW110217   5.533   1.516   6.183
 3106SOL    HW210218   5.379   1.570   6.197
 3107SOL     OW10219   4.090   2.258   4.533
 3107SOL    HW110220   4.110   2.272   4.630
 3107SOL    HW210221   4.005   2.207   4.523
 3108SOL     OW10222   1.815   4.500   3.601
 3108SOL    HW110223   1.899   4.550   3.624
 3108SOL    HW210224   1.755   4.497   3.680
 3109SOL     OW10225   6.877   5.678   3.193
 3109SOL    HW110226   6.896   5.661   3.290
 3109SOL    HW210227   6.838   5.595   3.153
 3110SOL     OW10228   1.246   6.285   4.500
 3110SOL    HW110229   1.312   6.209   4.500
 3110SOL    HW210230   1.234   6.318   4.407
 3111SOL     OW10231   6.627   4.131   3.760
 3111SOL    HW110232   6.572   4.186   3.824
 3111SOL    HW210233   6.693   4.076   3.811
 3112SOL     OW10234   4.449   0.496   0.482
 3112SOL    HW110235   4.410   0.537   0.399
 3112SOL    HW210236   4.440   0.560   0.558
 3113SOL     OW10237   1.228   0.337   3.778
 3113SOL    HW110238   1.161   0.369   3.845
 3113SOL    HW210239   1.319   0.371   3.803
 3114SOL     OW10240   4.834   6.389   5.424
 3114SOL    HW110241   4.868   6.412   5.332
 3114SOL    HW210242   4.807   6.293   5.426
 3115SOL     OW10243   4.575   5.642   4.546
 3115SOL    HW110244   4.672   5.657   4.565
 3115SOL    HW210245   4.564   5.558   4.493
 3116SOL     OW10246   0.848   1.938   6.614
 3116SOL    HW110247   0.875   1.882   6.535
 3116SOL    HW210248   0.875   1.891   6.698
 3117SOL     OW10249   3.882   0.050   1.074
 3117SOL    HW110250   3.885   6.989   1.022
 3117SOL    HW210251   3.833   0.034   1.160
 3118SOL     OW10252   0.953   2.034   2.987
 3118SOL    HW110253   1.035   2.011   3.039
 3118SOL    HW210254   0.937   1.965   2.917
 3119SOL     OW10255   4.548   6.384   3.829
 3119SOL    HW110256   4.462   6.390   3.779
 3119SOL    HW210257   4.552   6.456   3.898
 3120SOL     OW10258   2.986   6.038   0.246
 3120SOL    HW110259   3.070   6.070   0.202
 3120SOL    HW210260   2.973   6.086   0.333
 3121SOL     OW10261   3.814   2.138   3.409
 3121SOL    HW110262   3.898   2.181   3.375
 3121SOL    HW210263   3.835   2.081   3.488
 3122SOL     OW10264   5.809   4.095   6.114
 3122SOL    HW110265   5.784   4.002   6.140
 3122SOL    HW210266   5.884   4.092   6.048
 3123SOL     OW10267   1.903   2.795   2.501
 3123SOL    HW110268   1.954   2.873   2.537
 3123SOL    HW210269   1.953   2.710   2.520
 3124SOL     OW10270   4.795   6.916   5.628
 3124SOL    HW110271   4.748   6.856   5.693
 3124SOL    HW210272   4.854   6.861   5.569
 3125SOL     OW10273   1.764   1.706   5.130
 3125SOL    HW110274   1.809   1.617   5.142
 3125SOL    HW210275   1.749   1.747   5.220
 3126SOL     OW10276   4.608   4.426   5.755
 3126SOL    HW110277   4.591   4.390   5.664
 3126SOL    HW210278   4.630   4.524   5.749
 3127SOL     OW10279   6.446   1.841   5.636
 3127SOL    HW110280   6.441   1.760   5.578
 3127SOL    HW210281   6.452   1.813   5.732
 3128SOL     OW10282   3.507   1.013   0.953
 3128SOL    HW110283   3.501   1.010   1.053
 3128SOL    HW210284   3.598   1.042   0.925
 3129SOL     OW10285   4.281   4.298   0.576
 3129SOL    HW110286   4.348   4.243   0.526
 3129SOL    HW210287   4.260   4.254   0.663
 3130SOL     OW10288   6.766   6.164   1.868
 3130SOL    HW110289   6.776   6.065   1.875
 3130SOL    HW210290   6.673   6.190   1.893
 3131SOL     OW10291   6.713   2.819   2.891
 3131SOL    HW110292   6.678   2.847   2.802
 3131SOL    HW210293   6.710   2.719   2.899
 3132SOL     OW10294   4.608   4.245   6.905
 3132SOL    HW110295   4.613   4.173   6.974
 3132SOL    HW210296   4.537   4.311   6.930
 3133SOL     OW10297   5.340   6.547   3.501
 3133SOL    HW110298   5.360   6.576   3.408
 3133SOL    HW210299   5.245   6.515   3.507
 3134SOL     OW10300   5.271   4.562   2.792
 3134SOL    HW110301   5.260   4.554   2.693
 3134SOL    HW210302   5.205   4.629   2.828
 3135SOL     OW10303   3.550   0.384   6.567
 3135SOL    HW110304   3.555   0.414   6.662
 3135SOL    HW210305   3.643   0.373   6.531
 3136SOL     OW10306   6.547   6.732   2.516
 3136SOL    HW110307   6.516   6.782   2.435
 3136SOL    HW210308   6.621   6.669   2.490
 3137SOL     OW10309   4.521   5.078   0.050
 3137SOL    HW110310   4.615   5.104   0.070
 3137SOL    HW210311   4.507   5.076   6.975
 3138SOL     OW10312   6.895   6.732   4.589
 3138SOL    HW110313   6.845   6.669   4.528
 3138SOL    HW210314   6.880   6.826   4.558
 3139SOL     OW10315   1.829   5.101   2.024
 3139SOL    HW110316   1.914   5.083   2.073
 3139SOL    HW210317   1.851   5.124   1.929
 3140SOL     OW10318   5.291   6.155   0.042
 3140SOL    HW110319   5.341   6.103   0.111
 3140SOL    HW210320   5.304   6.253   0.058
 3141SOL     OW10321   5.844   1.466   6.921
 3141SOL    HW110322   5.881   1.404   6.852
 3141SOL    HW210323   5.781   1.417   6.980
 3142SOL     OW10324   4.491   1.313   4.127
 3142SOL    HW110325   4.513   1.385   4.192
 3142SOL    HW210326   4.417   1.344   4.067
 3143SOL     OW10327   6.998   1.129   0.489
 3143SOL    HW110328   0.029   1.109   0.570
 3143SOL    HW210329   0.018   1.203   0.437
 3144SOL     OW10330   4.006   4.939   0.256
 3144SOL    HW110331   3.916   4.924   0.214
 3144SOL    HW210332   4.069   4.868   0.225
 3145SOL     OW10333   0.841   5.389   6.127
 3145SOL    HW110334   0.782   5.463   6.157
 3145SOL    HW210335   0.836   5.381   6.027
 3146SOL     OW10336   5.935   2.086   4.425
 3146SOL    HW110337   5.922   2.075   4.326
 3146SOL    HW210338   5.862   2.143   4.462
 3147SOL     OW10339   4.615   6.871   0.914
 3147SOL    HW110340   4.566   6.872   1.001
 3147SOL    HW210341   4.706   6.912   0.927
 3148SOL     OW10342   6.350   4.929   0.320
 3148SOL    HW110343   6.388   4.842   0.286
 3148SOL    HW210344   6.356   4.997   0.247
 3149SOL     OW10345   3.848   2.744   6.861
 3149SOL    HW110346   3.845   2.828   6.807
 3149SOL    HW210347   3.771   2.743   6.925
 3150SOL     OW10348   6.922   0.307   5.384
 3150SOL    HW110349   6.908   0.246   5.462
 3150SOL    HW210350   7.016   0.341   5.385
 3151SOL     OW10351   6.764   0.769   5.832
 3151SOL    HW110352   6.855   0.805   5.849
 3151SOL    HW210353   6.698   0.845   5.834
 3152SOL     OW10354   2.335   1.837   5.820
 3152SOL    HW110355   2.287   1.768   5.873
 3152SOL    HW210356   2.323   1.819   5.722
 3153SOL     OW10357   5.662   5.831   1.924
 3153SOL    HW110358   5.590   5.783   1.873
 3153SOL    HW210359   5.625   5.918   1.958
 3154SOL     OW10360   3.561   2.116   0.899
 3154SOL    HW110361   3.596   2.187   0.838
 3154SOL    HW210362   3.478   2.076   0.859
 3155SOL     OW10363   0.215   5.560   6.559
 3155SOL    HW110364   0.171   5.518   6.479
 3155SOL    HW210365   0.232   5.491   6.628
 3156SOL     OW10366   3.421   4.256   1.092
 3156SOL    HW110367   3.495   4.251   1.159
 3156SOL    HW210368   3.347   4.313   1.128
 3157SOL     OW10369   1.336   1.358   4.052
 3157SOL    HW110370   1.325   1.436   4.113
 3157SOL    HW210371   1.261   1.357   3.986
 3158SOL     OW10372   2.544   0.532   6.232
 3158SOL    HW110373   2.551   0.436   6.262
 3158SOL    HW210374   2.635   0.563   6.204
 3159SOL     OW10375   5.073   6.947   1.412
 3159SOL    HW110376   4.993   6.958   1.353
 3159SOL    HW210377   5.070   6.856   1.454
 3160SOL     OW10378   2.027   1.002   4.601
 3160SOL    HW110379   2.121   0.971   4.587
 3160SOL    HW210380   1.981   0.940   4.664
 3161SOL     OW10381   1.363   2.821   2.240
 3161SOL    HW110382   1.417   2.831   2.157
 3161SOL    HW210383   1.330   2.727   2.249
 3162SOL     OW10384   1.049   5.762   1.579
 3162SOL    HW110385   1.041   5.713   1.492
 3162SOL    HW210386   1.142   5.752   1.614
 3163SOL     OW10387   5.123   4.224   1.214
 3163SOL    HW110388   5.184   4.288   1.261
 3163SOL    HW210389   5.079   4.164   1.281
 3164SOL     OW10390   2.488   6.976   4.268
 3164SOL    HW110391   2.464   0.044   4.234
 3164SOL    HW210392   2.499   6.979   4.367
 3165SOL     OW10393   0.859   5.849   6.750
 3165SOL    HW110394   0.853   5.850   6.650
 3165SOL    HW210395   0.953   5.868   6.778
 3166SOL     OW10396   4.177   2.060   4.393
 3166SOL    HW110397   4.152   2.150   4.427
 3166SOL    HW210398   4.136   2.046   4.303
 3167SOL     OW10399   6.455   2.846   1.687
 3167SOL    HW110400   6.527   2.834   1.755
 3167SOL    HW210401   6.467   2.779   1.614
 3168SOL     OW10402   5.595   1.333   1.393
 3168SOL    HW110403   5.551   1.305   1.478
 3168SOL    HW210404   5.591   1.259   1.327
 3169SOL     OW10405   1.138   3.977   1.914
 3169SOL    HW110406   1.066   3.954   1.980
 3169SOL    HW210407   1.185   3.894   1.885
 3170SOL     OW10408   2.158   4.295   3.383
 3170SOL    HW110409   2.186   4.234   3.308
 3170SOL    HW210410   2.236   4.310   3.444
 3171SOL     OW10411   5.362   1.218   4.677
 3171SOL    HW110412   5.431   1.284   4.648
 3171SOL    HW210413   5.296   1.205   4.604
 3172SOL     OW10414   5.861   3.998   1.332
 3172SOL    HW110415   5.786   3.974   1.395
 3172SOL    HW210416   5.833   3.979   1.238
 3173SOL     OW10417   5.518   3.267   7.010
 3173SOL    HW110418   5.557   3.179   0.014
 3173SOL    HW210419   5.556   3.340   0.044
 3174SOL     OW10420   3.572   2.126   6.656
 3174SOL    HW110421   3.628   2.191   6.605
 3174SOL    HW210422   3.577   2.036   6.611
 3175SOL     OW10423   5.998   6.364   5.397
 3175SOL    HW110424   5.973   6.386   5.492
 3175SOL    HW210425   6.096   6.382   5.384
 3176SOL     OW10426   0.666   4.859   4.113
 3176SOL    HW110427   0.671   4.767   4.074
 3176SOL    HW210428   0.756   4.885   4.148
 3177SOL     OW10429   4.729   2.835   2.970
 3177SOL    HW110430   4.782   2.882   3.040
 3177SOL    HW210431   4.705   2.744   3.002
 3178SOL     OW10432   0.843   0.027   2.736
 3178SOL    HW110433   0.875   0.121   2.720
 3178SOL    HW210434   0.788   0.025   2.819
 3179SOL     OW10435   0.810   3.147   2.165
 3179SOL    HW110436   0.834   3.186   2.253
 3179SOL    HW210437   0.819   3.047   2.169
 3180SOL     OW10438   6.737   6.700   6.584
 3180SOL    HW110439   6.792   6.624   6.619
 3180SOL    HW210440   6.687   6.742   6.659
 3181SOL     OW10441   0.723   6.141   4.898
 3181SOL    HW110442   0.710   6.045   4.923
 3181SOL    HW210443   0.803   6.177   4.946
 3182SOL     OW10444   1.092   6.667   1.435
 3182SOL    HW110445   1.119   6.759   1.405
 3182SOL    HW210446   1.009   6.674   1.491
 3183SOL     OW10447   4.077   3.615   0.791
 3183SOL    HW110448   4.088   3.659   0.880
 3183SOL    HW210449   4.153   3.642   0.732
 3184SOL     OW10450   6.140   1.746   4.466
 3184SOL    HW110451   6.177   1.661   4.429
 3184SOL    HW210452   6.196   1.823   4.437
 3185SOL     OW10453   0.804   6.622   5.826
 3185SOL    HW110454   0.841   6.701   5.777
 3185SOL    HW210455   0.872   6.549   5.827
 3186SOL     OW10456   0.348   2.591   5.776
 3186SOL    HW110457   0.293   2.534   5.838
 3186SOL    HW210458   0.293   2.669   5.746
 3187SOL     OW10459   5.284   7.015   3.426
 3187SOL    HW110460   5.309   0.074   3.476
 3187SOL    HW210461   5.350   6.998   3.353
 3188SOL     OW10462   1.699   6.352   1.285
 3188SOL    HW110463   1.690   6.356   1.185
 3188SOL    HW210464   1.619   6.305   1.323
 3189SOL     OW10465   2.661   1.713   6.457
 3189SOL    HW110466   2.716   1.669   6.528
 3189SOL    HW210467   2.706   1.701   6.368
 3190SOL     OW10468   5.890   6.556   4.035
 3190SOL    HW110469   5.879   6.460   4.061
 3190SOL    HW210470   5.908   6.562   3.937
 3191SOL     OW10471   3.793   5.031   1.639
 3191SOL    HW110472   3.794   4.936   1.607
 3191SOL    HW210473   3.797   5.032   1.739
 3192SOL     OW10474   5.323   0.836   2.661
 3192SOL    HW110475   5.287   0.922   2.698
 3192SOL    HW210476   5.422   0.832   2.676
 3193SOL     OW10477   3.066   5.518   5.229
 3193SOL    HW110478   3.038   5.550   5.320
 3193SOL    HW210479   3.050   5.590   5.162
 3194SOL     OW10480   2.061   6.789   5.214
 3194SOL    HW110481   2.116   6.708   5.231
 3194SOL    HW210482   1.967   6.762   5.190
 3195SOL     OW10483   0.895   6.605   0.114
 3195SOL    HW110484   0.816   6.578   0.170
 3195SOL    HW210485   0.863   6.661   0.038
 3196SOL     OW10486   6.127   6.935   2.757
 3196SOL    HW110487   6.043   6.915   2.806
 3196SOL    HW210488   6.120   6.899   2.664
 3197SOL     OW10489   2.889   0.634   6.921
 3197SOL    HW110490   2.853   0.604   7.009
 3197SOL    HW210491   2.888   0.557   6.856
 3198SOL     OW10492   5.398   2.975   4.173
 3198SOL    HW110493   5.442   3.030   4.244
 3198SOL    HW210494   5.305   2.953   4.201
 3199SOL     OW10495   4.764   4.128   3.319
 3199SOL    HW110496   4.673   4.100   3.349
 3199SOL    HW210497   4.833   4.089   3.381
 3200SOL     OW10498   5.820   3.762   4.948
 3200SOL    HW110499   5.889   3.696   4.920
 3200SOL    HW210500   5.832   3.847   4.896
 3201SOL     OW10501   6.618   4.066   1.976
 3201SOL    HW110502   6.572   4.037   2.060
 3201SOL    HW210503   6.679   3.993   1.944
 3202SOL     OW10504   2.706   2.760   6.555
 3202SOL    HW110505   2.681   2.694   6.484
 3202SOL    HW210506   2.710   2.851   6.515
 3203SOL     OW10507   3.201   6.608   1.967
 3203SOL    HW110508   3.252   6.656   2.037
 3203SOL    HW210509   3.226   6.644   1.877
 3204SOL     OW10510   4.078   0.308   3.845
 3204SOL    HW110511   4.146   0.379   3.862
 3204SOL    HW210512   4.022   0.294   3.927
 3205SOL     OW10513   4.405   2.789   5.877
 3205SOL    HW110514   4.329   2.725   5.887
 3205SOL    HW210515   4.417   2.840   5.962
 3206SOL     OW10516   3.186   4.358   0.858
 3206SOL    HW110517   3.250   4.423   0.817
 3206SOL    HW210518   3.181   4.276   0.801
 3207SOL     OW10519   2.367   6.475   3.515
 3207SOL    HW110520   2.464   6.496   3.518
 3207SOL    HW210521   2.316   6.558   3.491
 3208SOL     OW10522   6.821   4.261   5.951
 3208SOL    HW110523   6.896   4.327   5.945
 3208SOL    HW210524   6.859   4.168   5.960
 3209SOL     OW10525   5.025   6.794   5.992
 3209SOL    HW110526   5.062   6.731   6.060
 3209SOL    HW210527   4.944   6.839   6.028
 3210SOL     OW10528   5.055   5.363   1.784
 3210SOL    HW110529   5.010   5.452   1.773
 3210SOL    HW210530   5.053   5.314   1.697
 3211SOL     OW10531   2.153   6.516   6.440
 3211SOL    HW110532   2.149   6.527   6.340
 3211SOL    HW210533   2.154   6.606   6.484
 3212SOL     OW10534   3.364   6.758   4.070
 3212SOL    HW110535   3.411   6.688   4.016
 3212SOL    HW210536   3.392   6.849   4.038
 3213SOL     OW10537   1.298   0.479   5.729
 3213SOL    HW110538   1.257   0.518   5.646
 3213SOL    HW210539   1.386   0.523   5.746
 3214SOL     OW10540   3.563   0.587   2.708
 3214SOL    HW110541   3.625   0.581   2.787
 3214SOL    HW210542   3.471   0.611   2.740
 3215SOL     OW10543   2.096   3.092   2.019
 3215SOL    HW110544   2.057   3.178   2.052
 3215SOL    HW210545   2.148   3.109   1.935
 3216SOL     OW10546   6.411   5.313   0.595
 3216SOL    HW110547   6.357   5.325   0.512
 3216SOL    HW210548   6.355   5.270   0.665
 3217SOL     OW10549   6.979   5.674   4.114
 3217SOL    HW110550   0.002   5.591   4.143
 3217SOL    HW210551   6.881   5.668   4.136
 3218SOL     OW10552   5.669   1.460   3.375
 3218SOL    HW110553   5.708   1.386   3.319
 3218SOL    HW210554   5.729   1.478   3.453
 3219SOL     OW10555   5.704   2.106   4.960
 3219SOL    HW110556   5.748   2.075   4.875
 3219SOL    HW210557   5.672   2.026   5.011
 3220SOL     OW10558   0.549   3.680   5.730
 3220SOL    HW110559   0.547   3.615   5.654
 3220SOL    HW210560   0.509   3.637   5.812
 3221SOL     OW10561   4.188   1.542   2.221
 3221SOL    HW110562   4.261   1.479   2.248
 3221SOL    HW210563   4.100   1.496   2.227
 3222SOL     OW10564   3.610   1.406   3.223
 3222SOL    HW110565   3.627   1.467   3.300
 3222SOL    HW210566   3.682   1.417   3.155
 3223SOL     OW10567   1.677   5.736   0.578
 3223SOL    HW110568   1.713   5.775   0.493
 3223SOL    HW210569   1.615   5.801   0.622
 3224SOL     OW10570   4.748   2.925   4.775
 3224SOL    HW110571   4.710   2.858   4.839
 3224SOL    HW210572   4.763   3.012   4.823
 3225SOL     OW10573   4.947   1.323   4.852
 3225SOL    HW110574   4.909   1.410   4.882
 3225SOL    HW210575   4.982   1.332   4.759
 3226SOL     OW10576   6.373   0.867   0.722
 3226SOL    HW110577   6.394   0.827   0.811
 3226SOL    HW210578   6.456   0.904   0.681
 3227SOL     OW10579   6.107   4.299   5.628
 3227SOL    HW110580   6.185   4.361   5.615
 3227SOL    HW210581   6.063   4.320   5.715
 3228SOL     OW10582   2.475   4.179   0.127
 3228SOL    HW110583   2.391   4.231   0.145
 3228SOL    HW210584   2.554   4.230   0.162
 3229SOL     OW10585   1.776   1.539   0.673
 3229SOL    HW110586   1.825   1.583   0.748
 3229SOL    HW210587   1.728   1.459   0.707
 3230SOL     OW10588   2.731   6.242   5.174
 3230SOL    HW110589   2.723   6.327   5.122
 3230SOL    HW210590   2.804   6.186   5.136
 3231SOL     OW10591   2.301   2.755   2.305
 3231SOL    HW110592   2.337   2.742   2.397
 3231SOL    HW210593   2.264   2.847   2.296
 3232SOL     OW10594   2.779   4.725   3.142
 3232SOL    HW110595   2.800   4.738   3.239
 3232SOL    HW210596   2.804   4.632   3.114
 3233SOL     OW10597   2.581   0.091   6.784
 3233SOL    HW110598   2.624   0.137   6.861
 3233SOL    HW210599   2.505   0.035   6.817
 3234SOL     OW10600   3.464   3.339   1.006
 3234SOL    HW110601   3.426   3.274   1.072
 3234SOL    HW210602   3.556   3.312   0.981
 3235SOL     OW10603   6.808   1.306   2.804
 3235SOL    HW110604   6.878   1.344   2.743
 3235SOL    HW210605   6.733   1.268   2.750
 3236SOL     OW10606   5.254   0.146   0.607
 3236SOL    HW110607   5.194   0.152   0.528
 3236SOL    HW210608   5.200   0.126   0.689
 3237SOL     OW10609   5.879   1.254   4.961
 3237SOL    HW110610   5.875   1.228   5.057
 3237SOL    HW210611   5.892   1.353   4.954
 3238SOL     OW10612   6.683   4.926   1.601
 3238SOL    HW110613   6.748   4.852   1.585
 3238SOL    HW210614   6.591   4.895   1.576
 3239SOL     OW10615   5.976   0.301   4.982
 3239SOL    HW110616   6.027   0.384   5.005
 3239SOL    HW210617   5.895   0.325   4.929
 3240SOL     OW10618   0.663   1.703   0.776
 3240SOL    HW110619   0.756   1.701   0.813
 3240SOL    HW210620   0.608   1.767   0.828
 3241SOL     OW10621   0.102   3.212   5.484
 3241SOL    HW110622   0.107   3.264   5.399
 3241SOL    HW210623   0.016   3.234   5.531
 3242SOL     OW10624   6.825   4.030   4.774
 3242SOL    HW110625   6.914   3.990   4.792
 3242SOL    HW210626   6.833   4.095   4.699
 3243SOL     OW10627   5.708   5.416   3.839
 3243SOL    HW110628   5.784   5.357   3.865
 3243SOL    HW210629   5.743   5.506   3.811
 3244SOL     OW10630   4.817   0.035   6.743
 3244SOL    HW110631   4.845   0.130   6.753
 3244SOL    HW210632   4.808   0.013   6.646
 3245SOL     OW10633   3.378   6.652   4.318
 3245SOL    HW110634   3.461   6.599   4.333
 3245SOL    HW210635   3.381   6.693   4.227
 3246SOL     OW10636   6.634   5.864   3.221
 3246SOL    HW110637   6.714   5.806   3.224
 3246SOL    HW210638   6.642   5.936   3.290
 3247SOL     OW10639   2.164   4.677   3.956
 3247SOL    HW110640   2.144   4.589   4.000
 3247SOL    HW210641   2.161   4.750   4.023
 3248SOL     OW10642   5.931   2.705   3.448
 3248SOL    HW110643   5.861   2.735   3.513
 3248SOL    HW210644   5.900   2.725   3.355
 3249SOL     OW10645   3.140   4.042   3.952
 3249SOL    HW110646   3.220   4.066   4.008
 3249SOL    HW210647   3.063   4.021   4.013
 3250SOL     OW10648   4.669   6.123   3.861
 3250SOL    HW110649   4.638   6.089   3.772
 3250SOL    HW210650   4.646   6.220   3.869
 3251SOL     OW10651   2.854   2.317   2.392
 3251SOL    HW110652   2.821   2.272   2.475
 3251SOL    HW210653   2.942   2.361   2.411
 3252SOL     OW10654   2.083   2.075   3.073
 3252SOL    HW110655   1.998   2.030   3.047
 3252SOL    HW210656   2.158   2.040   3.018
 3253SOL     OW10657   6.755   4.077   0.211
 3253SOL    HW110658   6.757   4.122   0.300
 3253SOL    HW210659   6.844   4.090   0.166
 3254SOL     OW10660   6.067   6.463   0.441
 3254SOL    HW110661   6.017   6.544   0.474
 3254SOL    HW210662   6.149   6.450   0.495
 3255SOL     OW10663   3.486   5.871   2.017
 3255SOL    HW110664   3.578   5.874   1.980
 3255SOL    HW210665   3.451   5.777   2.015
 3256SOL     OW10666   5.295   2.718   1.339
 3256SOL    HW110667   5.246   2.773   1.272
 3256SOL    HW210668   5.230   2.667   1.395
 3257SOL     OW10669   3.400   1.173   3.160
 3257SOL    HW110670   3.475   1.127   3.112
 3257SOL    HW210671   3.436   1.248   3.214
 3258SOL     OW10672   1.483   5.800   4.020
 3258SOL    HW110673   1.502   5.739   4.098
 3258SOL    HW210674   1.390   5.834   4.027
 3259SOL     OW10675   5.477   4.173   4.438
 3259SOL    HW110676   5.456   4.270   4.428
 3259SOL    HW210677   5.568   4.154   4.402
 3260SOL     OW10678   1.408   4.684   2.984
 3260SOL    HW110679   1.473   4.650   2.915
 3260SOL    HW210680   1.372   4.772   2.954
 3261SOL     OW10681   6.106   7.004   4.616
 3261SOL    HW110682   6.075   0.047   4.548
 3261SOL    HW210683   6.029   6.976   4.672
 3262SOL     OW10684   3.187   1.903   3.437
 3262SOL    HW110685   3.153   1.927   3.346
 3262SOL    HW210686   3.197   1.804   3.445
 3263SOL     OW10687   6.515   0.478   1.159
 3263SOL    HW110688   6.533   0.533   1.240
 3263SOL    HW210689   6.599   0.437   1.126
 3264SOL     OW10690   1.740   4.326   6.655
 3264SOL    HW110691   1.661   4.288   6.608
 3264SOL    HW210692   1.713   4.353   6.748
 3265SOL     OW10693   0.234   5.737   6.261
 3265SOL    HW110694   0.143   5.703   6.287
 3265SOL    HW210695   0.232   5.837   6.256
 3266SOL     OW10696   3.676   4.812   6.090
 3266SOL    HW110697   3.581   4.845   6.084
 3266SOL    HW210698   3.734   4.884   6.127
 3267SOL     OW10699   3.631   6.761   1.106
 3267SOL    HW110700   3.707   6.810   1.064
 3267SOL    HW210701   3.566   6.733   1.035
 3268SOL     OW10702   5.526   4.596   1.756
 3268SOL    HW110703   5.603   4.533   1.744
 3268SOL    HW210704   5.442   4.545   1.773
 3269SOL     OW10705   2.214   4.986   1.793
 3269SOL    HW110706   2.241   4.922   1.865
 3269SOL    HW210707   2.200   4.937   1.707
 3270SOL     OW10708   1.344   2.520   5.949
 3270SOL    HW110709   1.378   2.554   5.861
 3270SOL    HW210710   1.257   2.565   5.970
 3271SOL     OW10711   1.231   3.489   0.947
 3271SOL    HW110712   1.168   3.553   0.993
 3271SOL    HW210713   1.243   3.517   0.852
 3272SOL     OW10714   4.098   6.720   1.005
 3272SOL    HW110715   4.163   6.755   1.073
 3272SOL    HW210716   4.146   6.657   0.944
 3273SOL     OW10717   3.947   3.942   6.556
 3273SOL    HW110718   3.905   3.921   6.467
 3273SOL    HW210719   4.042   3.971   6.541
 3274SOL     OW10720   4.774   0.030   1.852
 3274SOL    HW110721   4.682   0.065   1.866
 3274SOL    HW210722   4.802   0.045   1.758
 3275SOL     OW10723   4.839   0.752   1.467
 3275SOL    HW110724   4.931   0.737   1.503
 3275SOL    HW210725   4.808   0.845   1.491
 3276SOL     OW10726   6.372   5.502   6.795
 3276SOL    HW110727   6.381   5.414   6.749
 3276SOL    HW210728   6.457   5.523   6.843
 3277SOL     OW10729   3.216   1.877   2.408
 3277SOL    HW110730   3.301   1.853   2.361
 3277SOL    HW210731   3.139   1.855   2.348
 3278SOL     OW10732   4.905   0.664   6.123
 3278SOL    HW110733   4.907   0.762   6.143
 3278SOL    HW210734   4.972   0.617   6.180
 3279SOL     OW10735   3.822   0.150   2.365
 3279SOL    HW110736   3.899   0.214   2.357
 3279SOL    HW210737   3.830   0.080   2.294
 3280SOL     OW10738   0.367   3.035   3.919
 3280SOL    HW110739   0.422   3.015   4.000
 3280SOL    HW210740   0.405   2.987   3.840
 3281SOL     OW10741   5.880   1.933   2.245
 3281SOL    HW110742   5.815   1.888   2.305
 3281SOL    HW210743   5.862   1.907   2.150
 3282SOL     OW10744   6.630   4.917   5.327
 3282SOL    HW110745   6.652   5.003   5.372
 3282SOL    HW210746   6.658   4.841   5.386
 3283SOL     OW10747   2.895   1.888   0.358
 3283SOL    HW110748   2.848   1.832   0.426
 3283SOL    HW210749   2.845   1.974   0.345
 3284SOL     OW10750   1.932   0.054   4.899
 3284SOL    HW110751   1.870   0.052   4.978
 3284SOL    HW210752   1.929   0.145   4.856
 3285SOL     OW10753   3.961   2.036   4.185
 3285SOL    HW110754   3.888   2.080   4.237
 3285SOL    HW210755   3.953   2.059   4.088
 3286SOL     OW10756   1.784   3.267   3.211
 3286SOL    HW110757   1.800   3.337   3.141
 3286SOL    HW210758   1.737   3.189   3.170
 3287SOL     OW10759   2.499   0.983   1.056
 3287SOL    HW110760   2.510   1.082   1.053
 3287SOL    HW210761   2.588   0.939   1.071
 3288SOL     OW10762   2.875   5.872   2.437
 3288SOL    HW110763   2.883   5.875   2.337
 3288SOL    HW210764   2.784   5.839   2.461
 3289SOL     OW10765   4.596   0.768   6.997
 3289SOL    HW110766   4.636   0.733   6.913
 3289SOL    HW210767   4.645   0.730   0.052
 3290SOL     OW10768   0.878   5.212   0.194
 3290SOL    HW110769   0.794   5.212   0.248
 3290SOL    HW210770   0.857   5.189   0.099
 3291SOL     OW10771   4.847   6.402   5.001
 3291SOL    HW110772   4.831   6.486   4.948
 3291SOL    HW210773   4.933   6.360   4.971
 3292SOL     OW10774   0.045   2.546   6.998
 3292SOL    HW110775   0.078   2.570   0.066
 3292SOL    HW210776   6.977   2.583   6.984
 3293SOL     OW10777   6.613   4.866   2.728
 3293SOL    HW110778   6.598   4.834   2.821
 3293SOL    HW210779   6.530   4.850   2.673
 3294SOL     OW10780   3.596   2.867   5.825
 3294SOL    HW110781   3.549   2.778   5.828
 3294SOL    HW210782   3.528   2.940   5.824
 3295SOL     OW10783   1.554   2.767   3.148
 3295SOL    HW110784   1.621   2.703   3.186
 3295SOL    HW210785   1.489   2.718   3.090
 3296SOL     OW10786   2.462   0.795   6.819
 3296SOL    HW110787   2.459   0.877   6.877
 3296SOL    HW210788   2.406   0.810   6.737
 3297SOL     OW10789   3.654   0.582   5.195
 3297SOL    HW110790   3.728   0.535   5.147
 3297SOL    HW210791   3.691   0.635   5.271
 3298SOL     OW10792   3.554   4.823   5.547
 3298SOL    HW110793   3.480   4.855   5.488
 3298SOL    HW210794   3.515   4.774   5.626
 3299SOL     OW10795   2.961   6.940   3.765
 3299SOL    HW110796   2.924   7.017   3.818
 3299SOL    HW210797   2.998   6.974   3.678
 3300SOL     OW10798   1.634   0.920   3.641
 3300SOL    HW110799   1.730   0.900   3.624
 3300SOL    HW210800   1.621   0.942   3.738
 3301SOL     OW10801   1.015   1.380   2.775
 3301SOL    HW110802   1.089   1.347   2.834
 3301SOL    HW210803   0.972   1.460   2.818
 3302SOL     OW10804   1.371   5.222   5.398
 3302SOL    HW110805   1.470   5.213   5.412
 3302SOL    HW210806   1.323   5.168   5.467
 3303SOL     OW10807   3.685   3.908   0.567
 3303SOL    HW110808   3.772   3.857   0.574
 3303SOL    HW210809   3.629   3.867   0.495
 3304SOL     OW10810   2.220   4.317   0.132
 3304SOL    HW110811   2.176   4.369   0.058
 3304SOL    HW210812   2.236   4.377   0.210
 3305SOL     OW10813   3.094   2.956   0.099
 3305SOL    HW110814   3.011   2.951   0.154
 3305SOL    HW210815   3.105   3.048   0.063
 3306SOL     OW10816   2.573   0.017   0.332
 3306SOL    HW110817   2.635   0.095   0.325
 3306SOL    HW210818   2.620   6.958   0.301
 3307SOL     OW10819   2.105   5.661   4.398
 3307SOL    HW110820   2.111   5.662   4.498
 3307SOL    HW210821   2.136   5.573   4.364
 3308SOL     OW10822   4.422   5.100   1.650
 3308SOL    HW110823   4.349   5.082   1.717
 3308SOL    HW210824   4.412   5.038   1.573
 3309SOL     OW10825   5.279   3.878   3.349
 3309SOL    HW110826   5.182   3.897   3.365
 3309SOL    HW210827   5.321   3.957   3.303
 3310SOL     OW10828   6.200   4.296   5.978
 3310SOL    HW110829   6.220   4.337   6.067
 3310SOL    HW210830   6.283   4.297   5.921
 3311SOL     OW10831   1.990   2.908   0.311
 3311SOL    HW110832   2.058   2.894   0.384
 3311SOL    HW210833   1.898   2.897   0.349
 3312SOL     OW10834   4.750   3.347   6.691
 3312SOL    HW110835   4.777   3.330   6.596
 3312SOL    HW210836   4.661   3.305   6.708
 3313SOL     OW10837   0.091   0.060   4.594
 3313SOL    HW110838   0.164   0.117   4.633
 3313SOL    HW210839   0.037   0.114   4.530
 3314SOL     OW10840   3.697   6.281   2.875
 3314SOL    HW110841   3.707   6.187   2.907
 3314SOL    HW210842   3.623   6.285   2.807
 3315SOL     OW10843   1.741   6.552   3.991
 3315SOL    HW110844   1.817   6.535   4.055
 3315SOL    HW210845   1.675   6.613   4.034
 3316SOL     OW10846   3.838   2.456   7.012
 3316SOL    HW110847   3.872   2.373   6.968
 3316SOL    HW210848   3.913   2.520   0.001
 3317SOL     OW10849   5.799   1.858   1.531
 3317SOL    HW110850   5.790   1.837   1.434
 3317SOL    HW210851   5.795   1.773   1.584
 3318SOL     OW10852   3.528   3.220   0.555
 3318SOL    HW110853   3.548   3.124   0.536
 3318SOL    HW210854   3.432   3.231   0.579
 3319SOL     OW10855   6.400   6.287   4.185
 3319SOL    HW110856   6.330   6.336   4.133
 3319SOL    HW210857   6.468   6.351   4.219
 3320SOL     OW10858   6.479   0.487   2.308
 3320SOL    HW110859   6.518   0.429   2.236
 3320SOL    HW210860   6.384   0.461   2.323
 3321SOL     OW10861   4.766   1.967   0.093
 3321SOL    HW110862   4.767   2.032   0.016
 3321SOL    HW210863   4.709   2.004   0.166
 3322SOL     OW10864   5.967   2.980   0.963
 3322SOL    HW110865   5.985   2.951   0.869
 3322SOL    HW210866   5.931   2.902   1.015
 3323SOL     OW10867   1.589   1.687   1.484
 3323SOL    HW110868   1.516   1.754   1.499
 3323SOL    HW210869   1.550   1.601   1.453
 3324SOL     OW10870   5.943   5.181   6.047
 3324SOL    HW110871   5.951   5.159   5.949
 3324SOL    HW210872   5.854   5.223   6.065
 3325SOL     OW10873   2.875   5.034   5.287
 3325SOL    HW110874   2.922   5.098   5.225
 3325SOL    HW210875   2.786   5.072   5.312
 3326SOL     OW10876   3.517   1.981   2.163
 3326SOL    HW110877   3.432   1.966   2.112
 3326SOL    HW210878   3.572   2.051   2.117
 3327SOL     OW10879   1.156   5.617   5.863
 3327SOL    HW110880   1.189   5.609   5.957
 3327SOL    HW210881   1.221   5.576   5.800
 3328SOL     OW10882   4.871   2.793   5.567
 3328SOL    HW110883   4.879   2.780   5.666
 3328SOL    HW210884   4.920   2.876   5.540
 3329SOL     OW10885   0.081   6.398   5.506
 3329SOL    HW110886   0.027   6.317   5.531
 3329SOL    HW210887   0.141   6.423   5.582
 3330SOL     OW10888   6.948   3.347   3.052
 3330SOL    HW110889   6.962   3.346   3.151
 3330SOL    HW210890   6.850   3.351   3.032
 3331SOL     OW10891   1.820   3.317   0.829
 3331SOL    HW110892   1.773   3.230   0.845
 3331SOL    HW210893   1.873   3.312   0.745
 3332SOL     OW10894   6.666   3.911   1.323
 3332SOL    HW110895   6.751   3.864   1.299
 3332SOL    HW210896   6.665   4.002   1.280
 3333SOL     OW10897   2.609   5.866   5.811
 3333SOL    HW110898   2.524   5.853   5.861
 3333SOL    HW210899   2.683   5.815   5.857
 3334SOL     OW10900   1.488   3.481   1.331
 3334SOL    HW110901   1.466   3.504   1.236
 3334SOL    HW210902   1.583   3.454   1.338
 3335SOL     OW10903   5.701   4.287   4.861
 3335SOL    HW110904   5.707   4.378   4.820
 3335SOL    HW210905   5.609   4.250   4.847
 3336SOL     OW10906   3.013   6.027   5.840
 3336SOL    HW110907   3.038   6.079   5.921
 3336SOL    HW210908   3.059   6.066   5.760
 3337SOL     OW10909   3.411   1.863   0.793
 3337SOL    HW110910   3.460   1.799   0.852
 3337SOL    HW210911   3.314   1.839   0.789
 3338SOL     OW10912   6.906   4.671   0.193
 3338SOL    HW110913   6.856   4.706   0.273
 3338SOL    HW210914   6.957   4.589   0.219
 3339SOL     OW10915   1.043   5.098   6.043
 3339SOL    HW110916   1.039   5.167   5.971
 3339SOL    HW210917   0.950   5.081   6.077
 3340SOL     OW10918   3.973   0.559   2.133
 3340SOL    HW110919   3.890   0.504   2.134
 3340SOL    HW210920   4.041   0.517   2.194
 3341SOL     OW10921   0.466   6.932   0.673
 3341SOL    HW110922   0.513   6.979   0.748
 3341SOL    HW210923   0.505   6.841   0.661
 3342SOL     OW10924   2.829   0.441   5.481
 3342SOL    HW110925   2.864   0.351   5.505
 3342SOL    HW210926   2.730   0.442   5.489
 3343SOL     OW10927   0.273   2.636   1.262
 3343SOL    HW110928   0.373   2.628   1.264
 3343SOL    HW210929   0.237   2.580   1.188
 3344SOL     OW10930   0.336   2.535   6.147
 3344SOL    HW110931   0.251   2.542   6.094
 3344SOL    HW210932   0.354   2.622   6.192
 3345SOL     OW10933   2.080   3.778   5.285
 3345SOL    HW110934   2.080   3.685   5.321
 3345SOL    HW210935   1.998   3.826   5.317
 3346SOL     OW10936   1.778   5.903   2.563
 3346SOL    HW110937   1.765   5.913   2.464
 3346SOL    HW210938   1.790   5.806   2.586
 3347SOL     OW10939   5.947   3.693   3.777
 3347SOL    HW110940   5.890   3.674   3.857
 3347SOL    HW210941   6.005   3.614   3.757
 3348SOL     OW10942   3.713   3.678   3.006
 3348SOL    HW110943   3.707   3.625   3.090
 3348SOL    HW210944   3.672   3.626   2.931
 3349SOL     OW10945   5.500   3.312   6.358
 3349SOL    HW110946   5.423   3.320   6.422
 3349SOL    HW210947   5.465   3.316   6.264
 3350SOL     OW10948   1.355   2.275   0.936
 3350SOL    HW110949   1.398   2.293   1.025
 3350SOL    HW210950   1.400   2.328   0.865
 3351SOL     OW10951   5.585   2.659   0.296
 3351SOL    HW110952   5.508   2.722   0.299
 3351SOL    HW210953   5.618   2.643   0.389
 3352SOL     OW10954   0.316   3.093   0.221
 3352SOL    HW110955   0.301   3.003   0.181
 3352SOL    HW210956   0.229   3.132   0.250
 3353SOL     OW10957   1.651   6.568   6.056
 3353SOL    HW110958   1.680   6.548   6.150
 3353SOL    HW210959   1.640   6.482   6.006
 3354SOL     OW10960   1.025   0.864   1.787
 3354SOL    HW110961   0.954   0.802   1.754
 3354SOL    HW210962   0.990   0.958   1.788
 3355SOL     OW10963   6.128   1.027   2.631
 3355SOL    HW110964   6.191   1.051   2.705
 3355SOL    HW210965   6.034   1.046   2.660
 3356SOL     OW10966   1.494   3.608   5.565
 3356SOL    HW110967   1.471   3.561   5.651
 3356SOL    HW210968   1.593   3.603   5.550
 3357SOL     OW10969   2.645   5.436   2.178
 3357SOL    HW110970   2.556   5.481   2.177
 3357SOL    HW210971   2.676   5.426   2.273
 3358SOL     OW10972   6.894   4.810   3.765
 3358SOL    HW110973   6.910   4.736   3.701
 3358SOL    HW210974   6.866   4.892   3.715
 3359SOL     OW10975   1.987   1.368   2.004
 3359SOL    HW110976   1.974   1.273   1.979
 3359SOL    HW210977   2.085   1.387   2.011
 3360SOL     OW10978   2.341   0.545   6.441
 3360SOL    HW110979   2.370   0.515   6.532
 3360SOL    HW210980   2.417   0.534   6.377
 3361SOL     OW10981   3.879   1.027   3.191
 3361SOL    HW110982   3.939   1.107   3.192
 3361SOL    HW210983   3.924   0.952   3.239
 3362SOL     OW10984   3.058   1.822   4.312
 3362SOL    HW110985   3.014   1.786   4.230
 3362SOL    HW210986   3.107   1.907   4.289
 3363SOL     OW10987   6.744   0.876   6.399
 3363SOL    HW110988   6.707   0.809   6.463
 3363SOL    HW210989   6.841   0.888   6.416
 3364SOL     OW10990   2.862   4.941   6.183
 3364SOL    HW110991   2.947   4.961   6.230
 3364SOL    HW210992   2.876   4.948   6.084
 3365SOL     OW10993   6.270   2.156   5.648
 3365SOL    HW110994   6.348   2.197   5.601
 3365SOL    HW210995   6.192   2.153   5.586
 3366SOL     OW10996   5.418   1.328   6.830
 3366SOL    HW110997   5.433   1.351   6.926
 3366SOL    HW210998   5.335   1.373   6.798
 3367SOL     OW10999   1.654   0.301   2.286
 3367SOL    HW111000   1.626   0.275   2.378
 3367SOL    HW211001   1.636   0.398   2.271
 3368SOL     OW11002   6.460   1.590   5.250
 3368SOL    HW111003   6.517   1.672   5.253
 3368SOL    HW211004   6.364   1.617   5.255
 3369SOL     OW11005   3.642   6.268   6.522
 3369SOL    HW111006   3.735   6.274   6.485
 3369SOL    HW211007   3.587   6.209   6.464
 3370SOL     OW11008   5.839   0.061   5.823
 3370SOL    HW111009   5.802   0.018   5.741
 3370SOL    HW211010   5.802   0.153   5.833
 3371SOL     OW11011   7.016   4.828   1.317
 3371SOL    HW111012   6.986   4.802   1.408
 3371SOL    HW211013   6.944   4.880   1.271
 3372SOL     OW11014   0.270   2.202   2.742
 3372SOL    HW111015   0.259   2.190   2.840
 3372SOL    HW211016   0.276   2.300   2.721
 3373SOL     OW11017   0.680   2.349   6.704
 3373SOL    HW111018   0.773   2.326   6.678
 3373SOL    HW211019   0.621   2.269   6.691
 3374SOL     OW11020   3.852   5.949   5.525
 3374SOL    HW111021   3.847   5.941   5.625
 3374SOL    HW211022   3.946   5.969   5.498
 3375SOL     OW11023   3.539   3.886   4.754
 3375SOL    HW111024   3.542   3.961   4.688
 3375SOL    HW211025   3.622   3.889   4.811
 3376SOL     OW11026   2.884   3.083   1.842
 3376SOL    HW111027   2.855   3.177   1.825
 3376SOL    HW211028   2.824   3.020   1.794
 3377SOL     OW11029   2.548   5.467   5.348
 3377SOL    HW111030   2.593   5.489   5.435
 3377SOL    HW211031   2.451   5.451   5.363
 3378SOL     OW11032   0.444   1.079   0.564
 3378SOL    HW111033   0.365   1.127   0.526
 3378SOL    HW211034   0.521   1.143   0.571
 3379SOL     OW11035   6.363   4.963   5.645
 3379SOL    HW111036   6.385   5.055   5.613
 3379SOL    HW211037   6.435   4.931   5.707
 3380SOL     OW11038   0.858   3.958   5.169
 3380SOL    HW111039   0.937   3.905   5.198
 3380SOL    HW211040   0.805   3.986   5.249
 3381SOL     OW11041   3.466   2.761   1.653
 3381SOL    HW111042   3.552   2.716   1.677
 3381SOL    HW211043   3.406   2.762   1.733
 3382SOL     OW11044   6.912   6.496   6.701
 3382SOL    HW111045   6.895   6.468   6.795
 3382SOL    HW211046   6.999   6.458   6.670
 3383SOL     OW11047   0.967   4.700   1.847
 3383SOL    HW111048   1.015   4.782   1.878
 3383SOL    HW211049   0.954   4.704   1.748
 3384SOL     OW11050   3.145   3.271   4.698
 3384SOL    HW111051   3.151   3.180   4.738
 3384SOL    HW211052   3.217   3.329   4.736
 3385SOL     OW11053   6.541   4.502   3.925
 3385SOL    HW111054   6.567   4.599   3.930
 3385SOL    HW211055   6.505   4.473   4.014
 3386SOL     OW11056   6.170   3.893   4.905
 3386SOL    HW111057   6.102   3.962   4.930
 3386SOL    HW211058   6.127   3.825   4.845
 3387SOL     OW11059   3.205   2.134   3.015
 3387SOL    HW111060   3.133   2.190   2.974
 3387SOL    HW211061   3.267   2.103   2.942
 3388SOL     OW11062   5.580   2.543   1.581
 3388SOL    HW111063   5.664   2.553   1.635
 3388SOL    HW211064   5.580   2.454   1.536
 3389SOL     OW11065   4.162   5.235   2.841
 3389SOL    HW111066   4.229   5.176   2.796
 3389SOL    HW211067   4.180   5.236   2.939
 3390SOL     OW11068   4.622   2.667   5.959
 3390SOL    HW111069   4.630   2.706   6.050
 3390SOL    HW211070   4.540   2.703   5.914
 3391SOL     OW11071   3.538   2.155   4.002
 3391SOL    HW111072   3.603   2.186   3.933
 3391SOL    HW211073   3.553   2.205   4.087
 3392SOL     OW11074   4.913   5.976   3.068
 3392SOL    HW111075   4.984   5.964   2.999
 3392SOL    HW211076   4.956   5.991   3.158
 3393SOL     OW11077   0.232   0.499   0.217
 3393SOL    HW111078   0.187   0.577   0.261
 3393SOL    HW211079   0.314   0.474   0.268
 3394SOL     OW11080   5.727   1.834   2.476
 3394SOL    HW111081   5.817   1.833   2.521
 3394SOL    HW211082   5.656   1.848   2.545
 3395SOL     OW11083   1.149   3.905   5.228
 3395SOL    HW111084   1.204   3.942   5.152
 3395SOL    HW211085   1.203   3.837   5.278
 3396SOL     OW11086   6.199   3.389   4.487
 3396SOL    HW111087   6.251   3.391   4.401
 3396SOL    HW211088   6.250   3.438   4.558
 3397SOL     OW11089   3.333   6.059   6.280
 3397SOL    HW111090   3.360   6.030   6.371
 3397SOL    HW211091   3.234   6.074   6.278
 3398SOL     OW11092   0.804   0.715   3.154
 3398SOL    HW111093   0.736   0.697   3.084
 3398SOL    HW211094   0.769   0.688   3.244
 3399SOL     OW11095   4.324   5.391   5.015
 3399SOL    HW111096   4.244   5.341   5.050
 3399SOL    HW211097   4.296   5.447   4.937
 3400SOL     OW11098   5.004   2.523   6.905
 3400SOL    HW111099   4.920   2.470   6.916
 3400SOL    HW211100   4.989   2.616   6.937
 3401SOL     OW11101   6.926   4.361   6.777
 3401SOL    HW111102   6.868   4.285   6.748
 3401SOL    HW211103   6.897   4.445   6.731
 3402SOL     OW11104   5.492   5.054   2.258
 3402SOL    HW111105   5.499   5.001   2.342
 3402SOL    HW211106   5.421   5.124   2.268
 3403SOL     OW11107   3.143   2.042   5.168
 3403SOL    HW111108   3.167   2.138   5.155
 3403SOL    HW211109   3.140   1.997   5.079
 3404SOL     OW11110   4.559   0.362   1.381
 3404SOL    HW111111   4.480   0.323   1.428
 3404SOL    HW211112   4.575   0.456   1.413
 3405SOL     OW11113   5.943   3.794   0.152
 3405SOL    HW111114   6.020   3.731   0.141
 3405SOL    HW211115   5.977   3.887   0.167
 3406SOL     OW11116   0.997   4.374   1.351
 3406SOL    HW111117   0.908   4.328   1.353
 3406SOL    HW211118   1.069   4.307   1.335
 3407SOL     OW11119   1.576   5.177   2.789
 3407SOL    HW111120   1.609   5.116   2.861
 3407SOL    HW211121   1.580   5.129   2.701
 3408SOL     OW11122   5.193   3.757   2.657
 3408SOL    HW111123   5.208   3.771   2.755
 3408SOL    HW211124   5.101   3.787   2.632
 3409SOL     OW11125   3.046   1.087   5.568
 3409SOL    HW111126   3.013   0.997   5.597
 3409SOL    HW211127   3.042   1.151   5.645
 3410SOL     OW11128   0.112   0.993   0.150
 3410SOL    HW111129   0.170   0.924   0.107
 3410SOL    HW211130   0.096   0.969   0.246
 3411SOL     OW11131   4.432   2.328   2.536
 3411SOL    HW111132   4.509   2.376   2.578
 3411SOL    HW211133   4.465   2.261   2.470
 3412SOL     OW11134   4.030   5.684   6.898
 3412SOL    HW111135   4.088   5.641   6.968
 3412SOL    HW211136   3.935   5.681   6.928
 3413SOL     OW11137   4.499   1.616   2.418
 3413SOL    HW111138   4.552   1.700   2.403
 3413SOL    HW211139   4.402   1.635   2.404
 3414SOL     OW11140   3.383   1.127   5.322
 3414SOL    HW111141   3.302   1.074   5.347
 3414SOL    HW211142   3.465   1.078   5.352
 3415SOL     OW11143   1.200   5.500   4.663
 3415SOL    HW111144   1.181   5.578   4.603
 3415SOL    HW211145   1.177   5.415   4.615
 3416SOL     OW11146   2.826   4.692   6.571
 3416SOL    HW111147   2.727   4.707   6.571
 3416SOL    HW211148   2.851   4.637   6.492
 3417SOL     OW11149   5.777   0.870   1.346
 3417SOL    HW111150   5.859   0.830   1.305
 3417SOL    HW211151   5.756   0.822   1.431
 3418SOL     OW11152   3.086   2.293   6.090
 3418SOL    HW111153   3.088   2.392   6.075
 3418SOL    HW211154   3.170   2.266   6.138
 3419SOL     OW11155   4.757   3.683   0.230
 3419SOL    HW111156   4.738   3.662   0.325
 3419SOL    HW211157   4.751   3.599   0.175
 3420SOL     OW11158   4.241   1.565   3.730
 3420SOL    HW111159   4.198   1.653   3.747
 3420SOL    HW211160   4.185   1.492   3.769
 3421SOL     OW11161   0.125   6.759   2.962
 3421SOL    HW111162   0.098   6.714   3.047
 3421SOL    HW211163   0.147   6.689   2.893
 3422SOL     OW11164   3.288   2.075   2.562
 3422SOL    HW111165   3.267   1.987   2.520
 3422SOL    HW211166   3.370   2.113   2.520
 3423SOL     OW11167   2.834   0.584   1.903
 3423SOL    HW111168   2.865   0.666   1.854
 3423SOL    HW211169   2.804   0.609   1.995
 3424SOL     OW11170   4.372   0.739   2.159
 3424SOL    HW111171   4.449   0.760   2.100
 3424SOL    HW211172   4.298   0.699   2.105
 3425SOL     OW11173   4.493   3.974   1.418
 3425SOL    HW111174   4.482   4.047   1.486
 3425SOL    HW211175   4.561   4.002   1.350
 3426SOL     OW11176   4.748   3.825   0.895
 3426SOL    HW111177   4.662   3.791   0.933
 3426SOL    HW211178   4.738   3.921   0.871
 3427SOL     OW11179   1.146   1.324   0.605
 3427SOL    HW111180   1.246   1.325   0.611
 3427SOL    HW211181   1.117   1.386   0.532
 3428SOL     OW11182   4.077   4.745   3.495
 3428SOL    HW111183   3.980   4.758   3.515
 3428SOL    HW211184   4.122   4.702   3.574
 3429SOL     OW11185   0.156   2.796   0.407
 3429SOL    HW111186   0.234   2.741   0.437
 3429SOL    HW211187   0.077   2.737   0.392
 3430SOL     OW11188   1.477   5.218   6.474
 3430SOL    HW111189   1.386   5.238   6.510
 3430SOL    HW211190   1.477   5.236   6.375
 3431SOL     OW11191   1.675   6.239   6.615
 3431SOL    HW111192   1.593   6.296   6.624
 3431SOL    HW211193   1.754   6.290   6.649
 3432SOL     OW11194   2.663   1.960   6.912
 3432SOL    HW111195   2.652   2.003   6.822
 3432SOL    HW211196   2.583   1.904   6.932
 3433SOL     OW11197   4.972   0.964   4.292
 3433SOL    HW111198   4.993   0.869   4.317
 3433SOL    HW211199   4.982   1.022   4.372
 3434SOL     OW11200   4.327   1.854   3.368
 3434SOL    HW111201   4.339   1.914   3.289
 3434SOL    HW211202   4.417   1.828   3.404
 3435SOL     OW11203   0.566   1.169   0.038
 3435SOL    HW111204   0.595   1.198   0.129
 3435SOL    HW211205   0.610   1.082   0.015
 3436SOL     OW11206   4.694   0.050   3.340
 3436SOL    HW111207   4.624   0.087   3.401
 3436SOL    HW211208   4.676   0.081   3.246
 3437SOL     OW11209   4.741   0.750   6.758
 3437SOL    HW111210   4.824   0.794   6.793
 3437SOL    HW211211   4.749   0.740   6.659
 3438SOL     OW11212   1.228   4.658   6.707
 3438SOL    HW111213   1.328   4.664   6.712
 3438SOL    HW211214   1.188   4.747   6.728
 3439SOL     OW11215   2.590   0.125   3.621
 3439SOL    HW111216   2.591   0.216   3.664
 3439SOL    HW211217   2.514   0.120   3.556
 3440SOL     OW11218   3.257   2.570   0.782
 3440SOL    HW111219   3.158   2.561   0.796
 3440SOL    HW211220   3.304   2.535   0.863
 3441SOL     OW11221   4.133   0.543   4.499
 3441SOL    HW111222   4.135   0.633   4.541
 3441SOL    HW211223   4.204   0.485   4.539
 3442SOL     OW11224   0.894   4.890   3.360
 3442SOL    HW111225   0.994   4.886   3.370
 3442SOL    HW211226   0.855   4.938   3.438
 3443SOL     OW11227   5.978   6.910   3.901
 3443SOL    HW111228   5.959   7.001   3.863
 3443SOL    HW211229   5.909   6.845   3.868
 3444SOL     OW11230   4.728   4.964   0.458
 3444SOL    HW111231   4.716   4.953   0.360
 3444SOL    HW211232   4.647   4.929   0.506
 3445SOL     OW11233   5.427   5.064   4.445
 3445SOL    HW111234   5.397   4.975   4.410
 3445SOL    HW211235   5.510   5.052   4.499
 3446SOL     OW11236   3.316   6.388   3.093
 3446SOL    HW111237   3.285   6.446   3.018
 3446SOL    HW211238   3.268   6.300   3.089
 3447SOL     OW11239   6.314   4.694   5.702
 3447SOL    HW111240   6.312   4.679   5.801
 3447SOL    HW211241   6.294   4.790   5.682
 3448SOL     OW11242   3.368   2.565   1.031
 3448SOL    HW111243   3.466   2.580   1.024
 3448SOL    HW211244   3.351   2.470   1.057
 3449SOL     OW11245   6.470   6.112   2.866
 3449SOL    HW111246   6.479   6.208   2.838
 3449SOL    HW211247   6.518   6.098   2.952
 3450SOL     OW11248   0.802   2.029   1.224
 3450SOL    HW111249   0.779   2.124   1.247
 3450SOL    HW211250   0.876   2.028   1.157
 3451SOL     OW11251   1.542   4.965   4.472
 3451SOL    HW111252   1.475   4.952   4.544
 3451SOL    HW211253   1.495   4.980   4.385
 3452SOL     OW11254   6.841   2.125   0.547
 3452SOL    HW111255   6.935   2.139   0.578
 3452SOL    HW211256   6.841   2.062   0.470
 3453SOL     OW11257   5.922   6.633   5.918
 3453SOL    HW111258   6.017   6.653   5.895
 3453SOL    HW211259   5.876   6.717   5.945
 3454SOL     OW11260   1.330   1.220   0.299
 3454SOL    HW111261   1.291   1.134   0.265
 3454SOL    HW211262   1.429   1.209   0.309
 3455SOL     OW11263   2.262   2.896   4.138
 3455SOL    HW111264   2.165   2.875   4.154
 3455SOL    HW211265   2.271   2.954   4.058
 3456SOL     OW11266   6.465   6.932   0.873
 3456SOL    HW111267   6.509   6.927   0.963
 3456SOL    HW211268   6.397   7.005   0.873
 3457SOL     OW11269   2.225   6.882   3.762
 3457SOL    HW111270   2.160   6.837   3.824
 3457SOL    HW211271   2.304   6.822   3.747
 3458SOL     OW11272   5.208   5.342   0.612
 3458SOL    HW111273   5.303   5.368   0.634
 3458SOL    HW211274   5.208   5.255   0.563
 3459SOL     OW11275   6.722   6.381   3.356
 3459SOL    HW111276   6.625   6.356   3.358
 3459SOL    HW211277   6.733   6.471   3.314
 3460SOL     OW11278   3.401   3.062   5.815
 3460SOL    HW111279   3.441   3.108   5.736
 3460SOL    HW211280   3.302   3.075   5.814
 3461SOL     OW11281   2.400   5.850   3.118
 3461SOL    HW111282   2.457   5.904   3.179
 3461SOL    HW211283   2.456   5.809   3.046
 3462SOL     OW11284   5.126   2.674   2.986
 3462SOL    HW111285   5.087   2.746   2.928
 3462SOL    HW211286   5.097   2.585   2.952
 3463SOL     OW11287   1.765   2.542   1.317
 3463SOL    HW111288   1.826   2.582   1.248
 3463SOL    HW211289   1.771   2.443   1.314
 3464SOL     OW11290   5.245   2.460   6.285
 3464SOL    HW111291   5.209   2.553   6.288
 3464SOL    HW211292   5.245   2.427   6.190
 3465SOL     OW11293   2.220   4.755   1.617
 3465SOL    HW111294   2.285   4.679   1.614
 3465SOL    HW211295   2.135   4.724   1.660
 3466SOL     OW11296   6.146   4.187   3.933
 3466SOL    HW111297   6.221   4.253   3.927
 3466SOL    HW211298   6.119   4.176   4.029
 3467SOL     OW11299   2.937   3.075   1.178
 3467SOL    HW111300   2.914   2.984   1.143
 3467SOL    HW211301   2.864   3.107   1.238
 3468SOL     OW11302   3.535   1.840   0.555
 3468SOL    HW111303   3.495   1.858   0.645
 3468SOL    HW211304   3.488   1.895   0.486
 3469SOL     OW11305   3.808   5.915   5.793
 3469SOL    HW111306   3.859   5.848   5.846
 3469SOL    HW211307   3.729   5.947   5.846
 3470SOL     OW11308   0.995   2.549   1.783
 3470SOL    HW111309   1.037   2.604   1.711
 3470SOL    HW211310   1.017   2.452   1.767
 3471SOL     OW11311   4.612   2.984   5.295
 3471SOL    HW111312   4.604   3.024   5.386
 3471SOL    HW211313   4.673   3.039   5.239
 3472SOL     OW11314   4.432   1.574   2.989
 3472SOL    HW111315   4.339   1.610   2.984
 3472SOL    HW211316   4.439   1.490   2.935
 3473SOL     OW11317   5.952   4.845   2.108
 3473SOL    HW111318   5.903   4.842   2.195
 3473SOL    HW211319   6.048   4.822   2.122
 3474SOL     OW11320   5.165   4.650   4.053
 3474SOL    HW111321   5.204   4.681   4.140
 3474SOL    HW211322   5.079   4.698   4.036
 3475SOL     OW11323   0.057   4.771   3.948
 3475SOL    HW111324   7.005   4.754   3.885
 3475SOL    HW211325   0.053   4.703   4.022
 3476SOL     OW11326   1.656   1.434   3.143
 3476SOL    HW111327   1.693   1.346   3.175
 3476SOL    HW211328   1.556   1.430   3.146
 3477SOL     OW11329   0.829   4.176   1.882
 3477SOL    HW111330   0.831   4.208   1.787
 3477SOL    HW211331   0.789   4.084   1.885
 3478SOL     OW11332   2.418   0.700   1.332
 3478SOL    HW111333   2.347   0.764   1.303
 3478SOL    HW211334   2.492   0.750   1.377
 3479SOL     OW11335   1.750   5.026   4.784
 3479SOL    HW111336   1.736   5.124   4.800
 3479SOL    HW211337   1.663   4.983   4.761
 3480SOL     OW11338   1.549   4.769   6.605
 3480SOL    HW111339   1.488   4.757   6.526
 3480SOL    HW211340   1.576   4.865   6.612
 3481SOL     OW11341   5.857   0.707   4.586
 3481SOL    HW111342   5.956   0.702   4.585
 3481SOL    HW211343   5.819   0.622   4.548
 3482SOL     OW11344   5.721   3.132   6.392
 3482SOL    HW111345   5.735   3.096   6.484
 3482SOL    HW211346   5.638   3.189   6.391
 3483SOL     OW11347   5.485   2.947   5.595
 3483SOL    HW111348   5.451   3.041   5.591
 3483SOL    HW211349   5.461   2.906   5.682
 3484SOL     OW11350   1.106   3.846   4.878
 3484SOL    HW111351   1.199   3.872   4.904
 3484SOL    HW211352   1.045   3.860   4.956
 3485SOL     OW11353   6.700   2.931   6.586
 3485SOL    HW111354   6.645   2.929   6.503
 3485SOL    HW211355   6.797   2.937   6.562
 3486SOL     OW11356   1.929   6.687   5.991
 3486SOL    HW111357   1.837   6.653   6.009
 3486SOL    HW211358   1.929   6.787   5.992
 3487SOL     OW11359   4.371   1.195   6.851
 3487SOL    HW111360   4.419   1.229   6.770
 3487SOL    HW211361   4.391   1.098   6.863
 3488SOL     OW11362   5.649   6.989   4.645
 3488SOL    HW111363   5.674   7.009   4.550
 3488SOL    HW211364   5.598   0.042   4.683
 3489SOL     OW11365   2.994   6.193   1.218
 3489SOL    HW111366   3.038   6.177   1.307
 3489SOL    HW211367   2.928   6.268   1.227
 3490SOL     OW11368   3.328   6.919   0.535
 3490SOL    HW111369   3.335   6.835   0.482
 3490SOL    HW211370   3.238   6.926   0.577
 3491SOL     OW11371   4.031   4.750   6.032
 3491SOL    HW111372   3.965   4.676   6.045
 3491SOL    HW211373   4.015   4.793   5.943
 3492SOL     OW11374   5.970   4.311   2.909
 3492SOL    HW111375   6.005   4.275   2.995
 3492SOL    HW211376   6.036   4.295   2.836
 3493SOL     OW11377   6.905   2.919   5.500
 3493SOL    HW111378   6.990   2.910   5.450
 3493SOL    HW211379   6.857   3.002   5.471
 3494SOL     OW11380   4.098   1.983   2.413
 3494SOL    HW111381   4.048   1.920   2.352
 3494SOL    HW211382   4.048   2.069   2.420
 3495SOL     OW11383   1.170   3.562   3.202
 3495SOL    HW111384   1.210   3.487   3.255
 3495SOL    HW211385   1.234   3.589   3.130
 3496SOL     OW11386   5.715   4.943   1.304
 3496SOL    HW111387   5.764   4.878   1.362
 3496SOL    HW211388   5.722   5.035   1.344
 3497SOL     OW11389   3.113   6.846   2.435
 3497SOL    HW111390   3.068   6.893   2.511
 3497SOL    HW211391   3.044   6.816   2.369
 3498SOL     OW11392   2.204   2.560   1.414
 3498SOL    HW111393   2.190   2.461   1.415
 3498SOL    HW211394   2.167   2.600   1.498
 3499SOL     OW11395   6.224   6.416   4.659
 3499SOL    HW111396   6.173   6.497   4.629
 3499SOL    HW211397   6.311   6.445   4.701
 3500SOL     OW11398   1.933   2.311   4.649
 3500SOL    HW111399   1.906   2.373   4.576
 3500SOL    HW211400   1.942   2.361   4.735
 3501SOL     OW11401   1.201   7.004   5.592
 3501SOL    HW111402   1.191   7.004   5.492
 3501SOL    HW211403   1.231   0.070   5.622
 3502SOL     OW11404   4.680   2.688   2.404
 3502SOL    HW111405   4.685   2.788   2.398
 3502SOL    HW211406   4.590   2.661   2.437
 3503SOL     OW11407   7.017   5.934   6.576
 3503SOL    HW111408   7.022   5.964   6.671
 3503SOL    HW211409   6.951   5.860   6.567
 3504SOL     OW11410   1.641   0.359   0.326
 3504SOL    HW111411   1.725   0.389   0.370
 3504SOL    HW211412   1.562   0.383   0.384
 3505SOL     OW11413   4.721   4.160   6.177
 3505SOL    HW111414   4.673   4.247   6.188
 3505SOL    HW211415   4.667   4.100   6.117
 3506SOL     OW11416   4.472   5.094   4.902
 3506SOL    HW111417   4.414   5.082   4.982
 3506SOL    HW211418   4.503   5.189   4.898
 3507SOL     OW11419   2.906   1.117   0.614
 3507SOL    HW111420   2.870   1.066   0.692
 3507SOL    HW211421   3.006   1.119   0.619
 3508SOL     OW11422   3.173   1.549   5.258
 3508SOL    HW111423   3.142   1.609   5.332
 3508SOL    HW211424   3.099   1.537   5.192
 3509SOL     OW11425   3.536   5.410   6.290
 3509SOL    HW111426   3.600   5.362   6.350
 3509SOL    HW211427   3.515   5.500   6.329
 3510SOL     OW11428   2.604   1.319   0.755
 3510SOL    HW111429   2.571   1.304   0.662
 3510SOL    HW211430   2.536   1.287   0.821
 3511SOL     OW11431   2.993   4.379   1.561
 3511SOL    HW111432   3.012   4.412   1.654
 3511SOL    HW211433   3.077   4.345   1.519
 3512SOL     OW11434   0.093   5.613   5.360
 3512SOL    HW111435   0.166   5.631   5.295
 3512SOL    HW211436   0.104   5.670   5.441
 3513SOL     OW11437   6.077   1.511   0.842
 3513SOL    HW111438   6.125   1.556   0.918
 3513SOL    HW211439   5.978   1.516   0.859
 3514SOL     OW11440   3.504   1.626   2.057
 3514SOL    HW111441   3.530   1.693   1.988
 3514SOL    HW211442   3.413   1.590   2.036
 3515SOL     OW11443   0.580   5.246   4.446
 3515SOL    HW111444   0.545   5.175   4.506
 3515SOL    HW211445   0.670   5.221   4.413
 3516SOL     OW11446   5.126   0.650   1.559
 3516SOL    HW111447   5.158   0.598   1.480
 3516SOL    HW211448   5.106   0.586   1.634
 3517SOL     OW11449   5.956   0.566   1.375
 3517SOL    HW111450   5.941   0.490   1.438
 3517SOL    HW211451   5.868   0.608   1.352
 3518SOL     OW11452   5.308   0.358   4.893
 3518SOL    HW111453   5.383   0.423   4.878
 3518SOL    HW211454   5.221   0.402   4.873
 3519SOL     OW11455   3.354   0.473   1.100
 3519SOL    HW111456   3.295   0.393   1.111
 3519SOL    HW211457   3.382   0.480   1.004
 3520SOL     OW11458   2.514   6.243   4.967
 3520SOL    HW111459   2.478   6.164   4.918
 3520SOL    HW211460   2.590   6.215   5.025
 3521SOL     OW11461   2.682   2.993   6.392
 3521SOL    HW111462   2.752   3.046   6.342
 3521SOL    HW211463   2.610   3.055   6.423
 3522SOL     OW11464   0.894   6.208   6.151
 3522SOL    HW111465   0.827   6.179   6.084
 3522SOL    HW211466   0.868   6.298   6.188
 3523SOL     OW11467   1.991   6.188   0.034
 3523SOL    HW111468   1.951   6.098   0.019
 3523SOL    HW211469   2.018   6.227   6.969
 3524SOL     OW11470   4.884   1.370   3.948
 3524SOL    HW111471   4.814   1.427   3.990
 3524SOL    HW211472   4.946   1.336   4.019
 3525SOL     OW11473   0.106   3.159   2.913
 3525SOL    HW111474   0.010   3.175   2.937
 3525SOL    HW211475   0.165   3.208   2.977
 3526SOL     OW11476   7.000   6.584   2.370
 3526SOL    HW111477   6.997   6.679   2.401
 3526SOL    HW211478   0.067   6.563   2.335
 3527SOL     OW11479   0.563   2.499   6.504
 3527SOL    HW111480   0.604   2.441   6.575
 3527SOL    HW211481   0.605   2.478   6.416
 3528SOL     OW11482   2.573   5.755   4.357
 3528SOL    HW111483   2.668   5.759   4.387
 3528SOL    HW211484   2.544   5.846   4.325
 3529SOL     OW11485   4.690   5.082   0.940
 3529SOL    HW111486   4.641   5.154   0.891
 3529SOL    HW211487   4.716   5.010   0.875
 3530SOL     OW11488   6.349   6.518   0.928
 3530SOL    HW111489   6.265   6.530   0.980
 3530SOL    HW211490   6.384   6.425   0.943
 3531SOL     OW11491   4.519   2.522   0.474
 3531SOL    HW111492   4.590   2.464   0.514
 3531SOL    HW211493   4.486   2.586   0.544
 3532SOL     OW11494   1.931   1.105   1.918
 3532SOL    HW111495   1.978   1.052   1.848
 3532SOL    HW211496   1.889   1.044   1.985
 3533SOL     OW11497   1.047   1.701   2.881
 3533SOL    HW111498   0.965   1.746   2.847
 3533SOL    HW211499   1.121   1.714   2.816
 3534SOL     OW11500   0.027   1.089   0.738
 3534SOL    HW111501   7.001   1.160   0.788
 3534SOL    HW211502   0.096   1.049   0.798
 3535SOL     OW11503   2.831   5.721   4.398
 3535SOL    HW111504   2.901   5.735   4.329
 3535SOL    HW211505   2.873   5.725   4.489
 3536SOL     OW11506   3.633   1.976   2.991
 3536SOL    HW111507   3.710   2.032   3.023
 3536SOL    HW211508   3.617   1.993   2.894
 3537SOL     OW11509   1.727   0.205   3.271
 3537SOL    HW111510   1.710   0.120   3.321
 3537SOL    HW211511   1.825   0.223   3.268
 3538SOL     OW11512   2.983   5.692   2.908
 3538SOL    HW111513   2.924   5.613   2.923
 3538SOL    HW211514   3.041   5.675   2.828
 3539SOL     OW11515   3.832   3.365   4.269
 3539SOL    HW111516   3.732   3.357   4.268
 3539SOL    HW211517   3.862   3.423   4.193
 3540SOL     OW11518   1.685   2.356   3.225
 3540SOL    HW111519   1.675   2.456   3.230
 3540SOL    HW211520   1.760   2.327   3.285
 3541SOL     OW11521   3.626   4.142   4.083
 3541SOL    HW111522   3.686   4.140   4.163
 3541SOL    HW211523   3.681   4.127   4.000
 3542SOL     OW11524   6.799   5.222   1.439
 3542SOL    HW111525   6.798   5.142   1.380
 3542SOL    HW211526   6.826   5.195   1.531
 3543SOL     OW11527   5.961   3.145   5.335
 3543SOL    HW111528   5.943   3.144   5.237
 3543SOL    HW211529   5.876   3.166   5.384
 3544SOL     OW11530   1.689   6.398   6.949
 3544SOL    HW111531   1.759   6.396   6.877
 3544SOL    HW211532   1.713   6.467   7.017
 3545SOL     OW11533   3.171   4.986   0.513
 3545SOL    HW111534   3.138   4.892   0.520
 3545SOL    HW211535   3.269   4.986   0.495
 3546SOL     OW11536   6.496   4.735   2.305
 3546SOL    HW111537   6.571   4.673   2.330
 3546SOL    HW211538   6.450   4.765   2.388
 3547SOL     OW11539   5.143   4.499   4.441
 3547SOL    HW111540   5.210   4.449   4.496
 3547SOL    HW211541   5.143   4.595   4.468
 3548SOL     OW11542   4.709   3.388   5.282
 3548SOL    HW111543   4.716   3.390   5.382
 3548SOL    HW211544   4.719   3.480   5.246
 3549SOL     OW11545   6.103   3.358   2.439
 3549SOL    HW111546   6.085   3.264   2.409
 3549SOL    HW211547   6.129   3.358   2.536
 3550SOL     OW11548   5.799   1.979   2.836
 3550SOL    HW111549   5.727   1.940   2.779
 3550SOL    HW211550   5.757   2.024   2.915
 3551SOL     OW11551   2.439   6.847   2.782
 3551SOL    HW111552   2.456   6.904   2.701
 3551SOL    HW211553   2.366   6.782   2.762
 3552SOL     OW11554   6.888   4.828   3.385
 3552SOL    HW111555   6.917   4.732   3.396
 3552SOL    HW211556   6.966   4.888   3.404
 3553SOL     OW11557   5.757   2.067   3.425
 3553SOL    HW111558   5.851   2.073   3.393
 3553SOL    HW211559   5.701   2.135   3.378
 3554SOL     OW11560   3.761   5.808   6.850
 3554SOL    HW111561   3.739   5.745   6.775
 3554SOL    HW211562   3.743   5.902   6.822
 3555SOL     OW11563   0.150   2.397   3.599
 3555SOL    HW111564   0.221   2.438   3.657
 3555SOL    HW211565   0.117   2.466   3.535
 3556SOL     OW11566   4.637   0.998   6.482
 3556SOL    HW111567   4.643   1.092   6.450
 3556SOL    HW211568   4.654   0.994   6.580
 3557SOL     OW11569   0.552   0.258   4.491
 3557SOL    HW111570   0.575   0.166   4.523
 3557SOL    HW211571   0.539   0.318   4.570
 3558SOL     OW11572   6.966   5.692   1.962
 3558SOL    HW111573   6.979   5.755   2.039
 3558SOL    HW211574   6.872   5.658   1.962
 3559SOL     OW11575   1.225   0.608   5.508
 3559SOL    HW111576   1.138   0.641   5.472
 3559SOL    HW211577   1.300   0.655   5.461
 3560SOL     OW11578   6.566   6.366   2.001
 3560SOL    HW111579   6.638   6.434   1.988
 3560SOL    HW211580   6.534   6.369   2.096
 3561SOL     OW11581   4.732   4.215   3.942
 3561SOL    HW111582   4.779   4.129   3.921
 3561SOL    HW211583   4.711   4.263   3.857
 3562SOL     OW11584   4.070   2.197   3.314
 3562SOL    HW111585   4.130   2.197   3.234
 3562SOL    HW211586   4.125   2.217   3.396
 3563SOL     OW11587   4.965   0.475   1.323
 3563SOL    HW111588   5.054   0.476   1.369
 3563SOL    HW211589   4.895   0.443   1.387
 3564SOL     OW11590   6.999   4.574   3.091
 3564SOL    HW111591   6.999   4.661   3.042
 3564SOL    HW211592   6.991   4.499   3.026
 3565SOL     OW11593   1.724   0.537   5.482
 3565SOL    HW111594   1.753   0.472   5.552
 3565SOL    HW211595   1.627   0.523   5.461
 3566SOL     OW11596   0.670   4.556   6.525
 3566SOL    HW111597   0.680   4.641   6.575
 3566SOL    HW211598   0.721   4.561   6.439
 3567SOL     OW11599   0.110   2.903   1.022
 3567SOL    HW111600   0.059   2.827   1.062
 3567SOL    HW211601   0.141   2.965   1.095
 3568SOL     OW11602   5.005   3.874   3.686
 3568SOL    HW111603   4.975   3.779   3.673
 3568SOL    HW211604   4.987   3.902   3.780
 3569SOL     OW11605   4.095   3.236   3.843
 3569SOL    HW111606   4.115   3.266   3.936
 3569SOL    HW211607   4.025   3.164   3.845
 3570SOL     OW11608   0.438   1.641   5.428
 3570SOL    HW111609   0.339   1.656   5.424
 3570SOL    HW211610   0.483   1.729   5.443
 3571SOL     OW11611   2.445   0.015   4.543
 3571SOL    HW111612   2.347   7.019   4.539
 3571SOL    HW211613   2.466   0.069   4.625
 3572SOL     OW11614   5.396   3.736   1.838
 3572SOL    HW111615   5.315   3.685   1.867
 3572SOL    HW211616   5.459   3.744   1.915
 3573SOL     OW11617   0.258   4.917   3.828
 3573SOL    HW111618   0.172   4.875   3.859
 3573SOL    HW211619   0.271   4.899   3.731
 3574SOL     OW11620   1.831   1.904   5.769
 3574SOL    HW111621   1.860   1.973   5.835
 3574SOL    HW211622   1.780   1.948   5.695
 3575SOL     OW11623   5.138   0.118   6.773
 3575SOL    HW111624   5.143   0.096   6.675
 3575SOL    HW211625   5.068   0.188   6.787
 3576SOL     OW11626   1.510   2.983   0.523
 3576SOL    HW111627   1.452   3.055   0.562
 3576SOL    HW211628   1.479   2.964   0.430
 3577SOL     OW11629   1.638   2.841   4.779
 3577SOL    HW111630   1.716   2.892   4.816
 3577SOL    HW211631   1.554   2.874   4.820
 3578SOL     OW11632   3.805   2.558   6.292
 3578SOL    HW111633   3.749   2.639   6.277
 3578SOL    HW211634   3.811   2.505   6.207
 3579SOL     OW11635   0.884   4.033   1.606
 3579SOL    HW111636   0.972   4.061   1.646
 3579SOL    HW211637   0.899   3.999   1.513
 3580SOL     OW11638   6.896   4.175   1.912
 3580SOL    HW111639   6.799   4.154   1.908
 3580SOL    HW211640   6.949   4.090   1.914
 3581SOL     OW11641   1.318   0.808   2.566
 3581SOL    HW111642   1.399   0.865   2.573
 3581SOL    HW211643   1.236   0.863   2.582
 3582SOL     OW11644   4.170   5.549   6.668
 3582SOL    HW111645   4.232   5.624   6.642
 3582SOL    HW211646   4.115   5.578   6.746
 3583SOL     OW11647   1.644   5.436   1.346
 3583SOL    HW111648   1.562   5.492   1.331
 3583SOL    HW211649   1.621   5.358   1.404
 3584SOL     OW11650   5.766   4.910   4.656
 3584SOL    HW111651   5.727   4.991   4.612
 3584SOL    HW211652   5.807   4.936   4.743
 3585SOL     OW11653   3.656   2.079   3.758
 3585SOL    HW111654   3.564   2.045   3.738
 3585SOL    HW211655   3.721   2.038   3.694
 3586SOL     OW11656   6.730   1.630   5.469
 3586SOL    HW111657   6.660   1.559   5.469
 3586SOL    HW211658   6.821   1.588   5.471
 3587SOL     OW11659   3.194   0.503   6.235
 3587SOL    HW111660   3.200   0.601   6.252
 3587SOL    HW211661   3.179   0.455   6.321
 3588SOL     OW11662   5.666   4.542   4.771
 3588SOL    HW111663   5.601   4.612   4.741
 3588SOL    HW211664   5.709   4.501   4.691
 3589SOL     OW11665   0.787   6.994   6.112
 3589SOL    HW111666   0.790   6.902   6.149
 3589SOL    HW211667   0.858   0.026   6.155
 3590SOL     OW11668   6.735   5.686   5.521
 3590SOL    HW111669   6.777   5.651   5.605
 3590SOL    HW211670   6.779   5.772   5.495
 3591SOL     OW11671   5.394   1.883   0.288
 3591SOL    HW111672   5.313   1.851   0.337
 3591SOL    HW211673   5.433   1.808   0.235
 3592SOL     OW11674   1.237   6.362   0.993
 3592SOL    HW111675   1.215   6.442   1.049
 3592SOL    HW211676   1.262   6.286   1.053
 3593SOL     OW11677   3.953   3.079   5.561
 3593SOL    HW111678   3.989   3.148   5.498
 3593SOL    HW211679   4.019   3.006   5.571
 3594SOL     OW11680   4.684   4.898   5.177
 3594SOL    HW111681   4.594   4.940   5.191
 3594SOL    HW211682   4.756   4.966   5.193
 3595SOL     OW11683   5.442   6.055   4.366
 3595SOL    HW111684   5.482   6.073   4.456
 3595SOL    HW211685   5.483   6.116   4.298
 3596SOL     OW11686   4.154   2.012   2.685
 3596SOL    HW111687   4.186   2.004   2.591
 3596SOL    HW211688   4.081   1.946   2.701
 3597SOL     OW11689   3.419   4.054   5.637
 3597SOL    HW111690   3.368   4.121   5.691
 3597SOL    HW211691   3.377   4.044   5.547
 3598SOL     OW11692   6.968   5.301   4.944
 3598SOL    HW111693   7.007   5.387   4.978
 3598SOL    HW211694   6.886   5.321   4.891
 3599SOL     OW11695   2.638   1.491   5.484
 3599SOL    HW111696   2.628   1.584   5.448
 3599SOL    HW211697   2.562   1.434   5.453
 3600SOL     OW11698   2.534   3.667   6.568
 3600SOL    HW111699   2.540   3.567   6.573
 3600SOL    HW211700   2.464   3.693   6.502
 3601SOL     OW11701   4.807   0.831   5.019
 3601SOL    HW111702   4.861   0.910   5.046
 3601SOL    HW211703   4.723   0.861   4.973
 3602SOL     OW11704   1.489   2.012   1.303
 3602SOL    HW111705   1.446   1.923   1.321
 3602SOL    HW211706   1.478   2.071   1.383
 3603SOL     OW11707   2.388   0.869   5.562
 3603SOL    HW111708   2.313   0.928   5.591
 3603SOL    HW211709   2.394   0.868   5.462
 3604SOL     OW11710   7.006   1.063   3.440
 3604SOL    HW111711   6.973   0.970   3.455
 3604SOL    HW211712   7.009   1.111   3.528
 3605SOL     OW11713   1.170   0.092   4.993
 3605SOL    HW111714   1.075   0.117   4.976
 3605SOL    HW211715   1.174   7.022   5.029
 3606SOL     OW11716   2.081   0.056   2.243
 3606SOL    HW111717   2.041   7.005   2.296
 3606SOL    HW211718   2.076   0.141   2.296
 3607SOL     OW11719   6.382   1.375   3.141
 3607SOL    HW111720   6.446   1.440   3.183
 3607SOL    HW211721   6.305   1.425   3.101
 3608SOL     OW11722   3.274   1.965   5.531
 3608SOL    HW111723   3.258   1.996   5.624
 3608SOL    HW211724   3.252   2.038   5.466
 3609SOL     OW11725   3.560   0.440   5.490
 3609SOL    HW111726   3.587   0.353   5.449
 3609SOL    HW211727   3.476   0.473   5.448
 3610SOL     OW11728   1.952   0.968   5.723
 3610SOL    HW111729   1.913   1.047   5.771
 3610SOL    HW211730   1.878   0.917   5.679
 3611SOL     OW11731   5.574   4.084   2.540
 3611SOL    HW111732   5.578   4.120   2.633
 3611SOL    HW211733   5.478   4.069   2.515
 3612SOL     OW11734   4.682   1.907   0.492
 3612SOL    HW111735   4.702   1.961   0.573
 3612SOL    HW211736   4.767   1.868   0.456
 3613SOL     OW11737   3.787   6.714   3.307
 3613SOL    HW111738   3.803   6.773   3.386
 3613SOL    HW211739   3.806   6.619   3.332
 3614SOL     OW11740   3.408   5.964   6.826
 3614SOL    HW111741   3.506   5.954   6.810
 3614SOL    HW211742   3.393   5.997   6.920
 3615SOL     OW11743   5.077   3.086   5.763
 3615SOL    HW111744   5.041   3.017   5.701
 3615SOL    HW211745   5.109   3.165   5.710
 3616SOL     OW11746   1.307   2.655   0.061
 3616SOL    HW111747   1.372   2.678   7.013
 3616SOL    HW211748   1.217   2.639   0.020
 3617SOL     OW11749   4.092   5.549   5.597
 3617SOL    HW111750   4.028   5.614   5.639
 3617SOL    HW211751   4.136   5.591   5.518
 3618SOL     OW11752   1.489   5.665   4.302
 3618SOL    HW111753   1.547   5.584   4.292
 3618SOL    HW211754   1.518   5.717   4.382
 3619SOL     OW11755   6.221   2.286   2.113
 3619SOL    HW111756   6.129   2.277   2.152
 3619SOL    HW211757   6.260   2.374   2.140
 3620SOL     OW11758   5.516   5.908   5.222
 3620SOL    HW111759   5.558   5.993   5.189
 3620SOL    HW211760   5.495   5.849   5.144
 3621SOL     OW11761   3.938   3.028   3.849
 3621SOL    HW111762   3.845   2.991   3.844
 3621SOL    HW211763   3.991   2.977   3.917
 3622SOL     OW11764   2.025   5.418   6.515
 3622SOL    HW111765   1.983   5.334   6.481
 3622SOL    HW211766   1.962   5.495   6.502
 3623SOL     OW11767   1.309   5.846   6.159
 3623SOL    HW111768   1.297   5.749   6.137
 3623SOL    HW211769   1.289   5.901   6.078
 3624SOL     OW11770   2.337   2.173   2.439
 3624SOL    HW111771   2.280   2.254   2.449
 3624SOL    HW211772   2.406   2.190   2.368
 3625SOL     OW11773   5.849   2.319   1.200
 3625SOL    HW111774   5.803   2.408   1.202
 3625SOL    HW211775   5.856   2.283   1.293
 3626SOL     OW11776   1.707   2.922   5.722
 3626SOL    HW111777   1.728   2.829   5.752
 3626SOL    HW211778   1.746   2.988   5.787
 3627SOL     OW11779   3.676   1.652   2.687
 3627SOL    HW111780   3.681   1.658   2.786
 3627SOL    HW211781   3.598   1.705   2.654
 3628SOL     OW11782   6.504   1.738   1.498
 3628SOL    HW111783   6.602   1.753   1.514
 3628SOL    HW211784   6.461   1.823   1.469
 3629SOL     OW11785   1.595   1.008   4.256
 3629SOL    HW111786   1.513   1.010   4.198
 3629SOL    HW211787   1.571   0.969   4.345
 3630SOL     OW11788   6.545   2.164   2.658
 3630SOL    HW111789   6.525   2.222   2.578
 3630SOL    HW211790   6.469   2.168   2.722
 3631SOL     OW11791   2.095   6.265   2.520
 3631SOL    HW111792   2.090   6.233   2.425
 3631SOL    HW211793   2.164   6.213   2.569
 3632SOL     OW11794   4.866   3.129   2.503
 3632SOL    HW111795   4.890   3.079   2.586
 3632SOL    HW211796   4.895   3.224   2.511
 3633SOL     OW11797   4.015   4.055   0.318
 3633SOL    HW111798   4.103   4.059   0.271
 3633SOL    HW211799   4.030   4.036   0.415
 3634SOL     OW11800   2.806   5.636   6.769
 3634SOL    HW111801   2.839   5.547   6.736
 3634SOL    HW211802   2.743   5.621   6.845
 3635SOL     OW11803   1.299   6.463   2.546
 3635SOL    HW111804   1.238   6.497   2.618
 3635SOL    HW211805   1.390   6.447   2.583
 3636SOL     OW11806   0.100   5.508   5.042
 3636SOL    HW111807   0.023   5.570   5.029
 3636SOL    HW211808   0.173   5.555   5.091
 3637SOL     OW11809   6.331   2.785   6.945
 3637SOL    HW111810   6.357   2.873   6.986
 3637SOL    HW211811   6.395   2.714   6.975
 3638SOL     OW11812   0.170   3.435   3.312
 3638SOL    HW111813   0.166   3.371   3.389
 3638SOL    HW211814   0.254   3.489   3.318
 3639SOL     OW11815   4.093   3.522   4.608
 3639SOL    HW111816   4.102   3.434   4.561
 3639SOL    HW211817   4.028   3.513   4.683
 3640SOL     OW11818   4.321   1.770   2.120
 3640SOL    HW111819   4.397   1.746   2.060
 3640SOL    HW211820   4.273   1.686   2.148
 3641SOL     OW11821   6.481   3.714   1.967
 3641SOL    HW111822   6.580   3.700   1.963
 3641SOL    HW211823   6.435   3.632   1.933
 3642SOL     OW11824   4.874   4.120   6.868
 3642SOL    HW111825   4.903   4.132   6.773
 3642SOL    HW211826   4.793   4.176   6.885
 3643SOL     OW11827   4.176   5.955   4.794
 3643SOL    HW111828   4.204   5.862   4.819
 3643SOL    HW211829   4.080   5.955   4.767
 3644SOL     OW11830   2.878   1.044   1.792
 3644SOL    HW111831   2.916   0.952   1.798
 3644SOL    HW211832   2.822   1.061   1.873
 3645SOL     OW11833   1.676   4.474   3.344
 3645SOL    HW111834   1.675   4.568   3.310
 3645SOL    HW211835   1.734   4.469   3.425
 3646SOL     OW11836   2.043   5.367   5.570
 3646SOL    HW111837   2.137   5.341   5.590
 3646SOL    HW211838   1.981   5.317   5.631
 3647SOL     OW11839   3.826   0.258   0.458
 3647SOL    HW111840   3.821   0.351   0.494
 3647SOL    HW211841   3.740   0.210   0.478
 3648SOL     OW11842   5.072   4.508   3.136
 3648SOL    HW111843   5.053   4.432   3.073
 3648SOL    HW211844   4.998   4.516   3.202
 3649SOL     OW11845   5.217   2.528   0.434
 3649SOL    HW111846   5.246   2.470   0.358
 3649SOL    HW211847   5.168   2.607   0.398
 3650SOL     OW11848   5.437   6.018   5.961
 3650SOL    HW111849   5.485   5.962   6.028
 3650SOL    HW211850   5.498   6.090   5.928
 3651SOL     OW11851   0.722   1.958   5.716
 3651SOL    HW111852   0.644   1.904   5.750
 3651SOL    HW211853   0.688   2.033   5.660
 3652SOL     OW11854   4.626   2.492   2.639
 3652SOL    HW111855   4.694   2.565   2.648
 3652SOL    HW211856   4.579   2.479   2.726
 3653SOL     OW11857   2.259   1.388   0.684
 3653SOL    HW111858   2.286   1.355   0.594
 3653SOL    HW211859   2.232   1.310   0.741
 3654SOL     OW11860   4.087   6.631   1.799
 3654SOL    HW111861   4.044   6.696   1.736
 3654SOL    HW211862   4.169   6.593   1.756
 3655SOL     OW11863   0.832   0.706   3.848
 3655SOL    HW111864   0.921   0.664   3.863
 3655SOL    HW211865   0.843   0.792   3.797
 3656SOL     OW11866   0.173   7.020   0.733
 3656SOL    HW111867   0.089   7.008   0.681
 3656SOL    HW211868   0.214   0.085   0.710
 3657SOL     OW11869   5.903   5.166   6.405
 3657SOL    HW111870   5.904   5.251   6.353
 3657SOL    HW211871   5.983   5.111   6.381
 3658SOL     OW11872   1.682   4.379   5.230
 3658SOL    HW111873   1.659   4.281   5.231
 3658SOL    HW211874   1.636   4.424   5.307
 3659SOL     OW11875   1.093   2.405   6.293
 3659SOL    HW111876   1.072   2.332   6.228
 3659SOL    HW211877   1.111   2.490   6.243
 3660SOL     OW11878   3.998   5.607   5.274
 3660SOL    HW111879   4.007   5.615   5.175
 3660SOL    HW211880   3.989   5.510   5.299
 3661SOL     OW11881   1.096   1.347   4.454
 3661SOL    HW111882   1.023   1.355   4.386
 3661SOL    HW211883   1.162   1.278   4.425
 3662SOL     OW11884   3.496   1.858   5.721
 3662SOL    HW111885   3.408   1.834   5.680
 3662SOL    HW211886   3.570   1.824   5.663
 3663SOL     OW11887   2.092   2.340   6.429
 3663SOL    HW111888   2.092   2.311   6.334
 3663SOL    HW211889   2.147   2.423   6.440
 3664SOL     OW11890   2.942   2.032   1.245
 3664SOL    HW111891   2.889   1.948   1.232
 3664SOL    HW211892   3.039   2.010   1.251
 3665SOL     OW11893   6.867   5.584   5.257
 3665SOL    HW111894   6.811   5.576   5.340
 3665SOL    HW211895   6.963   5.586   5.282
 3666SOL     OW11896   2.153   3.542   4.415
 3666SOL    HW111897   2.152   3.606   4.492
 3666SOL    HW211898   2.223   3.473   4.429
 3667SOL     OW11899   1.981   6.447   0.963
 3667SOL    HW111900   2.036   6.368   0.990
 3667SOL    HW211901   1.894   6.445   1.013
 3668SOL     OW11902   6.226   1.110   0.829
 3668SOL    HW111903   6.182   1.186   0.783
 3668SOL    HW211904   6.167   1.030   0.826
 3669SOL     OW11905   6.902   1.091   1.760
 3669SOL    HW111906   6.863   1.077   1.669
 3669SOL    HW211907   6.994   1.053   1.763
 3670SOL     OW11908   2.124   6.719   2.254
 3670SOL    HW111909   2.152   6.648   2.190
 3670SOL    HW211910   2.200   6.782   2.269
 3671SOL     OW11911   0.111   0.799   4.914
 3671SOL    HW111912   0.095   0.756   4.825
 3671SOL    HW211913   0.130   0.729   4.982
 3672SOL     OW11914   4.318   0.229   3.369
 3672SOL    HW111915   4.362   0.277   3.294
 3672SOL    HW211916   4.219   0.227   3.354
 3673SOL     OW11917   3.248   1.094   1.494
 3673SOL    HW111918   3.154   1.126   1.507
 3673SOL    HW211919   3.247   0.994   1.482
 3674SOL     OW11920   0.438   4.410   5.711
 3674SOL    HW111921   0.397   4.453   5.791
 3674SOL    HW211922   0.437   4.311   5.722
 3675SOL     OW11923   6.740   0.845   4.624
 3675SOL    HW111924   6.649   0.859   4.663
 3675SOL    HW211925   6.773   0.753   4.645
 3676SOL     OW11926   3.311   1.029   5.567
 3676SOL    HW111927   3.215   1.034   5.540
 3676SOL    HW211928   3.345   1.121   5.588
 3677SOL     OW11929   1.494   1.095   4.798
 3677SOL    HW111930   1.416   1.035   4.811
 3677SOL    HW211931   1.466   1.175   4.745
 3678SOL     OW11932   2.378   1.152   3.108
 3678SOL    HW111933   2.452   1.156   3.175
 3678SOL    HW211934   2.293   1.185   3.149
 3679SOL     OW11935   3.056   0.546   2.368
 3679SOL    HW111936   3.079   0.451   2.389
 3679SOL    HW211937   3.130   0.606   2.397
 3680SOL     OW11938   3.602   1.953   4.833
 3680SOL    HW111939   3.592   1.926   4.737
 3680SOL    HW211940   3.532   1.906   4.887
 3681SOL     OW11941   1.292   6.552   3.884
 3681SOL    HW111942   1.386   6.518   3.884
 3681SOL    HW211943   1.229   6.475   3.881
 3682SOL     OW11944   5.454   2.111   1.282
 3682SOL    HW111945   5.369   2.118   1.231
 3682SOL    HW211946   5.493   2.020   1.270
 3683SOL     OW11947   6.621   1.771   0.774
 3683SOL    HW111948   6.538   1.718   0.786
 3683SOL    HW211949   6.598   1.867   0.761
 3684SOL     OW11950   2.606   6.345   5.879
 3684SOL    HW111951   2.655   6.419   5.833
 3684SOL    HW211952   2.649   6.258   5.855
 3685SOL     OW11953   2.686   6.516   3.997
 3685SOL    HW111954   2.640   6.593   4.043
 3685SOL    HW211955   2.736   6.550   3.918
 3686SOL     OW11956   6.715   4.249   0.446
 3686SOL    HW111957   6.811   4.222   0.458
 3686SOL    HW211958   6.656   4.184   0.494
 3687SOL     OW11959   6.190   4.331   4.349
 3687SOL    HW111960   6.205   4.406   4.413
 3687SOL    HW211961   6.278   4.290   4.324
 3688SOL     OW11962   0.074   2.809   1.524
 3688SOL    HW111963   0.103   2.714   1.515
 3688SOL    HW211964   0.017   2.834   1.445
 3689SOL     OW11965   1.464   1.341   5.762
 3689SOL    HW111966   1.443   1.267   5.827
 3689SOL    HW211967   1.443   1.310   5.669
 3690SOL     OW11968   6.088   4.479   1.512
 3690SOL    HW111969   6.053   4.404   1.455
 3690SOL    HW211970   6.011   4.526   1.555
 3691SOL     OW11971   1.539   2.424   0.820
 3691SOL    HW111972   1.572   2.410   0.726
 3691SOL    HW211973   1.612   2.464   0.875
 3692SOL     OW11974   1.410   3.161   5.489
 3692SOL    HW111975   1.348   3.094   5.448
 3692SOL    HW211976   1.493   3.169   5.433
 3693SOL     OW11977   0.068   1.442   2.655
 3693SOL    HW111978   0.095   1.354   2.617
 3693SOL    HW211979   0.093   1.446   2.752
 3694SOL     OW11980   6.685   6.682   2.146
 3694SOL    HW111981   6.729   6.645   2.065
 3694SOL    HW211982   6.706   6.624   2.225
 3695SOL     OW11983   6.191   3.834   3.658
 3695SOL    HW111984   6.101   3.808   3.692
 3695SOL    HW211985   6.182   3.915   3.599
 3696SOL     OW11986   4.397   0.238   3.987
 3696SOL    HW111987   4.356   0.303   3.924
 3696SOL    HW211988   4.337   0.224   4.066
 3697SOL     OW11989   6.115   5.381   2.874
 3697SOL    HW111990   6.128   5.283   2.859
 3697SOL    HW211991   6.119   5.428   2.786
 3698SOL     OW11992   1.268   6.958   4.222
 3698SOL    HW111993   1.234   6.916   4.306
 3698SOL    HW211994   1.264   6.891   4.147
 3699SOL     OW11995   2.723   2.257   2.817
 3699SOL    HW111996   2.710   2.304   2.730
 3699SOL    HW211997   2.695   2.161   2.808
 3700SOL     OW11998   1.268   5.016   4.541
 3700SOL    HW111999   1.219   4.930   4.527
 3700SOL    HW212000   1.205   5.093   4.527
 3701SOL     OW12001   0.377   0.798   1.855
 3701SOL    HW112002   0.398   0.787   1.953
 3701SOL    HW212003   0.341   0.711   1.819
 3702SOL     OW12004   6.609   4.511   3.540
 3702SOL    HW112005   6.665   4.466   3.470
 3702SOL    HW212006   6.660   4.515   3.626
 3703SOL     OW12007   1.067   2.215   2.781
 3703SOL    HW112008   1.104   2.299   2.822
 3703SOL    HW212009   1.080   2.139   2.844
 3704SOL     OW12010   6.011   6.701   0.648
 3704SOL    HW112011   6.094   6.740   0.687
 3704SOL    HW212012   5.976   6.630   0.709
 3705SOL     OW12013   6.152   4.069   3.552
 3705SOL    HW112014   6.107   4.100   3.469
 3705SOL    HW212015   6.238   4.118   3.564
 3706SOL     OW12016   1.004   5.285   6.359
 3706SOL    HW112017   0.961   5.345   6.426
 3706SOL    HW212018   0.966   5.303   6.268
 3707SOL     OW12019   0.764   5.049   3.541
 3707SOL    HW112020   0.719   4.961   3.553
 3707SOL    HW212021   0.711   5.120   3.587
 3708SOL     OW12022   1.389   6.009   0.167
 3708SOL    HW112023   1.332   6.075   0.118
 3708SOL    HW212024   1.354   5.917   0.150
 3709SOL     OW12025   0.413   1.731   2.274
 3709SOL    HW112026   0.322   1.755   2.307
 3709SOL    HW212027   0.419   1.751   2.176
 3710SOL     OW12028   2.284   4.030   5.639
 3710SOL    HW112029   2.312   3.979   5.558
 3710SOL    HW212030   2.186   4.048   5.635
 3711SOL     OW12031   1.950   5.374   5.218
 3711SOL    HW112032   1.890   5.307   5.261
 3711SOL    HW212033   2.045   5.358   5.244
 3712SOL     OW12034   3.298   5.289   4.068
 3712SOL    HW112035   3.354   5.214   4.035
 3712SOL    HW212036   3.332   5.376   4.031
 3713SOL     OW12037   5.945   0.083   5.323
 3713SOL    HW112038   6.037   0.116   5.344
 3713SOL    HW212039   5.917   0.115   5.233
 3714SOL     OW12040   0.171   5.002   6.744
 3714SOL    HW112041   0.235   4.970   6.674
 3714SOL    HW212042   0.207   4.982   6.835
 3715SOL     OW12043   6.354   4.433   3.188
 3715SOL    HW112044   6.355   4.463   3.284
 3715SOL    HW212045   6.447   4.412   3.159
 3716SOL     OW12046   5.786   5.963   5.784
 3716SOL    HW112047   5.861   6.006   5.735
 3716SOL    HW212048   5.701   6.014   5.766
 3717SOL     OW12049   4.803   0.581   1.138
 3717SOL    HW112050   4.716   0.533   1.152
 3717SOL    HW212051   4.875   0.537   1.192
 3718SOL     OW12052   5.565   0.087   6.534
 3718SOL    HW112053   5.645   0.081   6.475
 3718SOL    HW212054   5.583   0.037   6.619
 3719SOL     OW12055   2.691   4.310   0.214
 3719SOL    HW112056   2.752   4.233   0.232
 3719SOL    HW212057   2.741   4.380   0.163
 3720SOL     OW12058   6.878   2.395   1.062
 3720SOL    HW112059   6.848   2.355   1.148
 3720SOL    HW212060   6.800   2.434   1.014
 3721SOL     OW12061   6.392   0.051   6.123
 3721SOL    HW112062   6.351   0.030   6.034
 3721SOL    HW212063   6.453   6.999   6.149
 3722SOL     OW12064   6.141   6.575   1.454
 3722SOL    HW112065   6.086   6.596   1.535
 3722SOL    HW212066   6.208   6.648   1.440
 3723SOL     OW12067   4.412   4.480   6.347
 3723SOL    HW112068   4.417   4.571   6.306
 3723SOL    HW212069   4.383   4.488   6.442
 3724SOL     OW12070   6.691   4.485   4.793
 3724SOL    HW112071   6.662   4.574   4.757
 3724SOL    HW212072   6.663   4.477   4.888
 3725SOL     OW12073   0.582   6.073   0.312
 3725SOL    HW112074   0.489   6.096   0.285
 3725SOL    HW212075   0.647   6.124   0.256
 3726SOL     OW12076   6.139   3.616   5.146
 3726SOL    HW112077   6.233   3.638   5.119
 3726SOL    HW212078   6.096   3.561   5.075
 3727SOL     OW12079   6.767   2.080   4.203
 3727SOL    HW112080   6.772   2.070   4.303
 3727SOL    HW212081   6.693   2.023   4.168
 3728SOL     OW12082   1.938   4.348   0.573
 3728SOL    HW112083   2.004   4.306   0.635
 3728SOL    HW212084   1.925   4.289   0.494
 3729SOL     OW12085   0.204   0.179   6.399
 3729SOL    HW112086   0.117   0.143   6.363
 3729SOL    HW212087   0.186   0.259   6.455
 3730SOL     OW12088   5.073   4.872   4.309
 3730SOL    HW112089   5.083   4.837   4.402
 3730SOL    HW212090   5.159   4.912   4.278
 3731SOL     OW12091   0.253   1.939   1.172
 3731SOL    HW112092   0.315   1.907   1.101
 3731SOL    HW212093   0.187   2.003   1.132
 3732SOL     OW12094   3.616   3.093   6.950
 3732SOL    HW112095   3.588   2.999   6.973
 3732SOL    HW212096   3.599   3.109   6.853
 3733SOL     OW12097   1.898   1.384   3.524
 3733SOL    HW112098   1.893   1.409   3.427
 3733SOL    HW212099   1.815   1.334   3.549
 3734SOL     OW12100   3.393   0.372   1.783
 3734SOL    HW112101   3.314   0.410   1.735
 3734SOL    HW212102   3.379   0.274   1.799
 3735SOL     OW12103   4.582   1.141   2.686
 3735SOL    HW112104   4.534   1.058   2.713
 3735SOL    HW212105   4.579   1.151   2.587
 3736SOL     OW12106   0.823   1.686   0.092
 3736SOL    HW112107   0.882   1.691   0.172
 3736SOL    HW212108   0.835   1.769   0.037
 3737SOL     OW12109   6.051   2.271   3.876
 3737SOL    HW112110   5.981   2.299   3.810
 3737SOL    HW212111   6.133   2.327   3.865
 3738SOL     OW12112   0.342   1.140   1.239
 3738SOL    HW112113   0.428   1.110   1.198
 3738SOL    HW212114   0.335   1.240   1.235
 3739SOL     OW12115   2.903   4.494   6.897
 3739SOL    HW112116   2.899   4.474   6.995
 3739SOL    HW212117   2.965   4.571   6.881
 3740SOL     OW12118   5.158   5.995   6.884
 3740SOL    HW112119   5.122   6.052   6.810
 3740SOL    HW212120   5.181   6.052   6.963
 3741SOL     OW12121   5.603   4.107   0.216
 3741SOL    HW112122   5.522   4.077   0.167
 3741SOL    HW212123   5.644   4.030   0.265
 3742SOL     OW12124   4.685   5.273   1.442
 3742SOL    HW112125   4.719   5.347   1.384
 3742SOL    HW212126   4.627   5.310   1.514
 3743SOL     OW12127   2.631   3.847   0.738
 3743SOL    HW112128   2.708   3.859   0.800
 3743SOL    HW212129   2.582   3.933   0.729
 3744SOL     OW12130   6.467   5.827   2.524
 3744SOL    HW112131   6.384   5.883   2.530
 3744SOL    HW212132   6.539   5.879   2.479
 3745SOL     OW12133   5.196   2.537   2.714
 3745SOL    HW112134   5.217   2.634   2.701
 3745SOL    HW212135   5.097   2.525   2.717
 3746SOL     OW12136   5.132   6.776   4.717
 3746SOL    HW112137   5.080   6.855   4.685
 3746SOL    HW212138   5.091   6.741   4.801
 3747SOL     OW12139   2.402   5.844   5.554
 3747SOL    HW112140   2.473   5.813   5.618
 3747SOL    HW212141   2.419   5.802   5.465
 3748SOL     OW12142   4.976   2.526   3.370
 3748SOL    HW112143   5.006   2.615   3.336
 3748SOL    HW212144   5.056   2.471   3.395
 3749SOL     OW12145   6.181   6.679   1.997
 3749SOL    HW112146   6.267   6.729   2.010
 3749SOL    HW212147   6.202   6.589   1.957
 3750SOL     OW12148   5.573   4.330   1.017
 3750SOL    HW112149   5.649   4.268   1.033
 3750SOL    HW212150   5.607   4.424   1.012
 3751SOL     OW12151   1.305   4.649   0.616
 3751SOL    HW112152   1.215   4.611   0.641
 3751SOL    HW212153   1.375   4.609   0.674
 3752SOL     OW12154   1.131   6.212   6.051
 3752SOL    HW112155   1.153   6.289   5.991
 3752SOL    HW212156   1.048   6.232   6.103
 3753SOL     OW12157   0.672   0.747   5.251
 3753SOL    HW112158   0.748   0.791   5.300
 3753SOL    HW212159   0.592   0.742   5.311
 3754SOL     OW12160   6.469   5.766   1.605
 3754SOL    HW112161   6.435   5.734   1.516
 3754SOL    HW212162   6.486   5.687   1.664
 3755SOL     OW12163   4.522   2.421   2.879
 3755SOL    HW112164   4.577   2.405   2.961
 3755SOL    HW212165   4.496   2.333   2.839
 3756SOL     OW12166   3.738   6.964   0.331
 3756SOL    HW112167   3.723   0.001   0.409
 3756SOL    HW212168   3.835   6.944   0.322
 3757SOL     OW12169   3.972   4.650   6.689
 3757SOL    HW112170   4.027   4.722   6.648
 3757SOL    HW212171   4.005   4.561   6.658
 3758SOL     OW12172   6.538   0.767   2.392
 3758SOL    HW112173   6.548   0.729   2.484
 3758SOL    HW212174   6.500   0.698   2.331
 3759SOL     OW12175   4.812   4.344   0.907
 3759SOL    HW112176   4.835   4.437   0.879
 3759SOL    HW212177   4.766   4.346   0.996
 3760SOL     OW12178   1.684   1.543   6.108
 3760SOL    HW112179   1.769   1.503   6.143
 3760SOL    HW212180   1.675   1.519   6.011
 3761SOL     OW12181   6.405   6.009   4.134
 3761SOL    HW112182   6.400   6.100   4.173
 3761SOL    HW212183   6.477   6.006   4.064
 3762SOL     OW12184   0.374   2.563   0.111
 3762SOL    HW112185   0.333   2.625   0.044
 3762SOL    HW212186   0.473   2.564   0.101
 3763SOL     OW12187   0.379   3.438   5.027
 3763SOL    HW112188   0.309   3.400   5.087
 3763SOL    HW212189   0.413   3.524   5.065
 3764SOL     OW12190   2.429   0.097   4.016
 3764SOL    HW112191   2.427   0.171   4.084
 3764SOL    HW212192   2.338   0.088   3.974
 3765SOL     OW12193   6.105   1.503   3.477
 3765SOL    HW112194   6.130   1.578   3.415
 3765SOL    HW212195   6.156   1.421   3.452
 3766SOL     OW12196   1.775   1.115   5.306
 3766SOL    HW112197   1.830   1.040   5.342
 3766SOL    HW212198   1.801   1.200   5.354
 3767SOL     OW12199   0.325   4.921   0.370
 3767SOL    HW112200   0.413   4.940   0.413
 3767SOL    HW212201   0.332   4.837   0.316
 3768SOL     OW12202   4.275   6.400   1.194
 3768SOL    HW112203   4.235   6.398   1.102
 3768SOL    HW212204   4.201   6.406   1.261
 3769SOL     OW12205   4.415   6.978   5.114
 3769SOL    HW112206   4.428   7.016   5.022
 3769SOL    HW212207   4.468   6.894   5.123
 3770SOL     OW12208   1.942   2.642   0.718
 3770SOL    HW112209   1.995   2.726   0.729
 3770SOL    HW212210   1.999   2.571   0.676
 3771SOL     OW12211   4.358   1.583   5.359
 3771SOL    HW112212   4.341   1.509   5.294
 3771SOL    HW212213   4.273   1.632   5.378
 3772SOL     OW12214   4.930   0.623   2.620
 3772SOL    HW112215   4.916   0.547   2.556
 3772SOL    HW212216   4.846   0.640   2.671
 3773SOL     OW12217   6.113   2.398   0.975
 3773SOL    HW112218   6.076   2.422   0.885
 3773SOL    HW212219   6.099   2.301   0.992
 3774SOL     OW12220   0.688   1.606   1.868
 3774SOL    HW112221   0.622   1.675   1.897
 3774SOL    HW212222   0.777   1.627   1.906
 3775SOL     OW12223   5.330   2.974   3.547
 3775SOL    HW112224   5.421   3.007   3.524
 3775SOL    HW212225   5.336   2.883   3.588
 3776SOL     OW12226   3.052   2.444   6.531
 3776SOL    HW112227   3.006   2.380   6.470
 3776SOL    HW212228   2.986   2.512   6.564
 3777SOL     OW12229   0.837   4.379   2.974
 3777SOL    HW112230   0.935   4.393   2.965
 3777SOL    HW212231   0.806   4.311   2.908
 3778SOL     OW12232   2.392   6.665   1.846
 3778SOL    HW112233   2.426   6.747   1.892
 3778SOL    HW212234   2.423   6.667   1.750
 3779SOL     OW12235   2.051   4.581   0.145
 3779SOL    HW112236   2.027   4.520   0.221
 3779SOL    HW212237   2.070   4.527   0.063
 3780SOL     OW12238   2.383   0.485   3.996
 3780SOL    HW112239   2.352   0.418   3.929
 3780SOL    HW212240   2.319   0.488   4.073
 3781SOL     OW12241   2.811   5.518   5.097
 3781SOL    HW112242   2.840   5.477   5.184
 3781SOL    HW212243   2.777   5.610   5.114
 3782SOL     OW12244   2.925   0.755   2.630
 3782SOL    HW112245   2.920   0.727   2.726
 3782SOL    HW212246   2.997   0.824   2.619
 3783SOL     OW12247   5.012   5.184   4.512
 3783SOL    HW112248   4.932   5.178   4.571
 3783SOL    HW212249   5.046   5.092   4.491
 3784SOL     OW12250   5.137   2.020   4.573
 3784SOL    HW112251   5.161   2.085   4.645
 3784SOL    HW212252   5.049   2.046   4.534
 3785SOL     OW12253   1.024   1.003   2.058
 3785SOL    HW112254   1.066   1.093   2.047
 3785SOL    HW212255   1.066   0.938   1.994
 3786SOL     OW12256   2.962   6.407   2.682
 3786SOL    HW112257   3.034   6.359   2.631
 3786SOL    HW212258   2.944   6.495   2.639
 3787SOL     OW12259   4.612   0.809   4.118
 3787SOL    HW112260   4.698   0.790   4.070
 3787SOL    HW212261   4.614   0.766   4.208
 3788SOL     OW12262   6.789   3.745   2.653
 3788SOL    HW112263   6.727   3.761   2.576
 3788SOL    HW212264   6.839   3.829   2.675
 3789SOL     OW12265   1.267   5.105   1.798
 3789SOL    HW112266   1.257   5.120   1.700
 3789SOL    HW212267   1.345   5.045   1.815
 3790SOL     OW12268   2.111   3.129   3.356
 3790SOL    HW112269   2.098   3.117   3.257
 3790SOL    HW212270   2.145   3.222   3.373
 3791SOL     OW12271   6.174   0.598   2.639
 3791SOL    HW112272   6.269   0.567   2.650
 3791SOL    HW212273   6.174   0.686   2.591
 3792SOL     OW12274   0.821   6.436   6.294
 3792SOL    HW112275   0.751   6.378   6.335
 3792SOL    HW212276   0.780   6.495   6.225
 3793SOL     OW12277   0.906   5.956   2.524
 3793SOL    HW112278   0.894   5.928   2.619
 3793SOL    HW212279   0.894   5.877   2.464
 3794SOL     OW12280   4.549   6.823   3.828
 3794SOL    HW112281   4.498   6.855   3.748
 3794SOL    HW212282   4.618   6.757   3.799
 3795SOL     OW12283   5.431   0.378   6.966
 3795SOL    HW112284   5.398   0.421   0.026
 3795SOL    HW212285   5.530   0.390   6.960
 3796SOL     OW12286   0.881   3.198   0.797
 3796SOL    HW112287   0.869   3.297   0.796
 3796SOL    HW212288   0.874   3.163   0.890
 3797SOL     OW12289   6.891   5.711   2.553
 3797SOL    HW112290   6.943   5.626   2.558
 3797SOL    HW212291   6.838   5.723   2.636
 3798SOL     OW12292   0.864   4.085   1.031
 3798SOL    HW112293   0.956   4.122   1.028
 3798SOL    HW212294   0.855   4.024   1.110
 3799SOL     OW12295   1.178   0.415   5.239
 3799SOL    HW112296   1.082   0.437   5.220
 3799SOL    HW212297   1.223   0.384   5.156
 3800SOL     OW12298   5.045   2.609   5.477
 3800SOL    HW112299   4.988   2.690   5.491
 3800SOL    HW212300   5.108   2.625   5.401
 3801SOL     OW12301   6.673   0.361   6.537
 3801SOL    HW112302   6.573   0.353   6.540
 3801SOL    HW212303   6.712   0.276   6.502
 3802SOL     OW12304   1.766   2.722   5.284
 3802SOL    HW112305   1.709   2.666   5.224
 3802SOL    HW212306   1.835   2.770   5.229
 3803SOL     OW12307   4.141   1.019   1.265
 3803SOL    HW112308   4.215   1.083   1.287
 3803SOL    HW212309   4.129   0.955   1.340
 3804SOL     OW12310   5.236   3.402   5.222
 3804SOL    HW112311   5.319   3.367   5.265
 3804SOL    HW212312   5.237   3.502   5.224
 3805SOL     OW12313   1.874   3.578   1.673
 3805SOL    HW112314   1.959   3.528   1.691
 3805SOL    HW212315   1.875   3.664   1.725
 3806SOL     OW12316   3.995   1.034   0.466
 3806SOL    HW112317   4.031   1.123   0.436
 3806SOL    HW212318   3.962   1.041   0.560
 3807SOL     OW12319   1.158   7.011   2.926
 3807SOL    HW112320   1.236   0.006   2.987
 3807SOL    HW212321   1.094   0.064   2.930
 3808SOL     OW12322   3.074   0.744   0.545
 3808SOL    HW112323   2.987   0.786   0.518
 3808SOL    HW212324   3.150   0.799   0.510
 3809SOL     OW12325   3.903   0.283   0.041
 3809SOL    HW112326   3.984   0.278   7.006
 3809SOL    HW212327   3.863   0.375   0.034
 3810SOL     OW12328   2.002   3.392   6.472
 3810SOL    HW112329   1.966   3.344   6.552
 3810SOL    HW212330   1.937   3.385   6.396
 3811SOL     OW12331   0.549   0.348   6.416
 3811SOL    HW112332   0.481   0.360   6.488
 3811SOL    HW212333   0.625   0.411   6.431
 3812SOL     OW12334   4.983   0.784   5.603
 3812SOL    HW112335   5.067   0.838   5.615
 3812SOL    HW212336   4.951   0.752   5.693
 3813SOL     OW12337   3.837   4.949   2.144
 3813SOL    HW112338   3.749   4.945   2.098
 3813SOL    HW212339   3.829   5.002   2.228
 3814SOL     OW12340   2.136   0.713   1.981
 3814SOL    HW112341   2.223   0.673   1.952
 3814SOL    HW212342   2.071   0.709   1.904
 3815SOL     OW12343   5.543   1.979   2.095
 3815SOL    HW112344   5.474   2.044   2.127
 3815SOL    HW212345   5.501   1.889   2.085
 3816SOL     OW12346   6.893   6.496   0.675
 3816SOL    HW112347   6.965   6.427   0.670
 3816SOL    HW212348   6.844   6.488   0.761
 3817SOL     OW12349   4.811   1.890   5.509
 3817SOL    HW112350   4.880   1.962   5.511
 3817SOL    HW212351   4.811   1.847   5.418
 3818SOL     OW12352   4.642   5.606   3.097
 3818SOL    HW112353   4.597   5.670   3.035
 3818SOL    HW212354   4.576   5.536   3.126
 3819SOL     OW12355   6.217   4.073   6.350
 3819SOL    HW112356   6.120   4.091   6.360
 3819SOL    HW212357   6.233   3.975   6.343
 3820SOL     OW12358   4.984   6.123   3.300
 3820SOL    HW112359   4.948   6.187   3.231
 3820SOL    HW212360   4.949   6.149   3.390
 3821SOL     OW12361   0.024   4.554   1.122
 3821SOL    HW112362   7.021   4.529   1.215
 3821SOL    HW212363   6.968   4.549   1.061
 3822SOL     OW12364   0.564   4.458   1.416
 3822SOL    HW112365   0.553   4.543   1.365
 3822SOL    HW212366   0.510   4.462   1.500
 3823SOL     OW12367   2.747   3.765   5.575
 3823SOL    HW112368   2.811   3.689   5.560
 3823SOL    HW212369   2.796   3.852   5.566
 3824SOL     OW12370   0.272   2.221   5.946
 3824SOL    HW112371   0.298   2.238   6.041
 3824SOL    HW212372   0.198   2.284   5.921
 3825SOL     OW12373   6.853   6.476   6.106
 3825SOL    HW112374   6.882   6.569   6.087
 3825SOL    HW212375   6.872   6.418   6.027
 3826SOL     OW12376   6.678   1.869   1.164
 3826SOL    HW112377   6.687   1.965   1.139
 3826SOL    HW212378   6.727   1.813   1.097
 3827SOL     OW12379   5.746   1.889   1.961
 3827SOL    HW112380   5.694   1.834   1.896
 3827SOL    HW212381   5.685   1.928   2.029
 3828SOL     OW12382   4.327   1.029   1.576
 3828SOL    HW112383   4.371   0.940   1.562
 3828SOL    HW212384   4.246   1.017   1.634
 3829SOL     OW12385   0.638   5.316   3.562
 3829SOL    HW112386   0.550   5.321   3.609
 3829SOL    HW212387   0.710   5.297   3.629
 3830SOL     OW12388   3.113   0.342   5.400
 3830SOL    HW112389   3.059   0.311   5.321
 3830SOL    HW212390   3.066   0.419   5.444
 3831SOL     OW12391   4.834   1.687   2.617
 3831SOL    HW112392   4.738   1.665   2.634
 3831SOL    HW212393   4.887   1.602   2.608
 3832SOL     OW12394   5.689   6.715   2.749
 3832SOL    HW112395   5.781   6.710   2.788
 3832SOL    HW212396   5.688   6.781   2.674
 3833SOL     OW12397   1.709   6.340   2.112
 3833SOL    HW112398   1.674   6.349   2.206
 3833SOL    HW212399   1.680   6.419   2.058
 3834SOL     OW12400   2.499   2.559   1.020
 3834SOL    HW112401   2.544   2.627   0.962
 3834SOL    HW212402   2.567   2.512   1.075
 3835SOL     OW12403   3.474   5.401   3.084
 3835SOL    HW112404   3.541   5.338   3.044
 3835SOL    HW212405   3.462   5.380   3.181
 3836SOL     OW12406   1.994   3.242   5.295
 3836SOL    HW112407   1.916   3.211   5.240
 3836SOL    HW212408   2.076   3.191   5.269
 3837SOL     OW12409   3.302   4.208   0.302
 3837SOL    HW112410   3.398   4.179   0.300
 3837SOL    HW212411   3.243   4.130   0.282
 3838SOL     OW12412   5.914   3.411   4.566
 3838SOL    HW112413   5.897   3.341   4.635
 3838SOL    HW212414   6.011   3.411   4.541
 3839SOL     OW12415   0.712   6.554   6.082
 3839SOL    HW112416   0.633   6.495   6.069
 3839SOL    HW212417   0.753   6.576   5.993
 3840SOL     OW12418   2.526   1.615   3.717
 3840SOL    HW112419   2.564   1.660   3.798
 3840SOL    HW212420   2.591   1.621   3.642
 3841SOL     OW12421   0.764   3.826   3.992
 3841SOL    HW112422   0.831   3.900   3.991
 3841SOL    HW212423   0.712   3.829   4.077
 3842SOL     OW12424   1.711   5.214   0.204
 3842SOL    HW112425   1.763   5.298   0.192
 3842SOL    HW212426   1.691   5.174   0.114
 3843SOL     OW12427   5.731   4.366   0.180
 3843SOL    HW112428   5.698   4.272   0.191
 3843SOL    HW212429   5.818   4.376   0.228
 3844SOL     OW12430   2.572   4.746   5.466
 3844SOL    HW112431   2.617   4.670   5.420
 3844SOL    HW212432   2.523   4.802   5.400
 3845SOL     OW12433   3.287   3.898   4.257
 3845SOL    HW112434   3.299   3.985   4.209
 3845SOL    HW212435   3.376   3.853   4.267
 3846SOL     OW12436   6.887   4.649   4.434
 3846SOL    HW112437   6.985   4.646   4.413
 3846SOL    HW212438   6.835   4.608   4.359
 3847SOL     OW12439   0.939   0.024   1.076
 3847SOL    HW112440   0.952   6.964   1.129
 3847SOL    HW212441   0.994   0.097   1.116
 3848SOL     OW12442   3.108   6.302   1.693
 3848SOL    HW112443   3.025   6.358   1.687
 3848SOL    HW212444   3.140   6.279   1.602
 3849SOL     OW12445   2.377   1.434   5.944
 3849SOL    HW112446   2.361   1.500   5.870
 3849SOL    HW212447   2.446   1.470   6.006
 3850SOL     OW12448   1.960   3.911   1.356
 3850SOL    HW112449   1.976   3.991   1.298
 3850SOL    HW212450   1.889   3.933   1.424
 3851SOL     OW12451   2.242   2.907   1.250
 3851SOL    HW112452   2.304   2.966   1.199
 3851SOL    HW212453   2.153   2.905   1.206
 3852SOL     OW12454   4.580   1.309   5.204
 3852SOL    HW112455   4.559   1.221   5.246
 3852SOL    HW212456   4.495   1.358   5.185
 3853SOL     OW12457   0.701   3.946   1.814
 3853SOL    HW112458   0.761   3.939   1.734
 3853SOL    HW212459   0.664   3.856   1.836
 3854SOL     OW12460   1.593   3.325   4.139
 3854SOL    HW112461   1.629   3.391   4.205
 3854SOL    HW212462   1.534   3.371   4.073
 3855SOL     OW12463   6.732   1.310   5.116
 3855SOL    HW112464   6.664   1.245   5.149
 3855SOL    HW212465   6.726   1.319   5.017
 3856SOL     OW12466   1.796   6.078   6.015
 3856SOL    HW112467   1.826   6.171   5.993
 3856SOL    HW212468   1.700   6.079   6.042
 3857SOL     OW12469   0.598   0.412   6.174
 3857SOL    HW112470   0.554   0.400   6.264
 3857SOL    HW212471   0.585   0.505   6.143
 3858SOL     OW12472   3.107   4.677   6.867
 3858SOL    HW112473   3.139   4.727   6.948
 3858SOL    HW212474   3.096   4.740   6.791
 3859SOL     OW12475   6.204   2.507   2.418
 3859SOL    HW112476   6.233   2.601   2.405
 3859SOL    HW212477   6.112   2.495   2.380
 3860SOL     OW12478   2.275   6.509   4.729
 3860SOL    HW112479   2.250   6.514   4.825
 3860SOL    HW212480   2.193   6.518   4.672
 3861SOL     OW12481   3.801   4.204   0.228
 3861SOL    HW112482   3.870   4.136   0.251
 3861SOL    HW212483   3.764   4.244   0.313
 3862SOL     OW12484   0.911   5.781   5.845
 3862SOL    HW112485   0.859   5.758   5.927
 3862SOL    HW212486   0.987   5.717   5.836
 3863SOL     OW12487   2.831   3.313   0.370
 3863SOL    HW112488   2.794   3.229   0.410
 3863SOL    HW212489   2.886   3.291   0.290
 3864SOL     OW12490   3.255   1.724   1.007
 3864SOL    HW112491   3.197   1.650   0.973
 3864SOL    HW212492   3.197   1.793   1.053
 3865SOL     OW12493   4.308   0.967   2.327
 3865SOL    HW112494   4.216   0.964   2.290
 3865SOL    HW212495   4.369   0.913   2.269
 3866SOL     OW12496   3.521   6.423   6.839
 3866SOL    HW112497   3.524   6.470   6.928
 3866SOL    HW212498   3.612   6.427   6.797
 3867SOL     OW12499   1.710   5.032   3.048
 3867SOL    HW112500   1.785   4.985   3.002
 3867SOL    HW212501   1.746   5.091   3.120
 3868SOL     OW12502   2.167   5.498   2.675
 3868SOL    HW112503   2.133   5.529   2.587
 3868SOL    HW212504   2.219   5.414   2.663
 3869SOL     OW12505   0.553   1.883   3.703
 3869SOL    HW112506   0.505   1.970   3.705
 3869SOL    HW212507   0.487   1.808   3.700
 3870SOL     OW12508   3.750   3.652   0.763
 3870SOL    HW112509   3.822   3.721   0.768
 3870SOL    HW212510   3.662   3.697   0.746
 3871SOL     OW12511   2.783   1.179   5.143
 3871SOL    HW112512   2.865   1.152   5.193
 3871SOL    HW212513   2.723   1.100   5.131
 3872SOL     OW12514   4.333   3.994   1.154
 3872SOL    HW112515   4.312   3.904   1.192
 3872SOL    HW212516   4.272   4.013   1.076
 3873SOL     OW12517   5.649   4.424   2.053
 3873SOL    HW112518   5.680   4.520   2.059
 3873SOL    HW212519   5.561   4.415   2.099
 3874SOL     OW12520   4.655   5.996   6.070
 3874SOL    HW112521   4.693   5.943   5.994
 3874SOL    HW212522   4.644   6.091   6.043
 3875SOL     OW12523   2.619   3.758   0.180
 3875SOL    HW112524   2.711   3.761   0.140
 3875SOL    HW212525   2.617   3.690   0.253
 3876SOL     OW12526   5.881   3.723   2.548
 3876SOL    HW112527   5.835   3.660   2.485
 3876SOL    HW212528   5.866   3.817   2.519
 3877SOL     OW12529   4.700   1.761   2.266
 3877SOL    HW112530   4.676   1.797   2.176
 3877SOL    HW212531   4.762   1.684   2.255
 3878SOL     OW12532   4.874   5.923   4.555
 3878SOL    HW112533   4.801   5.909   4.487
 3878SOL    HW212534   4.878   6.019   4.580
 3879SOL     OW12535   3.036   5.826   0.551
 3879SOL    HW112536   3.005   5.798   0.642
 3879SOL    HW212537   3.060   5.923   0.553
 3880SOL     OW12538   6.316   1.895   4.293
 3880SOL    HW112539   6.265   1.902   4.207
 3880SOL    HW212540   6.348   1.985   4.321
 3881SOL     OW12541   0.569   5.601   6.531
 3881SOL    HW112542   0.532   5.569   6.444
 3881SOL    HW212543   0.542   5.696   6.546
 3882SOL     OW12544   0.339   6.691   6.588
 3882SOL    HW112545   0.290   6.774   6.561
 3882SOL    HW212546   0.380   6.703   6.678
 3883SOL     OW12547   3.465   1.604   7.008
 3883SOL    HW112548   3.479   1.665   6.930
 3883SOL    HW212549   3.422   1.520   6.978
 3884SOL     OW12550   2.231   5.217   5.714
 3884SOL    HW112551   2.187   5.134   5.678
 3884SOL    HW212552   2.264   5.200   5.806
 3885SOL     OW12553   6.737   0.587   4.230
 3885SOL    HW112554   6.786   0.526   4.291
 3885SOL    HW212555   6.741   0.681   4.266
 3886SOL     OW12556   0.247   5.896   4.783
 3886SOL    HW112557   0.148   5.880   4.787
 3886SOL    HW212558   0.264   5.986   4.743
 3887SOL     OW12559   5.522   2.860   4.945
 3887SOL    HW112560   5.618   2.835   4.961
 3887SOL    HW212561   5.509   2.957   4.965
 3888SOL     OW12562   5.532   1.181   2.803
 3888SOL    HW112563   5.455   1.119   2.816
 3888SOL    HW212564   5.532   1.216   2.710
 3889SOL     OW12565   6.431   5.788   6.445
 3889SOL    HW112566   6.335   5.810   6.428
 3889SOL    HW212567   6.440   5.692   6.470
 3890SOL     OW12568   6.484   3.151   3.435
 3890SOL    HW112569   6.421   3.076   3.416
 3890SOL    HW212570   6.493   3.209   3.355
 3891SOL     OW12571   4.416   4.752   6.185
 3891SOL    HW112572   4.408   4.746   6.085
 3891SOL    HW212573   4.336   4.800   6.221
 3892SOL     OW12574   5.567   5.761   3.691
 3892SOL    HW112575   5.546   5.846   3.740
 3892SOL    HW212576   5.509   5.687   3.726
 3893SOL     OW12577   2.922   6.120   4.457
 3893SOL    HW112578   2.887   6.097   4.366
 3893SOL    HW212579   2.865   6.077   4.527
 3894SOL     OW12580   5.692   5.366   6.530
 3894SOL    HW112581   5.662   5.419   6.451
 3894SOL    HW212582   5.737   5.282   6.499
 3895SOL     OW12583   1.803   2.226   6.289
 3895SOL    HW112584   1.853   2.311   6.270
 3895SOL    HW212585   1.809   2.205   6.387
 3896SOL     OW12586   6.500   3.027   0.796
 3896SOL    HW112587   6.458   3.043   0.885
 3896SOL    HW212588   6.440   2.970   0.740
 3897SOL     OW12589   2.965   6.582   3.625
 3897SOL    HW112590   3.027   6.637   3.568
 3897SOL    HW212591   2.881   6.634   3.642
 3898SOL     OW12592   3.391   3.397   3.945
 3898SOL    HW112593   3.297   3.367   3.961
 3898SOL    HW212594   3.390   3.480   3.889
 3899SOL     OW12595   5.030   1.688   6.383
 3899SOL    HW112596   4.978   1.727   6.459
 3899SOL    HW212597   5.087   1.758   6.341
 3900SOL     OW12598   0.808   2.804   3.349
 3900SOL    HW112599   0.735   2.757   3.399
 3900SOL    HW212600   0.823   2.895   3.389
 3901SOL     OW12601   3.585   5.999   5.434
 3901SOL    HW112602   3.684   5.993   5.451
 3901SOL    HW212603   3.544   6.063   5.498
 3902SOL     OW12604   3.571   5.650   3.116
 3902SOL    HW112605   3.492   5.690   3.070
 3902SOL    HW212606   3.568   5.550   3.108
 3903SOL     OW12607   3.755   3.464   6.389
 3903SOL    HW112608   3.748   3.404   6.310
 3903SOL    HW212609   3.737   3.558   6.361
 3904SOL     OW12610   2.270   6.156   0.126
 3904SOL    HW112611   2.176   6.173   0.097
 3904SOL    HW212612   2.291   6.213   0.205
 3905SOL     OW12613   4.459   0.565   5.504
 3905SOL    HW112614   4.547   0.548   5.549
 3905SOL    HW212615   4.434   0.487   5.447
 3906SOL     OW12616   6.688   5.970   4.390
 3906SOL    HW112617   6.713   5.988   4.294
 3906SOL    HW212618   6.640   6.050   4.426
 3907SOL     OW12619   0.618   1.468   4.341
 3907SOL    HW112620   0.632   1.374   4.373
 3907SOL    HW212621   0.585   1.467   4.247
 3908SOL     OW12622   2.108   1.239   4.707
 3908SOL    HW112623   2.056   1.171   4.655
 3908SOL    HW212624   2.124   1.204   4.800
 3909SOL     OW12625   5.838   3.209   2.081
 3909SOL    HW112626   5.857   3.185   2.176
 3909SOL    HW212627   5.742   3.190   2.060
 3910SOL     OW12628   2.027   2.987   1.135
 3910SOL    HW112629   2.052   3.078   1.169
 3910SOL    HW212630   1.928   2.974   1.144
 3911SOL     OW12631   6.856   1.421   0.975
 3911SOL    HW112632   6.817   1.396   1.064
 3911SOL    HW212633   6.841   1.347   0.909
 3912SOL     OW12634   5.008   3.820   0.460
 3912SOL    HW112635   5.106   3.836   0.455
 3912SOL    HW212636   4.961   3.886   0.402
 3913SOL     OW12637   4.174   4.975   1.499
 3913SOL    HW112638   4.100   5.042   1.492
 3913SOL    HW212639   4.243   4.995   1.429
 3914SOL     OW12640   0.449   1.002   0.805
 3914SOL    HW112641   0.448   1.011   0.705
 3914SOL    HW212642   0.442   1.092   0.847
 3915SOL     OW12643   5.676   0.401   4.924
 3915SOL    HW112644   5.701   0.435   5.015
 3915SOL    HW212645   5.644   0.477   4.867
 3916SOL     OW12646   1.720   2.619   2.135
 3916SOL    HW112647   1.693   2.586   2.226
 3916SOL    HW212648   1.796   2.565   2.101
 3917SOL     OW12649   4.535   5.605   2.370
 3917SOL    HW112650   4.576   5.546   2.440
 3917SOL    HW212651   4.596   5.609   2.291
 3918SOL     OW12652   4.128   7.013   1.354
 3918SOL    HW112653   4.175   0.063   1.304
 3918SOL    HW212654   4.030   7.020   1.339
 3919SOL     OW12655   5.120   5.245   3.015
 3919SOL    HW112656   5.187   5.257   3.088
 3919SOL    HW212657   5.029   5.237   3.054
 3920SOL     OW12658   4.586   1.349   5.964
 3920SOL    HW112659   4.521   1.420   5.989
 3920SOL    HW212660   4.679   1.379   5.985
 3921SOL     OW12661   1.396   2.843   6.200
 3921SOL    HW112662   1.439   2.876   6.284
 3921SOL    HW212663   1.464   2.837   6.127
 3922SOL     OW12664   5.484   2.658   4.099
 3922SOL    HW112665   5.545   2.735   4.082
 3922SOL    HW212666   5.439   2.631   4.014
 3923SOL     OW12667   5.923   0.752   0.995
 3923SOL    HW112668   5.838   0.715   1.033
 3923SOL    HW212669   5.987   0.677   0.978
 3924SOL     OW12670   5.305   5.040   3.837
 3924SOL    HW112671   5.257   5.100   3.773
 3924SOL    HW212672   5.246   5.022   3.916
 3925SOL     OW12673   3.537   4.675   1.585
 3925SOL    HW112674   3.565   4.697   1.679
 3925SOL    HW212675   3.616   4.640   1.534
 3926SOL     OW12676   1.351   5.917   5.327
 3926SOL    HW112677   1.446   5.901   5.302
 3926SOL    HW212678   1.301   5.952   5.248
 3927SOL     OW12679   6.048   6.708   5.542
 3927SOL    HW112680   6.091   6.620   5.524
 3927SOL    HW212681   6.087   6.777   5.481
 3928SOL     OW12682   4.535   5.737   2.894
 3928SOL    HW112683   4.468   5.811   2.894
 3928SOL    HW212684   4.503   5.662   2.836
 3929SOL     OW12685   1.387   1.268   5.531
 3929SOL    HW112686   1.455   1.286   5.460
 3929SOL    HW212687   1.295   1.269   5.490
 3930SOL     OW12688   2.309   6.034   4.127
 3930SOL    HW112689   2.278   5.939   4.132
 3930SOL    HW212690   2.356   6.048   4.040
 3931SOL     OW12691   0.168   2.227   0.264
 3931SOL    HW112692   0.213   2.311   0.294
 3931SOL    HW212693   0.084   2.250   0.214
 3932SOL     OW12694   2.180   3.827   2.799
 3932SOL    HW112695   2.168   3.732   2.770
 3932SOL    HW212696   2.154   3.888   2.724
 3933SOL     OW12697   1.466   6.734   1.528
 3933SOL    HW112698   1.510   6.673   1.462
 3933SOL    HW212699   1.381   6.693   1.560
 3934SOL     OW12700   1.929   6.711   1.952
 3934SOL    HW112701   1.937   6.779   1.880
 3934SOL    HW212702   2.015   6.662   1.963
 3935SOL     OW12703   0.594   1.036   5.024
 3935SOL    HW112704   0.525   0.963   5.021
 3935SOL    HW212705   0.549   1.125   5.011
 3936SOL     OW12706   6.367   4.316   3.838
 3936SOL    HW112707   6.452   4.368   3.847
 3936SOL    HW212708   6.368   4.266   3.751
 3937SOL     OW12709   1.279   6.665   7.008
 3937SOL    HW112710   1.273   6.571   6.974
 3937SOL    HW212711   1.342   6.668   0.062
 3938SOL     OW12712   0.421   4.094   6.344
 3938SOL    HW112713   0.438   4.067   6.250
 3938SOL    HW212714   0.456   4.024   6.406
 3939SOL     OW12715   2.431   6.461   4.271
 3939SOL    HW112716   2.390   6.547   4.302
 3939SOL    HW212717   2.504   6.480   4.206
 3940SOL     OW12718   2.374   5.985   6.962
 3940SOL    HW112719   2.297   5.921   6.955
 3940SOL    HW212720   2.345   6.067   7.012
 3941SOL     OW12721   5.636   5.199   2.639
 3941SOL    HW112722   5.602   5.126   2.578
 3941SOL    HW212723   5.637   5.166   2.733
 3942SOL     OW12724   0.239   6.180   6.481
 3942SOL    HW112725   0.291   6.181   6.566
 3942SOL    HW212726   0.179   6.100   6.480
 3943SOL     OW12727   0.845   4.228   0.393
 3943SOL    HW112728   0.767   4.291   0.395
 3943SOL    HW212729   0.812   4.134   0.401
 3944SOL     OW12730   4.795   3.434   0.093
 3944SOL    HW112731   4.809   3.359   0.028
 3944SOL    HW212732   4.865   3.504   0.079
 3945SOL     OW12733   6.993   0.792   3.106
 3945SOL    HW112734   6.963   0.884   3.132
 3945SOL    HW212735   6.913   0.734   3.091
 3946SOL     OW12736   6.232   1.572   1.234
 3946SOL    HW112737   6.202   1.631   1.309
 3946SOL    HW212738   6.289   1.625   1.171
 3947SOL     OW12739   5.573   6.910   2.075
 3947SOL    HW112740   5.570   6.821   2.030
 3947SOL    HW212741   5.654   6.916   2.133
 3948SOL     OW12742   2.028   1.487   4.829
 3948SOL    HW112743   2.062   1.415   4.768
 3948SOL    HW212744   2.102   1.518   4.888
 3949SOL     OW12745   6.471   6.911   2.326
 3949SOL    HW112746   6.486   6.975   2.251
 3949SOL    HW212747   6.399   6.946   2.386
 3950SOL     OW12748   2.464   4.778   1.288
 3950SOL    HW112749   2.474   4.830   1.372
 3950SOL    HW212750   2.521   4.818   1.217
 3951SOL     OW12751   6.815   2.577   3.663
 3951SOL    HW112752   6.800   2.590   3.565
 3951SOL    HW212753   6.872   2.496   3.678
 3952SOL     OW12754   5.930   4.738   6.717
 3952SOL    HW112755   5.868   4.816   6.716
 3952SOL    HW212756   5.885   4.659   6.674
 3953SOL     OW12757   3.622   3.318   5.543
 3953SOL    HW112758   3.696   3.316   5.610
 3953SOL    HW212759   3.626   3.403   5.490
 3954SOL     OW12760   1.111   3.746   5.542
 3954SOL    HW112761   1.029   3.746   5.485
 3954SOL    HW212762   1.095   3.690   5.624
 3955SOL     OW12763   5.807   3.539   7.004
 3955SOL    HW112764   5.719   3.552   6.958
 3955SOL    HW212765   5.841   3.626   0.015
 3956SOL     OW12766   6.703   2.406   4.921
 3956SOL    HW112767   6.711   2.499   4.957
 3956SOL    HW212768   6.620   2.399   4.865
 3957SOL     OW12769   1.439   2.373   1.946
 3957SOL    HW112770   1.387   2.421   1.876
 3957SOL    HW212771   1.394   2.287   1.969
 3958SOL     OW12772   5.946   5.151   1.323
 3958SOL    HW112773   5.862   5.191   1.286
 3958SOL    HW212774   5.974   5.203   1.404
 3959SOL     OW12775   3.052   4.710   1.536
 3959SOL    HW112776   3.031   4.658   1.619
 3959SOL    HW212777   2.974   4.767   1.511
 3960SOL     OW12778   5.992   2.380   0.735
 3960SOL    HW112779   6.031   2.385   0.643
 3960SOL    HW212780   5.948   2.291   0.748
 3961SOL     OW12781   6.765   1.191   0.832
 3961SOL    HW112782   6.767   1.138   0.917
 3961SOL    HW212783   6.711   1.141   0.764
 3962SOL     OW12784   0.017   7.017   6.641
 3962SOL    HW112785   0.110   0.007   6.605
 3962SOL    HW212786   0.011   6.927   6.684
 3963SOL     OW12787   5.287   3.777   4.493
 3963SOL    HW112788   5.200   3.781   4.542
 3963SOL    HW212789   5.362   3.782   4.560
 3964SOL     OW12790   5.588   4.459   6.957
 3964SOL    HW112791   5.583   4.557   6.940
 3964SOL    HW212792   5.657   4.442   0.004
 3965SOL     OW12793   2.501   4.064   1.564
 3965SOL    HW112794   2.561   4.139   1.534
 3965SOL    HW212795   2.545   3.976   1.546
 3966SOL     OW12796   0.167   3.387   5.231
 3966SOL    HW112797   0.100   3.392   5.157
 3966SOL    HW212798   0.178   3.477   5.272
 3967SOL     OW12799   2.659   6.772   0.366
 3967SOL    HW112800   2.683   6.688   0.415
 3967SOL    HW212801   2.569   6.761   0.323
 3968SOL     OW12802   4.656   2.798   0.488
 3968SOL    HW112803   4.707   2.714   0.468
 3968SOL    HW212804   4.602   2.785   0.571
 3969SOL     OW12805   6.281   6.472   0.667
 3969SOL    HW112806   6.289   6.487   0.766
 3969SOL    HW212807   6.372   6.454   0.629
 3970SOL     OW12808   5.826   4.162   4.123
 3970SOL    HW112809   5.841   4.223   4.045
 3970SOL    HW212810   5.914   4.143   4.167
 3971SOL     OW12811   0.602   5.924   4.165
 3971SOL    HW112812   0.508   5.916   4.132
 3971SOL    HW212813   0.663   5.942   4.088
 3972SOL     OW12814   1.005   0.489   6.400
 3972SOL    HW112815   1.079   0.428   6.368
 3972SOL    HW212816   1.001   0.570   6.341
 3973SOL     OW12817   4.166   3.213   2.029
 3973SOL    HW112818   4.184   3.311   2.026
 3973SOL    HW212819   4.231   3.165   1.970
 3974SOL     OW12820   4.951   0.881   6.869
 3974SOL    HW112821   4.968   0.977   6.894
 3974SOL    HW212822   4.988   0.821   6.940
 3975SOL     OW12823   0.235   6.205   4.258
 3975SOL    HW112824   0.211   6.286   4.311
 3975SOL    HW212825   0.332   6.183   4.274
 3976SOL     OW12826   1.252   2.935   5.398
 3976SOL    HW112827   1.157   2.913   5.375
 3976SOL    HW212828   1.275   2.894   5.486
 3977SOL     OW12829   3.032   4.916   5.713
 3977SOL    HW112830   2.944   4.874   5.691
 3977SOL    HW212831   3.018   5.012   5.739
 3978SOL     OW12832   4.972   3.068   6.398
 3978SOL    HW112833   5.032   3.042   6.322
 3978SOL    HW212834   4.950   3.166   6.390
 3979SOL     OW12835   1.387   5.978   3.301
 3979SOL    HW112836   1.411   5.978   3.398
 3979SOL    HW212837   1.358   5.886   3.274
 3980SOL     OW12838   4.911   3.832   4.494
 3980SOL    HW112839   4.901   3.732   4.488
 3980SOL    HW212840   4.878   3.874   4.410
 3981SOL     OW12841   0.065   1.302   6.578
 3981SOL    HW112842   0.142   1.352   6.540
 3981SOL    HW212843   7.014   1.298   6.511
 3982SOL     OW12844   1.953   3.142   4.499
 3982SOL    HW112845   1.897   3.163   4.579
 3982SOL    HW212846   1.901   3.161   4.416
 3983SOL     OW12847   2.843   0.390   3.766
 3983SOL    HW112848   2.879   0.472   3.809
 3983SOL    HW212849   2.907   0.359   3.695
 3984SOL     OW12850   1.371   5.658   2.320
 3984SOL    HW112851   1.457   5.649   2.369
 3984SOL    HW212852   1.374   5.739   2.262
 3985SOL     OW12853   1.364   2.856   1.517
 3985SOL    HW112854   1.342   2.902   1.431
 3985SOL    HW212855   1.414   2.919   1.577
 3986SOL     OW12856   6.975   2.485   3.117
 3986SOL    HW112857   0.001   2.402   3.090
 3986SOL    HW212858   6.893   2.493   3.062
 3987SOL     OW12859   0.874   4.305   5.349
 3987SOL    HW112860   0.780   4.282   5.371
 3987SOL    HW212861   0.935   4.233   5.382
 3988SOL     OW12862   5.327   0.110   1.903
 3988SOL    HW112863   5.297   0.037   1.965
 3988SOL    HW212864   5.274   0.193   1.920
 3989SOL     OW12865   4.704   0.900   5.787
 3989SOL    HW112866   4.625   0.859   5.833
 3989SOL    HW212867   4.702   0.874   5.690
 3990SOL     OW12868   6.238   0.458   4.191
 3990SOL    HW112869   6.175   0.535   4.191
 3990SOL    HW212870   6.213   0.395   4.117
 3991SOL     OW12871   6.484   2.013   3.723
 3991SOL    HW112872   6.520   2.106   3.715
 3991SOL    HW212873   6.413   1.998   3.654
 3992SOL     OW12874   5.925   3.642   6.086
 3992SOL    HW112875   5.964   3.693   6.009
 3992SOL    HW212876   5.841   3.687   6.116
 3993SOL     OW12877   1.654   0.595   4.175
 3993SOL    HW112878   1.728   0.661   4.158
 3993SOL    HW212879   1.582   0.639   4.228
 3994SOL     OW12880   2.646   1.948   3.840
 3994SOL    HW112881   2.740   1.959   3.808
 3994SOL    HW212882   2.632   1.854   3.872
 3995SOL     OW12883   1.408   3.141   1.915
 3995SOL    HW112884   1.325   3.190   1.941
 3995SOL    HW212885   1.482   3.166   1.977
 3996SOL     OW12886   6.948   6.401   5.038
 3996SOL    HW112887   6.899   6.484   5.014
 3996SOL    HW212888   0.021   6.412   5.017
 3997SOL     OW12889   5.774   3.796   4.384
 3997SOL    HW112890   5.761   3.764   4.478
 3997SOL    HW212891   5.872   3.808   4.366
 3998SOL     OW12892   4.568   1.818   3.520
 3998SOL    HW112893   4.536   1.724   3.532
 3998SOL    HW212894   4.643   1.819   3.454
 3999SOL     OW12895   5.123   2.535   0.778
 3999SOL    HW112896   5.114   2.551   0.876
 3999SOL    HW212897   5.217   2.507   0.757
 4000SOL     OW12898   1.880   4.476   2.957
 4000SOL    HW112899   1.858   4.396   2.901
 4000SOL    HW212900   1.954   4.527   2.913
 4001SOL     OW12901   0.692   5.995   4.576
 4001SOL    HW112902   0.604   5.949   4.586
 4001SOL    HW212903   0.687   6.087   4.616
 4002SOL     OW12904   4.052   3.763   4.499
 4002SOL    HW112905   4.086   3.674   4.527
 4002SOL    HW212906   4.034   3.819   4.580
 4003SOL     OW12907   2.643   1.181   4.731
 4003SOL    HW112908   2.700   1.226   4.799
 4003SOL    HW212909   2.583   1.114   4.776
 4004SOL     OW12910   1.890   3.662   4.853
 4004SOL    HW112911   1.820   3.618   4.908
 4004SOL    HW212912   1.979   3.653   4.898
 4005SOL     OW12913   5.691   2.934   0.837
 4005SOL    HW112914   5.636   2.882   0.771
 4005SOL    HW212915   5.756   2.992   0.788
 4006SOL     OW12916   0.257   6.020   2.015
 4006SOL    HW112917   0.216   5.992   1.928
 4006SOL    HW212918   0.346   6.062   1.998
 4007SOL     OW12919   0.509   1.280   1.549
 4007SOL    HW112920   0.569   1.277   1.629
 4007SOL    HW212921   0.452   1.198   1.547
 4008SOL     OW12922   3.854   0.894   1.381
 4008SOL    HW112923   3.898   0.806   1.367
 4008SOL    HW212924   3.820   0.929   1.294
 4009SOL     OW12925   3.635   2.305   1.127
 4009SOL    HW112926   3.683   2.286   1.212
 4009SOL    HW212927   3.607   2.219   1.084
 4010SOL     OW12928   1.741   4.787   0.792
 4010SOL    HW112929   1.829   4.828   0.816
 4010SOL    HW212930   1.682   4.783   0.872
 4011SOL     OW12931   6.451   6.642   6.004
 4011SOL    HW112932   6.374   6.617   6.062
 4011SOL    HW212933   6.532   6.656   6.061
 4012SOL     OW12934   5.332   5.468   1.828
 4012SOL    HW112935   5.370   5.423   1.747
 4012SOL    HW212936   5.234   5.446   1.834
 4013SOL     OW12937   0.159   1.646   0.304
 4013SOL    HW112938   0.210   1.637   0.390
 4013SOL    HW212939   0.223   1.641   0.227
 4014SOL     OW12940   3.386   5.802   2.738
 4014SOL    HW112941   3.394   5.736   2.663
 4014SOL    HW212942   3.379   5.753   2.825
 4015SOL     OW12943   3.789   6.373   5.105
 4015SOL    HW112944   3.800   6.313   5.185
 4015SOL    HW212945   3.865   6.437   5.101
 4016SOL     OW12946   4.925   5.460   4.478
 4016SOL    HW112947   5.008   5.404   4.482
 4016SOL    HW212948   4.888   5.457   4.385
 4017SOL     OW12949   2.078   5.775   6.226
 4017SOL    HW112950   1.993   5.818   6.257
 4017SOL    HW212951   2.059   5.683   6.193
 4018SOL     OW12952   4.556   5.567   1.068
 4018SOL    HW112953   4.545   5.521   0.980
 4018SOL    HW212954   4.559   5.499   1.141
 4019SOL     OW12955   6.993   2.748   3.053
 4019SOL    HW112956   7.006   2.654   3.085
 4019SOL    HW212957   6.915   2.751   2.990
 4020SOL     OW12958   6.783   5.583   4.394
 4020SOL    HW112959   6.842   5.664   4.405
 4020SOL    HW212960   6.840   5.504   4.372
 4021SOL     OW12961   4.514   5.204   6.027
 4021SOL    HW112962   4.555   5.284   6.071
 4021SOL    HW212963   4.562   5.121   6.056
 4022SOL     OW12964   3.333   0.013   1.311
 4022SOL    HW112965   3.384   6.951   1.303
 4022SOL    HW212966   3.235   7.019   1.301
 4023SOL     OW12967   0.426   2.056   4.130
 4023SOL    HW112968   0.439   1.959   4.149
 4023SOL    HW212969   0.498   2.109   4.175
 4024SOL     OW12970   0.489   6.127   6.171
 4024SOL    HW112971   0.540   6.043   6.155
 4024SOL    HW212972   0.478   6.176   6.085
 4025SOL     OW12973   6.662   4.863   4.178
 4025SOL    HW112974   6.566   4.836   4.185
 4025SOL    HW212975   6.685   4.923   4.255
 4026SOL     OW12976   0.517   6.960   4.201
 4026SOL    HW112977   0.462   6.896   4.148
 4026SOL    HW212978   0.462   6.995   4.277
 4027SOL     OW12979   3.115   5.244   5.190
 4027SOL    HW112980   3.166   5.207   5.267
 4027SOL    HW212981   3.107   5.343   5.199
 4028SOL     OW12982   5.306   1.878   4.791
 4028SOL    HW112983   5.268   1.819   4.863
 4028SOL    HW212984   5.256   1.964   4.790
 4029SOL     OW12985   1.379   6.810   0.680
 4029SOL    HW112986   1.314   6.841   0.750
 4029SOL    HW212987   1.349   6.840   0.590
 4030SOL     OW12988   0.462   1.753   2.016
 4030SOL    HW112989   0.378   1.714   1.978
 4030SOL    HW212990   0.455   1.853   2.017
 4031SOL     OW12991   6.048   5.796   0.528
 4031SOL    HW112992   6.022   5.773   0.434
 4031SOL    HW212993   6.115   5.730   0.562
 4032SOL     OW12994   5.117   1.703   2.793
 4032SOL    HW112995   5.054   1.626   2.785
 4032SOL    HW212996   5.179   1.704   2.715
 4033SOL     OW12997   1.718   3.006   3.106
 4033SOL    HW112998   1.667   2.925   3.135
 4033SOL    HW212999   1.736   3.000   3.008
 4034SOL     OW13000   1.442   2.583   4.301
 4034SOL    HW113001   1.473   2.510   4.239
 4034SOL    HW213002   1.468   2.672   4.263
 4035SOL     OW13003   4.263   2.492   1.709
 4035SOL    HW113004   4.250   2.414   1.770
 4035SOL    HW213005   4.188   2.496   1.644
 4036SOL     OW13006   3.994   5.985   3.422
 4036SOL    HW113007   4.080   5.983   3.473
 4036SOL    HW213008   3.938   5.907   3.448
 4037SOL     OW13009   1.964   2.193   6.636
 4037SOL    HW113010   2.029   2.239   6.575
 4037SOL    HW213011   1.871   2.208   6.603
 4038SOL     OW13012   3.511   4.767   5.819
 4038SOL    HW113013   3.610   4.775   5.827
 4038SOL    HW213014   3.478   4.694   5.879
 4039SOL     OW13015   6.008   4.293   1.954
 4039SOL    HW113016   5.995   4.391   1.938
 4039SOL    HW213017   5.922   4.253   1.984
 4040SOL     OW13018   3.206   0.329   5.106
 4040SOL    HW113019   3.239   0.306   5.197
 4040SOL    HW213020   3.279   0.374   5.054
 4041SOL     OW13021   1.300   5.752   1.701
 4041SOL    HW113022   1.396   5.756   1.673
 4041SOL    HW213023   1.284   5.671   1.758
 4042SOL     OW13024   0.312   1.589   3.163
 4042SOL    HW113025   0.339   1.499   3.130
 4042SOL    HW213026   0.326   1.657   3.091
 4043SOL     OW13027   4.647   2.270   6.236
 4043SOL    HW113028   4.705   2.339   6.192
 4043SOL    HW213029   4.704   2.208   6.290
 4044SOL     OW13030   4.514   4.599   3.523
 4044SOL    HW113031   4.567   4.515   3.515
 4044SOL    HW213032   4.483   4.609   3.618
 4045SOL     OW13033   4.818   1.447   5.221
 4045SOL    HW113034   4.746   1.379   5.231
 4045SOL    HW213035   4.836   1.463   5.124
 4046SOL     OW13036   5.012   1.567   4.227
 4046SOL    HW113037   5.102   1.585   4.268
 4046SOL    HW213038   4.983   1.647   4.176
 4047SOL     OW13039   3.265   2.496   6.383
 4047SOL    HW113040   3.195   2.447   6.435
 4047SOL    HW213041   3.277   2.450   6.294
 4048SOL     OW13042   5.025   2.154   3.347
 4048SOL    HW113043   4.973   2.158   3.262
 4048SOL    HW213044   4.999   2.073   3.399
 4049SOL     OW13045   4.293   3.741   1.233
 4049SOL    HW113046   4.224   3.669   1.234
 4049SOL    HW213047   4.343   3.741   1.320
 4050SOL     OW13048   0.065   4.954   2.593
 4050SOL    HW113049   0.151   4.908   2.569
 4050SOL    HW213050   0.083   5.050   2.613
 4051SOL     OW13051   5.290   0.499   4.528
 4051SOL    HW113052   5.266   0.526   4.622
 4051SOL    HW213053   5.372   0.549   4.500
 4052SOL     OW13054   4.839   1.917   4.410
 4052SOL    HW113055   4.876   1.872   4.491
 4052SOL    HW213056   4.910   1.921   4.339
 4053SOL     OW13057   0.885   5.293   3.735
 4053SOL    HW113058   0.897   5.353   3.814
 4053SOL    HW213059   0.947   5.215   3.742
 4054SOL     OW13060   4.639   3.435   1.214
 4054SOL    HW113061   4.685   3.414   1.128
 4054SOL    HW213062   4.636   3.534   1.227
 4055SOL     OW13063   0.115   4.389   6.971
 4055SOL    HW113064   0.077   4.377   0.039
 4055SOL    HW213065   0.041   4.393   6.904
 4056SOL     OW13066   5.108   3.214   6.978
 4056SOL    HW113067   5.024   3.229   6.925
 4056SOL    HW213068   5.129   3.117   6.980
 4057SOL     OW13069   0.000   3.412   6.570
 4057SOL    HW113070   6.967   3.406   6.487
 4057SOL    HW213071   0.039   3.503   6.577
 4058SOL     OW13072   3.598   0.280   4.406
 4058SOL    HW113073   3.581   0.288   4.308
 4058SOL    HW213074   3.520   0.317   4.457
 4059SOL     OW13075   0.658   1.453   4.064
 4059SOL    HW113076   0.629   1.548   4.074
 4059SOL    HW213077   0.679   1.434   3.968
 4060SOL     OW13078   0.316   6.125   4.619
 4060SOL    HW113079   0.376   6.204   4.605
 4060SOL    HW213080   0.221   6.154   4.619
 4061SOL     OW13081   0.576   4.714   1.876
 4061SOL    HW113082   0.590   4.615   1.869
 4061SOL    HW213083   0.553   4.751   1.785
 4062SOL     OW13084   1.912   3.883   0.252
 4062SOL    HW113085   1.968   3.960   0.222
 4062SOL    HW213086   1.817   3.912   0.260
 4063SOL     OW13087   3.732   0.425   0.864
 4063SOL    HW113088   3.715   0.327   0.857
 4063SOL    HW213089   3.761   0.460   0.775
 4064SOL     OW13090   2.392   1.140   6.177
 4064SOL    HW113091   2.439   1.198   6.111
 4064SOL    HW213092   2.451   1.062   6.201
 4065SOL     OW13093   2.608   1.549   1.607
 4065SOL    HW113094   2.605   1.633   1.660
 4065SOL    HW213095   2.518   1.506   1.606
 4066SOL     OW13096   0.421   4.582   4.217
 4066SOL    HW113097   0.452   4.487   4.222
 4066SOL    HW213098   0.421   4.612   4.121
 4067SOL     OW13099   6.668   4.677   0.815
 4067SOL    HW113100   6.595   4.631   0.764
 4067SOL    HW213101   6.687   4.766   0.773
 4068SOL     OW13102   2.186   3.039   5.247
 4068SOL    HW113103   2.256   3.052   5.177
 4068SOL    HW213104   2.229   3.013   5.333
 4069SOL     OW13105   4.763   6.634   5.523
 4069SOL    HW113106   4.820   6.654   5.603
 4069SOL    HW213107   4.783   6.542   5.490
 4070SOL     OW13108   1.386   3.460   3.973
 4070SOL    HW113109   1.310   3.526   3.974
 4070SOL    HW213110   1.469   3.506   3.943
 4071SOL     OW13111   1.771   1.048   4.564
 4071SOL    HW113112   1.863   1.062   4.599
 4071SOL    HW213113   1.726   1.137   4.551
 4072SOL     OW13114   3.101   6.503   2.388
 4072SOL    HW113115   3.100   6.419   2.443
 4072SOL    HW213116   3.049   6.574   2.434
 4073SOL     OW13117   4.107   5.209   0.291
 4073SOL    HW113118   4.039   5.261   0.343
 4073SOL    HW213119   4.070   5.119   0.269
 4074SOL     OW13120   1.351   5.383   2.216
 4074SOL    HW113121   1.371   5.472   2.257
 4074SOL    HW213122   1.416   5.366   2.142
 4075SOL     OW13123   5.986   1.319   0.138
 4075SOL    HW113124   6.061   1.290   0.078
 4075SOL    HW213125   5.900   1.316   0.086
 4076SOL     OW13126   2.218   5.750   3.901
 4076SOL    HW113127   2.124   5.750   3.866
 4076SOL    HW213128   2.218   5.780   3.996
 4077SOL     OW13129   3.378   1.583   1.742
 4077SOL    HW113130   3.357   1.664   1.798
 4077SOL    HW213131   3.295   1.528   1.732
 4078SOL     OW13132   4.067   4.861   2.498
 4078SOL    HW113133   4.094   4.766   2.514
 4078SOL    HW213134   3.968   4.864   2.480
 4079SOL     OW13135   0.300   2.108   3.904
 4079SOL    HW113136   0.339   2.085   3.993
 4079SOL    HW213137   0.251   2.029   3.868
 4080SOL     OW13138   6.858   2.196   4.974
 4080SOL    HW113139   6.792   2.270   4.965
 4080SOL    HW213140   6.834   2.139   5.052
 4081SOL     OW13141   0.732   3.877   3.723
 4081SOL    HW113142   0.756   3.858   3.818
 4081SOL    HW213143   0.815   3.886   3.669
 4082SOL     OW13144   0.814   3.252   0.053
 4082SOL    HW113145   0.728   3.237   0.102
 4082SOL    HW213146   0.849   3.165   0.019
 4083SOL     OW13147   6.632   2.838   4.994
 4083SOL    HW113148   6.726   2.873   4.993
 4083SOL    HW213149   6.614   2.793   5.081
 4084SOL     OW13150   6.132   1.042   4.481
 4084SOL    HW113151   6.160   0.952   4.447
 4084SOL    HW213152   6.041   1.035   4.522
 4085SOL     OW13153   2.736   5.432   0.273
 4085SOL    HW113154   2.655   5.491   0.271
 4085SOL    HW213155   2.722   5.358   0.339
 4086SOL     OW13156   1.305   3.962   0.976
 4086SOL    HW113157   1.211   3.992   0.963
 4086SOL    HW213158   1.361   4.039   1.005
 4087SOL     OW13159   2.445   1.475   2.583
 4087SOL    HW113160   2.383   1.416   2.635
 4087SOL    HW213161   2.511   1.516   2.645
 4088SOL     OW13162   6.776   1.624   0.243
 4088SOL    HW113163   6.748   1.529   0.257
 4088SOL    HW213164   6.833   1.654   0.319
 4089SOL     OW13165   0.849   1.161   5.317
 4089SOL    HW113166   0.792   1.239   5.291
 4089SOL    HW213167   0.918   1.145   5.246
 4090SOL     OW13168   3.141   4.890   6.692
 4090SOL    HW113169   3.067   4.939   6.737
 4090SOL    HW213170   3.221   4.950   6.685
 4091SOL     OW13171   4.533   0.444   1.127
 4091SOL    HW113172   4.530   0.394   1.214
 4091SOL    HW213173   4.509   0.381   1.052
 4092SOL     OW13174   6.639   1.292   4.071
 4092SOL    HW113175   6.679   1.291   3.979
 4092SOL    HW213176   6.711   1.312   4.138
 4093SOL     OW13177   5.380   6.964   4.355
 4093SOL    HW113178   5.346   6.918   4.273
 4093SOL    HW213179   5.384   6.900   4.431
 4094SOL     OW13180   3.264   4.207   5.777
 4094SOL    HW113181   3.167   4.184   5.773
 4094SOL    HW213182   3.273   4.304   5.799
 4095SOL     OW13183   1.910   3.662   5.920
 4095SOL    HW113184   1.901   3.664   6.020
 4095SOL    HW213185   1.990   3.715   5.893
 4096SOL     OW13186   4.691   4.708   2.108
 4096SOL    HW113187   4.764   4.764   2.069
 4096SOL    HW213188   4.721   4.613   2.116
 4097SOL     OW13189   3.795   3.844   3.501
 4097SOL    HW113190   3.884   3.799   3.510
 4097SOL    HW213191   3.763   3.835   3.407
 4098SOL     OW13192   0.866   3.252   2.414
 4098SOL    HW113193   0.776   3.288   2.438
 4098SOL    HW213194   0.916   3.227   2.497
 4099SOL     OW13195   2.541   6.054   2.289
 4099SOL    HW113196   2.572   6.012   2.375
 4099SOL    HW213197   2.508   6.146   2.307
 4100SOL     OW13198   3.768   6.450   3.324
 4100SOL    HW113199   3.703   6.454   3.249
 4100SOL    HW213200   3.725   6.406   3.403
 4101SOL     OW13201   4.499   1.692   0.117
 4101SOL    HW113202   4.492   1.757   0.193
 4101SOL    HW213203   4.594   1.683   0.089
 4102SOL     OW13204   5.117   1.827   0.368
 4102SOL    HW113205   5.051   1.866   0.431
 4102SOL    HW213206   5.127   1.887   0.289
 4103SOL     OW13207   0.576   6.694   2.308
 4103SOL    HW113208   0.663   6.742   2.298
 4103SOL    HW213209   0.565   6.665   2.404
 4104SOL     OW13210   2.080   4.658   2.841
 4104SOL    HW113211   2.150   4.729   2.853
 4104SOL    HW213212   2.080   4.627   2.746
 4105SOL     OW13213   6.116   5.015   0.010
 4105SOL    HW113214   6.194   5.055   6.986
 4105SOL    HW213215   6.032   5.035   6.983
 4106SOL     OW13216   7.011   3.709   4.650
 4106SOL    HW113217   0.010   3.732   4.744
 4106SOL    HW213218   0.000   3.611   4.635
 4107SOL     OW13219   6.777   0.473   0.512
 4107SOL    HW113220   6.838   0.435   0.443
 4107SOL    HW213221   6.788   0.423   0.597
 4108SOL     OW13222   6.457   2.385   4.809
 4108SOL    HW113223   6.397   2.438   4.869
 4108SOL    HW213224   6.401   2.331   4.745
 4109SOL     OW13225   3.032   6.298   3.927
 4109SOL    HW113226   2.968   6.324   4.000
 4109SOL    HW213227   2.986   6.236   3.864
 4110SOL     OW13228   4.588   3.048   5.554
 4110SOL    HW113229   4.512   3.035   5.619
 4110SOL    HW213230   4.670   3.002   5.589
 4111SOL     OW13231   3.677   3.334   6.613
 4111SOL    HW113232   3.676   3.367   6.519
 4111SOL    HW213233   3.671   3.234   6.614
 4112SOL     OW13234   3.903   0.620   4.857
 4112SOL    HW113235   3.828   0.665   4.810
 4112SOL    HW213236   3.947   0.555   4.795
 4113SOL     OW13237   3.673   5.139   5.121
 4113SOL    HW113238   3.762   5.175   5.092
 4113SOL    HW213239   3.647   5.179   5.209
 4114SOL     OW13240   3.826   2.160   2.842
 4114SOL    HW113241   3.907   2.197   2.797
 4114SOL    HW213242   3.849   2.133   2.935
 4115SOL     OW13243   5.425   4.384   2.200
 4115SOL    HW113244   5.424   4.284   2.199
 4115SOL    HW213245   5.461   4.415   2.288
 4116SOL     OW13246   3.391   1.039   2.477
 4116SOL    HW113247   3.329   1.045   2.399
 4116SOL    HW213248   3.448   0.958   2.469
 4117SOL     OW13249   0.754   5.645   1.603
 4117SOL    HW113250   0.713   5.719   1.548
 4117SOL    HW213251   0.852   5.661   1.614
 4118SOL     OW13252   2.700   6.920   6.998
 4118SOL    HW113253   2.657   6.886   6.914
 4118SOL    HW213254   2.711   7.019   6.992
 4119SOL     OW13255   4.863   1.218   3.516
 4119SOL    HW113256   4.872   1.207   3.615
 4119SOL    HW213257   4.812   1.301   3.495
 4120SOL     OW13258   4.777   1.000   1.967
 4120SOL    HW113259   4.817   0.933   1.905
 4120SOL    HW213260   4.678   0.984   1.973
 4121SOL     OW13261   6.748   2.336   4.310
 4121SOL    HW113262   6.705   2.336   4.401
 4121SOL    HW213263   6.739   2.245   4.270
 4122SOL     OW13264   1.628   5.492   0.032
 4122SOL    HW113265   1.545   5.489   7.000
 4122SOL    HW213266   1.603   5.488   0.129
 4123SOL     OW13267   4.343   4.015   6.078
 4123SOL    HW113268   4.441   3.999   6.066
 4123SOL    HW213269   4.300   4.026   5.988
 4124SOL     OW13270   4.265   5.986   3.523
 4124SOL    HW113271   4.275   6.057   3.593
 4124SOL    HW213272   4.299   6.021   3.436
 4125SOL     OW13273   5.086   1.048   1.168
 4125SOL    HW113274   5.129   1.027   1.256
 4125SOL    HW213275   5.072   1.147   1.161
 4126SOL     OW13276   2.241   4.868   4.497
 4126SOL    HW113277   2.337   4.880   4.471
 4126SOL    HW213278   2.219   4.929   4.573
 4127SOL     OW13279   6.416   4.288   4.612
 4127SOL    HW113280   6.474   4.360   4.573
 4127SOL    HW213281   6.327   4.327   4.635
 4128SOL     OW13282   0.878   1.653   2.085
 4128SOL    HW113283   0.883   1.653   2.185
 4128SOL    HW213284   0.945   1.718   2.049
 4129SOL     OW13285   6.387   2.520   6.129
 4129SOL    HW113286   6.485   2.535   6.143
 4129SOL    HW213287   6.365   2.538   6.033
 4130SOL     OW13288   6.794   3.156   1.196
 4130SOL    HW113289   6.744   3.220   1.138
 4130SOL    HW213290   6.889   3.186   1.205
 4131SOL     OW13291   0.188   4.053   3.323
 4131SOL    HW113292   0.140   4.139   3.338
 4131SOL    HW213293   0.188   4.000   3.408
 4132SOL     OW13294   4.802   2.240   5.024
 4132SOL    HW113295   4.788   2.153   5.071
 4132SOL    HW213296   4.758   2.313   5.076
 4133SOL     OW13297   2.269   2.705   1.065
 4133SOL    HW113298   2.266   2.785   1.126
 4133SOL    HW213299   2.360   2.664   1.069
 4134SOL     OW13300   1.841   1.594   0.240
 4134SOL    HW113301   1.891   1.679   0.224
 4134SOL    HW213302   1.856   1.564   0.334
 4135SOL     OW13303   1.963   0.728   1.364
 4135SOL    HW113304   1.948   0.706   1.460
 4135SOL    HW213305   1.893   0.683   1.309
 4136SOL     OW13306   0.912   1.726   3.140
 4136SOL    HW113307   0.952   1.728   3.232
 4136SOL    HW213308   0.855   1.644   3.130
 4137SOL     OW13309   3.809   3.463   5.945
 4137SOL    HW113310   3.872   3.491   6.017
 4137SOL    HW213311   3.738   3.404   5.984
 4138SOL     OW13312   4.249   6.000   2.363
 4138SOL    HW113313   4.273   6.095   2.386
 4138SOL    HW213314   4.288   5.938   2.430
 4139SOL     OW13315   2.600   0.951   0.645
 4139SOL    HW113316   2.521   0.943   0.706
 4139SOL    HW213317   2.682   0.967   0.699
 4140SOL     OW13318   4.402   1.493   5.624
 4140SOL    HW113319   4.364   1.542   5.545
 4140SOL    HW213320   4.384   1.546   5.707
 4141SOL     OW13321   5.293   5.398   0.191
 4141SOL    HW113322   5.211   5.428   0.239
 4141SOL    HW213323   5.287   5.300   0.172
 4142SOL     OW13324   5.912   2.700   1.459
 4142SOL    HW113325   5.899   2.603   1.481
 4142SOL    HW213326   5.823   2.744   1.450
 4143SOL     OW13327   0.705   2.802   2.047
 4143SOL    HW113328   0.802   2.782   2.038
 4143SOL    HW213329   0.664   2.815   1.957
 4144SOL     OW13330   4.352   0.668   1.839
 4144SOL    HW113331   4.300   0.753   1.841
 4144SOL    HW213332   4.439   0.680   1.887
 4145SOL     OW13333   3.045   0.401   2.948
 4145SOL    HW113334   2.952   0.362   2.949
 4145SOL    HW213335   3.039   0.500   2.933
 4146SOL     OW13336   4.929   5.298   0.751
 4146SOL    HW113337   4.867   5.282   0.674
 4146SOL    HW213338   5.019   5.326   0.716
 4147SOL     OW13339   2.691   1.972   6.022
 4147SOL    HW113340   2.760   2.044   6.018
 4147SOL    HW213341   2.601   2.010   6.005
 4148SOL     OW13342   0.011   0.075   2.885
 4148SOL    HW113343   0.056   0.052   2.971
 4148SOL    HW213344   6.952   0.020   2.874
 4149SOL     OW13345   4.753   4.179   1.919
 4149SOL    HW113346   4.745   4.103   1.853
 4149SOL    HW213347   4.662   4.213   1.941
 4150SOL     OW13348   4.764   0.500   5.623
 4150SOL    HW113349   4.797   0.561   5.696
 4150SOL    HW213350   4.810   0.523   5.537
 4151SOL     OW13351   0.387   5.329   0.455
 4151SOL    HW113352   0.308   5.295   0.404
 4151SOL    HW213353   0.357   5.359   0.546
 4152SOL     OW13354   3.077   3.904   1.457
 4152SOL    HW113355   3.006   3.975   1.461
 4152SOL    HW213356   3.160   3.937   1.501
 4153SOL     OW13357   6.164   5.635   5.862
 4153SOL    HW113358   6.224   5.699   5.910
 4153SOL    HW213359   6.118   5.682   5.787
 4154SOL     OW13360   4.413   2.476   5.740
 4154SOL    HW113361   4.497   2.501   5.692
 4154SOL    HW213362   4.374   2.558   5.783
 4155SOL     OW13363   1.454   3.308   0.576
 4155SOL    HW113364   1.491   3.372   0.643
 4155SOL    HW213365   1.356   3.296   0.592
 4156SOL     OW13366   5.570   0.303   5.300
 4156SOL    HW113367   5.565   0.234   5.227
 4156SOL    HW213368   5.552   0.259   5.388
 4157SOL     OW13369   3.644   0.957   3.375
 4157SOL    HW113370   3.685   1.017   3.307
 4157SOL    HW213371   3.602   1.012   3.447
 4158SOL     OW13372   0.925   0.857   3.562
 4158SOL    HW113373   0.854   0.799   3.520
 4158SOL    HW213374   1.013   0.810   3.559
 4159SOL     OW13375   0.647   3.602   5.190
 4159SOL    HW113376   0.711   3.657   5.245
 4159SOL    HW213377   0.688   3.512   5.173
 4160SOL     OW13378   0.890   0.406   1.390
 4160SOL    HW113379   0.804   0.380   1.435
 4160SOL    HW213380   0.883   0.500   1.356
 4161SOL     OW13381   6.403   1.661   0.903
 4161SOL    HW113382   6.388   1.716   0.985
 4161SOL    HW213383   6.438   1.571   0.929
 4162SOL     OW13384   0.564   6.479   5.219
 4162SOL    HW113385   0.615   6.561   5.192
 4162SOL    HW213386   0.575   6.409   5.149
 4163SOL     OW13387   6.171   1.414   5.352
 4163SOL    HW113388   6.229   1.358   5.292
 4163SOL    HW213389   6.122   1.355   5.416
 4164SOL     OW13390   2.806   6.584   6.040
 4164SOL    HW113391   2.843   6.661   5.988
 4164SOL    HW213392   2.750   6.619   6.115
 4165SOL     OW13393   2.602   5.879   2.495
 4165SOL    HW113394   2.588   5.781   2.488
 4165SOL    HW213395   2.542   5.917   2.566
 4166SOL     OW13396   6.346   2.021   1.566
 4166SOL    HW113397   6.268   2.019   1.503
 4166SOL    HW213398   6.321   1.974   1.651
 4167SOL     OW13399   1.769   2.923   1.215
 4167SOL    HW113400   1.723   2.893   1.131
 4167SOL    HW213401   1.725   2.879   1.294
 4168SOL     OW13402   1.913   5.442   1.347
 4168SOL    HW113403   1.949   5.361   1.393
 4168SOL    HW213404   1.818   5.456   1.373
 4169SOL     OW13405   6.229   3.643   5.717
 4169SOL    HW113406   6.162   3.569   5.708
 4169SOL    HW213407   6.290   3.625   5.794
 4170SOL     OW13408   3.627   1.269   5.071
 4170SOL    HW113409   3.579   1.182   5.080
 4170SOL    HW213410   3.589   1.319   4.993
 4171SOL     OW13411   5.773   3.509   1.557
 4171SOL    HW113412   5.773   3.409   1.559
 4171SOL    HW213413   5.846   3.543   1.616
 4172SOL     OW13414   2.587   0.771   0.364
 4172SOL    HW113415   2.551   0.683   0.333
 4172SOL    HW213416   2.615   0.825   0.285
 4173SOL     OW13417   4.910   3.368   5.945
 4173SOL    HW113418   4.993   3.354   5.891
 4173SOL    HW213419   4.870   3.457   5.922
 4174SOL     OW13420   5.606   0.826   4.112
 4174SOL    HW113421   5.621   0.925   4.102
 4174SOL    HW213422   5.509   0.808   4.121
 4175SOL     OW13423   2.846   1.554   2.729
 4175SOL    HW113424   2.889   1.551   2.820
 4175SOL    HW213425   2.749   1.531   2.737
 4176SOL     OW13426   5.843   4.347   2.666
 4176SOL    HW113427   5.910   4.273   2.668
 4176SOL    HW213428   5.753   4.311   2.692
 4177SOL     OW13429   6.369   5.246   3.321
 4177SOL    HW113430   6.385   5.156   3.362
 4177SOL    HW213431   6.272   5.268   3.326
 4178SOL     OW13432   4.035   2.573   5.672
 4178SOL    HW113433   3.937   2.587   5.687
 4178SOL    HW213434   4.062   2.618   5.586
 4179SOL     OW13435   6.736   2.389   0.039
 4179SOL    HW113436   6.749   2.483   0.006
 4179SOL    HW213437   6.727   2.328   6.984
 4180SOL     OW13438   4.563   3.515   1.699
 4180SOL    HW113439   4.475   3.467   1.698
 4180SOL    HW213440   4.637   3.450   1.682
 4181SOL     OW13441   6.564   0.628   0.488
 4181SOL    HW113442   6.650   0.578   0.485
 4181SOL    HW213443   6.582   0.723   0.512
 4182SOL     OW13444   5.415   0.871   3.838
 4182SOL    HW113445   5.370   0.944   3.889
 4182SOL    HW213446   5.358   0.789   3.840
 4183SOL     OW13447   2.278   1.167   1.591
 4183SOL    HW113448   2.356   1.129   1.641
 4183SOL    HW213449   2.286   1.267   1.587
 4184SOL     OW13450   4.433   4.842   7.001
 4184SOL    HW113451   4.477   4.760   0.015
 4184SOL    HW213452   4.458   4.922   0.032
 4185SOL     OW13453   7.011   0.259   3.705
 4185SOL    HW113454   0.076   0.212   3.693
 4185SOL    HW213455   7.022   0.335   3.768
 4186SOL     OW13456   3.728   4.263   1.757
 4186SOL    HW113457   3.648   4.321   1.738
 4186SOL    HW213458   3.700   4.185   1.813
 4187SOL     OW13459   3.995   5.276   6.741
 4187SOL    HW113460   3.902   5.311   6.734
 4187SOL    HW213461   4.026   5.283   6.836
 4188SOL     OW13462   5.384   6.458   3.983
 4188SOL    HW113463   5.342   6.459   3.893
 4188SOL    HW213464   5.443   6.537   3.993
 4189SOL     OW13465   1.693   3.701   3.397
 4189SOL    HW113466   1.773   3.659   3.353
 4189SOL    HW213467   1.720   3.788   3.438
 4190SOL     OW13468   2.618   0.270   1.462
 4190SOL    HW113469   2.541   0.327   1.490
 4190SOL    HW213470   2.699   0.296   1.514
 4191SOL     OW13471   0.708   2.248   2.375
 4191SOL    HW113472   0.785   2.275   2.317
 4191SOL    HW213473   0.698   2.312   2.451
 4192SOL     OW13474   5.428   0.438   3.023
 4192SOL    HW113475   5.420   0.338   3.018
 4192SOL    HW213476   5.393   0.479   2.939
 4193SOL     OW13477   1.831   6.614   3.279
 4193SOL    HW113478   1.856   6.601   3.183
 4193SOL    HW213479   1.773   6.695   3.288
 4194SOL     OW13480   5.612   0.571   3.622
 4194SOL    HW113481   5.681   0.501   3.606
 4194SOL    HW213482   5.645   0.635   3.692
 4195SOL     OW13483   5.171   1.064   3.658
 4195SOL    HW113484   5.199   1.156   3.684
 4195SOL    HW213485   5.074   1.051   3.681
 4196SOL     OW13486   4.745   2.586   3.540
 4196SOL    HW113487   4.692   2.626   3.465
 4196SOL    HW213488   4.831   2.550   3.504
 4197SOL     OW13489   5.392   4.060   5.054
 4197SOL    HW113490   5.321   4.125   5.028
 4197SOL    HW213491   5.351   3.971   5.072
 4198SOL     OW13492   6.593   3.873   6.130
 4198SOL    HW113493   6.505   3.834   6.157
 4198SOL    HW213494   6.664   3.842   6.194
 4199SOL     OW13495   3.292   4.191   6.076
 4199SOL    HW113496   3.289   4.112   6.014
 4199SOL    HW213497   3.202   4.234   6.079
 4200SOL     OW13498   2.821   0.406   6.777
 4200SOL    HW113499   2.845   0.332   6.840
 4200SOL    HW213500   2.824   0.371   6.683
 4201SOL     OW13501   5.963   6.675   4.793
 4201SOL    HW113502   5.898   6.610   4.832
 4201SOL    HW213503   5.963   6.666   4.693
 4202SOL     OW13504   5.302   3.610   5.582
 4202SOL    HW113505   5.251   3.627   5.498
 4202SOL    HW213506   5.239   3.597   5.658
 4203SOL     OW13507   4.279   5.581   4.183
 4203SOL    HW113508   4.181   5.589   4.202
 4203SOL    HW213509   4.322   5.526   4.255
 4204SOL     OW13510   1.617   3.916   0.313
 4204SOL    HW113511   1.605   3.908   0.412
 4204SOL    HW213512   1.566   3.996   0.280
 4205SOL     OW13513   2.533   6.117   3.200
 4205SOL    HW113514   2.553   6.172   3.120
 4205SOL    HW213515   2.491   6.174   3.271
 4206SOL     OW13516   5.207   6.315   4.440
 4206SOL    HW113517   5.253   6.375   4.374
 4206SOL    HW213518   5.132   6.267   4.396
 4207SOL     OW13519   0.889   0.016   0.159
 4207SOL    HW113520   0.884   0.011   0.059
 4207SOL    HW213521   0.798   0.035   0.196
 4208SOL     OW13522   0.544   2.908   1.136
 4208SOL    HW113523   0.516   2.897   1.231
 4208SOL    HW213524   0.505   2.993   1.099
 4209SOL     OW13525   3.358   0.216   5.332
 4209SOL    HW113526   3.452   0.203   5.364
 4209SOL    HW213527   3.303   0.257   5.404
 4210SOL     OW13528   3.984   2.871   0.196
 4210SOL    HW113529   4.010   2.781   0.231
 4210SOL    HW213530   3.885   2.882   0.201
 4211SOL     OW13531   5.470   3.559   4.712
 4211SOL    HW113532   5.496   3.655   4.719
 4211SOL    HW213533   5.468   3.532   4.616
 4212SOL     OW13534   6.207   6.760   2.295
 4212SOL    HW113535   6.208   6.842   2.352
 4212SOL    HW213536   6.295   6.752   2.247
 4213SOL     OW13537   0.638   6.902   1.249
 4213SOL    HW113538   0.631   6.822   1.190
 4213SOL    HW213539   0.715   6.890   1.313
 4214SOL     OW13540   3.025   5.467   4.804
 4214SOL    HW113541   2.947   5.409   4.829
 4214SOL    HW213542   3.063   5.434   4.717
 4215SOL     OW13543   1.227   5.992   5.940
 4215SOL    HW113544   1.174   5.978   5.856
 4215SOL    HW213545   1.194   6.075   5.986
 4216SOL     OW13546   2.617   3.064   5.435
 4216SOL    HW113547   2.579   3.072   5.343
 4216SOL    HW213548   2.704   3.015   5.432
 4217SOL     OW13549   6.807   1.038   4.128
 4217SOL    HW113550   6.773   1.028   4.035
 4217SOL    HW213551   6.805   1.135   4.154
 4218SOL     OW13552   3.454   5.665   2.519
 4218SOL    HW113553   3.416   5.576   2.495
 4218SOL    HW213554   3.463   5.720   2.436
 4219SOL     OW13555   5.526   0.146   2.714
 4219SOL    HW113556   5.523   0.050   2.685
 4219SOL    HW213557   5.510   0.205   2.635
 4220SOL     OW13558   0.442   4.439   3.692
 4220SOL    HW113559   0.475   4.409   3.602
 4220SOL    HW213560   0.378   4.372   3.729
 4221SOL     OW13561   5.349   6.489   5.949
 4221SOL    HW113562   5.266   6.437   5.969
 4221SOL    HW213563   5.324   6.574   5.902
 4222SOL     OW13564   2.713   3.057   0.473
 4222SOL    HW113565   2.775   2.996   0.522
 4222SOL    HW213566   2.711   3.032   0.376
 4223SOL     OW13567   3.099   3.891   2.616
 4223SOL    HW113568   3.121   3.794   2.627
 4223SOL    HW213569   3.095   3.934   2.706
 4224SOL     OW13570   4.094   1.817   5.775
 4224SOL    HW113571   4.036   1.842   5.853
 4224SOL    HW213572   4.170   1.882   5.768
 4225SOL     OW13573   4.650   0.338   4.160
 4225SOL    HW113574   4.624   0.287   4.078
 4225SOL    HW213575   4.741   0.378   4.147
 4226SOL     OW13576   1.952   1.687   2.483
 4226SOL    HW113577   1.954   1.648   2.575
 4226SOL    HW213578   1.954   1.787   2.489
 4227SOL     OW13579   5.380   4.217   6.621
 4227SOL    HW113580   5.305   4.251   6.678
 4227SOL    HW213581   5.365   4.244   6.526
 4228SOL     OW13582   5.000   4.742   2.969
 4228SOL    HW113583   5.061   4.684   3.023
 4228SOL    HW213584   4.907   4.703   2.972
 4229SOL     OW13585   4.332   5.101   5.130
 4229SOL    HW113586   4.309   5.012   5.170
 4229SOL    HW213587   4.247   5.152   5.113
 4230SOL     OW13588   3.014   0.922   6.181
 4230SOL    HW113589   2.955   0.962   6.252
 4230SOL    HW213590   3.072   0.852   6.223
 4231SOL     OW13591   3.831   6.146   6.309
 4231SOL    HW113592   3.744   6.161   6.262
 4231SOL    HW213593   3.888   6.084   6.254
 4232SOL     OW13594   2.227   4.135   1.537
 4232SOL    HW113595   2.199   4.228   1.561
 4232SOL    HW213596   2.325   4.124   1.553
 4233SOL     OW13597   5.497   5.810   1.030
 4233SOL    HW113598   5.565   5.738   1.045
 4233SOL    HW213599   5.514   5.854   0.942
 4234SOL     OW13600   3.782   3.193   5.743
 4234SOL    HW113601   3.852   3.249   5.788
 4234SOL    HW213602   3.825   3.140   5.669
 4235SOL     OW13603   0.326   4.202   4.983
 4235SOL    HW113604   0.392   4.250   5.040
 4235SOL    HW213605   0.252   4.264   4.958
 4236SOL     OW13606   0.668   3.585   4.817
 4236SOL    HW113607   0.758   3.620   4.841
 4236SOL    HW213608   0.668   3.485   4.826
 4237SOL     OW13609   6.733   4.167   5.161
 4237SOL    HW113610   6.763   4.249   5.111
 4237SOL    HW213611   6.633   4.166   5.164
 4238SOL     OW13612   5.100   4.775   4.567
 4238SOL    HW113613   5.140   4.775   4.659
 4238SOL    HW213614   5.001   4.765   4.575
 4239SOL     OW13615   5.203   5.981   5.240
 4239SOL    HW113616   5.228   5.885   5.255
 4239SOL    HW213617   5.152   5.989   5.154
 4240SOL     OW13618   2.527   4.913   6.789
 4240SOL    HW113619   2.584   4.982   6.744
 4240SOL    HW213620   2.445   4.956   6.824
 4241SOL     OW13621   3.704   2.025   1.242
 4241SOL    HW113622   3.691   1.974   1.157
 4241SOL    HW213623   3.697   1.961   1.320
 4242SOL     OW13624   2.382   0.324   2.110
 4242SOL    HW113625   2.435   0.348   2.028
 4242SOL    HW213626   2.287   0.310   2.084
 4243SOL     OW13627   1.457   3.171   2.835
 4243SOL    HW113628   1.408   3.084   2.842
 4243SOL    HW213629   1.391   3.246   2.835
 4244SOL     OW13630   3.128   0.660   1.067
 4244SOL    HW113631   3.166   0.721   0.997
 4244SOL    HW213632   3.202   0.609   1.109
 4245SOL     OW13633   6.959   1.851   0.812
 4245SOL    HW113634   6.923   1.760   0.832
 4245SOL    HW213635   6.885   1.918   0.818
 4246SOL     OW13636   4.726   2.762   4.106
 4246SOL    HW113637   4.821   2.734   4.120
 4246SOL    HW213638   4.724   2.850   4.059
 4247SOL     OW13639   2.165   5.212   0.288
 4247SOL    HW113640   2.164   5.311   0.296
 4247SOL    HW213641   2.115   5.185   0.205
 4248SOL     OW13642   2.419   0.174   3.404
 4248SOL    HW113643   2.436   0.084   3.363
 4248SOL    HW213644   2.432   0.245   3.336
 4249SOL     OW13645   5.743   0.823   5.519
 4249SOL    HW113646   5.691   0.909   5.518
 4249SOL    HW213647   5.750   0.788   5.425
 4250SOL     OW13648   0.401   5.238   4.901
 4250SOL    HW113649   0.364   5.321   4.859
 4250SOL    HW213650   0.336   5.163   4.891
 4251SOL     OW13651   4.655   2.194   5.814
 4251SOL    HW113652   4.612   2.233   5.896
 4251SOL    HW213653   4.695   2.268   5.759
 4252SOL     OW13654   0.110   0.361   6.566
 4252SOL    HW113655   0.038   0.413   6.520
 4252SOL    HW213656   0.074   0.321   6.651
 4253SOL     OW13657   4.055   6.830   2.832
 4253SOL    HW113658   3.990   6.786   2.771
 4253SOL    HW213659   4.113   6.760   2.874
 4254SOL     OW13660   1.315   2.104   5.381
 4254SOL    HW113661   1.243   2.082   5.314
 4254SOL    HW213662   1.278   2.095   5.473
 4255SOL     OW13663   1.015   2.870   3.165
 4255SOL    HW113664   0.963   2.845   3.247
 4255SOL    HW213665   1.082   2.799   3.146
 4256SOL     OW13666   6.033   6.034   0.668
 4256SOL    HW113667   6.107   6.040   0.735
 4256SOL    HW213668   6.053   5.960   0.603
 4257SOL     OW13669   6.825   0.792   2.747
 4257SOL    HW113670   6.897   0.798   2.677
 4257SOL    HW213671   6.813   0.697   2.774
 4258SOL     OW13672   3.090   6.058   0.852
 4258SOL    HW113673   3.024   6.131   0.867
 4258SOL    HW213674   3.042   5.973   0.828
 4259SOL     OW13675   0.618   6.574   0.178
 4259SOL    HW113676   0.656   6.612   0.263
 4259SOL    HW213677   0.566   6.646   0.131
 4260SOL     OW13678   6.368   0.050   5.159
 4260SOL    HW113679   6.401   7.001   5.099
 4260SOL    HW213680   6.301   0.106   5.110
 4261SOL     OW13681   2.541   6.522   3.174
 4261SOL    HW113682   2.537   6.438   3.119
 4261SOL    HW213683   2.574   6.500   3.265
 4262SOL     OW13684   1.517   4.575   4.907
 4262SOL    HW113685   1.600   4.520   4.900
 4262SOL    HW213686   1.495   4.591   5.004
 4263SOL     OW13687   3.303   1.443   2.509
 4263SOL    HW113688   3.316   1.484   2.599
 4263SOL    HW213689   3.214   1.471   2.472
 4264SOL     OW13690   4.842   1.836   6.547
 4264SOL    HW113691   4.804   1.890   6.471
 4264SOL    HW213692   4.907   1.893   6.599
 4265SOL     OW13693   3.226   6.323   6.880
 4265SOL    HW113694   3.170   6.350   6.959
 4265SOL    HW213695   3.316   6.366   6.887
 4266SOL     OW13696   1.223   4.725   1.635
 4266SOL    HW113697   1.243   4.670   1.716
 4266SOL    HW213698   1.307   4.770   1.605
 4267SOL     OW13699   1.193   3.893   4.149
 4267SOL    HW113700   1.095   3.882   4.164
 4267SOL    HW213701   1.210   3.976   4.096
 4268SOL     OW13702   1.399   4.178   6.121
 4268SOL    HW113703   1.405   4.109   6.194
 4268SOL    HW213704   1.478   4.170   6.061
 4269SOL     OW13705   2.819   1.491   3.997
 4269SOL    HW113706   2.757   1.423   4.036
 4269SOL    HW213707   2.893   1.445   3.948
 4270SOL     OW13708   4.147   3.996   0.910
 4270SOL    HW113709   4.089   4.072   0.880
 4270SOL    HW213710   4.090   3.918   0.935
 4271SOL     OW13711   6.459   0.463   0.684
 4271SOL    HW113712   6.370   0.499   0.713
 4271SOL    HW213713   6.508   0.533   0.632
 4272SOL     OW13714   6.767   2.051   5.187
 4272SOL    HW113715   6.736   2.133   5.234
 4272SOL    HW213716   6.711   1.973   5.215
 4273SOL     OW13717   3.559   5.718   3.839
 4273SOL    HW113718   3.585   5.812   3.860
 4273SOL    HW213719   3.484   5.690   3.898
 4274SOL     OW13720   0.090   1.023   1.210
 4274SOL    HW113721   0.031   1.084   1.262
 4274SOL    HW213722   0.185   1.053   1.221
 4275SOL     OW13723   6.804   2.005   3.818
 4275SOL    HW113724   6.857   2.089   3.834
 4275SOL    HW213725   6.728   2.001   3.883
 4276SOL     OW13726   1.249   6.658   2.738
 4276SOL    HW113727   1.329   6.714   2.759
 4276SOL    HW213728   1.169   6.716   2.727
 4277SOL     OW13729   6.258   5.595   2.985
 4277SOL    HW113730   6.223   5.508   2.950
 4277SOL    HW213731   6.182   5.660   2.992
 4278SOL     OW13732   0.305   6.916   0.979
 4278SOL    HW113733   0.398   6.938   0.952
 4278SOL    HW213734   0.241   6.945   0.908
 4279SOL     OW13735   0.888   3.193   3.105
 4279SOL    HW113736   0.950   3.116   3.093
 4279SOL    HW213737   0.927   3.274   3.059
 4280SOL     OW13738   2.947   6.326   7.019
 4280SOL    HW113739   2.928   6.416   6.980
 4280SOL    HW213740   2.931   6.256   6.949
 4281SOL     OW13741   6.929   6.244   2.822
 4281SOL    HW113742   6.959   6.310   2.753
 4281SOL    HW213743   6.903   6.159   2.777
 4282SOL     OW13744   5.453   5.105   1.718
 4282SOL    HW113745   5.473   5.068   1.809
 4282SOL    HW213746   5.354   5.114   1.706
 4283SOL     OW13747   5.803   1.304   4.356
 4283SOL    HW113748   5.902   1.288   4.362
 4283SOL    HW213749   5.754   1.218   4.374
 4284SOL     OW13750   4.602   6.014   6.545
 4284SOL    HW113751   4.504   6.003   6.525
 4284SOL    HW213752   4.618   5.998   6.643
 4285SOL     OW13753   3.165   1.449   6.501
 4285SOL    HW113754   3.198   1.449   6.595
 4285SOL    HW213755   3.207   1.373   6.451
 4286SOL     OW13756   4.934   6.478   6.954
 4286SOL    HW113757   4.924   6.394   7.007
 4286SOL    HW213758   4.910   6.557   7.011
 4287SOL     OW13759   3.468   0.974   1.221
 4287SOL    HW113760   3.374   0.944   1.229
 4287SOL    HW213761   3.495   1.021   1.306
 4288SOL     OW13762   6.986   6.441   2.647
 4288SOL    HW113763   7.017   6.409   2.558
 4288SOL    HW213764   6.942   6.530   2.638
 4289SOL     OW13765   0.106   4.194   5.504
 4289SOL    HW113766   0.038   4.128   5.536
 4289SOL    HW213767   0.067   4.286   5.509
 4290SOL     OW13768   6.805   1.591   3.447
 4290SOL    HW113769   6.889   1.562   3.402
 4290SOL    HW213770   6.732   1.601   3.379
 4291SOL     OW13771   3.993   4.997   6.855
 4291SOL    HW113772   3.971   4.950   6.941
 4291SOL    HW213773   4.088   5.030   6.859
 4292SOL     OW13774   6.990   0.119   1.062
 4292SOL    HW113775   6.950   0.183   1.128
 4292SOL    HW213776   6.991   0.161   0.971
 4293SOL     OW13777   3.869   2.954   6.700
 4293SOL    HW113778   3.934   3.013   6.652
 4293SOL    HW213779   3.798   3.010   6.743
 4294SOL     OW13780   2.539   1.832   0.221
 4294SOL    HW113781   2.594   1.906   0.183
 4294SOL    HW213782   2.566   1.745   0.181
 4295SOL     OW13783   4.656   6.771   2.606
 4295SOL    HW113784   4.734   6.708   2.600
 4295SOL    HW213785   4.636   6.809   2.516
 4296SOL     OW13786   1.805   5.612   2.645
 4296SOL    HW113787   1.751   5.550   2.703
 4296SOL    HW213788   1.889   5.565   2.616
 4297SOL     OW13789   5.050   4.782   0.258
 4297SOL    HW113790   5.107   4.818   0.184
 4297SOL    HW213791   5.050   4.682   0.255
 4298SOL     OW13792   1.684   0.022   0.495
 4298SOL    HW113793   1.683   6.970   0.560
 4298SOL    HW213794   1.642   7.015   0.409
 4299SOL     OW13795   0.042   3.030   5.964
 4299SOL    HW113796   0.109   3.057   5.896
 4299SOL    HW213797   0.076   3.053   6.055
 4300SOL     OW13798   3.168   0.697   2.004
 4300SOL    HW113799   3.234   0.759   2.047
 4300SOL    HW213800   3.087   0.689   2.063
 4301SOL     OW13801   1.873   5.967   5.047
 4301SOL    HW113802   1.826   5.883   5.022
 4301SOL    HW213803   1.837   6.043   4.994
 4302SOL     OW13804   3.791   5.243   0.117
 4302SOL    HW113805   3.746   5.158   0.087
 4302SOL    HW213806   3.734   5.289   0.184
 4303SOL     OW13807   4.128   5.564   3.697
 4303SOL    HW113808   4.186   5.627   3.646
 4303SOL    HW213809   4.182   5.513   3.763
 4304SOL     OW13810   2.970   4.150   1.758
 4304SOL    HW113811   2.958   4.246   1.783
 4304SOL    HW213812   2.908   4.127   1.683
 4305SOL     OW13813   0.518   6.618   5.845
 4305SOL    HW113814   0.597   6.667   5.883
 4305SOL    HW213815   0.464   6.681   5.789
 4306SOL     OW13816   5.702   3.272   5.354
 4306SOL    HW113817   5.750   3.317   5.279
 4306SOL    HW213818   5.622   3.326   5.380
 4307SOL     OW13819   6.854   1.414   5.346
 4307SOL    HW113820   6.790   1.397   5.271
 4307SOL    HW213821   6.869   1.329   5.397
 4308SOL     OW13822   4.031   5.760   5.799
 4308SOL    HW113823   4.076   5.720   5.879
 4308SOL    HW213824   4.096   5.815   5.747
 4309SOL     OW13825   2.947   1.759   1.155
 4309SOL    HW113826   2.917   1.667   1.127
 4309SOL    HW213827   2.965   1.814   1.074
 4310SOL     OW13828   6.580   2.270   3.738
 4310SOL    HW113829   6.556   2.281   3.835
 4310SOL    HW213830   6.679   2.273   3.728
 4311SOL     OW13831   0.686   6.357   1.095
 4311SOL    HW113832   0.710   6.375   1.000
 4311SOL    HW213833   0.704   6.262   1.118
 4312SOL     OW13834   0.292   3.922   2.266
 4312SOL    HW113835   0.333   3.945   2.355
 4312SOL    HW213836   0.352   3.860   2.216
 4313SOL     OW13837   0.582   3.610   0.592
 4313SOL    HW113838   0.634   3.571   0.516
 4313SOL    HW213839   0.487   3.622   0.564
 4314SOL     OW13840   1.633   1.734   5.813
 4314SOL    HW113841   1.724   1.773   5.800
 4314SOL    HW213842   1.605   1.748   5.908
 4315SOL     OW13843   2.572   2.358   4.992
 4315SOL    HW113844   2.515   2.425   4.944
 4315SOL    HW213845   2.533   2.267   4.980
 4316SOL     OW13846   4.252   5.027   1.850
 4316SOL    HW113847   4.305   4.996   1.928
 4316SOL    HW213848   4.197   4.951   1.814
 4317SOL     OW13849   4.923   0.398   4.172
 4317SOL    HW113850   4.997   0.447   4.127
 4317SOL    HW213851   4.927   0.301   4.148
 4318SOL     OW13852   1.644   5.946   3.837
 4318SOL    HW113853   1.578   5.892   3.889
 4318SOL    HW213854   1.636   5.925   3.740
 4319SOL     OW13855   1.846   4.965   1.751
 4319SOL    HW113856   1.778   4.893   1.736
 4319SOL    HW213857   1.926   4.926   1.798
 4320SOL     OW13858   3.305   0.773   1.493
 4320SOL    HW113859   3.357   0.706   1.440
 4320SOL    HW213860   3.335   0.769   1.589
 4321SOL     OW13861   6.532   5.574   2.914
 4321SOL    HW113862   6.442   5.609   2.940
 4321SOL    HW213863   6.539   5.574   2.814
 4322SOL     OW13864   2.824   2.222   3.925
 4322SOL    HW113865   2.911   2.186   3.959
 4322SOL    HW213866   2.835   2.253   3.830
 4323SOL     OW13867   5.484   4.247   1.665
 4323SOL    HW113868   5.472   4.243   1.764
 4323SOL    HW213869   5.422   4.314   1.626
 4324SOL     OW13870   6.985   4.043   5.681
 4324SOL    HW113871   6.937   3.990   5.611
 4324SOL    HW213872   6.959   4.009   5.772
 4325SOL     OW13873   1.330   0.760   1.288
 4325SOL    HW113874   1.276   0.676   1.281
 4325SOL    HW213875   1.270   0.837   1.308
 4326SOL     OW13876   4.616   2.714   3.348
 4326SOL    HW113877   4.660   2.692   3.261
 4326SOL    HW213878   4.559   2.795   3.337
 4327SOL     OW13879   3.239   6.515   3.867
 4327SOL    HW113880   3.185   6.599   3.866
 4327SOL    HW213881   3.178   6.435   3.869
 4328SOL     OW13882   6.356   6.899   2.904
 4328SOL    HW113883   6.265   6.872   2.871
 4328SOL    HW213884   6.416   6.915   2.826
 4329SOL     OW13885   5.963   4.323   0.391
 4329SOL    HW113886   5.876   4.300   0.436
 4329SOL    HW213887   6.039   4.291   0.447
 4330SOL     OW13888   2.500   5.336   5.026
 4330SOL    HW113889   2.542   5.282   5.099
 4330SOL    HW213890   2.571   5.368   4.963
 4331SOL     OW13891   5.958   1.854   2.607
 4331SOL    HW113892   5.951   1.930   2.671
 4331SOL    HW213893   6.053   1.826   2.599
 4332SOL     OW13894   6.489   5.574   1.356
 4332SOL    HW113895   6.588   5.579   1.367
 4332SOL    HW213896   6.467   5.562   1.259
 4333SOL     OW13897   3.509   2.742   6.248
 4333SOL    HW113898   3.487   2.754   6.345
 4333SOL    HW213899   3.461   2.663   6.212
 4334SOL     OW13900   0.430   2.639   3.835
 4334SOL    HW113901   0.501   2.612   3.900
 4334SOL    HW213902   0.423   2.570   3.762
 4335SOL     OW13903   2.237   3.784   1.880
 4335SOL    HW113904   2.230   3.694   1.924
 4335SOL    HW213905   2.317   3.786   1.821
 4336SOL     OW13906   2.806   5.412   5.842
 4336SOL    HW113907   2.723   5.360   5.864
 4336SOL    HW213908   2.868   5.353   5.790
 4337SOL     OW13909   6.653   4.757   3.922
 4337SOL    HW113910   6.673   4.824   3.994
 4337SOL    HW213911   6.722   4.765   3.850
 4338SOL     OW13912   3.207   2.514   5.690
 4338SOL    HW113913   3.209   2.600   5.741
 4338SOL    HW213914   3.230   2.532   5.594
 4339SOL     OW13915   4.447   4.366   5.487
 4339SOL    HW113916   4.500   4.366   5.403
 4339SOL    HW213917   4.350   4.373   5.465
 4340SOL     OW13918   0.091   3.965   0.352
 4340SOL    HW113919   0.081   3.866   0.350
 4340SOL    HW213920   0.166   3.993   0.291
 4341SOL     OW13921   5.993   5.568   0.870
 4341SOL    HW113922   6.065   5.567   0.801
 4341SOL    HW213923   5.926   5.496   0.850
 4342SOL     OW13924   5.471   3.261   2.537
 4342SOL    HW113925   5.397   3.318   2.502
 4342SOL    HW213926   5.491   3.287   2.632
 4343SOL     OW13927   4.370   0.600   6.648
 4343SOL    HW113928   4.340   0.633   6.558
 4343SOL    HW213929   4.368   0.676   6.713
 4344SOL     OW13930   1.326   4.086   2.085
 4344SOL    HW113931   1.391   4.018   2.119
 4344SOL    HW213932   1.276   4.048   2.007
 4345SOL     OW13933   3.776   3.399   2.682
 4345SOL    HW113934   3.727   3.486   2.677
 4345SOL    HW213935   3.874   3.416   2.683
 4346SOL     OW13936   0.675   3.818   2.518
 4346SOL    HW113937   0.701   3.723   2.539
 4346SOL    HW213938   0.758   3.872   2.503
 4347SOL     OW13939   6.450   5.442   0.221
 4347SOL    HW113940   6.531   5.384   0.219
 4347SOL    HW213941   6.478   5.539   0.223
 4348SOL     OW13942   6.585   4.039   5.882
 4348SOL    HW113943   6.678   4.021   5.850
 4348SOL    HW213944   6.572   3.994   5.970
 4349SOL     OW13945   1.162   4.156   3.962
 4349SOL    HW113946   1.098   4.187   3.891
 4349SOL    HW213947   1.193   4.235   4.014
 4350SOL     OW13948   5.014   0.308   3.826
 4350SOL    HW113949   5.059   0.320   3.737
 4350SOL    HW213950   5.014   0.395   3.875
 4351SOL     OW13951   7.001   5.591   1.005
 4351SOL    HW113952   0.034   5.596   1.088
 4351SOL    HW213953   7.005   5.499   0.967
 4352SOL     OW13954   3.446   4.325   1.642
 4352SOL    HW113955   3.376   4.394   1.623
 4352SOL    HW213956   3.402   4.236   1.654
 4353SOL     OW13957   2.333   3.962   0.272
 4353SOL    HW113958   2.358   3.889   0.336
 4353SOL    HW213959   2.412   3.984   0.215
 4354SOL     OW13960   5.301   5.243   2.253
 4354SOL    HW113961   5.250   5.283   2.329
 4354SOL    HW213962   5.255   5.265   2.167
 4355SOL     OW13963   2.071   4.952   3.021
 4355SOL    HW113964   2.150   4.934   2.963
 4355SOL    HW213965   1.989   4.914   2.979
 4356SOL     OW13966   5.959   2.267   5.682
 4356SOL    HW113967   5.985   2.182   5.637
 4356SOL    HW213968   6.024   2.339   5.658
 4357SOL     OW13969   5.254   5.784   2.619
 4357SOL    HW113970   5.327   5.723   2.650
 4357SOL    HW213971   5.275   5.816   2.527
 4358SOL     OW13972   2.535   0.475   0.606
 4358SOL    HW113973   2.631   0.499   0.592
 4358SOL    HW213974   2.498   0.526   0.683
 4359SOL     OW13975   2.546   2.199   1.276
 4359SOL    HW113976   2.473   2.248   1.229
 4359SOL    HW213977   2.560   2.239   1.367
 4360SOL     OW13978   2.954   6.170   3.707
 4360SOL    HW113979   3.047   6.153   3.676
 4360SOL    HW213980   2.898   6.201   3.629
 4361SOL     OW13981   1.463   1.343   6.751
 4361SOL    HW113982   1.485   1.440   6.743
 4361SOL    HW213983   1.374   1.325   6.710
 4362SOL     OW13984   0.294   5.695   2.487
 4362SOL    HW113985   0.358   5.704   2.563
 4362SOL    HW213986   0.293   5.600   2.456
 4363SOL     OW13987   3.628   0.723   2.047
 4363SOL    HW113988   3.542   0.679   2.019
 4363SOL    HW213989   3.611   0.819   2.069
 4364SOL     OW13990   3.197   4.009   3.122
 4364SOL    HW113991   3.167   3.921   3.160
 4364SOL    HW213992   3.186   4.079   3.192
 4365SOL     OW13993   2.342   1.209   0.417
 4365SOL    HW113994   2.437   1.225   0.444
 4365SOL    HW213995   2.310   1.286   0.362
 4366SOL     OW13996   5.389   5.741   5.013
 4366SOL    HW113997   5.336   5.717   5.094
 4366SOL    HW213998   5.335   5.801   4.954
 4367SOL     OW13999   2.734   6.650   2.015
 4367SOL    HW114000   2.705   6.584   1.946
 4367SOL    HW214001   2.690   6.628   2.102
 4368SOL     OW14002   4.834   3.911   4.261
 4368SOL    HW114003   4.919   3.947   4.224
 4368SOL    HW214004   4.759   3.931   4.199
 4369SOL     OW14005   5.839   4.296   3.890
 4369SOL    HW114006   5.895   4.378   3.881
 4369SOL    HW214007   5.785   4.283   3.807
 4370SOL     OW14008   4.413   4.887   0.935
 4370SOL    HW114009   4.407   4.798   0.891
 4370SOL    HW214010   4.504   4.926   0.921
 4371SOL     OW14011   3.326   1.602   2.960
 4371SOL    HW114012   3.293   1.509   2.946
 4371SOL    HW214013   3.333   1.620   3.058
 4372SOL     OW14014   1.931   4.260   4.827
 4372SOL    HW114015   1.963   4.166   4.837
 4372SOL    HW214016   1.954   4.293   4.735
 4373SOL     OW14017   4.378   0.272   0.322
 4373SOL    HW114018   4.348   0.177   0.329
 4373SOL    HW214019   4.363   0.318   0.409
 4374SOL     OW14020   2.443   6.400   0.288
 4374SOL    HW114021   2.400   6.443   0.208
 4374SOL    HW214022   2.384   6.414   0.368
 4375SOL     OW14023   4.238   1.245   5.661
 4375SOL    HW114024   4.247   1.191   5.745
 4375SOL    HW214025   4.283   1.334   5.674
 4376SOL     OW14026   2.776   5.267   0.067
 4376SOL    HW114027   2.750   5.334   0.136
 4376SOL    HW214028   2.792   5.179   0.110
 4377SOL     OW14029   5.208   5.596   6.579
 4377SOL    HW114030   5.224   5.691   6.606
 4377SOL    HW214031   5.112   5.583   6.556
 4378SOL     OW14032   3.260   5.420   2.044
 4378SOL    HW114033   3.325   5.490   2.075
 4378SOL    HW214034   3.194   5.402   2.117
 4379SOL     OW14035   6.780   6.318   0.439
 4379SOL    HW114036   6.815   6.398   0.488
 4379SOL    HW214037   6.683   6.306   0.459
 4380SOL     OW14038   2.232   5.453   4.278
 4380SOL    HW114039   2.328   5.441   4.305
 4380SOL    HW214040   2.182   5.368   4.292
 4381SOL     OW14041   3.943   5.937   4.686
 4381SOL    HW114042   3.869   5.898   4.740
 4381SOL    HW214043   3.907   5.971   4.600
 4382SOL     OW14044   5.512   4.468   2.433
 4382SOL    HW114045   5.435   4.523   2.463
 4382SOL    HW214046   5.535   4.402   2.505
 4383SOL     OW14047   1.441   0.818   0.692
 4383SOL    HW114048   1.446   0.797   0.595
 4383SOL    HW214049   1.346   0.814   0.723
 4384SOL     OW14050   3.785   0.387   1.990
 4384SOL    HW114051   3.722   0.361   2.064
 4384SOL    HW214052   3.733   0.400   1.906
 4385SOL     OW14053   6.468   2.720   3.434
 4385SOL    HW114054   6.513   2.806   3.411
 4385SOL    HW214055   6.536   2.649   3.450
 4386SOL     OW14056   1.657   4.408   6.908
 4386SOL    HW114057   1.561   4.383   6.922
 4386SOL    HW214058   1.662   4.503   6.876
 4387SOL     OW14059   6.140   1.750   1.387
 4387SOL    HW114060   6.113   1.845   1.369
 4387SOL    HW214061   6.135   1.731   1.485
 4388SOL     OW14062   3.991   1.360   5.576
 4388SOL    HW114063   4.075   1.307   5.569
 4388SOL    HW214064   3.980   1.391   5.671
 4389SOL     OW14065   6.577   2.580   2.677
 4389SOL    HW114066   6.496   2.531   2.709
 4389SOL    HW214067   6.648   2.514   2.650
 4390SOL     OW14068   4.409   3.246   0.926
 4390SOL    HW114069   4.414   3.259   1.025
 4390SOL    HW214070   4.314   3.228   0.900
 4391SOL     OW14071   1.057   6.288   0.191
 4391SOL    HW114072   1.115   6.360   0.229
 4391SOL    HW214073   1.056   6.294   0.091
 4392SOL     OW14074   5.481   4.790   5.021
 4392SOL    HW114075   5.466   4.691   5.028
 4392SOL    HW214076   5.579   4.809   5.016
 4393SOL     OW14077   5.247   6.852   2.929
 4393SOL    HW114078   5.158   6.842   2.974
 4393SOL    HW214079   5.233   6.867   2.831
 4394SOL     OW14080   4.585   0.166   2.163
 4394SOL    HW114081   4.523   0.093   2.135
 4394SOL    HW214082   4.537   0.231   2.222
 4395SOL     OW14083   4.880   2.326   1.240
 4395SOL    HW114084   4.826   2.357   1.318
 4395SOL    HW214085   4.823   2.326   1.158
 4396SOL     OW14086   1.361   1.406   3.105
 4396SOL    HW114087   1.348   1.354   3.021
 4396SOL    HW214088   1.298   1.484   3.106
 4397SOL     OW14089   4.841   0.484   6.646
 4397SOL    HW114090   4.906   0.494   6.570
 4397SOL    HW214091   4.860   0.554   6.715
 4398SOL     OW14092   0.191   5.064   4.848
 4398SOL    HW114093   0.120   5.122   4.890
 4398SOL    HW214094   0.163   4.968   4.853
 4399SOL     OW14095   3.323   0.666   2.797
 4399SOL    HW114096   3.381   0.746   2.784
 4399SOL    HW214097   3.234   0.682   2.754
 4400SOL     OW14098   3.682   5.190   3.045
 4400SOL    HW114099   3.775   5.212   3.015
 4400SOL    HW214100   3.654   5.103   3.005
 4401SOL     OW14101   5.714   5.923   4.776
 4401SOL    HW114102   5.760   5.848   4.824
 4401SOL    HW214103   5.739   6.010   4.819
 4402SOL     OW14104   6.750   6.560   1.881
 4402SOL    HW114105   6.772   6.485   1.818
 4402SOL    HW214106   6.717   6.639   1.830
 4403SOL     OW14107   6.498   1.518   2.361
 4403SOL    HW114108   6.490   1.419   2.372
 4403SOL    HW214109   6.410   1.556   2.332
 4404SOL     OW14110   2.034   4.473   2.626
 4404SOL    HW114111   2.063   4.437   2.538
 4404SOL    HW214112   1.938   4.498   2.622
 4405SOL     OW14113   2.897   3.706   5.910
 4405SOL    HW114114   2.882   3.804   5.894
 4405SOL    HW214115   2.888   3.656   5.824
 4406SOL     OW14116   6.494   2.967   2.271
 4406SOL    HW114117   6.575   2.909   2.282
 4406SOL    HW214118   6.522   3.062   2.261
 4407SOL     OW14119   1.087   0.771   0.256
 4407SOL    HW114120   1.026   0.740   0.328
 4407SOL    HW214121   1.040   0.766   0.168
 4408SOL     OW14122   4.045   6.293   1.315
 4408SOL    HW114123   4.058   6.222   1.384
 4408SOL    HW214124   3.947   6.309   1.301
 4409SOL     OW14125   2.845   2.041   2.559
 4409SOL    HW114126   2.885   1.952   2.581
 4409SOL    HW214127   2.913   2.113   2.574
 4410SOL     OW14128   1.797   5.832   1.412
 4410SOL    HW114129   1.858   5.773   1.465
 4410SOL    HW214130   1.811   5.927   1.437
 4411SOL     OW14131   3.998   3.146   2.276
 4411SOL    HW114132   4.052   3.133   2.193
 4411SOL    HW214133   4.002   3.242   2.304
 4412SOL     OW14134   3.979   1.445   5.842
 4412SOL    HW114135   3.896   1.388   5.842
 4412SOL    HW214136   3.975   1.509   5.919
 4413SOL     OW14137   4.252   5.458   3.905
 4413SOL    HW114138   4.252   5.361   3.878
 4413SOL    HW214139   4.288   5.467   3.998
 4414SOL     OW14140   3.553   4.846   2.300
 4414SOL    HW114141   3.585   4.797   2.219
 4414SOL    HW214142   3.459   4.877   2.286
 4415SOL     OW14143   4.585   1.643   1.543
 4415SOL    HW114144   4.626   1.726   1.505
 4415SOL    HW214145   4.495   1.665   1.580
 4416SOL     OW14146   2.754   2.011   4.574
 4416SOL    HW114147   2.709   1.999   4.485
 4416SOL    HW214148   2.772   2.108   4.590
 4417SOL     OW14149   6.521   6.415   1.360
 4417SOL    HW114150   6.435   6.365   1.353
 4417SOL    HW214151   6.549   6.446   1.269
 4418SOL     OW14152   5.043   1.195   3.298
 4418SOL    HW114153   5.000   1.178   3.387
 4418SOL    HW214154   5.120   1.133   3.286
 4419SOL     OW14155   6.065   5.453   6.057
 4419SOL    HW114156   6.037   5.359   6.036
 4419SOL    HW214157   6.082   5.502   5.971
 4420SOL     OW14158   4.845   1.103   0.518
 4420SOL    HW114159   4.920   1.075   0.578
 4420SOL    HW214160   4.839   1.040   0.440
 4421SOL     OW14161   0.460   1.389   3.044
 4421SOL    HW114162   0.416   1.325   3.107
 4421SOL    HW214163   0.494   1.340   2.964
 4422SOL     OW14164   1.608   4.215   5.938
 4422SOL    HW114165   1.687   4.229   5.998
 4422SOL    HW214166   1.637   4.222   5.843
 4423SOL     OW14167   6.747   1.446   5.964
 4423SOL    HW114168   6.753   1.444   5.864
 4423SOL    HW214169   6.837   1.466   6.002
 4424SOL     OW14170   1.756   5.295   3.863
 4424SOL    HW114171   1.758   5.344   3.776
 4424SOL    HW214172   1.664   5.261   3.880
 4425SOL     OW14173   5.357   4.083   1.462
 4425SOL    HW114174   5.417   4.147   1.509
 4425SOL    HW214175   5.355   3.996   1.512
 4426SOL     OW14176   0.638   0.275   6.858
 4426SOL    HW114177   0.563   0.333   6.828
 4426SOL    HW214178   0.620   0.241   6.950
 4427SOL     OW14179   0.995   5.596   4.039
 4427SOL    HW114180   1.011   5.548   3.952
 4427SOL    HW214181   1.059   5.561   4.108
 4428SOL     OW14182   1.386   0.070   3.046
 4428SOL    HW114183   1.370   0.158   3.092
 4428SOL    HW214184   1.483   0.049   3.049
 4429SOL     OW14185   3.376   0.817   3.336
 4429SOL    HW114186   3.438   0.888   3.302
 4429SOL    HW214187   3.389   0.805   3.434
 4430SOL     OW14188   1.557   1.002   2.142
 4430SOL    HW114189   1.504   0.917   2.146
 4430SOL    HW214190   1.535   1.051   2.057
 4431SOL     OW14191   2.112   2.232   3.358
 4431SOL    HW114192   2.157   2.290   3.290
 4431SOL    HW214193   2.074   2.152   3.314
 4432SOL     OW14194   2.979   3.731   3.970
 4432SOL    HW114195   3.039   3.747   3.892
 4432SOL    HW214196   2.962   3.633   3.980
 4433SOL     OW14197   6.441   0.609   2.656
 4433SOL    HW114198   6.453   0.629   2.753
 4433SOL    HW214199   6.516   0.552   2.624
 4434SOL     OW14200   5.314   2.380   5.182
 4434SOL    HW114201   5.376   2.424   5.248
 4434SOL    HW214202   5.225   2.426   5.185
 4435SOL     OW14203   3.702   3.214   2.047
 4435SOL    HW114204   3.754   3.141   2.091
 4435SOL    HW214205   3.727   3.302   2.087
 4436SOL     OW14206   5.408   0.155   0.264
 4436SOL    HW114207   5.385   0.249   0.240
 4436SOL    HW214208   5.406   0.098   0.182
 4437SOL     OW14209   3.308   0.022   5.578
 4437SOL    HW114210   3.301   0.116   5.611
 4437SOL    HW214211   3.262   0.014   5.490
 4438SOL     OW14212   3.568   3.037   6.704
 4438SOL    HW114213   3.567   2.975   6.625
 4438SOL    HW214214   3.474   3.059   6.730
 4439SOL     OW14215   1.977   4.149   3.008
 4439SOL    HW114216   2.074   4.165   2.988
 4439SOL    HW214217   1.966   4.122   3.103
 4440SOL     OW14218   6.261   1.496   0.447
 4440SOL    HW114219   6.168   1.459   0.436
 4440SOL    HW214220   6.316   1.431   0.499
 4441SOL     OW14221   6.521   0.487   3.739
 4441SOL    HW114222   6.500   0.551   3.813
 4441SOL    HW214223   6.614   0.503   3.707
 4442SOL     OW14224   1.887   5.792   2.287
 4442SOL    HW114225   1.955   5.860   2.262
 4442SOL    HW214226   1.798   5.836   2.298
 4443SOL     OW14227   2.365   1.641   0.726
 4443SOL    HW114228   2.426   1.645   0.805
 4443SOL    HW214229   2.331   1.548   0.714
 4444SOL     OW14230   4.948   1.281   3.058
 4444SOL    HW114231   4.848   1.283   3.045
 4444SOL    HW214232   4.968   1.268   3.155
 4445SOL     OW14233   0.843   1.185   6.299
 4445SOL    HW114234   0.933   1.196   6.258
 4445SOL    HW214235   0.786   1.264   6.276
 4446SOL     OW14236   5.402   4.473   3.752
 4446SOL    HW114237   5.386   4.554   3.808
 4446SOL    HW214238   5.360   4.485   3.663
 4447SOL     OW14239   4.975   3.625   5.234
 4447SOL    HW114240   4.910   3.636   5.158
 4447SOL    HW214241   5.050   3.690   5.223
 4448SOL     OW14242   2.509   3.223   6.411
 4448SOL    HW114243   2.410   3.233   6.418
 4448SOL    HW214244   2.539   3.249   6.319
 4449SOL     OW14245   0.495   1.527   5.671
 4449SOL    HW114246   0.443   1.596   5.721
 4449SOL    HW214247   0.472   1.533   5.574
 4450SOL     OW14248   3.470   3.826   2.680
 4450SOL    HW114249   3.412   3.852   2.757
 4450SOL    HW214250   3.481   3.903   2.618
 4451SOL     OW14251   0.208   4.381   1.024
 4451SOL    HW114252   0.146   4.444   1.070
 4451SOL    HW214253   0.277   4.433   0.974
 4452SOL     OW14254   6.620   3.175   5.783
 4452SOL    HW114255   6.575   3.154   5.870
 4452SOL    HW214256   6.550   3.190   5.713
 4453SOL     OW14257   5.369   0.750   0.793
 4453SOL    HW114258   5.359   0.808   0.874
 4453SOL    HW214259   5.281   0.744   0.745
 4454SOL     OW14260   5.329   2.891   1.591
 4454SOL    HW114261   5.371   2.862   1.506
 4454SOL    HW214262   5.241   2.844   1.603
 4455SOL     OW14263   4.347   2.203   2.764
 4455SOL    HW114264   4.291   2.125   2.733
 4455SOL    HW214265   4.384   2.251   2.685
 4456SOL     OW14266   0.601   5.665   2.259
 4456SOL    HW114267   0.520   5.654   2.317
 4456SOL    HW214268   0.619   5.763   2.245
 4457SOL     OW14269   4.432   2.110   0.136
 4457SOL    HW114270   4.409   2.203   0.164
 4457SOL    HW214271   4.453   2.109   0.038
 4458SOL     OW14272   4.283   1.470   1.043
 4458SOL    HW114273   4.334   1.519   0.972
 4458SOL    HW214274   4.259   1.379   1.010
 4459SOL     OW14275   5.795   6.182   5.349
 4459SOL    HW114276   5.723   6.208   5.413
 4459SOL    HW214277   5.873   6.244   5.359
 4460SOL     OW14278   1.108   1.356   6.701
 4460SOL    HW114279   1.149   1.384   6.788
 4460SOL    HW214280   1.016   1.394   6.693
 4461SOL     OW14281   1.802   0.034   2.648
 4461SOL    HW114282   1.772   0.120   2.688
 4461SOL    HW214283   1.825   0.049   2.551
 4462SOL     OW14284   6.750   3.962   0.624
 4462SOL    HW114285   6.658   3.979   0.590
 4462SOL    HW214286   6.768   4.021   0.703
 4463SOL     OW14287   0.988   4.531   6.752
 4463SOL    HW114288   1.067   4.577   6.712
 4463SOL    HW214289   0.953   4.462   6.689
 4464SOL     OW14290   6.474   2.613   0.091
 4464SOL    HW114291   6.462   2.592   0.187
 4464SOL    HW214292   6.455   2.532   0.036
 4465SOL     OW14293   6.881   5.495   0.688
 4465SOL    HW114294   6.875   5.395   0.688
 4465SOL    HW214295   6.809   5.533   0.746
 4466SOL     OW14296   0.080   3.006   3.291
 4466SOL    HW114297   0.031   3.090   3.272
 4466SOL    HW214298   0.130   2.977   3.209
 4467SOL     OW14299   1.107   0.565   3.641
 4467SOL    HW114300   1.166   0.496   3.684
 4467SOL    HW214301   1.163   0.644   3.613
 4468SOL     OW14302   1.514   2.043   0.693
 4468SOL    HW114303   1.570   2.015   0.615
 4468SOL    HW214304   1.572   2.055   0.774
 4469SOL     OW14305   4.572   0.004   0.648
 4469SOL    HW114306   4.539   0.097   0.638
 4469SOL    HW214307   4.517   6.980   0.716
 4470SOL     OW14308   4.824   4.765   1.638
 4470SOL    HW114309   4.762   4.804   1.570
 4470SOL    HW214310   4.779   4.691   1.687
 4471SOL     OW14311   6.040   2.876   1.629
 4471SOL    HW114312   6.016   2.816   1.554
 4471SOL    HW214313   5.970   2.872   1.700
 4472SOL     OW14314   2.395   4.971   1.506
 4472SOL    HW114315   2.321   4.911   1.536
 4472SOL    HW214316   2.360   5.036   1.439
 4473SOL     OW14317   6.625   0.726   0.034
 4473SOL    HW114318   6.705   0.783   0.016
 4473SOL    HW214319   6.648   0.630   0.021
 4474SOL     OW14320   6.223   0.818   4.370
 4474SOL    HW114321   6.167   0.768   4.304
 4474SOL    HW214322   6.315   0.829   4.334
 4475SOL     OW14323   1.231   3.478   0.472
 4475SOL    HW114324   1.268   3.548   0.411
 4475SOL    HW214325   1.201   3.521   0.557
 4476SOL     OW14326   4.687   6.457   2.980
 4476SOL    HW114327   4.652   6.381   2.924
 4476SOL    HW214328   4.686   6.541   2.925
 4477SOL     OW14329   1.244   2.073   0.760
 4477SOL    HW114330   1.337   2.077   0.723
 4477SOL    HW214331   1.238   2.134   0.840
 4478SOL     OW14332   1.259   4.970   1.172
 4478SOL    HW114333   1.296   4.883   1.138
 4478SOL    HW214334   1.160   4.966   1.173
 4479SOL     OW14335   1.344   0.416   6.104
 4479SOL    HW114336   1.272   0.422   6.036
 4479SOL    HW214337   1.428   0.383   6.061
 4480SOL     OW14338   6.899   4.171   3.489
 4480SOL    HW114339   6.880   4.073   3.484
 4480SOL    HW214340   6.845   4.219   3.420
 4481SOL     OW14341   0.521   0.712   3.984
 4481SOL    HW114342   0.569   0.766   3.915
 4481SOL    HW214343   0.552   0.739   4.075
 4482SOL     OW14344   1.320   4.167   2.909
 4482SOL    HW114345   1.331   4.209   2.819
 4482SOL    HW214346   1.350   4.071   2.904
 4483SOL     OW14347   5.850   3.297   0.696
 4483SOL    HW114348   5.815   3.378   0.649
 4483SOL    HW214349   5.811   3.215   0.654
 4484SOL     OW14350   3.110   3.160   6.235
 4484SOL    HW114351   3.014   3.159   6.263
 4484SOL    HW214352   3.146   3.067   6.239
 4485SOL     OW14353   4.820   0.043   6.471
 4485SOL    HW114354   4.916   0.063   6.451
 4485SOL    HW214355   4.801   6.971   6.452
 4486SOL     OW14356   6.175   3.354   3.955
 4486SOL    HW114357   6.188   3.452   3.969
 4486SOL    HW214358   6.165   3.335   3.857
 4487SOL     OW14359   2.783   2.942   5.746
 4487SOL    HW114360   2.720   2.964   5.672
 4487SOL    HW214361   2.867   2.903   5.707
 4488SOL     OW14362   6.975   1.788   6.456
 4488SOL    HW114363   6.945   1.835   6.373
 4488SOL    HW214364   6.911   1.714   6.478
 4489SOL     OW14365   1.091   1.286   2.196
 4489SOL    HW114366   1.078   1.330   2.285
 4489SOL    HW214367   1.160   1.335   2.144
 4490SOL     OW14368   6.734   2.388   4.013
 4490SOL    HW114369   6.775   2.474   3.984
 4490SOL    HW214370   6.725   2.387   4.113
 4491SOL     OW14371   1.908   4.049   2.376
 4491SOL    HW114372   1.925   3.952   2.362
 4491SOL    HW214373   1.810   4.065   2.387
 4492SOL     OW14374   4.630   4.396   6.211
 4492SOL    HW114375   4.668   4.477   6.166
 4492SOL    HW214376   4.540   4.418   6.250
 4493SOL     OW14377   6.002   4.564   3.529
 4493SOL    HW114378   5.995   4.581   3.627
 4493SOL    HW214379   5.938   4.492   3.503
 4494SOL     OW14380   5.930   2.265   2.718
 4494SOL    HW114381   5.901   2.313   2.635
 4494SOL    HW214382   5.860   2.200   2.745
 4495SOL     OW14383   4.779   6.069   2.015
 4495SOL    HW114384   4.877   6.077   2.031
 4495SOL    HW214385   4.762   6.049   1.919
 4496SOL     OW14386   6.178   3.853   5.547
 4496SOL    HW114387   6.211   3.931   5.600
 4496SOL    HW214388   6.209   3.768   5.588
 4497SOL     OW14389   6.344   5.758   0.553
 4497SOL    HW114390   6.337   5.778   0.455
 4497SOL    HW214391   6.419   5.694   0.568
 4498SOL     OW14392   1.030   3.980   6.787
 4498SOL    HW114393   1.111   3.937   6.826
 4498SOL    HW214394   1.054   4.022   6.699
 4499SOL     OW14395   5.257   3.520   7.001
 4499SOL    HW114396   5.157   3.520   7.010
 4499SOL    HW214397   5.290   3.426   6.993
 4500SOL     OW14398   3.767   3.940   2.750
 4500SOL    HW114399   3.694   3.902   2.808
 4500SOL    HW214400   3.853   3.893   2.771
 4501SOL     OW14401   1.488   4.908   4.769
 4501SOL    HW114402   1.417   4.929   4.836
 4501SOL    HW214403   1.473   4.817   4.731
 4502SOL     OW14404   5.612   2.522   0.068
 4502SOL    HW114405   5.599   2.555   0.161
 4502SOL    HW214406   5.642   2.597   0.009
 4503SOL     OW14407   1.535   3.379   2.981
 4503SOL    HW114408   1.505   3.284   2.973
 4503SOL    HW214409   1.555   3.415   2.891
 4504SOL     OW14410   4.577   2.618   4.351
 4504SOL    HW114411   4.591   2.615   4.252
 4504SOL    HW214412   4.526   2.537   4.380
 4505SOL     OW14413   2.124   5.112   0.534
 4505SOL    HW114414   2.213   5.079   0.565
 4505SOL    HW214415   2.132   5.145   0.440
 4506SOL     OW14416   3.709   0.210   5.744
 4506SOL    HW114417   3.680   0.300   5.713
 4506SOL    HW214418   3.806   0.196   5.720
 4507SOL     OW14419   6.576   3.697   2.479
 4507SOL    HW114420   6.481   3.718   2.457
 4507SOL    HW214421   6.629   3.689   2.395
 4508SOL     OW14422   2.053   3.682   0.386
 4508SOL    HW114423   1.999   3.618   0.333
 4508SOL    HW214424   2.021   3.775   0.368
 4509SOL     OW14425   0.340   1.926   3.096
 4509SOL    HW114426   0.319   2.008   3.043
 4509SOL    HW214427   0.432   1.934   3.135
 4510SOL     OW14428   2.990   6.196   6.067
 4510SOL    HW114429   3.031   6.175   6.156
 4510SOL    HW214430   3.059   6.238   6.008
 4511SOL     OW14431   6.999   1.944   0.079
 4511SOL    HW114432   6.904   1.915   0.068
 4511SOL    HW214433   0.004   1.929   0.174
 4512SOL     OW14434   2.391   3.919   6.692
 4512SOL    HW114435   2.413   4.010   6.656
 4512SOL    HW214436   2.414   3.850   6.623
 4513SOL     OW14437   5.881   1.526   2.434
 4513SOL    HW114438   5.854   1.621   2.421
 4513SOL    HW214439   5.811   1.479   2.488
 4514SOL     OW14440   3.318   0.810   5.713
 4514SOL    HW114441   3.405   0.785   5.755
 4514SOL    HW214442   3.334   0.879   5.642
 4515SOL     OW14443   6.517   4.812   0.123
 4515SOL    HW114444   6.551   4.867   0.047
 4515SOL    HW214445   6.465   4.734   0.087
 4516SOL     OW14446   0.865   0.345   3.663
 4516SOL    HW114447   0.903   0.422   3.713
 4516SOL    HW214448   0.889   0.259   3.708
 4517SOL     OW14449   3.181   0.605   0.057
 4517SOL    HW114450   3.104   0.608   7.017
 4517SOL    HW214451   3.266   0.617   0.007
 4518SOL     OW14452   1.735   0.006   3.821
 4518SOL    HW114453   1.650   0.059   3.814
 4518SOL    HW214454   1.813   0.068   3.828
 4519SOL     OW14455   6.285   2.311   5.238
 4519SOL    HW114456   6.215   2.243   5.254
 4519SOL    HW214457   6.247   2.388   5.186
 4520SOL     OW14458   0.218   4.078   2.874
 4520SOL    HW114459   0.292   4.119   2.927
 4520SOL    HW214460   0.212   4.124   2.785
 4521SOL     OW14461   5.027   1.391   6.195
 4521SOL    HW114462   5.084   1.365   6.117
 4521SOL    HW214463   5.086   1.422   6.270
 4522SOL     OW14464   5.914   6.998   3.466
 4522SOL    HW114465   5.815   7.004   3.449
 4522SOL    HW214466   5.942   6.902   3.468
 4523SOL     OW14467   4.975   2.397   5.877
 4523SOL    HW114468   4.950   2.315   5.929
 4523SOL    HW214469   4.893   2.436   5.836
 4524SOL     OW14470   6.036   0.526   5.140
 4524SOL    HW114471   6.062   0.462   5.212
 4524SOL    HW214472   6.111   0.590   5.123
 4525SOL     OW14473   6.264   1.519   4.387
 4525SOL    HW114474   6.241   1.438   4.333
 4525SOL    HW214475   6.323   1.493   4.463
 4526SOL     OW14476   3.398   1.257   1.700
 4526SOL    HW114477   3.315   1.214   1.664
 4526SOL    HW214478   3.389   1.357   1.692
 4527SOL     OW14479   4.407   6.500   4.147
 4527SOL    HW114480   4.382   6.517   4.243
 4527SOL    HW214481   4.490   6.551   4.125
 4528SOL     OW14482   5.333   0.523   5.827
 4528SOL    HW114483   5.404   0.591   5.807
 4528SOL    HW214484   5.291   0.493   5.741
 4529SOL     OW14485   3.736   0.151   4.013
 4529SOL    HW114486   3.733   0.202   3.927
 4529SOL    HW214487   3.822   0.169   4.059
 4530SOL     OW14488   0.468   2.595   4.644
 4530SOL    HW114489   0.370   2.578   4.646
 4530SOL    HW214490   0.512   2.547   4.719
 4531SOL     OW14491   0.623   4.116   4.035
 4531SOL    HW114492   0.706   4.067   4.059
 4531SOL    HW214493   0.581   4.073   3.954
 4532SOL     OW14494   0.416   2.184   0.546
 4532SOL    HW114495   0.368   2.241   0.479
 4532SOL    HW214496   0.460   2.243   0.614
 4533SOL     OW14497   3.218   5.944   2.252
 4533SOL    HW114498   3.212   5.870   2.318
 4533SOL    HW214499   3.202   5.908   2.160
 4534SOL     OW14500   7.017   4.593   5.686
 4534SOL    HW114501   6.996   4.553   5.597
 4534SOL    HW214502   6.979   4.535   5.758
 4535SOL     OW14503   5.133   2.708   3.258
 4535SOL    HW114504   5.216   2.679   3.306
 4535SOL    HW214505   5.146   2.696   3.159
 4536SOL     OW14506   0.081   0.490   3.876
 4536SOL    HW114507   0.013   0.474   3.948
 4536SOL    HW214508   0.156   0.546   3.912
 4537SOL     OW14509   4.750   3.764   6.659
 4537SOL    HW114510   4.734   3.739   6.563
 4537SOL    HW214511   4.792   3.687   6.707
 4538SOL     OW14512   3.470   2.444   1.359
 4538SOL    HW114513   3.421   2.375   1.412
 4538SOL    HW214514   3.542   2.400   1.305
 4539SOL     OW14515   2.464   2.277   2.181
 4539SOL    HW114516   2.455   2.374   2.157
 4539SOL    HW214517   2.561   2.253   2.185
 4540SOL     OW14518   3.500   3.188   5.340
 4540SOL    HW114519   3.430   3.260   5.339
 4540SOL    HW214520   3.577   3.217   5.396
 4541SOL     OW14521   6.031   0.801   1.659
 4541SOL    HW114522   6.040   0.880   1.599
 4541SOL    HW214523   6.121   0.774   1.694
 4542SOL     OW14524   5.125   6.732   3.252
 4542SOL    HW114525   5.204   6.690   3.207
 4542SOL    HW214526   5.057   6.757   3.183
 4543SOL     OW14527   5.771   2.745   2.173
 4543SOL    HW114528   5.693   2.807   2.167
 4543SOL    HW214529   5.790   2.707   2.083
 4544SOL     OW14530   4.727   5.305   6.282
 4544SOL    HW114531   4.768   5.357   6.207
 4544SOL    HW214532   4.771   5.216   6.289
 4545SOL     OW14533   3.767   3.995   6.302
 4545SOL    HW114534   3.685   4.052   6.313
 4545SOL    HW214535   3.845   4.053   6.278
 4546SOL     OW14536   0.580   6.113   7.005
 4546SOL    HW114537   0.639   6.194   7.013
 4546SOL    HW214538   0.486   6.137   0.008
 4547SOL     OW14539   4.865   1.565   2.205
 4547SOL    HW114540   4.927   1.585   2.281
 4547SOL    HW214541   4.886   1.476   2.166
 4548SOL     OW14542   1.180   3.637   4.136
 4548SOL    HW114543   1.098   3.612   4.084
 4548SOL    HW214544   1.188   3.737   4.138
 4549SOL     OW14545   5.548   1.860   2.667
 4549SOL    HW114546   5.498   1.777   2.644
 4549SOL    HW214547   5.493   1.917   2.727
 4550SOL     OW14548   2.122   5.671   4.685
 4550SOL    HW114549   2.033   5.717   4.684
 4550SOL    HW214550   2.190   5.731   4.726
 4551SOL     OW14551   6.499   3.233   0.618
 4551SOL    HW114552   6.499   3.163   0.689
 4551SOL    HW214553   6.551   3.199   0.539
 4552SOL     OW14554   6.770   3.154   4.800
 4552SOL    HW114555   6.858   3.200   4.809
 4552SOL    HW214556   6.784   3.056   4.785
 4553SOL     OW14557   5.042   4.590   6.935
 4553SOL    HW114558   5.114   4.546   6.987
 4553SOL    HW214559   5.081   4.636   6.855
 4554SOL     OW14560   6.454   7.008   3.984
 4554SOL    HW114561   6.477   0.079   4.005
 4554SOL    HW214562   6.384   7.005   3.912
 4555SOL     OW14563   3.864   3.212   0.043
 4555SOL    HW114564   3.794   3.180   7.003
 4555SOL    HW214565   3.823   3.223   0.134
 4556SOL     OW14566   4.504   0.400   4.891
 4556SOL    HW114567   4.461   0.455   4.963
 4556SOL    HW214568   4.593   0.368   4.923
 4557SOL     OW14569   5.052   0.459   4.811
 4557SOL    HW114570   5.003   0.376   4.784
 4557SOL    HW214571   5.004   0.539   4.776
 4558SOL     OW14572   6.453   2.853   5.785
 4558SOL    HW114573   6.542   2.840   5.828
 4558SOL    HW214574   6.451   2.804   5.698
 4559SOL     OW14575   0.991   6.224   1.317
 4559SOL    HW114576   0.996   6.231   1.218
 4559SOL    HW214577   0.898   6.197   1.344
 4560SOL     OW14578   5.707   2.939   2.878
 4560SOL    HW114579   5.799   2.899   2.875
 4560SOL    HW214580   5.646   2.879   2.930
 4561SOL     OW14581   3.712   6.908   6.493
 4561SOL    HW114582   3.633   6.953   6.451
 4561SOL    HW214583   3.729   6.948   6.583
 4562SOL     OW14584   2.490   4.660   5.749
 4562SOL    HW114585   2.527   4.724   5.682
 4562SOL    HW214586   2.464   4.576   5.703
 4563SOL     OW14587   5.891   2.272   6.812
 4563SOL    HW114588   5.978   2.239   6.774
 4563SOL    HW214589   5.827   2.289   6.737
 4564SOL     OW14590   0.990   4.978   0.030
 4564SOL    HW114591   1.074   4.986   7.000
 4564SOL    HW214592   1.008   5.006   0.124
 4565SOL     OW14593   2.593   1.145   3.894
 4565SOL    HW114594   2.533   1.162   3.972
 4565SOL    HW214595   2.597   1.226   3.837
 4566SOL     OW14596   1.624   0.961   0.876
 4566SOL    HW114597   1.702   0.992   0.821
 4566SOL    HW214598   1.549   0.936   0.815
 4567SOL     OW14599   5.522   1.479   0.971
 4567SOL    HW114600   5.451   1.548   0.962
 4567SOL    HW214601   5.495   1.412   1.041
 4568SOL     OW14602   4.079   4.814   3.991
 4568SOL    HW114603   4.039   4.826   3.900
 4568SOL    HW214604   4.016   4.850   4.060
 4569SOL     OW14605   0.494   2.047   2.795
 4569SOL    HW114606   0.406   2.087   2.771
 4569SOL    HW214607   0.543   2.107   2.857
 4570SOL     OW14608   5.521   5.645   4.633
 4570SOL    HW114609   5.608   5.685   4.603
 4570SOL    HW214610   5.466   5.716   4.676
 4571SOL     OW14611   3.762   2.949   4.101
 4571SOL    HW114612   3.684   2.970   4.161
 4571SOL    HW214613   3.840   3.005   4.128
 4572SOL     OW14614   2.127   5.328   1.683
 4572SOL    HW114615   2.177   5.405   1.645
 4572SOL    HW214616   2.191   5.265   1.727
 4573SOL     OW14617   5.253   0.570   1.075
 4573SOL    HW114618   5.314   0.598   1.000
 4573SOL    HW214619   5.248   0.470   1.078
 4574SOL     OW14620   6.929   4.467   1.351
 4574SOL    HW114621   6.917   4.386   1.409
 4574SOL    HW214622   6.879   4.544   1.392
 4575SOL     OW14623   6.413   6.048   1.953
 4575SOL    HW114624   6.354   6.115   1.998
 4575SOL    HW214625   6.373   6.022   1.865
 4576SOL     OW14626   3.327   6.282   4.188
 4576SOL    HW114627   3.423   6.293   4.215
 4576SOL    HW214628   3.295   6.366   4.145
 4577SOL     OW14629   1.716   2.868   4.096
 4577SOL    HW114630   1.663   2.833   4.018
 4577SOL    HW214631   1.686   2.822   4.180
 4578SOL     OW14632   0.099   5.426   4.194
 4578SOL    HW114633   0.129   5.388   4.107
 4578SOL    HW214634   0.178   5.453   4.249
 4579SOL     OW14635   5.403   2.196   4.456
 4579SOL    HW114636   5.304   2.184   4.463
 4579SOL    HW214637   5.425   2.253   4.377
 4580SOL     OW14638   0.289   5.271   0.041
 4580SOL    HW114639   0.267   5.233   0.131
 4580SOL    HW214640   0.209   5.318   0.003
 4581SOL     OW14641   3.195   6.084   4.558
 4581SOL    HW114642   3.198   5.997   4.606
 4581SOL    HW214643   3.100   6.108   4.538
 4582SOL     OW14644   4.985   6.882   3.034
 4582SOL    HW114645   4.995   6.938   3.116
 4582SOL    HW214646   4.952   6.940   2.959
 4583SOL     OW14647   3.820   1.036   5.127
 4583SOL    HW114648   3.727   1.047   5.091
 4583SOL    HW214649   3.885   1.033   5.052
 4584SOL     OW14650   0.922   4.774   5.929
 4584SOL    HW114651   0.961   4.684   5.950
 4584SOL    HW214652   0.878   4.770   5.839
 4585SOL     OW14653   3.351   6.188   2.165
 4585SOL    HW114654   3.274   6.197   2.101
 4585SOL    HW214655   3.342   6.102   2.215
 4586SOL     OW14656   2.827   6.367   1.627
 4586SOL    HW114657   2.838   6.401   1.534
 4586SOL    HW214658   2.787   6.275   1.624
 4587SOL     OW14659   3.385   4.585   0.703
 4587SOL    HW114660   3.430   4.533   0.631
 4587SOL    HW214661   3.442   4.586   0.785
 4588SOL     OW14662   3.559   4.107   5.122
 4588SOL    HW114663   3.591   4.023   5.165
 4588SOL    HW214664   3.466   4.094   5.087
 4589SOL     OW14665   1.230   2.050   2.918
 4589SOL    HW114666   1.282   2.123   2.962
 4589SOL    HW214667   1.251   1.962   2.962
 4590SOL     OW14668   4.273   6.390   3.055
 4590SOL    HW114669   4.366   6.409   3.084
 4590SOL    HW214670   4.213   6.383   3.136
 4591SOL     OW14671   6.037   6.460   5.141
 4591SOL    HW114672   6.134   6.436   5.147
 4591SOL    HW214673   5.987   6.414   5.214
 4592SOL     OW14674   3.597   1.957   5.984
 4592SOL    HW114675   3.597   2.052   5.952
 4592SOL    HW214676   3.562   1.898   5.911
 4593SOL     OW14677   5.098   6.528   1.706
 4593SOL    HW114678   5.081   6.590   1.783
 4593SOL    HW214679   5.033   6.452   1.710
 4594SOL     OW14680   3.947   1.801   2.289
 4594SOL    HW114681   3.853   1.824   2.264
 4594SOL    HW214682   3.947   1.718   2.346
 4595SOL     OW14683   4.773   3.586   5.856
 4595SOL    HW114684   4.849   3.652   5.851
 4595SOL    HW214685   4.725   3.585   5.768
 4596SOL     OW14686   4.976   0.193   2.357
 4596SOL    HW114687   4.984   0.289   2.383
 4596SOL    HW214688   4.913   0.184   2.280
 4597SOL     OW14689   6.463   4.254   5.472
 4597SOL    HW114690   6.421   4.327   5.527
 4597SOL    HW214691   6.438   4.266   5.376
 4598SOL     OW14692   2.918   4.151   0.211
 4598SOL    HW114693   2.998   4.112   0.258
 4598SOL    HW214694   2.915   4.118   0.117
 4599SOL     OW14695   3.026   5.490   0.634
 4599SOL    HW114696   3.080   5.533   0.562
 4599SOL    HW214697   2.988   5.404   0.599
 4600SOL     OW14698   3.337   4.000   1.335
 4600SOL    HW114699   3.266   3.998   1.264
 4600SOL    HW214700   3.426   3.983   1.293
 4601SOL     OW14701   1.772   5.786   4.180
 4601SOL    HW114702   1.816   5.852   4.119
 4601SOL    HW214703   1.765   5.697   4.135
 4602SOL     OW14704   1.792   0.575   1.149
 4602SOL    HW114705   1.713   0.635   1.161
 4602SOL    HW214706   1.843   0.602   1.068
 4603SOL     OW14707   2.907   1.500   1.940
 4603SOL    HW114708   2.935   1.551   1.860
 4603SOL    HW214709   2.808   1.487   1.940
 4604SOL     OW14710   1.545   0.964   2.590
 4604SOL    HW114711   1.640   0.990   2.608
 4604SOL    HW214712   1.509   1.018   2.514
 4605SOL     OW14713   5.237   5.770   5.501
 4605SOL    HW114714   5.280   5.848   5.455
 4605SOL    HW214715   5.141   5.790   5.518
 4606SOL     OW14716   6.653   5.903   4.743
 4606SOL    HW114717   6.741   5.882   4.701
 4606SOL    HW214718   6.579   5.864   4.688
 4607SOL     OW14719   2.414   3.015   1.035
 4607SOL    HW114720   2.479   3.053   1.101
 4607SOL    HW214721   2.384   3.086   0.972
 4608SOL     OW14722   1.548   3.393   5.238
 4608SOL    HW114723   1.579   3.388   5.143
 4608SOL    HW214724   1.613   3.345   5.297
 4609SOL     OW14725   3.099   0.409   0.688
 4609SOL    HW114726   3.091   0.508   0.704
 4609SOL    HW214727   3.190   0.378   0.715
 4610SOL     OW14728   6.694   3.344   6.390
 4610SOL    HW114729   6.699   3.433   6.345
 4610SOL    HW214730   6.768   3.285   6.357
 4611SOL     OW14731   1.514   4.261   6.484
 4611SOL    HW114732   1.416   4.281   6.477
 4611SOL    HW214733   1.561   4.296   6.403
 4612SOL     OW14734   2.438   0.249   6.106
 4612SOL    HW114735   2.482   0.241   6.195
 4612SOL    HW214736   2.466   0.173   6.048
 4613SOL     OW14737   3.291   4.876   1.566
 4613SOL    HW114738   3.376   4.825   1.577
 4613SOL    HW214739   3.215   4.813   1.555
 4614SOL     OW14740   2.363   5.077   6.948
 4614SOL    HW114741   2.429   5.130   6.895
 4614SOL    HW214742   2.388   5.079   0.021
 4615SOL     OW14743   6.398   3.163   6.447
 4615SOL    HW114744   6.411   3.085   6.509
 4615SOL    HW214745   6.347   3.235   6.495
 4616SOL     OW14746   5.691   0.445   6.940
 4616SOL    HW114747   5.746   0.446   6.856
 4616SOL    HW214748   5.722   0.518   7.000
 4617SOL     OW14749   6.856   3.903   1.905
 4617SOL    HW114750   6.805   3.817   1.908
 4617SOL    HW214751   6.925   3.899   1.833
 4618SOL     OW14752   0.522   2.776   6.545
 4618SOL    HW114753   0.548   2.679   6.548
 4618SOL    HW214754   0.533   2.816   6.636
 4619SOL     OW14755   3.909   0.301   3.534
 4619SOL    HW114756   3.975   0.229   3.513
 4619SOL    HW214757   3.862   0.278   3.619
 4620SOL     OW14758   2.271   5.705   6.951
 4620SOL    HW114759   2.296   5.609   6.965
 4620SOL    HW214760   2.315   5.739   6.868
 4621SOL     OW14761   6.936   0.475   6.376
 4621SOL    HW114762   6.861   0.508   6.319
 4621SOL    HW214763   7.021   0.480   6.324
 4622SOL     OW14764   1.994   3.653   0.700
 4622SOL    HW114765   2.028   3.585   0.765
 4622SOL    HW214766   2.023   3.627   0.608
 4623SOL     OW14767   5.319   3.960   2.513
 4623SOL    HW114768   5.223   3.950   2.540
 4623SOL    HW214769   5.366   3.873   2.524
 4624SOL     OW14770   4.474   0.024   5.737
 4624SOL    HW114771   4.452   6.978   5.669
 4624SOL    HW214772   4.462   0.115   5.697
 4625SOL     OW14773   0.941   3.918   5.919
 4625SOL    HW114774   0.992   3.856   5.859
 4625SOL    HW214775   0.995   3.937   6.000
 4626SOL     OW14776   5.474   5.370   1.611
 4626SOL    HW114777   5.528   5.287   1.628
 4626SOL    HW214778   5.530   5.435   1.559
 4627SOL     OW14779   1.625   0.086   5.660
 4627SOL    HW114780   1.666   7.019   5.665
 4627SOL    HW214781   1.566   0.100   5.740
 4628SOL     OW14782   6.245   2.884   1.876
 4628SOL    HW114783   6.321   2.863   1.815
 4628SOL    HW214784   6.159   2.872   1.828
 4629SOL     OW14785   4.286   5.199   4.217
 4629SOL    HW114786   4.332   5.262   4.155
 4629SOL    HW214787   4.348   5.123   4.238
 4630SOL     OW14788   1.892   6.607   2.437
 4630SOL    HW114789   1.955   6.548   2.489
 4630SOL    HW214790   1.935   6.695   2.422
 4631SOL     OW14791   1.777   0.630   3.014
 4631SOL    HW114792   1.701   0.624   3.079
 4631SOL    HW214793   1.751   0.686   2.936
 4632SOL     OW14794   5.773   5.816   4.014
 4632SOL    HW114795   5.715   5.735   4.023
 4632SOL    HW214796   5.771   5.868   4.099
 4633SOL     OW14797   5.665   2.538   5.956
 4633SOL    HW114798   5.676   2.637   5.959
 4633SOL    HW214799   5.755   2.494   5.956
 4634SOL     OW14800   2.789   4.563   0.522
 4634SOL    HW114801   2.695   4.533   0.537
 4634SOL    HW214802   2.851   4.485   0.531
 4635SOL     OW14803   5.178   3.173   1.566
 4635SOL    HW114804   5.225   3.091   1.534
 4635SOL    HW214805   5.169   3.170   1.666
 4636SOL     OW14806   0.872   5.954   1.599
 4636SOL    HW114807   0.802   5.901   1.550
 4636SOL    HW214808   0.958   5.904   1.598
 4637SOL     OW14809   1.301   0.708   4.768
 4637SOL    HW114810   1.270   0.680   4.677
 4637SOL    HW214811   1.238   0.775   4.806
 4638SOL     OW14812   4.478   4.729   5.640
 4638SOL    HW114813   4.380   4.712   5.650
 4638SOL    HW214814   4.522   4.721   5.729
 4639SOL     OW14815   0.011   2.057   4.805
 4639SOL    HW114816   6.957   2.113   4.834
 4639SOL    HW214817   7.019   2.023   4.712
 4640SOL     OW14818   5.965   5.156   2.596
 4640SOL    HW114819   5.901   5.229   2.571
 4640SOL    HW214820   5.917   5.089   2.654
 4641SOL     OW14821   2.708   3.355   5.563
 4641SOL    HW114822   2.659   3.413   5.498
 4641SOL    HW214823   2.697   3.259   5.536
 4642SOL     OW14824   6.040   5.868   3.866
 4642SOL    HW114825   5.985   5.887   3.785
 4642SOL    HW214826   6.136   5.856   3.840
 4643SOL     OW14827   4.235   2.959   1.012
 4643SOL    HW114828   4.291   2.966   0.929
 4643SOL    HW214829   4.296   2.959   1.092
 4644SOL     OW14830   3.641   4.535   5.407
 4644SOL    HW114831   3.645   4.603   5.334
 4644SOL    HW214832   3.618   4.446   5.368
 4645SOL     OW14833   1.832   6.222   4.929
 4645SOL    HW114834   1.840   6.266   5.019
 4645SOL    HW214835   1.786   6.283   4.865
 4646SOL     OW14836   3.322   0.113   1.074
 4646SOL    HW114837   3.247   0.179   1.067
 4646SOL    HW214838   3.329   0.081   1.168
 4647SOL     OW14839   6.715   0.618   4.921
 4647SOL    HW114840   6.773   0.675   4.980
 4647SOL    HW214841   6.620   0.627   4.950
 4648SOL     OW14842   1.769   5.924   3.386
 4648SOL    HW114843   1.712   5.962   3.313
 4648SOL    HW214844   1.816   5.999   3.433
 4649SOL     OW14845   5.641   6.816   6.143
 4649SOL    HW114846   5.722   6.847   6.093
 4649SOL    HW214847   5.660   6.816   6.241
 4650SOL     OW14848   6.621   4.566   1.261
 4650SOL    HW114849   6.581   4.487   1.216
 4650SOL    HW214850   6.623   4.551   1.359
 4651SOL     OW14851   6.542   2.466   1.853
 4651SOL    HW114852   6.561   2.374   1.819
 4651SOL    HW214853   6.444   2.485   1.844
 4652SOL     OW14854   0.236   6.195   5.413
 4652SOL    HW114855   0.217   6.290   5.437
 4652SOL    HW214856   0.313   6.191   5.349
 4653SOL     OW14857   0.376   5.262   6.438
 4653SOL    HW114858   0.463   5.308   6.450
 4653SOL    HW214859   0.321   5.273   6.521
 4654SOL     OW14860   1.313   1.878   6.703
 4654SOL    HW114861   1.399   1.902   6.659
 4654SOL    HW214862   1.264   1.811   6.647
 4655SOL     OW14863   6.952   5.597   3.466
 4655SOL    HW114864   6.896   5.520   3.498
 4655SOL    HW214865   6.996   5.640   3.544
 4656SOL     OW14866   2.077   6.707   2.762
 4656SOL    HW114867   1.991   6.753   2.784
 4656SOL    HW214868   2.122   6.680   2.847
 4657SOL     OW14869   6.133   0.807   5.990
 4657SOL    HW114870   6.121   0.889   6.047
 4657SOL    HW214871   6.221   0.764   6.012
 4658SOL     OW14872   4.956   0.935   3.997
 4658SOL    HW114873   4.909   0.850   3.972
 4658SOL    HW214874   4.933   0.960   4.091
 4659SOL     OW14875   1.604   2.804   4.324
 4659SOL    HW114876   1.538   2.859   4.375
 4659SOL    HW214877   1.696   2.830   4.350
 4660SOL     OW14878   5.937   1.868   5.067
 4660SOL    HW114879   5.931   1.832   5.160
 4660SOL    HW214880   5.877   1.816   5.007
 4661SOL     OW14881   3.852   3.248   2.951
 4661SOL    HW114882   3.863   3.176   2.884
 4661SOL    HW214883   3.813   3.329   2.907
 4662SOL     OW14884   5.994   0.210   3.897
 4662SOL    HW114885   6.012   0.178   3.804
 4662SOL    HW214886   5.896   0.217   3.912
 4663SOL     OW14887   0.637   2.487   1.757
 4663SOL    HW114888   0.587   2.403   1.738
 4663SOL    HW214889   0.698   2.508   1.681
 4664SOL     OW14890   3.132   3.843   0.556
 4664SOL    HW114891   3.068   3.784   0.606
 4664SOL    HW214892   3.209   3.789   0.524
 4665SOL     OW14893   5.590   0.375   6.346
 4665SOL    HW114894   5.559   0.327   6.263
 4665SOL    HW214895   5.683   0.408   6.333
 4666SOL     OW14896   1.725   2.062   0.486
 4666SOL    HW114897   1.741   2.075   0.388
 4666SOL    HW214898   1.811   2.074   0.536
 4667SOL     OW14899   0.848   5.211   4.354
 4667SOL    HW114900   0.871   5.289   4.412
 4667SOL    HW214901   0.895   5.219   4.266
 4668SOL     OW14902   5.014   0.661   5.359
 4668SOL    HW114903   5.104   0.689   5.324
 4668SOL    HW214904   4.991   0.716   5.439
 4669SOL     OW14905   2.248   1.535   2.075
 4669SOL    HW114906   2.331   1.515   2.128
 4669SOL    HW214907   2.174   1.559   2.137
 4670SOL     OW14908   2.715   1.304   4.181
 4670SOL    HW114909   2.705   1.337   4.275
 4670SOL    HW214910   2.637   1.247   4.157
 4671SOL     OW14911   5.956   2.211   2.132
 4671SOL    HW114912   5.893   2.288   2.119
 4671SOL    HW214913   5.919   2.149   2.202
 4672SOL     OW14914   2.474   2.820   5.329
 4672SOL    HW114915   2.472   2.912   5.289
 4672SOL    HW214916   2.569   2.793   5.347
 4673SOL     OW14917   4.742   0.699   2.297
 4673SOL    HW114918   4.658   0.651   2.325
 4673SOL    HW214919   4.752   0.782   2.350
 4674SOL     OW14920   4.974   6.565   5.252
 4674SOL    HW114921   4.913   6.633   5.210
 4674SOL    HW214922   5.060   6.561   5.200
 4675SOL     OW14923   0.992   4.415   7.006
 4675SOL    HW114924   1.000   4.487   0.052
 4675SOL    HW214925   0.980   4.456   6.916
 4676SOL     OW14926   0.739   4.570   3.756
 4676SOL    HW114927   0.701   4.485   3.794
 4676SOL    HW214928   0.790   4.618   3.827
 4677SOL     OW14929   1.586   3.311   0.334
 4677SOL    HW114930   1.517   3.304   0.406
 4677SOL    HW214931   1.608   3.219   0.301
 4678SOL     OW14932   1.261   4.396   1.664
 4678SOL    HW114933   1.231   4.337   1.739
 4678SOL    HW214934   1.314   4.341   1.599
 4679SOL     OW14935   4.225   0.388   2.052
 4679SOL    HW114936   4.196   0.434   1.969
 4679SOL    HW214937   4.203   0.290   2.046
 4680SOL     OW14938   2.197   0.191   6.589
 4680SOL    HW114939   2.252   0.157   6.513
 4680SOL    HW214940   2.167   0.284   6.569
 4681SOL     OW14941   5.011   5.517   2.087
 4681SOL    HW114942   5.041   5.554   1.999
 4681SOL    HW214943   5.077   5.540   2.158
 4682SOL     OW14944   3.615   3.646   6.136
 4682SOL    HW114945   3.566   3.650   6.049
 4682SOL    HW214946   3.693   3.709   6.134
 4683SOL     OW14947   6.188   4.757   3.456
 4683SOL    HW114948   6.205   4.792   3.549
 4683SOL    HW214949   6.121   4.683   3.460
 4684SOL     OW14950   5.493   6.687   6.555
 4684SOL    HW114951   5.531   6.718   6.468
 4684SOL    HW214952   5.401   6.651   6.540
 4685SOL     OW14953   2.985   3.614   4.498
 4685SOL    HW114954   3.011   3.688   4.436
 4685SOL    HW214955   2.931   3.547   4.447
 4686SOL     OW14956   1.711   0.215   6.820
 4686SOL    HW114957   1.715   0.265   6.907
 4686SOL    HW214958   1.620   0.176   6.808
 4687SOL     OW14959   2.088   0.795   2.903
 4687SOL    HW114960   2.166   0.846   2.868
 4687SOL    HW214961   2.005   0.850   2.891
 4688SOL     OW14962   5.107   2.773   5.946
 4688SOL    HW114963   5.156   2.851   5.908
 4688SOL    HW214964   5.104   2.699   5.878
 4689SOL     OW14965   6.727   1.149   0.476
 4689SOL    HW114966   6.706   1.172   0.381
 4689SOL    HW214967   6.826   1.136   0.486
 4690SOL     OW14968   2.828   2.812   1.113
 4690SOL    HW114969   2.787   2.763   1.037
 4690SOL    HW214970   2.805   2.767   1.199
 4691SOL     OW14971   6.578   3.445   1.858
 4691SOL    HW114972   6.505   3.406   1.914
 4691SOL    HW214973   6.542   3.522   1.805
 4692SOL     OW14974   5.077   2.899   2.800
 4692SOL    HW114975   4.980   2.923   2.802
 4692SOL    HW214976   5.098   2.854   2.713
 4693SOL     OW14977   0.741   0.043   2.440
 4693SOL    HW114978   0.798   0.086   2.510
 4693SOL    HW214979   0.669   7.013   2.485
 4694SOL     OW14980   2.388   0.047   6.433
 4694SOL    HW114981   2.439   7.020   6.363
 4694SOL    HW214982   2.448   0.115   6.474
 4695SOL     OW14983   2.187   4.749   2.449
 4695SOL    HW114984   2.276   4.742   2.403
 4695SOL    HW214985   2.177   4.842   2.486
 4696SOL     OW14986   1.423   6.287   6.165
 4696SOL    HW114987   1.376   6.369   6.196
 4696SOL    HW214988   1.366   6.239   6.098
 4697SOL     OW14989   4.530   5.794   1.650
 4697SOL    HW114990   4.538   5.728   1.575
 4697SOL    HW214991   4.621   5.825   1.677
 4698SOL     OW14992   5.701   1.049   4.415
 4698SOL    HW114993   5.753   0.982   4.362
 4698SOL    HW214994   5.627   1.003   4.463
 4699SOL     OW14995   1.087   0.989   2.576
 4699SOL    HW114996   1.066   0.961   2.483
 4699SOL    HW214997   1.037   1.073   2.598
 4700SOL     OW14998   6.248   1.532   2.921
 4700SOL    HW114999   6.190   1.560   2.844
 4700SOL    HW215000   6.341   1.513   2.888
 4701SOL     OW15001   3.071   2.682   1.722
 4701SOL    HW115002   3.042   2.602   1.775
 4701SOL    HW215003   3.143   2.730   1.772
 4702SOL     OW15004   6.240   5.401   0.387
 4702SOL    HW115005   6.322   5.406   0.331
 4702SOL    HW215006   6.165   5.363   0.334
 4703SOL     OW15007   0.928   5.286   4.030
 4703SOL    HW115008   0.874   5.353   4.082
 4703SOL    HW215009   0.869   5.212   4.000
 4704SOL     OW15010   1.698   4.675   4.452
 4704SOL    HW115011   1.633   4.736   4.407
 4704SOL    HW215012   1.730   4.717   4.537
 4705SOL     OW15013   3.448   2.099   1.851
 4705SOL    HW115014   3.525   2.138   1.903
 4705SOL    HW215015   3.444   2.142   1.761
 4706SOL     OW15016   2.460   0.574   1.091
 4706SOL    HW115017   2.458   0.475   1.102
 4706SOL    HW215018   2.420   0.617   1.172
 4707SOL     OW15019   1.566   5.302   2.057
 4707SOL    HW115020   1.610   5.212   2.048
 4707SOL    HW215021   1.508   5.319   1.978
 4708SOL     OW15022   1.912   3.356   5.601
 4708SOL    HW115023   1.900   3.257   5.595
 4708SOL    HW215024   1.977   3.377   5.674
 4709SOL     OW15025   6.159   4.039   5.863
 4709SOL    HW115026   6.144   4.136   5.879
 4709SOL    HW215027   6.227   4.027   5.791
 4710SOL     OW15028   6.283   5.944   5.055
 4710SOL    HW115029   6.334   5.977   4.975
 4710SOL    HW215030   6.200   5.896   5.024
 4711SOL     OW15031   4.952   4.286   2.303
 4711SOL    HW115032   4.936   4.211   2.239
 4711SOL    HW215033   5.017   4.351   2.262
 4712SOL     OW15034   4.018   4.223   5.986
 4712SOL    HW115035   3.987   4.310   5.947
 4712SOL    HW215036   4.012   4.227   6.086
 4713SOL     OW15037   5.589   4.115   0.691
 4713SOL    HW115038   5.554   4.193   0.743
 4713SOL    HW215039   5.513   4.064   0.652
 4714SOL     OW15040   4.510   2.122   6.878
 4714SOL    HW115041   4.472   2.043   6.830
 4714SOL    HW215042   4.491   2.206   6.826
 4715SOL     OW15043   6.478   1.009   1.740
 4715SOL    HW115044   6.437   0.934   1.688
 4715SOL    HW215045   6.415   1.039   1.811
 4716SOL     OW15046   3.583   4.482   5.660
 4716SOL    HW115047   3.484   4.475   5.653
 4716SOL    HW215048   3.623   4.492   5.569
 4717SOL     OW15049   2.076   4.998   5.662
 4717SOL    HW115050   2.013   4.984   5.586
 4717SOL    HW215051   2.026   5.001   5.748
 4718SOL     OW15052   4.871   4.121   1.635
 4718SOL    HW115053   4.778   4.151   1.614
 4718SOL    HW215054   4.867   4.038   1.690
 4719SOL     OW15055   6.215   4.555   3.901
 4719SOL    HW115056   6.269   4.639   3.905
 4719SOL    HW215057   6.267   4.483   3.855
 4720SOL     OW15058   2.440   2.711   6.782
 4720SOL    HW115059   2.526   2.717   6.833
 4720SOL    HW215060   2.410   2.803   6.757
 4721SOL     OW15061   0.990   3.002   3.475
 4721SOL    HW115062   1.086   2.978   3.491
 4721SOL    HW215063   0.984   3.098   3.448
 4722SOL     OW15064   1.217   5.209   6.494
 4722SOL    HW115065   1.138   5.230   6.436
 4722SOL    HW215066   1.201   5.245   6.586
 4723SOL     OW15067   2.923   4.983   6.828
 4723SOL    HW115068   2.867   5.061   6.800
 4723SOL    HW215069   2.863   4.911   6.864
 4724SOL     OW15070   0.678   0.114   4.033
 4724SOL    HW115071   0.643   0.087   3.943
 4724SOL    HW215072   0.606   0.104   4.102
 4725SOL     OW15073   6.012   4.721   1.349
 4725SOL    HW115074   6.100   4.706   1.303
 4725SOL    HW215075   5.943   4.663   1.306
 4726SOL     OW15076   1.938   3.076   5.574
 4726SOL    HW115077   1.900   3.000   5.522
 4726SOL    HW215078   2.026   3.102   5.535
 4727SOL     OW15079   6.249   4.644   1.270
 4727SOL    HW115080   6.325   4.673   1.212
 4727SOL    HW215081   6.253   4.545   1.284
 4728SOL     OW15082   5.816   1.558   3.807
 4728SOL    HW115083   5.772   1.647   3.823
 4728SOL    HW215084   5.850   1.554   3.714
 4729SOL     OW15085   5.605   1.273   1.984
 4729SOL    HW115086   5.515   1.230   1.988
 4729SOL    HW215087   5.627   1.313   2.073
 4730SOL     OW15088   4.004   0.833   3.298
 4730SOL    HW115089   4.014   0.833   3.398
 4730SOL    HW215090   3.960   0.748   3.269
 4731SOL     OW15091   3.060   0.005   1.202
 4731SOL    HW115092   2.968   0.002   1.242
 4731SOL    HW215093   3.053   0.022   1.104
 4732SOL     OW15094   6.961   4.863   5.048
 4732SOL    HW115095   6.861   4.865   5.043
 4732SOL    HW215096   6.995   4.782   4.999
 4733SOL     OW15097   1.618   4.054   2.403
 4733SOL    HW115098   1.563   4.017   2.478
 4733SOL    HW215099   1.598   4.005   2.319
 4734SOL     OW15100   4.609   4.036   0.048
 4734SOL    HW115101   4.610   3.964   7.002
 4734SOL    HW215102   4.685   4.022   0.111
 4735SOL     OW15103   0.049   0.665   4.673
 4735SOL    HW115104   0.135   0.660   4.622
 4735SOL    HW215105   0.023   0.573   4.702
 4736SOL     OW15106   6.191   1.308   4.091
 4736SOL    HW115107   6.127   1.368   4.043
 4736SOL    HW215108   6.284   1.327   4.060
 4737SOL     OW15109   2.369   5.017   0.591
 4737SOL    HW115110   2.428   4.987   0.516
 4737SOL    HW215111   2.318   4.938   0.627
 4738SOL     OW15112   0.625   5.654   4.312
 4738SOL    HW115113   0.582   5.737   4.276
 4738SOL    HW215114   0.554   5.587   4.335
 4739SOL     OW15115   5.958   3.584   3.353
 4739SOL    HW115116   5.900   3.554   3.277
 4739SOL    HW215117   6.038   3.526   3.358
 4740SOL     OW15118   1.590   6.536   0.506
 4740SOL    HW115119   1.630   6.592   0.578
 4740SOL    HW215120   1.496   6.511   0.531
 4741SOL     OW15121   5.490   4.783   0.941
 4741SOL    HW115122   5.393   4.776   0.965
 4741SOL    HW215123   5.500   4.788   0.842
 4742SOL     OW15124   2.798   5.435   2.407
 4742SOL    HW115125   2.822   5.343   2.437
 4742SOL    HW215126   2.876   5.477   2.361
 4743SOL     OW15127   2.409   3.689   0.794
 4743SOL    HW115128   2.491   3.745   0.782
 4743SOL    HW215129   2.433   3.606   0.845
 4744SOL     OW15130   2.675   1.735   5.329
 4744SOL    HW115131   2.760   1.785   5.313
 4744SOL    HW215132   2.611   1.752   5.254
 4745SOL     OW15133   4.238   5.603   4.810
 4745SOL    HW115134   4.304   5.675   4.791
 4745SOL    HW215135   4.200   5.568   4.724
 4746SOL     OW15136   5.500   0.933   1.375
 4746SOL    HW115137   5.526   1.015   1.323
 4746SOL    HW215138   5.582   0.883   1.402
 4747SOL     OW15139   0.694   2.846   2.390
 4747SOL    HW115140   0.786   2.860   2.353
 4747SOL    HW215141   0.627   2.849   2.317
 4748SOL     OW15142   2.059   0.433   0.813
 4748SOL    HW115143   2.138   0.379   0.842
 4748SOL    HW215144   2.065   0.452   0.715
 4749SOL     OW15145   3.375   0.377   0.418
 4749SOL    HW115146   3.289   0.394   0.370
 4749SOL    HW215147   3.360   0.310   0.491
 4750SOL     OW15148   0.956   1.689   4.440
 4750SOL    HW115149   0.870   1.727   4.474
 4750SOL    HW215150   0.939   1.598   4.402
 4751SOL     OW15151   1.087   3.421   6.161
 4751SOL    HW115152   1.158   3.473   6.115
 4751SOL    HW215153   1.123   3.332   6.190
 4752SOL     OW15154   2.554   5.811   1.414
 4752SOL    HW115155   2.603   5.796   1.499
 4752SOL    HW215156   2.594   5.888   1.365
 4753SOL     OW15157   0.319   0.181   6.153
 4753SOL    HW115158   0.296   0.165   6.249
 4753SOL    HW215159   0.401   0.129   6.129
 4754SOL     OW15160   0.618   0.858   5.895
 4754SOL    HW115161   0.597   0.953   5.875
 4754SOL    HW215162   0.716   0.849   5.915
 4755SOL     OW15163   2.751   0.277   2.000
 4755SOL    HW115164   2.742   0.179   2.014
 4755SOL    HW215165   2.778   0.321   2.086
 4756SOL     OW15166   5.627   2.297   1.483
 4756SOL    HW115167   5.609   2.234   1.558
 4756SOL    HW215168   5.614   2.250   1.396
 4757SOL     OW15169   2.583   1.875   1.041
 4757SOL    HW115170   2.561   1.888   1.138
 4757SOL    HW215171   2.679   1.897   1.025
 4758SOL     OW15172   5.841   3.424   5.959
 4758SOL    HW115173   5.877   3.506   6.004
 4758SOL    HW215174   5.761   3.391   6.009
 4759SOL     OW15175   5.993   3.960   6.552
 4759SOL    HW115176   6.071   4.020   6.536
 4759SOL    HW215177   5.923   4.010   6.603
 4760SOL     OW15178   2.462   2.709   0.558
 4760SOL    HW115179   2.510   2.765   0.624
 4760SOL    HW215180   2.528   2.660   0.501
 4761SOL     OW15181   1.749   5.625   6.179
 4761SOL    HW115182   1.665   5.574   6.166
 4761SOL    HW215183   1.770   5.677   6.096
 4762SOL     OW15184   3.714   6.797   2.345
 4762SOL    HW115185   3.658   6.869   2.386
 4762SOL    HW215186   3.674   6.769   2.258
 4763SOL     OW15187   5.752   5.588   5.368
 4763SOL    HW115188   5.678   5.645   5.403
 4763SOL    HW215189   5.832   5.645   5.349
 4764SOL     OW15190   3.992   3.085   4.140
 4764SOL    HW115191   4.061   3.155   4.125
 4764SOL    HW215192   4.021   3.023   4.214
 4765SOL     OW15193   6.319   5.440   6.191
 4765SOL    HW115194   6.228   5.462   6.158
 4765SOL    HW215195   6.387   5.462   6.121
 4766SOL     OW15196   3.615   0.671   3.262
 4766SOL    HW115197   3.517   0.679   3.243
 4766SOL    HW215198   3.650   0.760   3.291
 4767SOL     OW15199   4.057   6.842   6.870
 4767SOL    HW115200   3.986   6.789   6.823
 4767SOL    HW215201   4.099   6.906   6.806
 4768SOL     OW15202   1.585   0.713   5.171
 4768SOL    HW115203   1.556   0.702   5.076
 4768SOL    HW215204   1.641   0.635   5.199
 4769SOL     OW15205   4.517   0.973   2.032
 4769SOL    HW115206   4.460   0.913   1.975
 4769SOL    HW215207   4.476   1.065   2.034
 4770SOL     OW15208   2.090   0.747   4.156
 4770SOL    HW115209   2.079   0.728   4.058
 4770SOL    HW215210   2.003   0.778   4.193
 4771SOL     OW15211   4.156   4.140   5.380
 4771SOL    HW115212   4.183   4.233   5.353
 4771SOL    HW215213   4.204   4.115   5.464
 4772SOL     OW15214   2.488   2.945   0.245
 4772SOL    HW115215   2.426   3.018   0.276
 4772SOL    HW215216   2.449   2.901   0.164
 4773SOL     OW15217   0.419   5.052   4.590
 4773SOL    HW115218   0.379   5.088   4.506
 4773SOL    HW215219   0.346   5.039   4.658
 4774SOL     OW15220   1.567   4.054   6.917
 4774SOL    HW115221   1.570   3.954   6.908
 4774SOL    HW215222   1.498   4.091   6.856
 4775SOL     OW15223   1.935   2.046   1.990
 4775SOL    HW115224   1.862   2.103   2.028
 4775SOL    HW215225   2.023   2.077   2.024
 4776SOL     OW15226   4.218   4.627   2.394
 4776SOL    HW115227   4.157   4.551   2.372
 4776SOL    HW215228   4.291   4.595   2.454
 4777SOL     OW15229   2.456   3.780   1.714
 4777SOL    HW115230   2.514   3.860   1.719
 4777SOL    HW215231   2.419   3.771   1.621
 4778SOL     OW15232   5.010   3.566   2.862
 4778SOL    HW115233   4.956   3.588   2.780
 4778SOL    HW215234   5.079   3.498   2.839
 4779SOL     OW15235   4.838   1.181   2.803
 4779SOL    HW115236   4.837   1.224   2.893
 4779SOL    HW215237   4.744   1.166   2.773
 4780SOL     OW15238   1.949   0.913   5.446
 4780SOL    HW115239   2.004   0.936   5.527
 4780SOL    HW215240   2.009   0.885   5.372
 4781SOL     OW15241   2.019   5.589   2.886
 4781SOL    HW115242   1.964   5.667   2.856
 4781SOL    HW215243   2.077   5.558   2.810
 4782SOL     OW15244   6.112   5.808   0.041
 4782SOL    HW115245   6.031   5.843   0.088
 4782SOL    HW215246   6.130   5.864   6.984
 4783SOL     OW15247   6.043   4.160   3.112
 4783SOL    HW115248   6.141   4.140   3.107
 4783SOL    HW215249   5.996   4.083   3.154
 4784SOL     OW15250   5.299   4.517   5.168
 4784SOL    HW115251   5.264   4.566   5.247
 4784SOL    HW215252   5.394   4.492   5.184
 4785SOL     OW15253   5.942   6.774   0.375
 4785SOL    HW115254   5.996   6.752   0.457
 4785SOL    HW215255   5.997   6.829   0.313
 4786SOL     OW15256   1.296   3.246   2.414
 4786SOL    HW115257   1.236   3.246   2.334
 4786SOL    HW215258   1.391   3.234   2.384
 4787SOL     OW15259   4.360   2.052   3.144
 4787SOL    HW115260   4.330   1.998   3.065
 4787SOL    HW215261   4.335   2.148   3.129
 4788SOL     OW15262   2.476   6.774   4.851
 4788SOL    HW115263   2.455   6.751   4.756
 4788SOL    HW215264   2.575   6.780   4.862
 4789SOL     OW15265   5.190   6.316   0.486
 4789SOL    HW115266   5.118   6.300   0.554
 4789SOL    HW215267   5.267   6.363   0.529
 4790SOL     OW15268   5.542   6.881   6.722
 4790SOL    HW115269   5.538   6.824   6.640
 4790SOL    HW215270   5.499   6.833   6.798
 4791SOL     OW15271   5.119   2.076   3.663
 4791SOL    HW115272   5.052   2.038   3.600
 4791SOL    HW215273   5.208   2.032   3.647
 4792SOL     OW15274   2.898   2.486   1.096
 4792SOL    HW115275   2.976   2.523   1.146
 4792SOL    HW215276   2.823   2.468   1.159
 4793SOL     OW15277   0.613   0.008   6.781
 4793SOL    HW115278   0.578   0.096   6.813
 4793SOL    HW215279   0.607   0.005   6.681
 4794SOL     OW15280   5.066   1.363   1.871
 4794SOL    HW115281   5.067   1.402   1.779
 4794SOL    HW215282   5.100   1.269   1.868
 4795SOL     OW15283   6.326   3.231   4.255
 4795SOL    HW115284   6.307   3.155   4.317
 4795SOL    HW215285   6.269   3.222   4.173
 4796SOL     OW15286   5.551   3.529   0.779
 4796SOL    HW115287   5.636   3.577   0.802
 4796SOL    HW215288   5.473   3.586   0.805
 4797SOL     OW15289   0.926   5.008   4.511
 4797SOL    HW115290   0.899   5.073   4.440
 4797SOL    HW215291   0.857   5.006   4.583
 4798SOL     OW15292   6.652   5.171   5.849
 4798SOL    HW115293   6.568   5.225   5.850
 4798SOL    HW215294   6.720   5.214   5.909
 4799SOL     OW15295   4.645   1.298   4.661
 4799SOL    HW115296   4.676   1.209   4.629
 4799SOL    HW215297   4.716   1.340   4.717
 4800SOL     OW15298   1.846   3.071   3.962
 4800SOL    HW115299   1.806   2.989   4.003
 4800SOL    HW215300   1.805   3.153   4.003
 4801SOL     OW15301   0.506   2.840   0.640
 4801SOL    HW115302   0.457   2.890   0.711
 4801SOL    HW215303   0.499   2.889   0.553
 4802SOL     OW15304   2.146   0.297   2.011
 4802SOL    HW115305   2.110   0.208   1.983
 4802SOL    HW215306   2.073   0.351   2.053
 4803SOL     OW15307   1.479   0.670   0.928
 4803SOL    HW115308   1.535   0.708   1.002
 4803SOL    HW215309   1.462   0.741   0.860
 4804SOL     OW15310   4.358   5.817   6.925
 4804SOL    HW115311   4.418   5.762   6.983
 4804SOL    HW215312   4.359   5.912   6.955
 4805SOL     OW15313   0.258   0.475   1.299
 4805SOL    HW115314   0.214   0.387   1.315
 4805SOL    HW215315   0.319   0.468   1.220
 4806SOL     OW15316   0.087   2.422   3.876
 4806SOL    HW115317   0.101   2.495   3.944
 4806SOL    HW215318   0.175   2.390   3.843
 4807SOL     OW15319   1.032   6.689   2.253
 4807SOL    HW115320   1.031   6.602   2.302
 4807SOL    HW215321   1.061   6.674   2.158
 4808SOL     OW15322   5.427   2.847   0.436
 4808SOL    HW115323   5.344   2.901   0.452
 4808SOL    HW215324   5.465   2.817   0.523
 4809SOL     OW15325   4.616   6.591   0.434
 4809SOL    HW115326   4.652   6.685   0.437
 4809SOL    HW215327   4.527   6.590   0.389
 4810SOL     OW15328   1.787   6.597   1.161
 4810SOL    HW115329   1.782   6.528   1.233
 4810SOL    HW215330   1.864   6.659   1.180
 4811SOL     OW15331   5.383   4.164   3.528
 4811SOL    HW115332   5.299   4.200   3.489
 4811SOL    HW215333   5.365   4.126   3.619
 4812SOL     OW15334   5.884   4.843   4.120
 4812SOL    HW115335   5.960   4.824   4.182
 4812SOL    HW215336   5.823   4.764   4.118
 4813SOL     OW15337   5.866   3.230   3.126
 4813SOL    HW115338   5.770   3.213   3.106
 4813SOL    HW215339   5.923   3.185   3.058
 4814SOL     OW15340   6.371   3.109   1.017
 4814SOL    HW115341   6.298   3.056   1.061
 4814SOL    HW215342   6.348   3.206   1.022
 4815SOL     OW15343   4.879   0.965   3.088
 4815SOL    HW115344   4.953   1.015   3.134
 4815SOL    HW215345   4.791   1.002   3.118
 4816SOL     OW15346   5.100   5.027   3.356
 4816SOL    HW115347   5.163   5.003   3.283
 4816SOL    HW215348   5.100   4.954   3.425
 4817SOL     OW15349   6.430   1.674   0.336
 4817SOL    HW115350   6.353   1.622   0.372
 4817SOL    HW215351   6.404   1.770   0.328
 4818SOL     OW15352   0.355   5.878   3.666
 4818SOL    HW115353   0.433   5.922   3.711
 4818SOL    HW215354   0.347   5.913   3.572
 4819SOL     OW15355   2.425   3.209   0.822
 4819SOL    HW115356   2.442   3.164   0.735
 4819SOL    HW215357   2.354   3.279   0.810
 4820SOL     OW15358   0.208   3.369   2.692
 4820SOL    HW115359   0.182   3.277   2.722
 4820SOL    HW215360   0.308   3.377   2.693
 4821SOL     OW15361   0.554   5.997   3.812
 4821SOL    HW115362   0.643   5.981   3.855
 4821SOL    HW215363   0.491   6.036   3.879
 4822SOL     OW15364   2.514   4.866   4.407
 4822SOL    HW115365   2.588   4.819   4.358
 4822SOL    HW215366   2.554   4.925   4.478
 4823SOL     OW15367   2.045   2.934   0.697
 4823SOL    HW115368   1.973   2.999   0.674
 4823SOL    HW215369   2.079   2.953   0.789
 4824SOL     OW15370   6.201   1.774   0.694
 4824SOL    HW115371   6.152   1.723   0.765
 4824SOL    HW215372   6.260   1.712   0.643
 4825SOL     OW15373   1.323   6.808   4.000
 4825SOL    HW115374   1.265   6.729   3.981
 4825SOL    HW215375   1.341   6.857   3.915
 4826SOL     OW15376   4.206   6.426   0.917
 4826SOL    HW115377   4.223   6.418   0.819
 4826SOL    HW215378   4.127   6.370   0.942
 4827SOL     OW15379   6.129   1.161   1.092
 4827SOL    HW115380   6.200   1.193   1.154
 4827SOL    HW215381   6.170   1.136   1.004
 4828SOL     OW15382   5.154   0.885   5.816
 4828SOL    HW115383   5.248   0.917   5.814
 4828SOL    HW215384   5.148   0.802   5.871
 4829SOL     OW15385   4.218   6.387   5.335
 4829SOL    HW115386   4.211   6.300   5.286
 4829SOL    HW215387   4.176   6.377   5.426
 4830SOL     OW15388   1.883   6.872   3.642
 4830SOL    HW115389   1.920   6.828   3.724
 4830SOL    HW215390   1.821   6.946   3.669
 4831SOL     OW15391   3.900   4.673   5.700
 4831SOL    HW115392   3.860   4.762   5.726
 4831SOL    HW215393   3.827   4.611   5.673
 4832SOL     OW15394   4.179   3.673   5.038
 4832SOL    HW115395   4.121   3.602   4.998
 4832SOL    HW215396   4.231   3.718   4.966
 4833SOL     OW15397   6.134   2.439   5.580
 4833SOL    HW115398   6.084   2.523   5.598
 4833SOL    HW215399   6.215   2.460   5.525
 4834SOL     OW15400   0.314   5.629   1.537
 4834SOL    HW115401   0.379   5.604   1.466
 4834SOL    HW215402   0.339   5.717   1.576
 4835SOL     OW15403   0.175   3.441   6.230
 4835SOL    HW115404   0.247   3.385   6.188
 4835SOL    HW215405   0.217   3.504   6.295
 4836SOL     OW15406   4.323   2.117   5.563
 4836SOL    HW115407   4.355   2.077   5.649
 4836SOL    HW215408   4.265   2.196   5.583
 4837SOL     OW15409   1.026   3.425   4.520
 4837SOL    HW115410   1.004   3.518   4.551
 4837SOL    HW215411   1.016   3.361   4.596
 4838SOL     OW15412   1.579   3.925   5.981
 4838SOL    HW115413   1.557   4.018   5.950
 4838SOL    HW215414   1.638   3.881   5.913
 4839SOL     OW15415   2.630   1.459   2.015
 4839SOL    HW115416   2.576   1.387   1.971
 4839SOL    HW215417   2.639   1.439   2.112
 4840SOL     OW15418   4.942   2.855   5.042
 4840SOL    HW115419   4.873   2.925   5.062
 4840SOL    HW215420   4.914   2.768   5.082
 4841SOL     OW15421   3.002   6.176   3.135
 4841SOL    HW115422   2.926   6.129   3.178
 4841SOL    HW215423   2.969   6.226   3.055
 4842SOL     OW15424   4.202   6.096   3.804
 4842SOL    HW115425   4.262   6.080   3.883
 4842SOL    HW215426   4.134   6.023   3.799
 4843SOL     OW15427   6.243   1.301   1.305
 4843SOL    HW115428   6.215   1.394   1.281
 4843SOL    HW215429   6.335   1.304   1.345
 4844SOL     OW15430   1.717   4.662   6.794
 4844SOL    HW115431   1.654   4.705   6.730
 4844SOL    HW215432   1.752   4.731   6.857
 4845SOL     OW15433   4.954   3.873   4.990
 4845SOL    HW115434   4.952   3.918   4.900
 4845SOL    HW215435   4.921   3.779   4.981
 4846SOL     OW15436   6.648   3.846   4.904
 4846SOL    HW115437   6.682   3.900   4.827
 4846SOL    HW215438   6.692   3.876   4.988
 4847SOL     OW15439   3.549   6.778   0.182
 4847SOL    HW115440   3.484   6.748   0.252
 4847SOL    HW215441   3.626   6.824   0.226
 4848SOL     OW15442   4.877   1.722   3.994
 4848SOL    HW115443   4.966   1.701   3.955
 4848SOL    HW215444   4.862   1.821   3.991
 4849SOL     OW15445   1.881   6.161   1.898
 4849SOL    HW115446   1.950   6.233   1.897
 4849SOL    HW215447   1.823   6.173   1.979
 4850SOL     OW15448   3.301   6.404   1.863
 4850SOL    HW115449   3.230   6.364   1.805
 4850SOL    HW215450   3.263   6.479   1.916
 4851SOL     OW15451   4.193   4.747   0.116
 4851SOL    HW115452   4.256   4.798   0.057
 4851SOL    HW215453   4.127   4.697   0.059
 4852SOL     OW15454   4.982   4.276   5.887
 4852SOL    HW115455   4.935   4.233   5.810
 4852SOL    HW215456   4.984   4.375   5.873
 4853SOL     OW15457   4.114   0.418   2.835
 4853SOL    HW115458   4.198   0.385   2.792
 4853SOL    HW215459   4.036   0.396   2.776
 4854SOL     OW15460   4.337   6.765   2.268
 4854SOL    HW115461   4.375   6.673   2.277
 4854SOL    HW215462   4.238   6.762   2.279
 4855SOL     OW15463   4.834   5.036   5.928
 4855SOL    HW115464   4.917   5.028   5.873
 4855SOL    HW215465   4.830   5.127   5.969
 4856SOL     OW15466   0.629   2.606   2.858
 4856SOL    HW115467   0.654   2.693   2.816
 4856SOL    HW215468   0.639   2.612   2.957
 4857SOL     OW15469   1.673   2.069   5.598
 4857SOL    HW115470   1.671   2.169   5.604
 4857SOL    HW215471   1.589   2.031   5.638
 4858SOL     OW15472   1.692   5.530   4.869
 4858SOL    HW115473   1.773   5.498   4.820
 4858SOL    HW215474   1.611   5.520   4.810
 4859SOL     OW15475   6.610   5.238   3.186
 4859SOL    HW115476   6.586   5.156   3.134
 4859SOL    HW215477   6.532   5.265   3.243
 4860SOL     OW15478   4.075   5.386   1.575
 4860SOL    HW115479   4.120   5.350   1.656
 4860SOL    HW215480   4.028   5.312   1.527
 4861SOL     OW15481   6.442   4.696   5.462
 4861SOL    HW115482   6.395   4.768   5.410
 4861SOL    HW215483   6.388   4.674   5.543
 4862SOL     OW15484   1.951   5.917   4.356
 4862SOL    HW115485   2.016   5.842   4.373
 4862SOL    HW215486   1.867   5.880   4.316
 4863SOL     OW15487   5.798   1.404   2.172
 4863SOL    HW115488   5.864   1.464   2.127
 4863SOL    HW215489   5.740   1.458   2.234
 4864SOL     OW15490   1.925   2.872   1.555
 4864SOL    HW115491   1.925   2.970   1.575
 4864SOL    HW215492   1.836   2.845   1.519
 4865SOL     OW15493   3.656   6.600   5.214
 4865SOL    HW115494   3.622   6.661   5.143
 4865SOL    HW215495   3.754   6.614   5.226
 4866SOL     OW15496   0.298   5.403   1.689
 4866SOL    HW115497   0.307   5.403   1.788
 4866SOL    HW215498   0.302   5.497   1.655
 4867SOL     OW15499   5.712   5.012   5.182
 4867SOL    HW115500   5.789   5.076   5.192
 4867SOL    HW215501   5.746   4.918   5.186
 4868SOL     OW15502   1.790   5.906   1.796
 4868SOL    HW115503   1.860   5.978   1.796
 4868SOL    HW215504   1.792   5.860   1.885
 4869SOL     OW15505   6.704   1.214   1.921
 4869SOL    HW115506   6.741   1.130   1.881
 4869SOL    HW215507   6.606   1.202   1.937
 4870SOL     OW15508   6.484   0.701   0.987
 4870SOL    HW115509   6.397   0.741   1.017
 4870SOL    HW215510   6.491   0.607   1.021
 4871SOL     OW15511   1.720   3.515   4.339
 4871SOL    HW115512   1.767   3.472   4.415
 4871SOL    HW215513   1.763   3.603   4.319
 4872SOL     OW15514   1.535   2.029   3.125
 4872SOL    HW115515   1.485   1.943   3.109
 4872SOL    HW215516   1.469   2.103   3.135
 4873SOL     OW15517   0.939   6.538   5.134
 4873SOL    HW115518   0.994   6.594   5.072
 4873SOL    HW215519   0.945   6.442   5.107
 4874SOL     OW15520   6.256   2.430   3.818
 4874SOL    HW115521   6.321   2.393   3.886
 4874SOL    HW215522   6.263   2.376   3.734
 4875SOL     OW15523   0.200   2.810   6.599
 4875SOL    HW115524   0.249   2.726   6.579
 4875SOL    HW215525   0.228   2.845   6.689
 4876SOL     OW15526   6.194   1.336   6.833
 4876SOL    HW115527   6.279   1.341   6.779
 4876SOL    HW215528   6.207   1.273   6.909
 4877SOL     OW15529   4.970   2.316   1.519
 4877SOL    HW115530   4.901   2.299   1.590
 4877SOL    HW215531   4.985   2.232   1.467
 4878SOL     OW15532   0.980   3.095   1.558
 4878SOL    HW115533   0.959   3.178   1.507
 4878SOL    HW215534   1.079   3.085   1.567
 4879SOL     OW15535   3.904   6.047   3.904
 4879SOL    HW115536   3.964   6.087   3.973
 4879SOL    HW215537   3.953   6.043   3.816
 4880SOL     OW15538   6.068   1.772   5.594
 4880SOL    HW115539   6.137   1.704   5.571
 4880SOL    HW215540   6.093   1.818   5.679
 4881SOL     OW15541   2.375   5.818   5.947
 4881SOL    HW115542   2.353   5.720   5.945
 4881SOL    HW215543   2.303   5.867   5.995
 4882SOL     OW15544   5.262   5.872   6.653
 4882SOL    HW115545   5.301   5.959   6.624
 4882SOL    HW215546   5.186   5.888   6.715
 4883SOL     OW15547   6.072   5.254   6.647
 4883SOL    HW115548   6.062   5.188   6.573
 4883SOL    HW215549   6.082   5.346   6.610
 4884SOL     OW15550   3.818   6.560   1.904
 4884SOL    HW115551   3.743   6.578   1.841
 4884SOL    HW215552   3.905   6.591   1.864
 4885SOL     OW15553   1.565   0.605   1.837
 4885SOL    HW115554   1.488   0.553   1.875
 4885SOL    HW215555   1.641   0.604   1.901
 4886SOL     OW15556   6.258   0.692   5.575
 4886SOL    HW115557   6.169   0.715   5.613
 4886SOL    HW215558   6.299   0.618   5.628
 4887SOL     OW15559   0.893   1.656   5.183
 4887SOL    HW115560   0.894   1.753   5.161
 4887SOL    HW215561   0.863   1.643   5.277
 4888SOL     OW15562   3.760   6.304   1.553
 4888SOL    HW115563   3.779   6.323   1.650
 4888SOL    HW215564   3.802   6.217   1.528
 4889SOL     OW15565   1.430   3.012   7.006
 4889SOL    HW115566   1.396   3.049   6.920
 4889SOL    HW215567   1.356   3.013   0.050
 4890SOL     OW15568   0.448   0.370   4.261
 4890SOL    HW115569   0.379   0.442   4.274
 4890SOL    HW215570   0.472   0.331   4.350
 4891SOL     OW15571   1.106   4.363   0.393
 4891SOL    HW115572   1.010   4.371   0.369
 4891SOL    HW215573   1.115   4.352   0.492
 4892SOL     OW15574   2.015   5.607   2.433
 4892SOL    HW115575   2.057   5.549   2.363
 4892SOL    HW215576   1.963   5.680   2.390
 4893SOL     OW15577   0.458   3.580   5.984
 4893SOL    HW115578   0.474   3.486   6.013
 4893SOL    HW215579   0.359   3.597   5.978
 4894SOL     OW15580   0.658   6.734   3.504
 4894SOL    HW115581   0.740   6.790   3.508
 4894SOL    HW215582   0.653   6.689   3.415
 4895SOL     OW15583   6.349   3.911   6.705
 4895SOL    HW115584   6.429   3.880   6.756
 4895SOL    HW215585   6.267   3.899   6.761
 4896SOL     OW15586   4.159   6.835   4.444
 4896SOL    HW115587   4.180   6.869   4.352
 4896SOL    HW215588   4.070   6.871   4.473
 4897SOL     OW15589   2.694   6.307   6.637
 4897SOL    HW115590   2.779   6.256   6.650
 4897SOL    HW215591   2.684   6.331   6.540
 4898SOL     OW15592   5.677   2.526   4.809
 4898SOL    HW115593   5.623   2.452   4.767
 4898SOL    HW215594   5.764   2.534   4.760
 4899SOL     OW15595   5.769   4.192   4.409
 4899SOL    HW115596   5.756   4.137   4.326
 4899SOL    HW215597   5.817   4.277   4.386
 4900SOL     OW15598   0.849   6.807   4.874
 4900SOL    HW115599   0.810   6.719   4.903
 4900SOL    HW215600   0.816   6.880   4.933
 4901SOL     OW15601   6.424   6.409   3.142
 4901SOL    HW115602   6.338   6.458   3.132
 4901SOL    HW215603   6.468   6.400   3.052
 4902SOL     OW15604   3.725   5.068   0.835
 4902SOL    HW115605   3.815   5.034   0.808
 4902SOL    HW215606   3.730   5.109   0.926
 4903SOL     OW15607   6.325   5.050   5.933
 4903SOL    HW115608   6.408   4.994   5.924
 4903SOL    HW215609   6.281   5.030   6.020
 4904SOL     OW15610   2.462   0.684   3.341
 4904SOL    HW115611   2.497   0.682   3.247
 4904SOL    HW215612   2.459   0.591   3.377
 4905SOL     OW15613   6.682   3.565   3.206
 4905SOL    HW115614   6.662   3.536   3.113
 4905SOL    HW215615   6.684   3.665   3.211
 4906SOL     OW15616   5.205   0.414   1.449
 4906SOL    HW115617   5.305   0.416   1.459
 4906SOL    HW215618   5.167   0.345   1.511
 4907SOL     OW15619   2.771   2.133   1.545
 4907SOL    HW115620   2.771   2.230   1.567
 4907SOL    HW215621   2.834   2.116   1.469
 4908SOL     OW15622   4.504   5.996   0.444
 4908SOL    HW115623   4.532   6.092   0.453
 4908SOL    HW215624   4.549   5.955   0.365
 4909SOL     OW15625   6.196   6.717   5.827
 4909SOL    HW115626   6.278   6.710   5.883
 4909SOL    HW215627   6.221   6.739   5.733
 4910SOL     OW15628   5.097   6.384   5.982
 4910SOL    HW115629   5.107   6.303   6.039
 4910SOL    HW215630   5.070   6.462   6.038
 4911SOL     OW15631   0.462   3.905   6.550
 4911SOL    HW115632   0.395   3.870   6.615
 4911SOL    HW215633   0.550   3.915   6.595
 4912SOL     OW15634   2.429   2.688   1.366
 4912SOL    HW115635   2.354   2.633   1.332
 4912SOL    HW215636   2.404   2.785   1.362
 4913SOL     OW15637   2.543   2.987   1.716
 4913SOL    HW115638   2.485   2.913   1.750
 4913SOL    HW215639   2.563   2.972   1.619
 4914SOL     OW15640   1.668   6.651   2.567
 4914SOL    HW115641   1.626   6.731   2.525
 4914SOL    HW215642   1.752   6.627   2.517
 4915SOL     OW15643   3.605   6.567   3.670
 4915SOL    HW115644   3.583   6.523   3.583
 4915SOL    HW215645   3.703   6.558   3.687
 4916SOL     OW15646   1.173   1.636   1.869
 4916SOL    HW115647   1.186   1.602   1.775
 4916SOL    HW215648   1.221   1.575   1.932
 4917SOL     OW15649   1.667   3.586   6.444
 4917SOL    HW115650   1.632   3.650   6.375
 4917SOL    HW215651   1.755   3.619   6.478
 4918SOL     OW15652   2.275   0.351   3.788
 4918SOL    HW115653   2.223   0.376   3.707
 4918SOL    HW215654   2.250   0.259   3.817
 4919SOL     OW15655   2.427   3.230   1.612
 4919SOL    HW115656   2.475   3.314   1.638
 4919SOL    HW215657   2.469   3.152   1.660
 4920SOL     OW15658   3.229   0.854   0.261
 4920SOL    HW115659   3.212   0.759   0.235
 4920SOL    HW215660   3.274   0.856   0.350
 4921SOL     OW15661   6.658   4.858   2.034
 4921SOL    HW115662   6.651   4.957   2.032
 4921SOL    HW215663   6.581   4.820   2.085
 4922SOL     OW15664   0.847   2.837   5.784
 4922SOL    HW115665   0.802   2.915   5.741
 4922SOL    HW215666   0.778   2.769   5.809
 4923SOL     OW15667   2.581   2.115   6.629
 4923SOL    HW115668   2.668   2.120   6.580
 4923SOL    HW215669   2.510   2.079   6.567
 4924SOL     OW15670   0.540   3.059   4.140
 4924SOL    HW115671   0.541   3.077   4.238
 4924SOL    HW215672   0.595   3.127   4.092
 4925SOL     OW15673   4.720   5.359   5.489
 4925SOL    HW115674   4.709   5.302   5.407
 4925SOL    HW215675   4.807   5.337   5.533
 4926SOL     OW15676   4.469   3.310   0.581
 4926SOL    HW115677   4.410   3.377   0.536
 4926SOL    HW215678   4.469   3.326   0.680
 4927SOL     OW15679   3.098   4.058   2.181
 4927SOL    HW115680   3.026   4.126   2.164
 4927SOL    HW215681   3.146   4.081   2.266
 4928SOL     OW15682   0.534   0.613   0.063
 4928SOL    HW115683   0.467   0.687   0.060
 4928SOL    HW215684   0.604   0.634   0.131
 4929SOL     OW15685   1.247   4.740   4.428
 4929SOL    HW115686   1.319   4.707   4.490
 4929SOL    HW215687   1.162   4.752   4.480
 4930SOL     OW15688   0.393   3.261   0.500
 4930SOL    HW115689   0.320   3.325   0.477
 4930SOL    HW215690   0.353   3.170   0.516
 4931SOL     OW15691   5.688   6.742   1.377
 4931SOL    HW115692   5.757   6.691   1.324
 4931SOL    HW215693   5.671   6.830   1.333
 4932SOL     OW15694   3.513   1.678   1.083
 4932SOL    HW115695   3.517   1.617   1.161
 4932SOL    HW215696   3.418   1.691   1.054
 4933SOL     OW15697   3.059   0.113   4.731
 4933SOL    HW115698   3.111   0.045   4.782
 4933SOL    HW215699   2.979   0.069   4.689
 4934SOL     OW15700   2.001   5.902   5.291
 4934SOL    HW115701   1.982   5.970   5.220
 4934SOL    HW215702   2.012   5.948   5.379
 4935SOL     OW15703   1.990   2.328   0.898
 4935SOL    HW115704   2.019   2.333   0.993
 4935SOL    HW215705   1.894   2.354   0.891
 4936SOL     OW15706   6.052   4.205   1.445
 4936SOL    HW115707   5.996   4.127   1.416
 4936SOL    HW215708   6.054   4.209   1.545
 4937SOL     OW15709   0.646   3.259   4.554
 4937SOL    HW115710   0.600   3.304   4.631
 4937SOL    HW215711   0.651   3.321   4.477
 4938SOL     OW15712   3.550   4.334   1.379
 4938SOL    HW115713   3.523   4.413   1.325
 4938SOL    HW215714   3.514   4.344   1.472
 4939SOL     OW15715   1.445   1.097   1.336
 4939SOL    HW115716   1.474   1.022   1.395
 4939SOL    HW215717   1.361   1.137   1.373
 4940SOL     OW15718   0.998   1.774   5.541
 4940SOL    HW115719   0.951   1.860   5.521
 4940SOL    HW215720   0.945   1.698   5.505
 4941SOL     OW15721   4.065   2.026   5.507
 4941SOL    HW115722   4.036   1.940   5.550
 4941SOL    HW215723   4.162   2.041   5.523
 4942SOL     OW15724   6.691   0.965   2.951
 4942SOL    HW115725   6.751   0.920   2.884
 4942SOL    HW215726   6.626   1.024   2.903
 4943SOL     OW15727   4.474   2.307   6.596
 4943SOL    HW115728   4.493   2.380   6.662
 4943SOL    HW215729   4.532   2.318   6.516
 4944SOL     OW15730   1.144   4.939   0.608
 4944SOL    HW115731   1.232   4.891   0.608
 4944SOL    HW215732   1.156   5.030   0.648
 4945SOL     OW15733   2.980   0.676   5.416
 4945SOL    HW115734   2.915   0.604   5.440
 4945SOL    HW215735   3.021   0.655   5.327
 4946SOL     OW15736   2.951   6.174   0.472
 4946SOL    HW115737   2.866   6.135   0.509
 4946SOL    HW215738   3.007   6.209   0.547
 4947SOL     OW15739   1.055   0.227   1.281
 4947SOL    HW115740   0.976   0.274   1.322
 4947SOL    HW215741   1.135   0.239   1.340
 4948SOL     OW15742   1.361   2.525   2.219
 4948SOL    HW115743   1.317   2.459   2.279
 4948SOL    HW215744   1.406   2.477   2.144
 4949SOL     OW15745   6.339   4.429   5.626
 4949SOL    HW115746   6.365   4.370   5.703
 4949SOL    HW215747   6.359   4.525   5.650
 4950SOL     OW15748   3.893   4.197   5.234
 4950SOL    HW115749   3.966   4.184   5.302
 4950SOL    HW215750   3.809   4.225   5.281
 4951SOL     OW15751   4.669   5.109   3.282
 4951SOL    HW115752   4.643   5.145   3.371
 4951SOL    HW215753   4.721   5.025   3.294
 4952SOL     OW15754   0.861   0.907   6.802
 4952SOL    HW115755   0.887   1.000   6.830
 4952SOL    HW215756   0.898   0.888   6.711
 4953SOL     OW15757   1.426   1.976   5.688
 4953SOL    HW115758   1.404   1.967   5.786
 4953SOL    HW215759   1.382   1.902   5.637
 4954SOL     OW15760   3.190   3.688   5.340
 4954SOL    HW115761   3.213   3.667   5.245
 4954SOL    HW215762   3.095   3.720   5.344
 4955SOL     OW15763   4.207   5.735   0.328
 4955SOL    HW115764   4.224   5.653   0.382
 4955SOL    HW215765   4.222   5.816   0.385
 4956SOL     OW15766   2.727   0.448   4.929
 4956SOL    HW115767   2.821   0.414   4.916
 4956SOL    HW215768   2.705   0.447   5.027
 4957SOL     OW15769   5.772   5.354   0.095
 4957SOL    HW115770   5.772   5.301   0.010
 4957SOL    HW215771   5.699   5.320   0.154
 4958SOL     OW15772   3.399   5.672   6.940
 4958SOL    HW115773   3.313   5.669   6.991
 4958SOL    HW215774   3.455   5.747   6.975
 4959SOL     OW15775   6.762   2.543   2.934
 4959SOL    HW115776   6.830   2.555   2.861
 4959SOL    HW215777   6.683   2.494   2.897
 4960SOL     OW15778   5.145   4.297   4.046
 4960SOL    HW115779   5.138   4.239   4.127
 4960SOL    HW215780   5.241   4.318   4.028
 4961SOL     OW15781   3.582   2.832   2.277
 4961SOL    HW115782   3.593   2.736   2.305
 4961SOL    HW215783   3.517   2.877   2.338
 4962SOL     OW15784   1.655   2.529   0.025
 4962SOL    HW115785   1.623   2.620   7.023
 4962SOL    HW215786   1.585   2.484   0.080
 4963SOL     OW15787   0.388   4.318   6.169
 4963SOL    HW115788   0.351   4.259   6.240
 4963SOL    HW215789   0.458   4.269   6.118
 4964SOL     OW15790   1.658   4.859   3.954
 4964SOL    HW115791   1.729   4.922   3.922
 4964SOL    HW215792   1.693   4.765   3.952
 4965SOL     OW15793   2.258   6.919   3.115
 4965SOL    HW115794   2.271   6.822   3.134
 4965SOL    HW215795   2.167   6.947   3.143
 4966SOL     OW15796   4.428   0.127   4.900
 4966SOL    HW115797   4.431   0.224   4.927
 4966SOL    HW215798   4.424   0.121   4.800
 4967SOL     OW15799   4.607   4.328   4.164
 4967SOL    HW115800   4.650   4.315   4.253
 4967SOL    HW215801   4.641   4.258   4.101
 4968SOL     OW15802   6.698   3.191   4.406
 4968SOL    HW115803   6.686   3.117   4.340
 4968SOL    HW215804   6.795   3.202   4.426
 4969SOL     OW15805   0.442   5.821   4.615
 4969SOL    HW115806   0.381   5.855   4.544
 4969SOL    HW215807   0.393   5.817   4.702
 4970SOL     OW15808   2.315   1.496   1.616
 4970SOL    HW115809   2.252   1.478   1.692
 4970SOL    HW215810   2.264   1.488   1.529
 4971SOL     OW15811   0.120   5.584   1.236
 4971SOL    HW115812   0.099   5.608   1.331
 4971SOL    HW215813   0.127   5.484   1.229
 4972SOL     OW15814   0.303   4.216   6.899
 4972SOL    HW115815   0.327   4.217   6.802
 4972SOL    HW215816   0.224   4.275   6.914
 4973SOL     OW15817   5.564   1.965   6.781
 4973SOL    HW115818   5.489   1.906   6.749
 4973SOL    HW215819   5.652   1.923   6.758
 4974SOL     OW15820   3.605   7.009   5.629
 4974SOL    HW115821   3.511   0.014   5.611
 4974SOL    HW215822   3.647   0.049   5.693
 4975SOL     OW15823   5.695   3.912   1.564
 4975SOL    HW115824   5.598   3.899   1.585
 4975SOL    HW215825   5.739   3.964   1.637
 4976SOL     OW15826   0.463   0.276   3.787
 4976SOL    HW115827   0.513   0.190   3.779
 4976SOL    HW215828   0.501   0.330   3.862
 4977SOL     OW15829   1.480   3.842   5.400
 4977SOL    HW115830   1.487   3.780   5.478
 4977SOL    HW215831   1.505   3.934   5.429
 4978SOL     OW15832   6.133   4.933   4.485
 4978SOL    HW115833   6.219   4.958   4.440
 4978SOL    HW215834   6.151   4.914   4.582
 4979SOL     OW15835   2.813   6.820   6.456
 4979SOL    HW115836   2.743   6.753   6.482
 4979SOL    HW215837   2.904   6.777   6.460
 4980SOL     OW15838   6.088   3.158   4.124
 4980SOL    HW115839   6.008   3.184   4.177
 4980SOL    HW215840   6.110   3.230   4.060
 4981SOL     OW15841   3.611   6.140   3.618
 4981SOL    HW115842   3.606   6.171   3.713
 4981SOL    HW215843   3.543   6.068   3.603
 4982SOL     OW15844   4.120   2.007   4.797
 4982SOL    HW115845   4.067   1.991   4.713
 4982SOL    HW215846   4.084   1.949   4.870
 4983SOL     OW15847   6.357   3.397   3.016
 4983SOL    HW115848   6.366   3.388   2.917
 4983SOL    HW215849   6.362   3.494   3.040
 4984SOL     OW15850   4.899   3.531   4.719
 4984SOL    HW115851   4.901   3.431   4.711
 4984SOL    HW215852   4.862   3.557   4.808
 4985SOL     OW15853   5.661   0.653   2.260
 4985SOL    HW115854   5.618   0.621   2.345
 4985SOL    HW215855   5.752   0.688   2.280
 4986SOL     OW15856   1.570   5.186   1.428
 4986SOL    HW115857   1.544   5.112   1.366
 4986SOL    HW215858   1.499   5.200   1.496
 4987SOL     OW15859   2.088   3.000   2.581
 4987SOL    HW115860   2.162   3.006   2.514
 4987SOL    HW215861   2.117   3.045   2.666
 4988SOL     OW15862   6.273   5.551   4.209
 4988SOL    HW115863   6.183   5.577   4.173
 4988SOL    HW215864   6.340   5.620   4.182
 4989SOL     OW15865   6.762   0.010   3.422
 4989SOL    HW115866   6.753   6.941   3.457
 4989SOL    HW215867   6.778   0.073   3.497
 4990SOL     OW15868   4.754   1.585   6.635
 4990SOL    HW115869   4.841   1.540   6.613
 4990SOL    HW215870   4.761   1.682   6.613
 4991SOL     OW15871   1.831   5.915   6.293
 4991SOL    HW115872   1.785   5.943   6.209
 4991SOL    HW215873   1.791   5.965   6.371
 4992SOL     OW15874   1.479   3.783   4.133
 4992SOL    HW115875   1.533   3.744   4.207
 4992SOL    HW215876   1.383   3.784   4.159
 4993SOL     OW15877   2.189   6.551   3.797
 4993SOL    HW115878   2.127   6.475   3.777
 4993SOL    HW215879   2.277   6.515   3.827
 4994SOL     OW15880   3.035   5.312   5.518
 4994SOL    HW115881   3.002   5.405   5.504
 4994SOL    HW215882   3.124   5.301   5.475
 4995SOL     OW15883   0.472   0.990   6.164
 4995SOL    HW115884   0.502   0.964   6.256
 4995SOL    HW215885   0.459   0.908   6.109
 4996SOL     OW15886   6.901   0.770   3.730
 4996SOL    HW115887   6.924   0.676   3.756
 4996SOL    HW215888   6.896   0.776   3.630
 4997SOL     OW15889   4.274   1.548   0.499
 4997SOL    HW115890   4.302   1.475   0.437
 4997SOL    HW215891   4.343   1.559   0.570
 4998SOL     OW15892   0.961   4.112   3.549
 4998SOL    HW115893   1.049   4.154   3.526
 4998SOL    HW215894   0.887   4.168   3.512
 4999SOL     OW15895   0.734   3.229   4.020
 4999SOL    HW115896   0.826   3.246   4.054
 4999SOL    HW215897   0.715   3.289   3.942
 5000SOL     OW15898   2.690   6.740   3.187
 5000SOL    HW115899   2.627   6.664   3.172
 5000SOL    HW215900   2.666   6.816   3.126
 5001SOL     OW15901   0.527   5.719   3.254
 5001SOL    HW115902   0.518   5.620   3.261
 5001SOL    HW215903   0.548   5.757   3.344
 5002SOL     OW15904   1.556   4.987   3.508
 5002SOL    HW115905   1.519   5.023   3.422
 5002SOL    HW215906   1.638   4.934   3.490
 5003SOL     OW15907   3.413   0.598   1.947
 5003SOL    HW115908   3.412   0.507   1.906
 5003SOL    HW215909   3.321   0.638   1.943
 5004SOL     OW15910   3.996   5.970   0.619
 5004SOL    HW115911   4.013   5.960   0.717
 5004SOL    HW215912   4.081   5.961   0.569
 5005SOL     OW15913   3.330   2.998   0.759
 5005SOL    HW115914   3.321   2.919   0.698
 5005SOL    HW215915   3.290   2.976   0.848
 5006SOL     OW15916   5.163   0.471   2.191
 5006SOL    HW115917   5.211   0.517   2.266
 5006SOL    HW215918   5.092   0.533   2.156
 5007SOL     OW15919   6.235   5.523   2.374
 5007SOL    HW115920   6.304   5.570   2.318
 5007SOL    HW215921   6.259   5.427   2.383
 5008SOL     OW15922   5.028   0.101   3.599
 5008SOL    HW115923   5.107   0.096   3.538
 5008SOL    HW215924   5.045   0.046   3.681
 5009SOL     OW15925   0.605   1.591   0.550
 5009SOL    HW115926   0.598   1.665   0.483
 5009SOL    HW215927   0.632   1.630   0.639
 5010SOL     OW15928   4.927   3.742   1.356
 5010SOL    HW115929   4.955   3.759   1.261
 5010SOL    HW215930   4.990   3.677   1.398
 5011SOL     OW15931   1.898   2.482   6.194
 5011SOL    HW115932   1.992   2.511   6.212
 5011SOL    HW215933   1.883   2.478   6.095
 5012SOL     OW15934   6.141   1.616   6.160
 5012SOL    HW115935   6.107   1.708   6.143
 5012SOL    HW215936   6.185   1.581   6.077
 5013SOL     OW15937   5.250   0.084   5.550
 5013SOL    HW115938   5.229   0.139   5.631
 5013SOL    HW215939   5.242   7.011   5.573
 5014SOL     OW15940   6.051   3.490   1.451
 5014SOL    HW115941   6.022   3.586   1.457
 5014SOL    HW215942   5.992   3.441   1.387
 5015SOL     OW15943   5.836   5.624   4.434
 5015SOL    HW115944   5.793   5.547   4.388
 5015SOL    HW215945   5.933   5.604   4.449
 5016SOL     OW15946   1.645   2.913   6.584
 5016SOL    HW115947   1.645   2.814   6.571
 5016SOL    HW215948   1.570   2.953   6.530
 5017SOL     OW15949   0.237   2.391   1.920
 5017SOL    HW115950   0.142   2.374   1.947
 5017SOL    HW215951   0.293   2.406   2.001
 5018SOL     OW15952   1.215   0.716   6.882
 5018SOL    HW115953   1.187   0.644   6.818
 5018SOL    HW215954   1.306   0.750   6.856
 5019SOL     OW15955   1.703   4.586   4.059
 5019SOL    HW115956   1.614   4.580   4.104
 5019SOL    HW215957   1.695   4.552   3.966
 5020SOL     OW15958   1.681   0.352   4.441
 5020SOL    HW115959   1.623   0.374   4.362
 5020SOL    HW215960   1.698   0.253   4.443
 5021SOL     OW15961   2.824   0.318   1.683
 5021SOL    HW115962   2.818   0.387   1.755
 5021SOL    HW215963   2.888   0.349   1.612
 5022SOL     OW15964   6.631   2.623   1.050
 5022SOL    HW115965   6.533   2.602   1.052
 5022SOL    HW215966   6.647   2.714   1.087
 5023SOL     OW15967   0.314   3.682   2.970
 5023SOL    HW115968   0.281   3.744   3.041
 5023SOL    HW215969   0.251   3.605   2.959
 5024SOL     OW15970   5.075   4.223   0.280
 5024SOL    HW115971   4.990   4.245   0.328
 5024SOL    HW215972   5.054   4.191   0.188
 5025SOL     OW15973   4.972   2.272   4.763
 5025SOL    HW115974   4.908   2.252   4.838
 5025SOL    HW215975   4.925   2.257   4.675
 5026SOL     OW15976   5.431   6.159   5.082
 5026SOL    HW115977   5.361   6.179   5.014
 5026SOL    HW215978   5.389   6.117   5.162
 5027SOL     OW15979   5.294   6.648   0.692
 5027SOL    HW115980   5.261   6.580   0.757
 5027SOL    HW215981   5.376   6.615   0.647
 5028SOL     OW15982   6.407   2.132   2.253
 5028SOL    HW115983   6.348   2.190   2.197
 5028SOL    HW215984   6.437   2.182   2.334
 5029SOL     OW15985   5.030   2.117   2.589
 5029SOL    HW115986   5.095   2.193   2.581
 5029SOL    HW215987   5.049   2.065   2.673
 5030SOL     OW15988   0.081   3.682   0.277
 5030SOL    HW115989   7.017   3.655   0.318
 5030SOL    HW215990   0.064   3.727   0.189
 5031SOL     OW15991   6.534   0.284   5.919
 5031SOL    HW115992   6.599   0.293   5.995
 5031SOL    HW215993   6.442   0.307   5.951
 5032SOL     OW15994   2.541   4.236   6.046
 5032SOL    HW115995   2.494   4.163   6.096
 5032SOL    HW215996   2.583   4.299   6.110
 5033SOL     OW15997   2.354   6.849   5.927
 5033SOL    HW115998   2.269   6.873   5.974
 5033SOL    HW215999   2.367   6.750   5.930
 5034SOL     OW16000   4.382   5.956   4.535
 5034SOL    HW116001   4.389   5.904   4.620
 5034SOL    HW216002   4.391   6.054   4.555
 5035SOL     OW16003   2.164   3.527   3.438
 5035SOL    HW116004   2.139   3.616   3.400
 5035SOL    HW216005   2.151   3.528   3.537
 5036SOL     OW16006   1.381   2.923   4.875
 5036SOL    HW116007   1.413   3.006   4.920
 5036SOL    HW216008   1.291   2.899   4.910
 5037SOL     OW16009   4.849   4.519   1.328
 5037SOL    HW116010   4.841   4.550   1.233
 5037SOL    HW216011   4.926   4.565   1.372
 5038SOL     OW16012   3.277   3.748   3.485
 5038SOL    HW116013   3.342   3.749   3.408
 5038SOL    HW216014   3.259   3.653   3.511
 5039SOL     OW16015   0.732   3.698   0.040
 5039SOL    HW116016   0.661   3.726   0.105
 5039SOL    HW216017   0.781   3.779   0.008
 5040SOL     OW16018   0.287   1.248   5.135
 5040SOL    HW116019   0.337   1.270   5.218
 5040SOL    HW216020   0.189   1.247   5.154
 5041SOL     OW16021   6.902   1.945   1.319
 5041SOL    HW116022   6.994   1.919   1.288
 5041SOL    HW216023   6.834   1.914   1.253
 5042SOL     OW16024   1.173   2.083   5.617
 5042SOL    HW116025   1.161   2.151   5.689
 5042SOL    HW216026   1.084   2.051   5.586
 5043SOL     OW16027   3.522   6.433   2.167
 5043SOL    HW116028   3.534   6.531   2.150
 5043SOL    HW216029   3.443   6.399   2.116
 5044SOL     OW16030   0.027   5.499   0.172
 5044SOL    HW116031   0.072   5.514   0.084
 5044SOL    HW216032   0.039   5.580   0.230
 5045SOL     OW16033   5.611   2.143   0.856
 5045SOL    HW116034   5.666   2.207   0.909
 5045SOL    HW216035   5.520   2.180   0.842
 5046SOL     OW16036   3.794   3.130   2.531
 5046SOL    HW116037   3.787   3.217   2.580
 5046SOL    HW216038   3.859   3.140   2.456
 5047SOL     OW16039   1.938   3.614   3.256
 5047SOL    HW116040   2.020   3.668   3.235
 5047SOL    HW216041   1.924   3.546   3.184
 5048SOL     OW16042   2.869   0.272   6.517
 5048SOL    HW116043   2.864   0.172   6.526
 5048SOL    HW216044   2.954   0.296   6.470
 5049SOL     OW16045   4.095   1.687   6.780
 5049SOL    HW116046   4.178   1.632   6.793
 5049SOL    HW216047   4.087   1.752   6.855
 5050SOL     OW16048   1.860   0.763   0.696
 5050SOL    HW116049   1.823   0.852   0.668
 5050SOL    HW216050   1.793   0.691   0.676
 5051SOL     OW16051   4.821   4.899   1.143
 5051SOL    HW116052   4.898   4.958   1.166
 5051SOL    HW216053   4.768   4.941   1.069
 5052SOL     OW16054   1.946   2.691   4.706
 5052SOL    HW116055   2.030   2.714   4.657
 5052SOL    HW216056   1.961   2.607   4.759
 5053SOL     OW16057   6.726   0.815   1.017
 5053SOL    HW116058   6.709   0.913   1.026
 5053SOL    HW216059   6.639   0.768   1.003
 5054SOL     OW16060   3.967   5.355   3.753
 5054SOL    HW116061   3.884   5.410   3.741
 5054SOL    HW216062   4.046   5.406   3.720
 5055SOL     OW16063   0.207   3.630   5.330
 5055SOL    HW116064   0.267   3.671   5.261
 5055SOL    HW216065   0.245   3.646   5.421
 5056SOL     OW16066   6.274   3.938   3.907
 5056SOL    HW116067   6.255   3.903   3.815
 5056SOL    HW216068   6.225   4.023   3.921
 5057SOL     OW16069   6.955   5.851   2.213
 5057SOL    HW116070   0.003   5.850   2.283
 5057SOL    HW216071   6.904   5.936   2.218
 5058SOL     OW16072   2.600   5.774   6.212
 5058SOL    HW116073   2.673   5.742   6.151
 5058SOL    HW216074   2.593   5.874   6.206
 5059SOL     OW16075   6.829   0.268   2.616
 5059SOL    HW116076   6.827   0.284   2.518
 5059SOL    HW216077   6.924   0.261   2.647
 5060SOL     OW16078   0.065   2.349   6.162
 5060SOL    HW116079   0.032   2.313   6.250
 5060SOL    HW216080   7.018   2.341   6.093
 5061SOL     OW16081   5.330   3.696   0.843
 5061SOL    HW116082   5.290   3.697   0.935
 5061SOL    HW216083   5.259   3.720   0.776
 5062SOL     OW16084   6.256   0.064   0.737
 5062SOL    HW116085   6.194   0.038   0.811
 5062SOL    HW216086   6.216   0.037   0.650
 5063SOL     OW16087   1.542   6.415   2.646
 5063SOL    HW116088   1.583   6.506   2.642
 5063SOL    HW216089   1.555   6.377   2.738
 5064SOL     OW16090   4.945   3.885   0.013
 5064SOL    HW116091   4.922   3.907   0.107
 5064SOL    HW216092   4.924   3.962   6.977
 5065SOL     OW16093   3.026   6.490   6.172
 5065SOL    HW116094   3.034   6.406   6.225
 5065SOL    HW216095   2.938   6.492   6.125
 5066SOL     OW16096   4.459   4.959   1.378
 5066SOL    HW116097   4.514   5.031   1.335
 5066SOL    HW216098   4.520   4.892   1.420
 5067SOL     OW16099   5.155   1.338   6.738
 5067SOL    HW116100   5.093   1.385   6.801
 5067SOL    HW216101   5.147   1.239   6.751
 5068SOL     OW16102   3.759   4.827   1.393
 5068SOL    HW116103   3.827   4.837   1.320
 5068SOL    HW216104   3.743   4.730   1.410
 5069SOL     OW16105   6.918   5.474   2.872
 5069SOL    HW116106   6.920   5.379   2.842
 5069SOL    HW216107   6.859   5.482   2.952
 5070SOL     OW16108   4.792   2.995   4.009
 5070SOL    HW116109   4.884   3.030   4.026
 5070SOL    HW216110   4.782   2.972   3.912
 5071SOL     OW16111   4.343   0.756   0.048
 5071SOL    HW116112   4.313   0.662   0.036
 5071SOL    HW216113   4.443   0.758   0.059
 5072SOL     OW16114   0.489   4.062   1.151
 5072SOL    HW116115   0.556   4.132   1.128
 5072SOL    HW216116   0.401   4.084   1.108
 5073SOL     OW16117   4.328   2.420   3.864
 5073SOL    HW116118   4.373   2.469   3.938
 5073SOL    HW216119   4.354   2.461   3.777
 5074SOL     OW16120   4.269   4.848   5.248
 5074SOL    HW116121   4.173   4.859   5.223
 5074SOL    HW216122   4.309   4.774   5.193
 5075SOL     OW16123   6.830   6.489   3.721
 5075SOL    HW116124   6.754   6.426   3.706
 5075SOL    HW216125   6.794   6.581   3.737
 5076SOL     OW16126   4.459   0.602   0.923
 5076SOL    HW116127   4.498   0.554   1.002
 5076SOL    HW216128   4.533   0.631   0.862
 5077SOL     OW16129   6.749   2.851   2.267
 5077SOL    HW116130   6.789   2.940   2.290
 5077SOL    HW216131   6.813   2.779   2.293
 5078SOL     OW16132   0.213   0.951   4.349
 5078SOL    HW116133   0.215   0.856   4.380
 5078SOL    HW216134   0.302   0.975   4.310
 5079SOL     OW16135   4.590   4.810   4.830
 5079SOL    HW116136   4.547   4.900   4.838
 5079SOL    HW216137   4.535   4.752   4.770
 5080SOL     OW16138   5.991   0.733   5.633
 5080SOL    HW116139   5.989   0.744   5.733
 5080SOL    HW216140   5.900   0.753   5.596
 5081SOL     OW16141   3.381   3.304   2.839
 5081SOL    HW116142   3.304   3.277   2.780
 5081SOL    HW216143   3.433   3.223   2.864
 5082SOL     OW16144   0.345   0.806   5.858
 5082SOL    HW116145   0.432   0.851   5.881
 5082SOL    HW216146   0.300   0.777   5.942
 5083SOL     OW16147   0.976   5.351   2.219
 5083SOL    HW116148   1.042   5.276   2.230
 5083SOL    HW216149   1.010   5.432   2.266
 5084SOL     OW16150   1.051   5.571   2.348
 5084SOL    HW116151   1.150   5.560   2.342
 5084SOL    HW216152   1.024   5.657   2.306
 5085SOL     OW16153   6.595   3.209   6.650
 5085SOL    HW116154   6.617   3.222   6.553
 5085SOL    HW216155   6.626   3.119   6.679
 5086SOL     OW16156   6.466   5.572   4.631
 5086SOL    HW116157   6.455   5.636   4.555
 5086SOL    HW216158   6.548   5.516   4.617
 5087SOL     OW16159   6.325   5.529   5.027
 5087SOL    HW116160   6.368   5.590   5.093
 5087SOL    HW216161   6.331   5.569   4.935
 5088SOL     OW16162   5.844   0.957   0.315
 5088SOL    HW116163   5.914   0.889   0.335
 5088SOL    HW216164   5.879   1.048   0.339
 5089SOL     OW16165   5.788   2.606   4.325
 5089SOL    HW116166   5.733   2.653   4.257
 5089SOL    HW216167   5.761   2.510   4.330
 5090SOL     OW16168   1.010   5.478   0.501
 5090SOL    HW116169   1.067   5.420   0.443
 5090SOL    HW216170   0.918   5.440   0.506
 5091SOL     OW16171   0.892   6.460   3.669
 5091SOL    HW116172   0.923   6.416   3.585
 5091SOL    HW216173   0.952   6.435   3.745
 5092SOL     OW16174   3.391   3.104   1.141
 5092SOL    HW116175   3.476   3.056   1.119
 5092SOL    HW216176   3.335   3.046   1.200
 5093SOL     OW16177   1.140   1.887   1.267
 5093SOL    HW116178   1.102   1.970   1.225
 5093SOL    HW216179   1.232   1.872   1.233
 5094SOL     OW16180   0.014   0.224   6.798
 5094SOL    HW116181   0.027   0.206   6.895
 5094SOL    HW216182   7.019   0.139   6.750
 5095SOL     OW16183   2.782   0.161   5.463
 5095SOL    HW116184   2.846   0.178   5.538
 5095SOL    HW216185   2.746   0.068   5.470
 5096SOL     OW16186   3.940   6.244   3.029
 5096SOL    HW116187   4.032   6.269   3.060
 5096SOL    HW216188   3.909   6.310   2.960
 5097SOL     OW16189   0.973   1.506   6.381
 5097SOL    HW116190   0.909   1.509   6.304
 5097SOL    HW216191   1.057   1.460   6.351
 5098SOL     OW16192   6.634   2.668   3.183
 5098SOL    HW116193   6.646   2.601   3.109
 5098SOL    HW216194   6.590   2.750   3.146
 5099SOL     OW16195   0.991   0.860   4.249
 5099SOL    HW116196   1.001   0.958   4.232
 5099SOL    HW216197   0.983   0.844   4.348
 5100SOL     OW16198   4.840   5.304   6.017
 5100SOL    HW116199   4.796   5.393   6.006
 5100SOL    HW216200   4.931   5.307   5.976
 5101SOL     OW16201   4.801   6.002   0.465
 5101SOL    HW116202   4.745   5.997   0.547
 5101SOL    HW216203   4.875   6.069   0.479
 5102SOL     OW16204   3.779   5.270   4.333
 5102SOL    HW116205   3.736   5.302   4.417
 5102SOL    HW216206   3.863   5.220   4.355
 5103SOL     OW16207   1.145   1.780   4.094
 5103SOL    HW116208   1.211   1.812   4.026
 5103SOL    HW216209   1.053   1.781   4.054
 5104SOL     OW16210   0.651   0.645   1.228
 5104SOL    HW116211   0.606   0.592   1.156
 5104SOL    HW216212   0.746   0.661   1.204
 5105SOL     OW16213   1.914   3.027   6.198
 5105SOL    HW116214   1.912   3.109   6.141
 5105SOL    HW216215   1.908   3.052   6.294
 5106SOL     OW16216   2.404   6.893   2.008
 5106SOL    HW116217   2.391   6.904   2.106
 5106SOL    HW216218   2.494   6.929   1.982
 5107SOL     OW16219   2.366   6.908   6.752
 5107SOL    HW116220   2.327   6.996   6.779
 5107SOL    HW216221   2.293   6.844   6.731
 5108SOL     OW16222   3.361   4.127   4.117
 5108SOL    HW116223   3.327   4.221   4.111
 5108SOL    HW216224   3.459   4.129   4.139
 5109SOL     OW16225   6.564   1.891   2.587
 5109SOL    HW116226   6.626   1.900   2.510
 5109SOL    HW216227   6.530   1.981   2.614
 5110SOL     OW16228   1.954   6.256   5.493
 5110SOL    HW116229   2.052   6.264   5.512
 5110SOL    HW216230   1.925   6.333   5.436
 5111SOL     OW16231   1.728   0.809   0.004
 5111SOL    HW116232   1.734   0.908   0.014
 5111SOL    HW216233   1.805   0.766   0.052
 5112SOL     OW16234   0.347   6.631   3.253
 5112SOL    HW116235   0.352   6.539   3.291
 5112SOL    HW216236   0.326   6.696   3.326
 5113SOL     OW16237   0.303   0.694   6.130
 5113SOL    HW116238   0.255   0.608   6.150
 5113SOL    HW216239   0.400   0.683   6.147
 5114SOL     OW16240   3.909   5.599   6.455
 5114SOL    HW116241   3.922   5.694   6.483
 5114SOL    HW216242   3.991   5.546   6.477
 5115SOL     OW16243   2.325   3.912   5.376
 5115SOL    HW116244   2.241   3.869   5.343
 5115SOL    HW216245   2.368   3.964   5.302
 5116SOL     OW16246   6.541   3.550   1.164
 5116SOL    HW116247   6.476   3.485   1.125
 5116SOL    HW216248   6.539   3.635   1.111
 5117SOL     OW16249   2.571   5.105   2.390
 5117SOL    HW116250   2.577   5.037   2.462
 5117SOL    HW216251   2.499   5.171   2.412
 5118SOL     OW16252   3.918   6.785   1.599
 5118SOL    HW116253   3.909   6.884   1.596
 5118SOL    HW216254   3.880   6.746   1.515
 5119SOL     OW16255   6.248   0.006   2.436
 5119SOL    HW116256   6.183   0.061   2.384
 5119SOL    HW216257   6.277   0.056   2.517
 5120SOL     OW16258   3.349   1.315   2.014
 5120SOL    HW116259   3.380   1.261   1.937
 5120SOL    HW216260   3.249   1.323   2.011
 5121SOL     OW16261   0.633   3.857   4.213
 5121SOL    HW116262   0.721   3.872   4.258
 5121SOL    HW216263   0.559   3.886   4.274
 5122SOL     OW16264   2.363   5.324   3.560
 5122SOL    HW116265   2.343   5.245   3.501
 5122SOL    HW216266   2.295   5.329   3.633
 5123SOL     OW16267   6.614   3.323   2.364
 5123SOL    HW116268   6.611   3.311   2.265
 5123SOL    HW216269   6.533   3.375   2.394
 5124SOL     OW16270   2.549   6.209   1.006
 5124SOL    HW116271   2.474   6.156   1.045
 5124SOL    HW216272   2.512   6.280   0.946
 5125SOL     OW16273   0.421   2.183   5.718
 5125SOL    HW116274   0.361   2.191   5.638
 5125SOL    HW216275   0.371   2.212   5.800
 5126SOL     OW16276   4.004   1.887   0.238
 5126SOL    HW116277   4.051   1.886   0.149
 5126SOL    HW216278   4.066   1.851   0.308
 5127SOL     OW16279   5.060   3.214   6.627
 5127SOL    HW116280   5.002   3.295   6.631
 5127SOL    HW216281   5.038   3.161   6.546
 5128SOL     OW16282   6.688   7.013   6.365
 5128SOL    HW116283   6.698   0.078   6.319
 5128SOL    HW216284   6.700   0.001   6.463
 5129SOL     OW16285   4.850   2.714   3.778
 5129SOL    HW116286   4.889   2.797   3.738
 5129SOL    HW216287   4.775   2.681   3.720
 5130SOL     OW16288   1.786   6.396   5.158
 5130SOL    HW116289   1.721   6.345   5.214
 5130SOL    HW216290   1.856   6.437   5.217
 5131SOL     OW16291   3.841   4.809   3.216
 5131SOL    HW116292   3.925   4.800   3.162
 5131SOL    HW216293   3.846   4.749   3.296
 5132SOL     OW16294   3.867   2.108   6.519
 5132SOL    HW116295   3.850   2.121   6.617
 5132SOL    HW216296   3.894   2.196   6.478
 5133SOL     OW16297   4.640   4.396   6.682
 5133SOL    HW116298   4.553   4.430   6.645
 5133SOL    HW216299   4.623   4.316   6.739
 5134SOL     OW16300   5.563   5.799   6.835
 5134SOL    HW116301   5.482   5.787   6.777
 5134SOL    HW216302   5.575   5.719   6.893
 5135SOL     OW16303   6.817   3.053   2.523
 5135SOL    HW116304   6.826   3.094   2.433
 5135SOL    HW216305   6.804   3.124   2.592
 5136SOL     OW16306   0.509   0.684   4.571
 5136SOL    HW116307   0.562   0.613   4.524
 5136SOL    HW216308   0.536   0.688   4.667
 5137SOL     OW16309   5.475   0.380   3.333
 5137SOL    HW116310   5.534   0.459   3.319
 5137SOL    HW216311   5.379   0.407   3.324
 5138SOL     OW16312   2.987   3.440   2.416
 5138SOL    HW116313   2.961   3.344   2.427
 5138SOL    HW216314   3.080   3.445   2.379
 5139SOL     OW16315   4.492   0.227   4.562
 5139SOL    HW116316   4.476   0.281   4.479
 5139SOL    HW216317   4.463   0.280   4.642
 5140SOL     OW16318   3.344   3.666   6.420
 5140SOL    HW116319   3.432   3.623   6.436
 5140SOL    HW216320   3.273   3.596   6.415
 5141SOL     OW16321   1.042   3.316   1.377
 5141SOL    HW116322   1.091   3.403   1.390
 5141SOL    HW216323   1.089   3.262   1.307
 5142SOL     OW16324   0.525   6.834   2.839
 5142SOL    HW116325   0.590   6.884   2.897
 5142SOL    HW216326   0.500   6.749   2.884
 5143SOL     OW16327   6.883   6.126   2.141
 5143SOL    HW116328   6.807   6.090   2.195
 5143SOL    HW216329   6.857   6.133   2.045
 5144SOL     OW16330   1.925   3.268   4.889
 5144SOL    HW116331   1.877   3.182   4.874
 5144SOL    HW216332   2.018   3.249   4.920
 5145SOL     OW16333   2.129   5.834   5.575
 5145SOL    HW116334   2.077   5.753   5.548
 5145SOL    HW216335   2.224   5.823   5.546
 5146SOL     OW16336   6.002   5.603   6.308
 5146SOL    HW116337   5.944   5.678   6.276
 5146SOL    HW216338   6.026   5.544   6.231
 5147SOL     OW16339   5.715   2.059   4.125
 5147SOL    HW116340   5.619   2.083   4.136
 5147SOL    HW216341   5.739   1.986   4.189
 5148SOL     OW16342   5.967   1.340   0.433
 5148SOL    HW116343   5.975   1.313   0.337
 5148SOL    HW216344   5.882   1.303   0.471
 5149SOL     OW16345   3.767   5.842   4.151
 5149SOL    HW116346   3.774   5.783   4.071
 5149SOL    HW216347   3.813   5.928   4.133
 5150SOL     OW16348   6.778   0.577   3.261
 5150SOL    HW116349   6.683   0.583   3.231
 5150SOL    HW216350   6.824   0.502   3.214
 5151SOL     OW16351   5.177   5.046   1.402
 5151SOL    HW116352   5.206   5.105   1.478
 5151SOL    HW216353   5.117   4.975   1.437
 5152SOL     OW16354   1.964   2.133   0.613
 5152SOL    HW116355   2.002   2.189   0.686
 5152SOL    HW216356   2.037   2.110   0.547
 5153SOL     OW16357   2.249   2.599   0.815
 5153SOL    HW116358   2.316   2.656   0.769
 5153SOL    HW216359   2.238   2.629   0.910
 5154SOL     OW16360   0.703   2.467   0.386
 5154SOL    HW116361   0.696   2.456   0.486
 5154SOL    HW216362   0.661   2.554   0.360
 5155SOL     OW16363   1.538   1.089   0.156
 5155SOL    HW116364   1.479   1.035   0.096
 5155SOL    HW216365   1.633   1.082   0.124
 5156SOL     OW16366   5.119   5.103   6.133
 5156SOL    HW116367   5.076   5.168   6.195
 5156SOL    HW216368   5.153   5.025   6.185
 5157SOL     OW16369   3.501   1.052   1.875
 5157SOL    HW116370   3.597   1.029   1.889
 5157SOL    HW216371   3.494   1.126   1.808
 5158SOL     OW16372   1.717   2.268   2.085
 5158SOL    HW116373   1.622   2.250   2.113
 5158SOL    HW216374   1.717   2.325   2.003
 5159SOL     OW16375   6.520   3.135   5.136
 5159SOL    HW116376   6.573   3.214   5.166
 5159SOL    HW216377   6.529   3.060   5.202
 5160SOL     OW16378   0.168   6.973   3.086
 5160SOL    HW116379   0.197   6.951   3.179
 5160SOL    HW216380   0.162   6.888   3.033
 5161SOL     OW16381   1.087   1.859   6.070
 5161SOL    HW116382   1.089   1.858   6.170
 5161SOL    HW216383   1.124   1.773   6.035
 5162SOL     OW16384   0.383   6.979   5.474
 5162SOL    HW116385   0.425   6.993   5.385
 5162SOL    HW216386   0.283   6.977   5.464
 5163SOL     OW16387   3.003   0.774   1.764
 5163SOL    HW116388   3.013   0.720   1.680
 5163SOL    HW216389   3.085   0.765   1.820
 5164SOL     OW16390   2.739   3.782   6.926
 5164SOL    HW116391   2.787   3.764   6.841
 5164SOL    HW216392   2.656   3.836   6.907
 5165SOL     OW16393   1.914   5.011   5.868
 5165SOL    HW116394   1.906   4.920   5.909
 5165SOL    HW216395   1.929   5.079   5.940
 5166SOL     OW16396   6.855   5.923   5.435
 5166SOL    HW116397   6.789   5.997   5.450
 5166SOL    HW216398   6.917   5.948   5.362
 5167SOL     OW16399   6.023   3.790   5.888
 5167SOL    HW116400   6.071   3.740   5.816
 5167SOL    HW216401   6.055   3.885   5.890
 5168SOL     OW16402   4.967   1.908   3.481
 5168SOL    HW116403   4.877   1.894   3.440
 5168SOL    HW216404   5.012   1.820   3.494
 5169SOL     OW16405   5.140   5.652   4.426
 5169SOL    HW116406   5.042   5.673   4.425
 5169SOL    HW216407   5.192   5.737   4.435
 5170SOL     OW16408   1.852   4.292   6.046
 5170SOL    HW116409   1.900   4.373   6.077
 5170SOL    HW216410   1.906   4.245   5.976
 5171SOL     OW16411   2.531   6.640   6.467
 5171SOL    HW116412   2.449   6.666   6.416
 5171SOL    HW216413   2.575   6.562   6.421
 5172SOL     OW16414   5.713   5.509   6.144
 5172SOL    HW116415   5.733   5.575   6.072
 5172SOL    HW216416   5.694   5.558   6.229
 5173SOL     OW16417   4.136   5.531   4.535
 5173SOL    HW116418   4.121   5.597   4.461
 5173SOL    HW216419   4.217   5.475   4.513
 5174SOL     OW16420   1.096   5.986   3.232
 5174SOL    HW116421   1.171   6.044   3.265
 5174SOL    HW216422   1.133   5.897   3.204
 5175SOL     OW16423   2.398   1.802   6.412
 5175SOL    HW116424   2.497   1.791   6.404
 5175SOL    HW216425   2.378   1.886   6.462
 5176SOL     OW16426   6.263   6.234   6.607
 5176SOL    HW116427   6.338   6.236   6.541
 5176SOL    HW216428   6.195   6.302   6.581
 5177SOL     OW16429   5.273   5.732   0.636
 5177SOL    HW116430   5.188   5.783   0.646
 5177SOL    HW216431   5.269   5.649   0.691
 5178SOL     OW16432   0.234   3.935   1.259
 5178SOL    HW116433   0.271   3.981   1.179
 5178SOL    HW216434   0.303   3.933   1.331
 5179SOL     OW16435   4.853   5.201   3.092
 5179SOL    HW116436   4.784   5.194   3.164
 5179SOL    HW216437   4.853   5.117   3.037
 5180SOL     OW16438   1.891   4.614   1.943
 5180SOL    HW116439   1.976   4.656   1.975
 5180SOL    HW216440   1.855   4.553   2.014
 5181SOL     OW16441   0.011   1.282   5.170
 5181SOL    HW116442   6.964   1.327   5.225
 5181SOL    HW216443   7.003   1.272   5.076
 5182SOL     OW16444   2.163   6.566   1.993
 5182SOL    HW116445   2.120   6.524   1.913
 5182SOL    HW216446   2.244   6.618   1.965
 5183SOL     OW16447   4.715   2.274   3.435
 5183SOL    HW116448   4.805   2.242   3.407
 5183SOL    HW216449   4.709   2.273   3.535
 5184SOL     OW16450   2.279   1.898   2.967
 5184SOL    HW116451   2.298   1.830   3.038
 5184SOL    HW216452   2.321   1.869   2.881
 5185SOL     OW16453   6.419   6.900   1.953
 5185SOL    HW116454   6.493   6.836   1.977
 5185SOL    HW216455   6.440   6.991   1.988
 5186SOL     OW16456   6.148   2.169   6.752
 5186SOL    HW116457   6.215   2.242   6.744
 5186SOL    HW216458   6.194   2.082   6.768
 5187SOL     OW16459   1.352   5.050   5.162
 5187SOL    HW116460   1.372   5.096   5.249
 5187SOL    HW216461   1.393   5.102   5.087
 5188SOL     OW16462   0.237   0.227   1.402
 5188SOL    HW116463   0.203   0.185   1.487
 5188SOL    HW216464   0.213   0.168   1.324
 5189SOL     OW16465   4.982   6.028   6.652
 5189SOL    HW116466   4.928   6.104   6.687
 5189SOL    HW216467   4.991   6.037   6.552
 5190SOL     OW16468   1.761   4.799   0.537
 5190SOL    HW116469   1.790   4.889   0.503
 5190SOL    HW216470   1.753   4.803   0.637
 5191SOL     OW16471   2.704   4.287   1.693
 5191SOL    HW116472   2.696   4.292   1.593
 5191SOL    HW216473   2.782   4.342   1.722
 5192SOL     OW16474   0.595   4.649   3.301
 5192SOL    HW116475   0.511   4.607   3.335
 5192SOL    HW216476   0.673   4.611   3.349
 5193SOL     OW16477   4.419   1.042   5.195
 5193SOL    HW116478   4.441   0.972   5.264
 5193SOL    HW216479   4.332   1.085   5.216
 5194SOL     OW16480   4.442   1.792   5.109
 5194SOL    HW116481   4.425   1.855   5.186
 5194SOL    HW216482   4.490   1.711   5.143
 5195SOL     OW16483   1.393   0.831   5.739
 5195SOL    HW116484   1.294   0.821   5.747
 5195SOL    HW216485   1.415   0.878   5.654
 5196SOL     OW16486   5.874   6.461   3.374
 5196SOL    HW116487   5.821   6.424   3.450
 5196SOL    HW216488   5.832   6.435   3.288
 5197SOL     OW16489   1.539   3.372   4.752
 5197SOL    HW116490   1.461   3.347   4.696
 5197SOL    HW216491   1.556   3.470   4.746
 5198SOL     OW16492   6.106   5.354   3.295
 5198SOL    HW116493   6.026   5.318   3.343
 5198SOL    HW216494   6.076   5.395   3.208
 5199SOL     OW16495   0.422   4.638   1.227
 5199SOL    HW116496   0.475   4.695   1.165
 5199SOL    HW216497   0.369   4.696   1.290
 5200SOL     OW16498   6.387   3.803   5.046
 5200SOL    HW116499   6.312   3.827   4.985
 5200SOL    HW216500   6.474   3.831   5.006
 5201SOL     OW16501   1.140   6.563   4.688
 5201SOL    HW116502   1.133   6.652   4.644
 5201SOL    HW216503   1.227   6.521   4.664
 5202SOL     OW16504   6.835   4.646   1.515
 5202SOL    HW116505   6.757   4.618   1.571
 5202SOL    HW216506   6.918   4.602   1.548
 5203SOL     OW16507   6.289   3.221   6.898
 5203SOL    HW116508   6.230   3.168   6.837
 5203SOL    HW216509   6.329   3.297   6.847
 5204SOL     OW16510   5.332   5.226   5.771
 5204SOL    HW116511   5.348   5.306   5.829
 5204SOL    HW216512   5.352   5.143   5.823
 5205SOL     OW16513   2.915   6.371   0.292
 5205SOL    HW116514   2.880   6.330   0.207
 5205SOL    HW216515   2.915   6.303   0.365
 5206SOL     OW16516   6.991   4.578   4.671
 5206SOL    HW116517   0.059   4.538   4.665
 5206SOL    HW216518   6.955   4.594   4.580
 5207SOL     OW16519   1.863   4.810   2.882
 5207SOL    HW116520   1.928   4.741   2.851
 5207SOL    HW216521   1.792   4.823   2.813
 5208SOL     OW16522   5.210   1.563   0.183
 5208SOL    HW116523   5.309   1.574   0.189
 5208SOL    HW216524   5.167   1.602   0.265
 5209SOL     OW16525   5.791   5.176   3.120
 5209SOL    HW116526   5.812   5.089   3.076
 5209SOL    HW216527   5.823   5.174   3.215
 5210SOL     OW16528   4.895   3.984   2.891
 5210SOL    HW116529   4.949   3.915   2.940
 5210SOL    HW216530   4.845   4.040   2.956
 5211SOL     OW16531   2.959   3.755   2.226
 5211SOL    HW116532   2.897   3.811   2.281
 5211SOL    HW216533   3.029   3.715   2.285
 5212SOL     OW16534   0.727   0.130   6.367
 5212SOL    HW116535   0.676   0.216   6.360
 5212SOL    HW216536   0.816   0.141   6.322
 5213SOL     OW16537   4.381   2.165   6.167
 5213SOL    HW116538   4.330   2.237   6.119
 5213SOL    HW216539   4.473   2.198   6.188
 5214SOL     OW16540   4.472   1.894   0.301
 5214SOL    HW116541   4.434   1.981   0.271
 5214SOL    HW216542   4.545   1.911   0.368
 5215SOL     OW16543   5.846   5.039   3.616
 5215SOL    HW116544   5.782   4.966   3.637
 5215SOL    HW216545   5.886   5.073   3.702
 5216SOL     OW16546   4.335   6.005   1.715
 5216SOL    HW116547   4.267   5.960   1.773
 5216SOL    HW216548   4.408   5.940   1.693
 5217SOL     OW16549   3.044   4.903   3.335
 5217SOL    HW116550   3.064   4.958   3.416
 5217SOL    HW216551   2.962   4.848   3.351
 5218SOL     OW16552   1.858   0.197   4.126
 5218SOL    HW116553   1.893   0.289   4.143
 5218SOL    HW216554   1.909   0.131   4.181
 5219SOL     OW16555   2.677   0.388   0.928
 5219SOL    HW116556   2.750   0.338   0.880
 5219SOL    HW216557   2.588   0.359   0.892
 5220SOL     OW16558   1.246   6.870   2.001
 5220SOL    HW116559   1.261   6.913   2.090
 5220SOL    HW216560   1.187   6.790   2.014
 5221SOL     OW16561   4.079   1.182   6.892
 5221SOL    HW116562   4.175   1.211   6.891
 5221SOL    HW216563   4.050   1.167   6.986
 5222SOL     OW16564   0.689   6.491   2.836
 5222SOL    HW116565   0.747   6.443   2.902
 5222SOL    HW216566   0.605   6.521   2.883
 5223SOL     OW16567   4.463   6.634   0.873
 5223SOL    HW116568   4.524   6.714   0.874
 5223SOL    HW216569   4.375   6.660   0.833
 5224SOL     OW16570   5.504   0.976   3.388
 5224SOL    HW116571   5.488   0.884   3.425
 5224SOL    HW216572   5.603   0.989   3.375
 5225SOL     OW16573   0.007   6.838   5.654
 5225SOL    HW116574   0.056   6.900   5.715
 5225SOL    HW216575   6.996   6.760   5.707
 5226SOL     OW16576   2.542   6.732   4.094
 5226SOL    HW116577   2.552   6.785   4.010
 5226SOL    HW216578   2.522   6.794   4.170
 5227SOL     OW16579   5.123   3.553   3.855
 5227SOL    HW116580   5.108   3.599   3.768
 5227SOL    HW216581   5.037   3.545   3.904
 5228SOL     OW16582   5.461   0.757   1.153
 5228SOL    HW116583   5.466   0.793   1.246
 5228SOL    HW216584   5.365   0.739   1.129
 5229SOL     OW16585   1.341   4.357   3.326
 5229SOL    HW116586   1.433   4.340   3.288
 5229SOL    HW216587   1.276   4.364   3.251
 5230SOL     OW16588   1.370   0.753   6.016
 5230SOL    HW116589   1.335   0.661   6.031
 5230SOL    HW216590   1.390   0.765   5.919
 5231SOL     OW16591   3.037   3.171   3.331
 5231SOL    HW116592   3.044   3.107   3.254
 5231SOL    HW216593   3.015   3.263   3.296
 5232SOL     OW16594   5.195   2.647   5.253
 5232SOL    HW116595   5.290   2.648   5.284
 5232SOL    HW216596   5.179   2.725   5.192
 5233SOL     OW16597   1.193   0.328   3.115
 5233SOL    HW116598   1.133   0.288   3.046
 5233SOL    HW216599   1.163   0.422   3.134
 5234SOL     OW16600   3.952   5.153   1.451
 5234SOL    HW116601   3.876   5.203   1.409
 5234SOL    HW216602   3.917   5.096   1.525
 5235SOL     OW16603   0.671   3.166   1.320
 5235SOL    HW116604   0.736   3.109   1.270
 5235SOL    HW216605   0.595   3.109   1.352
 5236SOL     OW16606   6.387   3.522   0.122
 5236SOL    HW116607   6.406   3.512   0.220
 5236SOL    HW216608   6.436   3.452   0.071
 5237SOL     OW16609   1.936   1.441   3.248
 5237SOL    HW116610   2.021   1.493   3.259
 5237SOL    HW216611   1.882   1.480   3.173
 5238SOL     OW16612   1.954   3.628   1.066
 5238SOL    HW116613   1.882   3.689   1.031
 5238SOL    HW216614   1.912   3.541   1.093
 5239SOL     OW16615   3.327   3.444   4.801
 5239SOL    HW116616   3.266   3.508   4.848
 5239SOL    HW216617   3.403   3.495   4.761
 5240SOL     OW16618   3.368   1.838   4.988
 5240SOL    HW116619   3.365   1.745   5.023
 5240SOL    HW216620   3.334   1.901   5.058
 5241SOL     OW16621   2.650   5.528   5.607
 5241SOL    HW116622   2.617   5.610   5.653
 5241SOL    HW216623   2.727   5.490   5.658
 5242SOL     OW16624   4.629   0.384   5.179
 5242SOL    HW116625   4.694   0.416   5.247
 5242SOL    HW216626   4.676   0.332   5.108
 5243SOL     OW16627   0.597   4.370   0.305
 5243SOL    HW116628   0.567   4.310   0.230
 5243SOL    HW216629   0.518   4.416   0.345
 5244SOL     OW16630   5.487   3.289   6.740
 5244SOL    HW116631   5.477   3.292   6.839
 5244SOL    HW216632   5.579   3.255   6.716
 5245SOL     OW16633   4.581   4.847   6.586
 5245SOL    HW116634   4.549   4.909   6.514
 5245SOL    HW216635   4.646   4.895   6.645
 5246SOL     OW16636   1.396   3.918   2.952
 5246SOL    HW116637   1.360   3.824   2.953
 5246SOL    HW216638   1.385   3.959   3.042
 5247SOL     OW16639   0.112   4.689   0.417
 5247SOL    HW116640   0.069   4.636   0.490
 5247SOL    HW216641   0.056   4.769   0.396
 5248SOL     OW16642   5.011   1.280   0.411
 5248SOL    HW116643   4.948   1.219   0.459
 5248SOL    HW216644   4.969   1.312   0.326
 5249SOL     OW16645   1.568   5.812   6.643
 5249SOL    HW116646   1.616   5.725   6.650
 5249SOL    HW216647   1.634   5.886   6.629
 5250SOL     OW16648   1.120   1.412   5.750
 5250SOL    HW116649   1.075   1.493   5.787
 5250SOL    HW216650   1.213   1.435   5.722
 5251SOL     OW16651   0.583   3.177   1.034
 5251SOL    HW116652   0.568   3.190   0.936
 5251SOL    HW216653   0.681   3.175   1.053
 5252SOL     OW16654   5.110   6.843   1.055
 5252SOL    HW116655   5.176   6.841   0.979
 5252SOL    HW216656   5.109   6.754   1.100
 5253SOL     OW16657   5.877   2.724   3.851
 5253SOL    HW116658   5.824   2.768   3.778
 5253SOL    HW216659   5.822   2.719   3.934
 5254SOL     OW16660   5.244   0.207   4.334
 5254SOL    HW116661   5.203   0.265   4.405
 5254SOL    HW216662   5.304   0.139   4.377
 5255SOL     OW16663   2.636   5.912   4.042
 5255SOL    HW116664   2.656   5.942   4.135
 5255SOL    HW216665   2.713   5.936   3.982
 5256SOL     OW16666   5.065   6.751   1.895
 5256SOL    HW116667   4.968   6.743   1.918
 5256SOL    HW216668   5.103   6.835   1.935
 5257SOL     OW16669   3.130   1.231   3.139
 5257SOL    HW116670   3.227   1.237   3.161
 5257SOL    HW216671   3.119   1.192   3.047
 5258SOL     OW16672   5.974   1.962   1.827
 5258SOL    HW116673   5.890   1.949   1.879
 5258SOL    HW216674   6.026   2.038   1.866
 5259SOL     OW16675   5.370   4.348   1.285
 5259SOL    HW116676   5.427   4.325   1.206
 5259SOL    HW216677   5.406   4.303   1.367
 5260SOL     OW16678   5.072   2.784   1.686
 5260SOL    HW116679   5.064   2.708   1.750
 5260SOL    HW216680   4.995   2.847   1.699
 5261SOL     OW16681   2.378   2.560   4.869
 5261SOL    HW116682   2.439   2.594   4.797
 5261SOL    HW216683   2.331   2.637   4.912
 5262SOL     OW16684   1.610   0.267   1.434
 5262SOL    HW116685   1.575   0.361   1.441
 5262SOL    HW216686   1.646   0.252   1.343
 5263SOL     OW16687   1.143   6.700   6.621
 5263SOL    HW116688   1.090   6.672   6.540
 5263SOL    HW216689   1.085   6.695   6.702
 5264SOL     OW16690   0.981   1.631   1.162
 5264SOL    HW116691   1.031   1.710   1.196
 5264SOL    HW216692   0.906   1.609   1.224
 5265SOL     OW16693   5.412   4.736   3.565
 5265SOL    HW116694   5.498   4.691   3.544
 5265SOL    HW216695   5.424   4.798   3.642
 5266SOL     OW16696   1.411   6.857   1.124
 5266SOL    HW116697   1.351   6.907   1.186
 5266SOL    HW216698   1.506   6.886   1.137
 5267SOL     OW16699   4.240   3.708   5.284
 5267SOL    HW116700   4.334   3.673   5.274
 5267SOL    HW216701   4.198   3.713   5.193
 5268SOL     OW16702   5.231   5.097   5.514
 5268SOL    HW116703   5.257   5.136   5.425
 5268SOL    HW216704   5.277   5.147   5.587
 5269SOL     OW16705   1.906   4.722   5.987
 5269SOL    HW116706   1.895   4.645   6.051
 5269SOL    HW216707   1.944   4.688   5.901
 5270SOL     OW16708   6.781   2.544   3.403
 5270SOL    HW116709   6.751   2.607   3.331
 5270SOL    HW216710   6.797   2.454   3.363
 5271SOL     OW16711   5.551   3.872   5.813
 5271SOL    HW116712   5.631   3.812   5.818
 5271SOL    HW216713   5.560   3.934   5.735
 5272SOL     OW16714   2.165   1.264   3.885
 5272SOL    HW116715   2.132   1.269   3.791
 5272SOL    HW216716   2.121   1.335   3.941
 5273SOL     OW16717   6.884   0.392   5.123
 5273SOL    HW116718   6.804   0.374   5.067
 5273SOL    HW216719   6.883   0.333   5.204
 5274SOL     OW16720   0.726   5.608   4.908
 5274SOL    HW116721   0.688   5.596   4.816
 5274SOL    HW216722   0.809   5.552   4.917
 5275SOL     OW16723   1.788   6.668   6.555
 5275SOL    HW116724   1.758   6.762   6.571
 5275SOL    HW216725   1.887   6.665   6.550
 5276SOL     OW16726   0.470   0.067   0.425
 5276SOL    HW116727   0.464   0.020   0.513
 5276SOL    HW216728   0.393   0.131   0.417
 5277SOL     OW16729   0.317   0.902   2.327
 5277SOL    HW116730   0.226   0.864   2.307
 5277SOL    HW216731   0.356   0.855   2.406
 5278SOL     OW16732   0.969   3.660   6.252
 5278SOL    HW116733   0.874   3.643   6.278
 5278SOL    HW216734   1.011   3.575   6.220
 5279SOL     OW16735   3.172   6.551   0.040
 5279SOL    HW116736   3.152   6.541   0.137
 5279SOL    HW216737   3.087   6.562   7.012
 5280SOL     OW16738   4.565   6.448   5.336
 5280SOL    HW116739   4.528   6.529   5.292
 5280SOL    HW216740   4.665   6.455   5.340
 5281SOL     OW16741   2.738   6.823   4.818
 5281SOL    HW116742   2.751   6.904   4.760
 5281SOL    HW216743   2.803   6.826   4.894
 5282SOL     OW16744   0.369   6.460   0.216
 5282SOL    HW116745   0.466   6.473   0.194
 5282SOL    HW216746   0.357   6.462   0.315
 5283SOL     OW16747   1.187   0.851   3.928
 5283SOL    HW116748   1.218   0.770   3.878
 5283SOL    HW216749   1.102   0.885   3.888
 5284SOL     OW16750   4.919   3.244   2.074
 5284SOL    HW116751   4.904   3.296   1.990
 5284SOL    HW216752   4.872   3.156   2.068
 5285SOL     OW16753   1.262   2.052   4.019
 5285SOL    HW116754   1.232   2.059   4.114
 5285SOL    HW216755   1.186   2.023   3.962
 5286SOL     OW16756   6.495   2.836   1.278
 5286SOL    HW116757   6.541   2.886   1.205
 5286SOL    HW216758   6.396   2.849   1.269
 5287SOL     OW16759   1.152   5.531   1.784
 5287SOL    HW116760   1.114   5.489   1.702
 5287SOL    HW216761   1.083   5.530   1.857
 5288SOL     OW16762   3.993   0.607   1.572
 5288SOL    HW116763   3.961   0.544   1.502
 5288SOL    HW216764   3.922   0.618   1.642
 5289SOL     OW16765   2.789   4.825   5.638
 5289SOL    HW116766   2.839   4.745   5.606
 5289SOL    HW216767   2.697   4.825   5.598
 5290SOL     OW16768   1.897   2.946   4.822
 5290SOL    HW116769   1.931   2.861   4.781
 5290SOL    HW216770   1.959   2.974   4.895
 5291SOL     OW16771   3.164   4.909   4.452
 5291SOL    HW116772   3.146   4.870   4.542
 5291SOL    HW216773   3.086   4.964   4.423
 5292SOL     OW16774   0.482   4.002   4.822
 5292SOL    HW116775   0.433   4.063   4.885
 5292SOL    HW216776   0.430   3.996   4.736
 5293SOL     OW16777   2.528   0.515   4.346
 5293SOL    HW116778   2.449   0.555   4.300
 5293SOL    HW216779   2.572   0.584   4.402
 5294SOL     OW16780   5.039   6.742   4.970
 5294SOL    HW116781   5.011   6.831   5.007
 5294SOL    HW216782   4.958   6.686   4.952
 5295SOL     OW16783   2.132   0.757   2.245
 5295SOL    HW116784   2.182   0.840   2.267
 5295SOL    HW216785   2.117   0.752   2.146
 5296SOL     OW16786   4.849   4.920   1.965
 5296SOL    HW116787   4.868   5.000   1.909
 5296SOL    HW216788   4.918   4.912   2.038
 5297SOL     OW16789   2.602   5.612   6.437
 5297SOL    HW116790   2.601   5.659   6.348
 5297SOL    HW216791   2.640   5.672   6.506
 5298SOL     OW16792   2.164   2.125   0.439
 5298SOL    HW116793   2.181   2.224   0.448
 5298SOL    HW216794   2.170   2.100   0.343
 5299SOL     OW16795   2.577   0.803   1.854
 5299SOL    HW116796   2.550   0.866   1.780
 5299SOL    HW216797   2.670   0.824   1.883
 5300SOL     OW16798   3.205   5.094   6.935
 5300SOL    HW116799   3.191   5.173   6.875
 5300SOL    HW216800   3.117   5.051   6.955
 5301SOL     OW16801   6.071   6.837   6.127
 5301SOL    HW116802   6.145   6.785   6.084
 5301SOL    HW216803   6.081   6.834   6.226
 5302SOL     OW16804   4.990   5.955   2.791
 5302SOL    HW116805   4.903   5.909   2.801
 5302SOL    HW216806   5.025   5.940   2.698
 5303SOL     OW16807   1.389   5.501   5.421
 5303SOL    HW116808   1.342   5.416   5.397
 5303SOL    HW216809   1.487   5.489   5.410
 5304SOL     OW16810   0.454   0.840   3.258
 5304SOL    HW116811   0.465   0.770   3.327
 5304SOL    HW216812   0.375   0.819   3.200
 5305SOL     OW16813   6.918   5.327   4.339
 5305SOL    HW116814   7.003   5.351   4.292
 5305SOL    HW216815   6.940   5.290   4.430
 5306SOL     OW16816   0.953   2.033   5.891
 5306SOL    HW116817   0.865   2.017   5.847
 5306SOL    HW216818   0.989   1.947   5.926
 5307SOL     OW16819   6.803   1.528   1.396
 5307SOL    HW116820   6.751   1.457   1.443
 5307SOL    HW216821   6.754   1.615   1.401
 5308SOL     OW16822   1.863   3.910   2.695
 5308SOL    HW116823   1.938   3.941   2.636
 5308SOL    HW216824   1.826   3.988   2.746
 5309SOL     OW16825   5.764   5.599   3.145
 5309SOL    HW116826   5.827   5.526   3.117
 5309SOL    HW216827   5.796   5.639   3.232
 5310SOL     OW16828   6.172   2.676   3.343
 5310SOL    HW116829   6.243   2.729   3.389
 5310SOL    HW216830   6.094   2.664   3.404
 5311SOL     OW16831   6.138   0.121   0.202
 5311SOL    HW116832   6.112   0.024   0.195
 5311SOL    HW216833   6.060   0.178   0.177
 5312SOL     OW16834   5.949   6.248   0.284
 5312SOL    HW116835   5.980   6.340   0.305
 5312SOL    HW216836   5.887   6.217   0.356
 5313SOL     OW16837   0.929   6.794   5.665
 5313SOL    HW116838   0.943   6.892   5.681
 5313SOL    HW216839   1.018   6.748   5.663
 5314SOL     OW16840   5.763   1.410   1.825
 5314SOL    HW116841   5.809   1.471   1.890
 5314SOL    HW216842   5.691   1.359   1.872
 5315SOL     OW16843   4.514   2.122   3.575
 5315SOL    HW116844   4.539   2.025   3.582
 5315SOL    HW216845   4.557   2.173   3.649
 5316SOL     OW16846   0.593   2.444   4.850
 5316SOL    HW116847   0.617   2.449   4.947
 5316SOL    HW216848   0.659   2.387   4.802
 5317SOL     OW16849   5.941   2.546   6.833
 5317SOL    HW116850   6.041   2.546   6.838
 5317SOL    HW216851   5.908   2.451   6.836
 5318SOL     OW16852   0.173   3.939   6.415
 5318SOL    HW116853   0.241   4.007   6.386
 5318SOL    HW216854   0.100   3.986   6.466
 5319SOL     OW16855   3.760   6.152   2.248
 5319SOL    HW116856   3.780   6.246   2.221
 5319SOL    HW216857   3.667   6.146   2.283
 5320SOL     OW16858   3.975   5.791   1.131
 5320SOL    HW116859   4.031   5.812   1.211
 5320SOL    HW216860   4.020   5.826   1.049
 5321SOL     OW16861   1.555   4.535   5.440
 5321SOL    HW116862   1.630   4.600   5.430
 5321SOL    HW216863   1.546   4.508   5.536
 5322SOL     OW16864   4.187   0.095   1.974
 5322SOL    HW116865   4.175   7.020   1.971
 5322SOL    HW216866   4.110   0.139   1.928
 5323SOL     OW16867   4.173   0.751   5.957
 5323SOL    HW116868   4.112   0.722   6.030
 5323SOL    HW216869   4.250   0.802   5.995
 5324SOL     OW16870   1.772   2.277   1.274
 5324SOL    HW116871   1.867   2.289   1.244
 5324SOL    HW216872   1.770   2.214   1.352
 5325SOL     OW16873   2.037   2.661   5.086
 5325SOL    HW116874   2.008   2.606   5.165
 5325SOL    HW216875   2.133   2.684   5.096
 5326SOL     OW16876   6.556   6.934   1.430
 5326SOL    HW116877   6.575   6.968   1.522
 5326SOL    HW216878   6.491   6.995   1.385
 5327SOL     OW16879   6.881   2.497   5.788
 5327SOL    HW116880   6.783   2.493   5.770
 5327SOL    HW216881   6.898   2.561   5.863
 5328SOL     OW16882   4.877   5.283   0.304
 5328SOL    HW116883   4.963   5.333   0.308
 5328SOL    HW216884   4.864   5.245   0.212
 5329SOL     OW16885   2.139   6.921   6.075
 5329SOL    HW116886   2.102   6.902   6.166
 5329SOL    HW216887   2.072   6.974   6.023
 5330SOL     OW16888   2.180   4.800   1.332
 5330SOL    HW116889   2.270   4.813   1.290
 5330SOL    HW216890   2.188   4.738   1.410
 5331SOL     OW16891   6.209   1.041   6.329
 5331SOL    HW116892   6.302   1.052   6.293
 5331SOL    HW216893   6.206   1.071   6.424
 5332SOL     OW16894   0.147   4.803   1.718
 5332SOL    HW116895   0.157   4.788   1.817
 5332SOL    HW216896   0.083   4.878   1.702
 5333SOL     OW16897   1.097   6.090   4.821
 5333SOL    HW116898   1.021   6.028   4.801
 5333SOL    HW216899   1.183   6.043   4.804
 5334SOL     OW16900   3.771   0.424   4.676
 5334SOL    HW116901   3.745   0.519   4.692
 5334SOL    HW216902   3.757   0.402   4.579
 5335SOL     OW16903   0.168   5.528   6.966
 5335SOL    HW116904   0.264   5.552   6.982
 5335SOL    HW216905   0.122   5.605   6.921
 5336SOL     OW16906   1.164   4.124   1.361
 5336SOL    HW116907   1.242   4.069   1.389
 5336SOL    HW216908   1.079   4.078   1.388
 5337SOL     OW16909   5.407   3.840   1.596
 5337SOL    HW116910   5.348   3.774   1.549
 5337SOL    HW216911   5.401   3.825   1.695
 5338SOL     OW16912   5.970   1.889   0.242
 5338SOL    HW116913   5.880   1.933   0.244
 5338SOL    HW216914   5.959   1.791   0.225
 5339SOL     OW16915   6.605   0.366   2.052
 5339SOL    HW116916   6.640   0.449   2.095
 5339SOL    HW216917   6.676   0.325   1.995
 5340SOL     OW16918   5.606   2.327   6.162
 5340SOL    HW116919   5.665   2.380   6.223
 5340SOL    HW216920   5.604   2.371   6.072
 5341SOL     OW16921   4.216   0.473   0.867
 5341SOL    HW116922   4.224   0.377   0.840
 5341SOL    HW216923   4.306   0.509   0.892
 5342SOL     OW16924   2.565   0.952   6.252
 5342SOL    HW116925   2.597   1.013   6.325
 5342SOL    HW216926   2.632   0.949   6.178
 5343SOL     OW16927   3.875   4.012   2.021
 5343SOL    HW116928   3.808   4.033   2.092
 5343SOL    HW216929   3.902   4.096   1.974
 5344SOL     OW16930   2.029   2.571   2.602
 5344SOL    HW116931   1.999   2.524   2.519
 5344SOL    HW216932   2.095   2.513   2.651
 5345SOL     OW16933   4.841   0.090   2.588
 5345SOL    HW116934   4.890   0.126   2.508
 5345SOL    HW216935   4.744   0.112   2.580
 5346SOL     OW16936   2.768   6.792   3.436
 5346SOL    HW116937   2.751   6.769   3.340
 5346SOL    HW216938   2.804   6.885   3.442
 5347SOL     OW16939   6.848   1.787   2.049
 5347SOL    HW116940   6.801   1.875   2.040
 5347SOL    HW216941   6.933   1.790   1.997
 5348SOL     OW16942   6.864   0.726   0.563
 5348SOL    HW116943   6.874   0.627   0.572
 5348SOL    HW216944   6.898   0.771   0.645
 5349SOL     OW16945   6.441   0.321   1.423
 5349SOL    HW116946   6.380   0.378   1.367
 5349SOL    HW216947   6.535   0.336   1.395
 5350SOL     OW16948   2.766   0.546   0.122
 5350SOL    HW116949   2.668   0.525   0.125
 5350SOL    HW216950   2.817   0.474   0.170
 5351SOL     OW16951   4.142   0.490   1.787
 5351SOL    HW116952   4.060   0.538   1.757
 5351SOL    HW216953   4.208   0.556   1.823
 5352SOL     OW16954   3.514   6.369   3.470
 5352SOL    HW116955   3.527   6.282   3.517
 5352SOL    HW216956   3.417   6.394   3.471
 5353SOL     OW16957   5.652   0.493   5.561
 5353SOL    HW116958   5.581   0.494   5.491
 5353SOL    HW216959   5.740   0.468   5.520
 5354SOL     OW16960   1.220   3.533   1.437
 5354SOL    HW116961   1.300   3.546   1.378
 5354SOL    HW216962   1.223   3.600   1.511
 5355SOL     OW16963   4.160   1.486   4.870
 5355SOL    HW116964   4.192   1.578   4.893
 5355SOL    HW216965   4.190   1.462   4.777
 5356SOL     OW16966   5.789   3.055   0.574
 5356SOL    HW116967   5.847   2.981   0.608
 5356SOL    HW216968   5.725   3.018   0.506
 5357SOL     OW16969   3.747   6.659   0.786
 5357SOL    HW116970   3.722   6.601   0.864
 5357SOL    HW216971   3.696   6.630   0.705
 5358SOL     OW16972   4.761   3.487   1.452
 5358SOL    HW116973   4.812   3.414   1.499
 5358SOL    HW216974   4.726   3.452   1.365
 5359SOL     OW16975   3.126   6.860   6.890
 5359SOL    HW116976   3.057   6.860   6.962
 5359SOL    HW216977   3.214   6.829   6.927
 5360SOL     OW16978   4.143   0.458   6.774
 5360SOL    HW116979   4.078   0.491   6.842
 5360SOL    HW216980   4.145   0.522   6.696
 5361SOL     OW16981   1.966   0.446   6.229
 5361SOL    HW116982   2.043   0.397   6.189
 5361SOL    HW216983   1.960   0.538   6.189
 5362SOL     OW16984   3.773   5.566   3.699
 5362SOL    HW116985   3.687   5.596   3.739
 5362SOL    HW216986   3.807   5.635   3.636
 5363SOL     OW16987   0.653   5.308   4.732
 5363SOL    HW116988   0.569   5.362   4.733
 5363SOL    HW216989   0.695   5.310   4.822
 5364SOL     OW16990   1.004   6.324   6.476
 5364SOL    HW116991   0.932   6.351   6.411
 5364SOL    HW216992   0.970   6.250   6.534
 5365SOL     OW16993   3.739   1.745   6.183
 5365SOL    HW116994   3.663   1.794   6.140
 5365SOL    HW216995   3.775   1.800   6.259
 5366SOL     OW16996   3.457   4.495   6.592
 5366SOL    HW116997   3.357   4.493   6.599
 5366SOL    HW216998   3.491   4.581   6.630
 5367SOL     OW16999   0.212   4.670   0.821
 5367SOL    HW117000   0.134   4.614   0.792
 5367SOL    HW217001   0.222   4.748   0.760
 5368SOL     OW17002   6.708   1.001   3.877
 5368SOL    HW117003   6.749   0.911   3.860
 5368SOL    HW217004   6.639   1.020   3.808
 5369SOL     OW17005   1.891   3.587   2.541
 5369SOL    HW117006   1.870   3.498   2.502
 5369SOL    HW217007   1.975   3.580   2.594
 5370SOL     OW17008   3.802   2.874   1.260
 5370SOL    HW117009   3.755   2.863   1.348
 5370SOL    HW217010   3.737   2.863   1.185
 5371SOL     OW17011   1.662   4.067   4.929
 5371SOL    HW117012   1.608   4.086   4.848
 5371SOL    HW217013   1.758   4.056   4.904
 5372SOL     OW17014   2.807   5.992   3.197
 5372SOL    HW117015   2.717   6.035   3.211
 5372SOL    HW217016   2.804   5.934   3.116
 5373SOL     OW17017   1.994   5.260   4.021
 5373SOL    HW117018   1.905   5.273   3.977
 5373SOL    HW217019   2.054   5.337   3.997
 5374SOL     OW17020   3.376   2.768   0.604
 5374SOL    HW117021   3.323   2.708   0.663
 5374SOL    HW217022   3.456   2.719   0.569
 5375SOL     OW17023   1.530   3.786   5.006
 5375SOL    HW117024   1.594   3.855   4.972
 5375SOL    HW217025   1.574   3.733   5.078
 5376SOL     OW17026   2.953   4.010   6.639
 5376SOL    HW117027   2.948   3.968   6.548
 5376SOL    HW217028   3.040   4.058   6.649
 5377SOL     OW17029   0.683   1.585   1.596
 5377SOL    HW117030   0.695   1.570   1.694
 5377SOL    HW217031   0.607   1.647   1.580
 5378SOL     OW17032   5.030   6.858   0.383
 5378SOL    HW117033   5.059   6.871   0.478
 5378SOL    HW217034   5.015   6.761   0.366
 5379SOL     OW17035   0.070   6.476   1.094
 5379SOL    HW117036   0.070   6.436   1.185
 5379SOL    HW217037   0.104   6.570   1.099
 5380SOL     OW17038   2.397   0.867   4.168
 5380SOL    HW117039   2.418   0.826   4.079
 5380SOL    HW217040   2.318   0.928   4.158
 5381SOL     OW17041   5.534   3.529   1.675
 5381SOL    HW117042   5.631   3.520   1.653
 5381SOL    HW217043   5.518   3.615   1.723
 5382SOL     OW17044   1.909   0.369   1.799
 5382SOL    HW117045   1.927   0.279   1.760
 5382SOL    HW217046   1.845   0.360   1.875
 5383SOL     OW17047   1.980   2.492   4.879
 5383SOL    HW117048   1.943   2.422   4.940
 5383SOL    HW217049   2.015   2.568   4.933
 5384SOL     OW17050   5.432   6.723   4.497
 5384SOL    HW117051   5.418   6.719   4.596
 5384SOL    HW217052   5.520   6.681   4.474
 5385SOL     OW17053   3.075   4.029   2.855
 5385SOL    HW117054   3.119   4.099   2.798
 5385SOL    HW217055   3.096   4.045   2.951
 5386SOL     OW17056   5.722   0.312   5.796
 5386SOL    HW117057   5.710   0.404   5.758
 5386SOL    HW217058   5.634   0.264   5.796
 5387SOL     OW17059   3.384   5.163   1.622
 5387SOL    HW117060   3.419   5.189   1.532
 5387SOL    HW217061   3.390   5.063   1.633
 5388SOL     OW17062   6.109   6.393   2.910
 5388SOL    HW117063   6.103   6.293   2.902
 5388SOL    HW217064   6.180   6.427   2.847
 5389SOL     OW17065   5.198   2.122   1.202
 5389SOL    HW117066   5.144   2.148   1.122
 5389SOL    HW217067   5.156   2.043   1.247
 5390SOL     OW17068   6.261   4.665   6.002
 5390SOL    HW117069   6.258   4.595   6.073
 5390SOL    HW217070   6.186   4.730   6.017
 5391SOL     OW17071   2.919   3.576   0.003
 5391SOL    HW117072   2.899   3.557   0.099
 5391SOL    HW217073   2.857   3.646   6.992
 5392SOL     OW17074   6.412   3.049   2.634
 5392SOL    HW117075   6.400   3.024   2.730
 5392SOL    HW217076   6.476   2.986   2.590
 5393SOL     OW17077   6.267   6.613   6.187
 5393SOL    HW117078   6.215   6.532   6.216
 5393SOL    HW217079   6.315   6.652   6.266
 5394SOL     OW17080   1.988   4.317   5.427
 5394SOL    HW117081   1.938   4.344   5.345
 5394SOL    HW217082   2.084   4.302   5.404
 5395SOL     OW17083   4.600   0.853   0.940
 5395SOL    HW117084   4.526   0.897   0.888
 5395SOL    HW217085   4.687   0.898   0.919
 5396SOL     OW17086   4.761   2.559   2.168
 5396SOL    HW117087   4.746   2.619   2.089
 5396SOL    HW217088   4.732   2.607   2.252
 5397SOL     OW17089   0.790   2.592   1.519
 5397SOL    HW117090   0.824   2.678   1.483
 5397SOL    HW217091   0.855   2.518   1.497
 5398SOL     OW17092   3.251   3.402   2.091
 5398SOL    HW117093   3.235   3.304   2.106
 5398SOL    HW217094   3.186   3.436   2.023
 5399SOL     OW17095   0.443   5.646   7.010
 5399SOL    HW117096   0.516   5.676   6.947
 5399SOL    HW217097   0.476   5.570   0.041
 5400SOL     OW17098   2.268   3.609   6.784
 5400SOL    HW117099   2.319   3.524   6.793
 5400SOL    HW217100   2.179   3.590   6.741
 5401SOL     OW17101   6.381   1.795   1.136
 5401SOL    HW117102   6.310   1.866   1.140
 5401SOL    HW217103   6.471   1.837   1.151
 5402SOL     OW17104   1.305   6.034   2.803
 5402SOL    HW117105   1.330   6.064   2.895
 5402SOL    HW217106   1.387   6.004   2.755
 5403SOL     OW17107   6.246   3.377   6.557
 5403SOL    HW117108   6.258   3.476   6.545
 5403SOL    HW217109   6.148   3.355   6.551
 5404SOL     OW17110   1.271   3.342   3.294
 5404SOL    HW117111   1.221   3.272   3.245
 5404SOL    HW217112   1.360   3.306   3.323
 5405SOL     OW17113   0.094   3.866   5.225
 5405SOL    HW117114   0.043   3.917   5.295
 5405SOL    HW217115   0.133   3.784   5.266
 5406SOL     OW17116   1.433   0.327   4.278
 5406SOL    HW117117   1.396   0.329   4.371
 5406SOL    HW217118   1.463   0.234   4.255
 5407SOL     OW17119   4.284   3.085   7.002
 5407SOL    HW117120   4.225   3.154   6.960
 5407SOL    HW217121   4.257   3.073   0.074
 5408SOL     OW17122   3.568   1.370   0.424
 5408SOL    HW117123   3.629   1.343   0.350
 5408SOL    HW217124   3.531   1.461   0.406
 5409SOL     OW17125   4.148   0.621   2.365
 5409SOL    HW117126   4.198   0.579   2.440
 5409SOL    HW217127   4.059   0.654   2.400
 5410SOL     OW17128   1.420   2.616   2.954
 5410SOL    HW117129   1.428   2.519   2.975
 5410SOL    HW217130   1.368   2.628   2.870
 5411SOL     OW17131   1.870   4.830   4.655
 5411SOL    HW117132   1.917   4.759   4.708
 5411SOL    HW217133   1.832   4.898   4.718
 5412SOL     OW17134   6.242   2.171   1.857
 5412SOL    HW117135   6.250   2.191   1.954
 5412SOL    HW217136   6.191   2.244   1.811
 5413SOL     OW17137   2.553   0.041   2.569
 5413SOL    HW117138   2.536   0.136   2.596
 5413SOL    HW217139   2.534   0.029   2.472
 5414SOL     OW17140   4.437   0.812   5.335
 5414SOL    HW117141   4.464   0.787   5.428
 5414SOL    HW217142   4.355   0.761   5.310
 5415SOL     OW17143   6.151   3.801   2.685
 5415SOL    HW117144   6.069   3.769   2.637
 5415SOL    HW217145   6.145   3.774   2.781
 5416SOL     OW17146   4.369   5.416   4.386
 5416SOL    HW117147   4.468   5.416   4.374
 5416SOL    HW217148   4.338   5.323   4.405
 5417SOL     OW17149   3.206   6.876   6.039
 5417SOL    HW117150   3.171   6.964   6.071
 5417SOL    HW217151   3.254   6.889   5.952
 5418SOL     OW17152   4.308   0.987   3.467
 5418SOL    HW117153   4.295   1.043   3.385
 5418SOL    HW217154   4.254   0.904   3.459
 5419SOL     OW17155   3.533   4.340   6.969
 5419SOL    HW117156   3.549   4.343   6.871
 5419SOL    HW217157   3.544   4.247   7.002
 5420SOL     OW17158   0.817   2.775   2.635
 5420SOL    HW117159   0.731   2.796   2.589
 5420SOL    HW217160   0.820   2.823   2.723
 5421SOL     OW17161   1.589   2.817   1.045
 5421SOL    HW117162   1.635   2.800   0.958
 5421SOL    HW217163   1.500   2.773   1.045
 5422SOL     OW17164   1.278   3.932   6.937
 5422SOL    HW117165   1.245   3.959   0.003
 5422SOL    HW217166   1.296   3.833   6.936
 5423SOL     OW17167   5.441   3.292   5.837
 5423SOL    HW117168   5.517   3.263   5.895
 5423SOL    HW217169   5.462   3.381   5.796
 5424SOL     OW17170   5.346   3.721   5.320
 5424SOL    HW117171   5.315   3.790   5.255
 5424SOL    HW217172   5.364   3.764   5.408
 5425SOL     OW17173   5.036   6.975   4.477
 5425SOL    HW117174   5.088   0.010   4.539
 5425SOL    HW217175   5.095   6.946   4.401
 5426SOL     OW17176   0.400   6.734   4.694
 5426SOL    HW117177   0.305   6.702   4.700
 5426SOL    HW217178   0.405   6.829   4.727
 5427SOL     OW17179   4.374   6.475   7.019
 5427SOL    HW117180   4.358   6.470   6.920
 5427SOL    HW217181   4.312   6.542   0.036
 5428SOL     OW17182   2.309   0.591   7.004
 5428SOL    HW117183   2.213   0.571   6.985
 5428SOL    HW217184   2.335   0.675   6.957
 5429SOL     OW17185   1.335   1.955   5.960
 5429SOL    HW117186   1.419   1.926   6.005
 5429SOL    HW217187   1.260   1.895   5.987
 5430SOL     OW17188   2.231   2.133   5.292
 5430SOL    HW117189   2.253   2.044   5.252
 5430SOL    HW217190   2.224   2.201   5.219
 5431SOL     OW17191   3.679   5.780   4.438
 5431SOL    HW117192   3.722   5.773   4.349
 5431SOL    HW217193   3.582   5.755   4.431
 5432SOL     OW17194   5.454   5.927   1.262
 5432SOL    HW117195   5.461   5.899   1.167
 5432SOL    HW217196   5.430   5.847   1.318
 5433SOL     OW17197   0.100   2.060   4.149
 5433SOL    HW117198   0.035   2.125   4.110
 5433SOL    HW217199   0.189   2.071   4.105
 5434SOL     OW17200   2.532   0.087   5.038
 5434SOL    HW117201   2.511   0.126   4.948
 5434SOL    HW217202   2.463   0.114   5.104
 5435SOL     OW17203   4.875   1.337   2.073
 5435SOL    HW117204   4.956   1.338   2.015
 5435SOL    HW217205   4.794   1.320   2.017
 5436SOL     OW17206   4.865   3.859   2.345
 5436SOL    HW117207   4.943   3.906   2.386
 5436SOL    HW217208   4.816   3.920   2.283
 5437SOL     OW17209   3.211   4.494   6.706
 5437SOL    HW117210   3.174   4.535   6.623
 5437SOL    HW217211   3.191   4.553   6.785
 5438SOL     OW17212   6.699   1.072   1.073
 5438SOL    HW117213   6.765   1.122   1.128
 5438SOL    HW217214   6.626   1.036   1.132
 5439SOL     OW17215   1.412   3.008   1.278
 5439SOL    HW117216   1.472   3.027   1.201
 5439SOL    HW217217   1.391   3.093   1.326
 5440SOL     OW17218   1.477   1.144   1.033
 5440SOL    HW117219   1.464   1.119   1.129
 5440SOL    HW217220   1.528   1.072   0.986
 5441SOL     OW17221   3.676   2.091   4.324
 5441SOL    HW117222   3.606   2.090   4.253
 5441SOL    HW217223   3.632   2.086   4.414
 5442SOL     OW17224   3.298   0.654   2.426
 5442SOL    HW117225   3.381   0.703   2.454
 5442SOL    HW217226   3.297   0.565   2.471
 5443SOL     OW17227   2.954   6.788   5.935
 5443SOL    HW117228   2.917   6.817   6.023
 5443SOL    HW217229   3.053   6.782   5.940
 5444SOL     OW17230   0.137   0.615   3.366
 5444SOL    HW117231   0.148   0.569   3.454
 5444SOL    HW217232   0.196   0.571   3.298
 5445SOL     OW17233   5.950   3.468   2.052
 5445SOL    HW117234   5.903   3.382   2.072
 5445SOL    HW217235   5.967   3.517   2.137
 5446SOL     OW17236   0.057   5.687   5.874
 5446SOL    HW117237   0.027   5.767   5.926
 5446SOL    HW217238   0.119   5.632   5.930
 5447SOL     OW17239   2.777   2.138   0.768
 5447SOL    HW117240   2.707   2.083   0.722
 5447SOL    HW217241   2.749   2.152   0.864
 5448SOL     OW17242   5.889   1.784   6.230
 5448SOL    HW117243   5.850   1.692   6.234
 5448SOL    HW217244   5.816   1.850   6.211
 5449SOL     OW17245   0.185   3.224   6.592
 5449SOL    HW117246   0.121   3.300   6.600
 5449SOL    HW217247   0.251   3.227   6.667
 5450SOL     OW17248   2.128   6.059   0.879
 5450SOL    HW117249   2.217   6.063   0.923
 5450SOL    HW217250   2.108   5.964   0.853
 5451SOL     OW17251   1.743   0.255   2.869
 5451SOL    HW117252   1.816   0.302   2.918
 5451SOL    HW217253   1.656   0.274   2.914
 5452SOL     OW17254   2.488   3.681   5.477
 5452SOL    HW117255   2.566   3.712   5.532
 5452SOL    HW217256   2.448   3.759   5.429
 5453SOL     OW17257   0.195   5.181   6.190
 5453SOL    HW117258   0.279   5.179   6.135
 5453SOL    HW217259   0.163   5.088   6.206
 5454SOL     OW17260   0.626   4.031   5.316
 5454SOL    HW117261   0.570   3.966   5.264
 5454SOL    HW217262   0.607   4.124   5.285
 5455SOL     OW17263   0.215   3.049   0.535
 5455SOL    HW117264   0.205   2.960   0.491
 5455SOL    HW217265   0.156   3.054   0.615
 5456SOL     OW17266   3.247   6.711   1.736
 5456SOL    HW117267   3.306   6.778   1.692
 5456SOL    HW217268   3.228   6.636   1.673
 5457SOL     OW17269   6.479   3.785   0.037
 5457SOL    HW117270   6.462   3.693   0.071
 5457SOL    HW217271   6.391   3.831   0.020
 5458SOL     OW17272   2.040   4.487   6.118
 5458SOL    HW117273   2.046   4.509   6.215
 5458SOL    HW217274   2.123   4.519   6.071
 5459SOL     OW17275   2.573   4.666   6.014
 5459SOL    HW117276   2.670   4.673   6.037
 5459SOL    HW217277   2.562   4.648   5.916
 5460SOL     OW17278   3.871   6.887   3.107
 5460SOL    HW117279   3.859   6.818   3.178
 5460SOL    HW217280   3.928   6.850   3.033
 5461SOL     OW17281   4.519   6.535   4.925
 5461SOL    HW117282   4.500   6.441   4.898
 5461SOL    HW217283   4.544   6.588   4.844
 5462SOL     OW17284   1.071   0.586   1.561
 5462SOL    HW117285   1.027   0.498   1.547
 5462SOL    HW217286   1.011   0.660   1.530
 5463SOL     OW17287   6.781   3.315   0.740
 5463SOL    HW117288   6.759   3.302   0.837
 5463SOL    HW217289   6.793   3.226   0.696
 5464SOL     OW17290   1.994   6.574   4.129
 5464SOL    HW117291   2.033   6.487   4.159
 5464SOL    HW217292   2.060   6.647   4.145
 5465SOL     OW17293   2.317   6.274   6.686
 5465SOL    HW117294   2.302   6.361   6.638
 5465SOL    HW217295   2.347   6.205   6.620
 5466SOL     OW17296   5.330   4.787   4.775
 5466SOL    HW117297   5.415   4.788   4.827
 5466SOL    HW217298   5.269   4.717   4.813
 5467SOL     OW17299   5.360   1.448   2.124
 5467SOL    HW117300   5.375   1.359   2.080
 5467SOL    HW217301   5.300   1.504   2.066
 5468SOL     OW17302   4.360   1.950   5.804
 5468SOL    HW117303   4.446   1.918   5.765
 5468SOL    HW217304   4.357   1.928   5.902
 5469SOL     OW17305   4.749   4.308   1.197
 5469SOL    HW117306   4.785   4.216   1.179
 5469SOL    HW217307   4.819   4.363   1.241
 5470SOL     OW17308   0.307   5.202   3.415
 5470SOL    HW117309   0.244   5.230   3.487
 5470SOL    HW217310   0.287   5.252   3.331
 5471SOL     OW17311   6.234   4.817   2.070
 5471SOL    HW117312   6.237   4.759   2.151
 5471SOL    HW217313   6.268   4.908   2.093
 5472SOL     OW17314   3.774   5.244   5.777
 5472SOL    HW117315   3.729   5.193   5.703
 5472SOL    HW217316   3.708   5.305   5.820
 5473SOL     OW17317   1.600   4.250   3.260
 5473SOL    HW117318   1.629   4.183   3.328
 5473SOL    HW217319   1.640   4.339   3.281
 5474SOL     OW17320   1.313   6.359   3.637
 5474SOL    HW117321   1.382   6.419   3.677
 5474SOL    HW217322   1.300   6.383   3.541
 5475SOL     OW17323   3.090   2.884   1.491
 5475SOL    HW117324   3.150   2.962   1.509
 5475SOL    HW217325   3.065   2.840   1.577
 5476SOL     OW17326   1.946   3.070   0.002
 5476SOL    HW117327   2.042   3.096   0.009
 5476SOL    HW217328   1.936   2.995   6.961
 5477SOL     OW17329   1.791   2.853   2.250
 5477SOL    HW117330   1.763   2.767   2.209
 5477SOL    HW217331   1.797   2.842   2.350
 5478SOL     OW17332   0.387   5.574   5.975
 5478SOL    HW117333   0.322   5.502   5.951
 5478SOL    HW217334   0.458   5.536   6.034
 5479SOL     OW17335   4.803   6.906   4.635
 5479SOL    HW117336   4.709   6.924   4.604
 5479SOL    HW217337   4.865   6.913   4.557
 5480SOL     OW17338   1.105   2.553   5.401
 5480SOL    HW117339   1.092   2.652   5.412
 5480SOL    HW217340   1.023   2.505   5.430
 5481SOL     OW17341   4.804   6.526   3.435
 5481SOL    HW117342   4.860   6.497   3.357
 5481SOL    HW217343   4.810   6.625   3.446
 5482SOL     OW17344   2.047   5.289   2.432
 5482SOL    HW117345   2.094   5.234   2.501
 5482SOL    HW217346   1.964   5.242   2.403
 5483SOL     OW17347   0.569   2.756   5.915
 5483SOL    HW117348   0.588   2.692   5.990
 5483SOL    HW217349   0.498   2.717   5.856
 5484SOL     OW17350   4.901   0.107   4.141
 5484SOL    HW117351   4.995   0.082   4.114
 5484SOL    HW217352   4.836   0.066   4.077
 5485SOL     OW17353   4.020   0.347   4.788
 5485SOL    HW117354   3.940   0.316   4.736
 5485SOL    HW217355   3.999   0.344   4.886
 5486SOL     OW17356   3.054   4.940   3.909
 5486SOL    HW117357   2.962   4.911   3.885
 5486SOL    HW217358   3.088   4.882   3.983
 5487SOL     OW17359   2.958   5.186   5.755
 5487SOL    HW117360   3.016   5.241   5.816
 5487SOL    HW217361   2.988   5.200   5.661
 5488SOL     OW17362   4.707   1.463   6.899
 5488SOL    HW117363   4.729   1.559   6.889
 5488SOL    HW217364   4.640   1.452   6.973
 5489SOL     OW17365   0.404   3.517   4.132
 5489SOL    HW117366   0.350   3.509   4.216
 5489SOL    HW217367   0.369   3.451   4.064
 5490SOL     OW17368   1.058   5.627   2.664
 5490SOL    HW117369   1.082   5.697   2.731
 5490SOL    HW217370   1.010   5.670   2.587
 5491SOL     OW17371   6.318   3.728   0.548
 5491SOL    HW117372   6.268   3.805   0.508
 5491SOL    HW217373   6.254   3.653   0.567
 5492SOL     OW17374   7.014   1.505   6.096
 5492SOL    HW117375   0.055   1.577   6.123
 5492SOL    HW217376   6.950   1.488   6.170
 5493SOL     OW17377   4.450   4.103   0.481
 5493SOL    HW117378   4.412   4.061   0.563
 5493SOL    HW217379   4.550   4.103   0.487
 5494SOL     OW17380   6.293   3.292   5.768
 5494SOL    HW117381   6.257   3.212   5.816
 5494SOL    HW217382   6.223   3.364   5.766
 5495SOL     OW17383   5.660   0.156   6.947
 5495SOL    HW117384   5.572   0.152   6.899
 5495SOL    HW217385   5.689   0.251   6.956
 5496SOL     OW17386   4.142   0.026   5.596
 5496SOL    HW117387   4.218   0.046   5.535
 5496SOL    HW217388   4.148   0.084   5.677
 5497SOL     OW17389   0.693   0.473   5.314
 5497SOL    HW117390   0.625   0.446   5.381
 5497SOL    HW217391   0.673   0.566   5.282
 5498SOL     OW17392   0.386   5.038   1.580
 5498SOL    HW117393   0.305   5.096   1.590
 5498SOL    HW217394   0.461   5.092   1.542
 5499SOL     OW17395   1.989   0.421   4.185
 5499SOL    HW117396   1.967   0.512   4.220
 5499SOL    HW217397   2.000   0.425   4.086
 5500SOL     OW17398   2.025   6.760   1.178
 5500SOL    HW117399   1.967   6.837   1.152
 5500SOL    HW217400   2.048   6.767   1.275
 5501SOL     OW17401   4.625   3.528   6.458
 5501SOL    HW117402   4.551   3.595   6.461
 5501SOL    HW217403   4.590   3.443   6.419
 5502SOL     OW17404   4.928   3.655   6.409
 5502SOL    HW117405   4.900   3.750   6.396
 5502SOL    HW217406   4.869   3.595   6.355
 5503SOL     OW17407   5.893   3.230   0.953
 5503SOL    HW117408   5.872   3.255   0.859
 5503SOL    HW217409   5.909   3.131   0.958
 5504SOL     OW17410   3.807   1.986   6.811
 5504SOL    HW117411   3.876   1.927   6.853
 5504SOL    HW217412   3.716   1.946   6.823
 5505SOL     OW17413   3.009   4.861   2.293
 5505SOL    HW117414   2.972   4.884   2.383
 5505SOL    HW217415   2.936   4.822   2.236
 5506SOL     OW17416   6.744   2.305   6.315
 5506SOL    HW117417   6.650   2.289   6.284
 5506SOL    HW217418   6.805   2.307   6.236
 5507SOL     OW17419   4.005   6.887   0.418
 5507SOL    HW117420   4.009   6.958   0.488
 5507SOL    HW217421   3.968   6.803   0.457
 5508SOL     OW17422   0.655   1.415   6.360
 5508SOL    HW117423   0.647   1.497   6.416
 5508SOL    HW217424   0.612   1.338   6.407
 5509SOL     OW17425   6.221   3.967   0.059
 5509SOL    HW117426   6.159   3.926   7.015
 5509SOL    HW217427   6.167   4.009   0.132
 5510SOL     OW17428   5.067   5.129   6.454
 5510SOL    HW117429   4.995   5.146   6.522
 5510SOL    HW217430   5.152   5.170   6.485
 5511SOL     OW17431   0.783   2.500   5.859
 5511SOL    HW117432   0.755   2.510   5.954
 5511SOL    HW217433   0.701   2.501   5.801
 5512SOL     OW17434   1.943   0.484   2.249
 5512SOL    HW117435   2.035   0.522   2.265
 5512SOL    HW217436   1.880   0.524   2.315
 5513SOL     OW17437   3.769   4.537   0.029
 5513SOL    HW117438   3.835   4.488   0.086
 5513SOL    HW217439   3.696   4.475   0.001
 5514SOL     OW17440   3.369   1.145   0.420
 5514SOL    HW117441   3.434   1.220   0.409
 5514SOL    HW217442   3.284   1.167   0.373
 5515SOL     OW17443   3.578   5.399   2.484
 5515SOL    HW117444   3.493   5.356   2.454
 5515SOL    HW217445   3.637   5.414   2.404
 5516SOL     OW17446   1.639   2.330   5.596
 5516SOL    HW117447   1.553   2.330   5.649
 5516SOL    HW217448   1.671   2.424   5.585
 5517SOL     OW17449   0.964   2.142   3.367
 5517SOL    HW117450   0.918   2.114   3.452
 5517SOL    HW217451   0.907   2.120   3.289
 5518SOL     OW17452   4.455   5.045   6.438
 5518SOL    HW117453   4.408   5.051   6.350
 5518SOL    HW217454   4.509   5.127   6.453
 5519SOL     OW17455   5.429   2.431   5.870
 5519SOL    HW117456   5.509   2.486   5.892
 5519SOL    HW217457   5.456   2.356   5.809
 5520SOL     OW17458   4.992   6.420   1.145
 5520SOL    HW117459   4.894   6.434   1.162
 5520SOL    HW217460   5.008   6.327   1.113
 5521SOL     OW17461   4.449   6.930   2.046
 5521SOL    HW117462   4.436   6.888   1.956
 5521SOL    HW217463   4.410   6.869   2.116
 5522SOL     OW17464   5.339   6.434   0.065
 5522SOL    HW117465   5.418   6.418   0.125
 5522SOL    HW217466   5.356   6.515   0.009
 5523SOL     OW17467   5.099   2.193   0.932
 5523SOL    HW117468   5.073   2.287   0.954
 5523SOL    HW217469   5.019   2.144   0.897
 5524SOL     OW17470   2.772   1.276   3.438
 5524SOL    HW117471   2.768   1.177   3.443
 5524SOL    HW217472   2.843   1.303   3.373
 5525SOL     OW17473   0.060   1.542   1.113
 5525SOL    HW117474   0.080   1.596   1.032
 5525SOL    HW217475   6.992   1.502   1.106
 5526SOL     OW17476   5.411   4.331   4.024
 5526SOL    HW117477   5.451   4.247   4.060
 5526SOL    HW217478   5.448   4.350   3.933
 5527SOL     OW17479   6.299   0.287   2.580
 5527SOL    HW117480   6.298   0.334   2.492
 5527SOL    HW217481   6.392   0.255   2.599
 5528SOL     OW17482   1.459   1.610   6.711
 5528SOL    HW117483   1.423   1.685   6.766
 5528SOL    HW217484   1.546   1.637   6.670
 5529SOL     OW17485   2.926   0.667   2.165
 5529SOL    HW117486   2.967   0.629   2.248
 5529SOL    HW217487   2.849   0.726   2.190
 5530SOL     OW17488   0.675   1.951   0.977
 5530SOL    HW117489   0.717   2.016   0.914
 5530SOL    HW217490   0.714   1.964   1.068
 5531SOL     OW17491   1.683   4.493   1.534
 5531SOL    HW117492   1.734   4.554   1.474
 5531SOL    HW217493   1.747   4.434   1.583
 5532SOL     OW17494   0.532   3.742   6.168
 5532SOL    HW117495   0.518   3.673   6.098
 5532SOL    HW217496   0.526   3.833   6.127
 5533SOL     OW17497   3.848   1.264   2.833
 5533SOL    HW117498   3.771   1.302   2.781
 5533SOL    HW217499   3.934   1.296   2.793
 5534SOL     OW17500   1.425   0.200   4.560
 5534SOL    HW117501   1.417   0.103   4.584
 5534SOL    HW217502   1.500   0.241   4.613
 5535SOL     OW17503   0.024   1.804   2.867
 5535SOL    HW117504   7.015   1.759   2.784
 5535SOL    HW217505   0.124   1.812   2.864
 5536SOL     OW17506   4.559   6.678   4.706
 5536SOL    HW117507   4.599   6.659   4.617
 5536SOL    HW217508   4.465   6.711   4.694
 5537SOL     OW17509   2.660   2.382   3.068
 5537SOL    HW117510   2.619   2.474   3.069
 5537SOL    HW217511   2.695   2.362   2.976
 5538SOL     OW17512   4.635   5.352   4.379
 5538SOL    HW117513   4.725   5.381   4.346
 5538SOL    HW217514   4.636   5.253   4.393
 5539SOL     OW17515   2.104   4.453   6.925
 5539SOL    HW117516   2.060   4.519   6.864
 5539SOL    HW217517   2.170   4.398   6.874
 5540SOL     OW17518   4.144   5.603   1.709
 5540SOL    HW117519   4.115   5.517   1.667
 5540SOL    HW217520   4.121   5.601   1.806
 5541SOL     OW17521   4.601   0.767   6.060
 5541SOL    HW117522   4.578   0.678   6.021
 5541SOL    HW217523   4.678   0.807   6.009
 5542SOL     OW17524   5.036   4.754   6.661
 5542SOL    HW117525   5.100   4.745   6.585
 5542SOL    HW217526   4.948   4.713   6.635
 5543SOL     OW17527   0.748   1.869   4.864
 5543SOL    HW117528   0.847   1.864   4.870
 5543SOL    HW217529   0.717   1.962   4.883
 5544SOL     OW17530   5.387   1.011   0.055
 5544SOL    HW117531   5.435   1.007   6.991
 5544SOL    HW217532   5.454   1.023   0.128
 5545SOL     OW17533   2.508   2.248   1.839
 5545SOL    HW117534   2.486   2.340   1.872
 5545SOL    HW217535   2.499   2.182   1.913
 5546SOL     OW17536   3.987   5.397   5.830
 5546SOL    HW117537   3.905   5.346   5.807
 5546SOL    HW217538   4.036   5.421   5.747
 5547SOL     OW17539   3.463   5.404   4.365
 5547SOL    HW117540   3.503   5.480   4.314
 5547SOL    HW217541   3.364   5.404   4.354
 5548SOL     OW17542   0.413   1.818   4.758
 5548SOL    HW117543   0.505   1.854   4.768
 5548SOL    HW217544   0.358   1.843   4.838
 5549SOL     OW17545   3.246   5.364   6.778
 5549SOL    HW117546   3.210   5.373   6.685
 5549SOL    HW217547   3.180   5.402   6.843
 5550SOL     OW17548   2.689   6.414   2.755
 5550SOL    HW117549   2.707   6.493   2.814
 5550SOL    HW217550   2.775   6.379   2.718
 5551SOL     OW17551   0.182   1.194   2.567
 5551SOL    HW117552   0.269   1.183   2.518
 5551SOL    HW217553   0.107   1.161   2.510
 5552SOL     OW17554   1.648   2.822   2.820
 5552SOL    HW117555   1.714   2.747   2.814
 5552SOL    HW217556   1.564   2.788   2.862
 5553SOL     OW17557   4.626   6.261   5.983
 5553SOL    HW117558   4.625   6.351   5.938
 5553SOL    HW217559   4.674   6.268   6.071
 5554SOL     OW17560   3.125   1.164   4.577
 5554SOL    HW117561   3.090   1.251   4.612
 5554SOL    HW217562   3.048   1.102   4.560
 5555SOL     OW17563   0.716   6.199   1.364
 5555SOL    HW117564   0.624   6.222   1.333
 5555SOL    HW217565   0.730   6.100   1.356
 5556SOL     OW17566   0.070   0.999   5.123
 5556SOL    HW117567   0.032   1.082   5.083
 5556SOL    HW217568   0.094   0.934   5.051
 5557SOL     OW17569   3.433   0.094   2.673
 5557SOL    HW117570   3.351   0.145   2.697
 5557SOL    HW217571   3.485   0.073   2.755
 5558SOL     OW17572   5.208   2.180   5.754
 5558SOL    HW117573   5.198   2.275   5.782
 5558SOL    HW217574   5.145   2.123   5.807
 5559SOL     OW17575   2.396   0.865   0.810
 5559SOL    HW117576   2.393   0.896   0.905
 5559SOL    HW217577   2.371   0.768   0.805
 5560SOL     OW17578   0.308   1.521   4.724
 5560SOL    HW117579   0.363   1.602   4.750
 5560SOL    HW217580   0.232   1.511   4.788
 5561SOL     OW17581   1.484   4.576   1.688
 5561SOL    HW117582   1.553   4.561   1.616
 5561SOL    HW217583   1.411   4.508   1.678
 5562SOL     OW17584   3.576   2.231   6.957
 5562SOL    HW117585   3.568   2.184   6.869
 5562SOL    HW217586   3.620   2.319   6.944
 5563SOL     OW17587   3.922   4.422   1.254
 5563SOL    HW117588   3.904   4.405   1.158
 5563SOL    HW217589   3.980   4.349   1.291
 5564SOL     OW17590   6.139   1.813   2.161
 5564SOL    HW117591   6.055   1.867   2.163
 5564SOL    HW217592   6.206   1.853   2.223
 5565SOL     OW17593   1.987   2.847   5.434
 5565SOL    HW117594   2.077   2.889   5.431
 5565SOL    HW217595   1.991   2.762   5.488
 5566SOL     OW17596   2.713   3.647   0.507
 5566SOL    HW117597   2.718   3.720   0.575
 5566SOL    HW217598   2.693   3.560   0.553
 5567SOL     OW17599   1.806   5.474   3.659
 5567SOL    HW117600   1.801   5.570   3.631
 5567SOL    HW217601   1.799   5.416   3.578
 5568SOL     OW17602   3.727   2.465   6.744
 5568SOL    HW117603   3.778   2.537   6.793
 5568SOL    HW217604   3.629   2.476   6.762
 5569SOL     OW17605   4.226   1.830   0.414
 5569SOL    HW117606   4.235   1.768   0.492
 5569SOL    HW217607   4.317   1.852   0.379
 5570SOL     OW17608   1.484   3.087   5.750
 5570SOL    HW117609   1.554   3.016   5.748
 5570SOL    HW217610   1.464   3.118   5.657
 5571SOL     OW17611   0.127   4.412   6.616
 5571SOL    HW117612   0.043   4.373   6.654
 5571SOL    HW217613   0.148   4.498   6.662
 5572SOL     OW17614   0.599   3.361   6.016
 5572SOL    HW117615   0.696   3.346   6.037
 5572SOL    HW217616   0.575   3.314   5.932
 5573SOL     OW17617   6.553   3.655   6.737
 5573SOL    HW117618   6.464   3.612   6.726
 5573SOL    HW217619   6.564   3.729   6.670
 5574SOL     OW17620   1.535   6.723   4.126
 5574SOL    HW117621   1.504   6.718   4.221
 5574SOL    HW217622   1.468   6.774   4.072
 5575SOL     OW17623   0.913   1.216   2.594
 5575SOL    HW117624   0.937   1.257   2.506
 5575SOL    HW217625   0.944   1.277   2.668
 5576SOL     OW17626   5.912   6.428   5.703
 5576SOL    HW117627   5.832   6.456   5.649
 5576SOL    HW217628   5.925   6.492   5.779
 5577SOL     OW17629   2.058   4.342   4.596
 5577SOL    HW117630   2.089   4.436   4.611
 5577SOL    HW217631   2.109   4.279   4.654
 5578SOL     OW17632   4.011   1.880   6.025
 5578SOL    HW117633   3.989   1.795   6.072
 5578SOL    HW217634   3.933   1.943   6.032
 5579SOL     OW17635   5.165   4.541   2.204
 5579SOL    HW117636   5.254   4.585   2.223
 5579SOL    HW217637   5.172   4.489   2.120
 5580SOL     OW17638   5.579   1.745   1.774
 5580SOL    HW117639   5.618   1.671   1.720
 5580SOL    HW217640   5.499   1.782   1.727
 5581SOL     OW17641   3.259   2.932   0.411
 5581SOL    HW117642   3.179   2.906   0.356
 5581SOL    HW217643   3.285   2.854   0.468
 5582SOL     OW17644   3.224   3.044   3.487
 5582SOL    HW117645   3.148   3.099   3.453
 5582SOL    HW217646   3.241   2.968   3.425
 5583SOL     OW17647   3.991   0.835   6.890
 5583SOL    HW117648   3.942   0.900   6.831
 5583SOL    HW217649   4.077   0.808   6.847
 5584SOL     OW17650   4.886   3.434   4.002
 5584SOL    HW117651   4.934   3.484   4.074
 5584SOL    HW217652   4.820   3.371   4.043
 5585SOL     OW17653   0.602   0.183   3.392
 5585SOL    HW117654   0.697   0.151   3.395
 5585SOL    HW217655   0.550   0.127   3.327
 5586SOL     OW17656   2.469   0.549   0.207
 5586SOL    HW117657   2.408   0.566   0.130
 5586SOL    HW217658   2.429   0.480   0.267
 5587SOL     OW17659   3.884   6.221   3.565
 5587SOL    HW117660   3.953   6.164   3.518
 5587SOL    HW217661   3.799   6.169   3.574
 5588SOL     OW17662   5.226   6.585   6.587
 5588SOL    HW117663   5.150   6.616   6.530
 5588SOL    HW217664   5.202   6.597   6.684
 5589SOL     OW17665   2.011   3.661   0.103
 5589SOL    HW117666   2.100   3.697   0.130
 5589SOL    HW217667   1.939   3.717   0.142
 5590SOL     OW17668   6.758   0.544   3.591
 5590SOL    HW117669   6.838   0.496   3.555
 5590SOL    HW217670   6.686   0.545   3.523
 5591SOL     OW17671   5.413   0.189   6.777
 5591SOL    HW117672   5.319   0.164   6.751
 5591SOL    HW217673   5.413   0.281   6.815
 5592SOL     OW17674   1.358   2.920   2.772
 5592SOL    HW117675   1.417   2.949   2.697
 5592SOL    HW217676   1.325   2.827   2.753
 5593SOL     OW17677   2.246   4.198   4.740
 5593SOL    HW117678   2.227   4.124   4.675
 5593SOL    HW217679   2.259   4.159   4.831
 5594SOL     OW17680   2.707   1.402   6.041
 5594SOL    HW117681   2.805   1.391   6.051
 5594SOL    HW217682   2.664   1.406   6.131
 5595SOL     OW17683   0.551   3.114   6.565
 5595SOL    HW117684   0.506   3.138   6.479
 5595SOL    HW217685   0.498   3.149   6.642
 5596SOL     OW17686   5.029   3.284   4.398
 5596SOL    HW117687   5.129   3.280   4.397
 5596SOL    HW217688   4.993   3.201   4.355
 5597SOL     OW17689   6.987   1.923   6.701
 5597SOL    HW117690   7.001   2.020   6.681
 5597SOL    HW217691   6.979   1.872   6.615
 5598SOL     OW17692   6.236   1.057   3.961
 5598SOL    HW117693   6.168   1.053   3.889
 5598SOL    HW217694   6.219   1.138   4.018
 5599SOL     OW17695   5.528   3.465   3.018
 5599SOL    HW117696   5.469   3.424   3.088
 5599SOL    HW217697   5.547   3.397   2.947
 5600SOL     OW17698   1.640   2.996   2.045
 5600SOL    HW117699   1.699   2.971   2.122
 5600SOL    HW217700   1.621   2.915   1.991
 5601SOL     OW17701   6.219   2.633   6.509
 5601SOL    HW117702   6.297   2.571   6.500
 5601SOL    HW217703   6.152   2.613   6.437
 5602SOL     OW17704   6.468   1.904   2.882
 5602SOL    HW117705   6.509   1.846   2.811
 5602SOL    HW217706   6.383   1.944   2.848
 5603SOL     OW17707   3.577   1.900   6.506
 5603SOL    HW117708   3.669   1.863   6.493
 5603SOL    HW217709   3.510   1.827   6.492
 5604SOL     OW17710   1.419   5.077   3.284
 5604SOL    HW117711   1.438   5.086   3.187
 5604SOL    HW217712   1.417   5.167   3.327
 5605SOL     OW17713   3.347   6.670   4.764
 5605SOL    HW117714   3.296   6.709   4.687
 5605SOL    HW217715   3.350   6.571   4.756
 5606SOL     OW17716   4.503   3.748   0.997
 5606SOL    HW117717   4.495   3.742   1.097
 5606SOL    HW217718   4.421   3.791   0.959
 5607SOL     OW17719   0.849   2.294   2.633
 5607SOL    HW117720   0.921   2.285   2.702
 5607SOL    HW217721   0.878   2.358   2.562
 5608SOL     OW17722   6.505   0.244   3.605
 5608SOL    HW117723   6.492   0.341   3.621
 5608SOL    HW217724   6.600   0.219   3.626
 5609SOL     OW17725   6.455   0.688   0.230
 5609SOL    HW117726   6.512   0.653   0.305
 5609SOL    HW217727   6.511   0.700   0.148
 5610SOL     OW17728   5.798   6.369   6.145
 5610SOL    HW117729   5.778   6.431   6.069
 5610SOL    HW217730   5.845   6.288   6.111
 5611SOL     OW17731   6.443   3.971   1.474
 5611SOL    HW117732   6.513   3.902   1.456
 5611SOL    HW217733   6.414   3.964   1.570
 5612SOL     OW17734   4.563   2.532   1.323
 5612SOL    HW117735   4.528   2.584   1.401
 5612SOL    HW217736   4.544   2.435   1.337
 5613SOL     OW17737   6.421   5.198   5.538
 5613SOL    HW117738   6.488   5.193   5.464
 5613SOL    HW217739   6.408   5.293   5.565
 5614SOL     OW17740   5.346   2.511   4.836
 5614SOL    HW117741   5.393   2.449   4.899
 5614SOL    HW217742   5.306   2.587   4.886
 5615SOL     OW17743   0.505   3.332   2.797
 5615SOL    HW117744   0.523   3.273   2.718
 5615SOL    HW217745   0.541   3.287   2.880
 5616SOL     OW17746   1.279   3.433   1.762
 5616SOL    HW117747   1.193   3.482   1.749
 5616SOL    HW217748   1.264   3.354   1.822
 5617SOL     OW17749   0.502   5.292   5.339
 5617SOL    HW117750   0.507   5.337   5.249
 5617SOL    HW217751   0.406   5.273   5.361
 5618SOL     OW17752   4.709   0.701   2.752
 5618SOL    HW117753   4.775   0.735   2.819
 5618SOL    HW217754   4.632   0.764   2.745
 5619SOL     OW17755   3.070   3.927   3.503
 5619SOL    HW117756   3.099   3.999   3.566
 5619SOL    HW217757   3.116   3.841   3.528
 5620SOL     OW17758   4.882   5.061   5.249
 5620SOL    HW117759   4.934   4.993   5.303
 5620SOL    HW217760   4.935   5.145   5.242
 5621SOL     OW17761   1.104   3.130   6.294
 5621SOL    HW117762   1.154   3.091   6.217
 5621SOL    HW217763   1.119   3.074   6.375
 5622SOL     OW17764   5.858   5.800   2.977
 5622SOL    HW117765   5.796   5.732   3.015
 5622SOL    HW217766   5.942   5.804   3.031
 5623SOL     OW17767   4.610   4.959   3.839
 5623SOL    HW117768   4.555   4.968   3.756
 5623SOL    HW217769   4.642   4.865   3.847
 5624SOL     OW17770   4.862   3.972   3.936
 5624SOL    HW117771   4.858   3.875   3.914
 5624SOL    HW217772   4.943   3.991   3.991
 5625SOL     OW17773   3.075   6.780   6.453
 5625SOL    HW117774   3.126   6.725   6.387
 5625SOL    HW217775   3.114   6.872   6.457
 5626SOL     OW17776   1.875   4.823   6.361
 5626SOL    HW117777   1.955   4.882   6.360
 5626SOL    HW217778   1.895   4.741   6.415
 5627SOL     OW17779   1.280   5.245   1.056
 5627SOL    HW117780   1.296   5.153   1.092
 5627SOL    HW217781   1.184   5.256   1.032
 5628SOL     OW17782   1.350   2.908   0.292
 5628SOL    HW117783   1.343   2.850   0.212
 5628SOL    HW217784   1.282   2.879   0.360
 5629SOL     OW17785   6.704   3.495   4.361
 5629SOL    HW117786   6.783   3.499   4.300
 5629SOL    HW217787   6.673   3.400   4.371
 5630SOL     OW17788   1.450   4.092   0.147
 5630SOL    HW117789   1.485   4.062   0.059
 5630SOL    HW217790   1.384   4.166   0.134
 5631SOL     OW17791   4.104   0.840   2.643
 5631SOL    HW117792   4.039   0.808   2.573
 5631SOL    HW217793   4.054   0.887   2.716
 5632SOL     OW17794   3.831   6.734   6.773
 5632SOL    HW117795   3.798   6.827   6.753
 5632SOL    HW217796   3.796   6.705   6.862
 5633SOL     OW17797   1.617   5.220   5.551
 5633SOL    HW117798   1.549   5.220   5.625
 5633SOL    HW217799   1.709   5.228   5.589
 5634SOL     OW17800   2.646   6.919   1.896
 5634SOL    HW117801   2.697   6.953   1.817
 5634SOL    HW217802   2.698   6.846   1.941
 5635SOL     OW17803   3.642   0.308   2.195
 5635SOL    HW117804   3.545   0.292   2.216
 5635SOL    HW217805   3.699   0.265   2.265
 5636SOL     OW17806   5.231   0.088   4.674
 5636SOL    HW117807   5.287   0.013   4.709
 5636SOL    HW217808   5.291   0.161   4.640
 5637SOL     OW17809   5.033   6.945   5.188
 5637SOL    HW117810   4.971   6.995   5.129
 5637SOL    HW217811   5.122   6.991   5.189
 5638SOL     OW17812   0.573   5.447   0.161
 5638SOL    HW117813   0.524   5.360   0.164
 5638SOL    HW217814   0.596   5.476   0.254
 5639SOL     OW17815   2.906   6.768   2.291
 5639SOL    HW117816   2.813   6.732   2.282
 5639SOL    HW217817   2.941   6.793   2.201
 5640SOL     OW17818   3.579   6.930   3.927
 5640SOL    HW117819   3.599   0.002   3.943
 5640SOL    HW217820   3.653   6.873   3.964
 5641SOL     OW17821   6.367   4.526   3.442
 5641SOL    HW117822   6.465   4.523   3.460
 5641SOL    HW217823   6.338   4.621   3.427
 5642SOL     OW17824   2.640   2.132   6.356
 5642SOL    HW117825   2.613   2.080   6.275
 5642SOL    HW217826   2.571   2.202   6.374
 5643SOL     OW17827   5.568   3.210   3.554
 5643SOL    HW117828   5.624   3.184   3.633
 5643SOL    HW217829   5.618   3.189   3.470
 5644SOL     OW17830   3.549   0.729   5.840
 5644SOL    HW117831   3.625   0.793   5.852
 5644SOL    HW217832   3.584   0.641   5.808
 5645SOL     OW17833   5.733   6.955   3.124
 5645SOL    HW117834   5.720   6.856   3.137
 5645SOL    HW217835   5.646   6.996   3.099
 5646SOL     OW17836   6.531   0.410   2.933
 5646SOL    HW117837   6.461   0.340   2.940
 5646SOL    HW217838   6.488   0.500   2.936
 5647SOL     OW17839   6.308   3.873   6.035
 5647SOL    HW117840   6.302   3.786   5.984
 5647SOL    HW217841   6.287   3.949   5.973
 5648SOL     OW17842   1.902   1.636   4.299
 5648SOL    HW117843   1.828   1.671   4.356
 5648SOL    HW217844   1.916   1.698   4.221
 5649SOL     OW17845   0.353   0.537   4.942
 5649SOL    HW117846   0.395   0.465   4.997
 5649SOL    HW217847   0.254   0.533   4.954
 5650SOL     OW17848   6.438   5.128   5.215
 5650SOL    HW117849   6.530   5.129   5.253
 5650SOL    HW217850   6.385   5.054   5.256
 5651SOL     OW17851   6.014   0.305   2.522
 5651SOL    HW117852   6.090   0.362   2.555
 5651SOL    HW217853   5.933   0.363   2.509
 5652SOL     OW17854   5.365   4.632   0.185
 5652SOL    HW117855   5.414   4.660   0.102
 5652SOL    HW217856   5.311   4.551   0.165
 5653SOL     OW17857   1.831   5.991   6.768
 5653SOL    HW117858   1.842   5.975   6.866
 5653SOL    HW217859   1.737   6.018   6.749
 5654SOL     OW17860   2.079   6.994   7.013
 5654SOL    HW117861   2.141   0.035   6.968
 5654SOL    HW217862   1.994   6.987   6.960
 5655SOL     OW17863   6.317   5.551   3.230
 5655SOL    HW117864   6.313   5.530   3.133
 5655SOL    HW217865   6.292   5.470   3.283
 5656SOL     OW17866   4.017   5.176   6.035
 5656SOL    HW117867   4.020   5.252   5.970
 5656SOL    HW217868   4.084   5.192   6.107
 5657SOL     OW17869   4.721   5.255   2.227
 5657SOL    HW117870   4.647   5.195   2.196
 5657SOL    HW217871   4.809   5.209   2.214
 5658SOL     OW17872   4.583   7.015   5.984
 5658SOL    HW117873   4.497   6.998   6.033
 5658SOL    HW217874   4.563   0.020   5.891
 5659SOL     OW17875   3.727   4.098   3.091
 5659SOL    HW117876   3.665   4.024   3.064
 5659SOL    HW217877   3.817   4.082   3.049
 5660SOL     OW17878   6.930   5.907   1.778
 5660SOL    HW117879   7.020   5.946   1.756
 5660SOL    HW217880   6.941   5.834   1.846
 5661SOL     OW17881   6.323   5.996   4.672
 5661SOL    HW117882   6.238   6.037   4.641
 5661SOL    HW217883   6.398   6.061   4.659
 5662SOL     OW17884   1.755   4.454   4.294
 5662SOL    HW117885   1.752   4.496   4.203
 5662SOL    HW217886   1.722   4.520   4.361
 5663SOL     OW17887   2.317   3.848   1.162
 5663SOL    HW117888   2.247   3.790   1.204
 5663SOL    HW217889   2.306   3.847   1.062
 5664SOL     OW17890   6.448   6.332   2.251
 5664SOL    HW117891   6.367   6.288   2.214
 5664SOL    HW217892   6.449   6.322   2.351
 5665SOL     OW17893   1.798   1.174   5.814
 5665SOL    HW117894   1.713   1.220   5.791
 5665SOL    HW217895   1.785   1.120   5.896
 5666SOL     OW17896   5.671   5.366   6.849
 5666SOL    HW117897   5.590   5.309   6.850
 5666SOL    HW217898   5.721   5.352   6.763
 5667SOL     OW17899   5.810   4.543   2.439
 5667SOL    HW117900   5.783   4.459   2.487
 5667SOL    HW217901   5.749   4.557   2.361
 5668SOL     OW17902   0.008   2.182   6.653
 5668SOL    HW117903   6.945   2.191   6.604
 5668SOL    HW217904   0.028   2.267   6.702
 5669SOL     OW17905   0.232   2.465   4.628
 5669SOL    HW117906   0.156   2.452   4.565
 5669SOL    HW217907   0.249   2.380   4.678
 5670SOL     OW17908   1.482   3.304   2.192
 5670SOL    HW117909   1.507   3.398   2.216
 5670SOL    HW217910   1.547   3.240   2.235
 5671SOL     OW17911   0.891   0.867   5.367
 5671SOL    HW117912   0.963   0.876   5.436
 5671SOL    HW217913   0.866   0.958   5.333
 5672SOL     OW17914   4.617   4.092   5.571
 5672SOL    HW117915   4.577   4.009   5.530
 5672SOL    HW217916   4.571   4.172   5.535
 5673SOL     OW17917   1.717   6.700   0.937
 5673SOL    HW117918   1.753   6.672   1.026
 5673SOL    HW217919   1.644   6.637   0.909
 5674SOL     OW17920   0.570   3.143   1.944
 5674SOL    HW117921   0.619   3.166   1.860
 5674SOL    HW217922   0.569   3.044   1.957
 5675SOL     OW17923   3.914   1.004   5.584
 5675SOL    HW117924   3.904   0.994   5.683
 5675SOL    HW217925   3.829   1.038   5.545
 5676SOL     OW17926   2.288   6.397   2.138
 5676SOL    HW117927   2.376   6.393   2.092
 5676SOL    HW217928   2.223   6.450   2.083
 5677SOL     OW17929   6.197   0.198   2.849
 5677SOL    HW117930   6.242   0.219   2.762
 5677SOL    HW217931   6.188   0.099   2.859
 5678SOL     OW17932   0.927   5.127   2.963
 5678SOL    HW117933   0.842   5.120   3.016
 5678SOL    HW217934   0.905   5.147   2.867
 5679SOL     OW17935   3.656   5.666   5.709
 5679SOL    HW117936   3.670   5.621   5.797
 5679SOL    HW217937   3.732   5.729   5.691
 5680SOL     OW17938   2.051   6.745   6.541
 5680SOL    HW117939   2.083   6.822   6.486
 5680SOL    HW217940   2.088   6.753   6.634
 5681SOL     OW17941   2.937   3.881   6.397
 5681SOL    HW117942   3.011   3.833   6.350
 5681SOL    HW217943   2.912   3.963   6.346
 5682SOL     OW17944   1.858   3.400   3.913
 5682SOL    HW117945   1.806   3.482   3.935
 5682SOL    HW217946   1.811   3.348   3.842
 5683SOL     OW17947   3.914   2.949   5.235
 5683SOL    HW117948   3.999   2.999   5.254
 5683SOL    HW217949   3.859   2.944   5.319
 5684SOL     OW17950   3.092   3.808   3.259
 5684SOL    HW117951   3.047   3.848   3.339
 5684SOL    HW217952   3.186   3.783   3.283
 5685SOL     OW17953   0.318   6.130   1.533
 5685SOL    HW117954   0.297   6.195   1.460
 5685SOL    HW217955   0.375   6.057   1.496
 5686SOL     OW17956   3.421   4.727   0.090
 5686SOL    HW117957   3.412   4.630   0.110
 5686SOL    HW217958   3.473   4.738   0.005
 5687SOL     OW17959   4.261   5.814   6.632
 5687SOL    HW117960   4.298   5.822   6.724
 5687SOL    HW217961   4.171   5.857   6.627
 5688SOL     OW17962   5.349   1.658   2.627
 5688SOL    HW117963   5.282   1.612   2.569
 5688SOL    HW217964   5.375   1.598   2.703
 5689SOL     OW17965   4.316   3.399   5.932
 5689SOL    HW117966   4.373   3.365   5.857
 5689SOL    HW217967   4.268   3.322   5.976
 5690SOL     OW17968   3.669   0.052   3.186
 5690SOL    HW117969   3.595   0.060   3.118
 5690SOL    HW217970   3.731   7.002   3.158
 5691SOL     OW17971   3.518   0.258   4.124
 5691SOL    HW117972   3.528   0.355   4.101
 5691SOL    HW217973   3.602   0.209   4.099
 5692SOL     OW17974   6.043   2.269   0.030
 5692SOL    HW117975   5.992   2.241   6.973
 5692SOL    HW217976   5.981   2.317   0.093
 5693SOL     OW17977   5.124   2.648   2.264
 5693SOL    HW117978   5.078   2.563   2.238
 5693SOL    HW217979   5.062   2.703   2.321
 5694SOL     OW17980   1.557   2.218   4.577
 5694SOL    HW117981   1.486   2.285   4.557
 5694SOL    HW217982   1.607   2.246   4.659
 5695SOL     OW17983   1.960   4.234   3.563
 5695SOL    HW117984   1.935   4.307   3.626
 5695SOL    HW217985   2.018   4.271   3.490
 5696SOL     OW17986   2.547   0.793   6.495
 5696SOL    HW117987   2.495   0.709   6.510
 5696SOL    HW217988   2.538   0.821   6.400
 5697SOL     OW17989   6.691   3.824   0.251
 5697SOL    HW117990   6.616   3.800   0.190
 5697SOL    HW217991   6.699   3.924   0.256
 5698SOL     OW17992   1.637   4.468   3.814
 5698SOL    HW117993   1.576   4.511   3.748
 5698SOL    HW217994   1.614   4.371   3.823
 5699SOL     OW17995   0.569   2.223   5.262
 5699SOL    HW117996   0.471   2.234   5.248
 5699SOL    HW217997   0.606   2.164   5.190
 5700SOL     OW17998   1.473   5.237   3.927
 5700SOL    HW117999   1.450   5.152   3.879
 5700SOL    HW218000   1.393   5.269   3.978
 5701SOL     OW18001   4.957   3.785   3.057
 5701SOL    HW118002   4.934   3.736   3.141
 5701SOL    HW218003   4.964   3.721   2.981
 5702SOL     OW18004   3.510   0.096   0.176
 5702SOL    HW118005   3.477   0.109   0.082
 5702SOL    HW218006   3.595   0.045   0.175
 5703SOL     OW18007   4.567   4.177   1.614
 5703SOL    HW118008   4.615   4.259   1.585
 5703SOL    HW218009   4.493   4.201   1.676
 5704SOL     OW18010   4.858   4.587   3.319
 5704SOL    HW118011   4.853   4.588   3.419
 5704SOL    HW218012   4.766   4.575   3.281
 5705SOL     OW18013   6.419   1.414   4.008
 5705SOL    HW118014   6.435   1.501   4.054
 5705SOL    HW218015   6.501   1.357   4.017
 5706SOL     OW18016   2.294   1.205   6.897
 5706SOL    HW118017   2.227   1.157   6.840
 5706SOL    HW218018   2.313   1.295   6.858
 5707SOL     OW18019   3.646   1.631   0.214
 5707SOL    HW118020   3.597   1.648   0.129
 5707SOL    HW218021   3.581   1.623   0.289
 5708SOL     OW18022   6.985   6.768   0.603
 5708SOL    HW118023   6.954   6.674   0.618
 5708SOL    HW218024   0.053   6.767   0.565
 5709SOL     OW18025   1.339   2.680   1.062
 5709SOL    HW118026   1.352   2.676   0.963
 5709SOL    HW218027   1.308   2.590   1.095
 5710SOL     OW18028   3.672   4.460   0.363
 5710SOL    HW118029   3.744   4.516   0.403
 5710SOL    HW218030   3.629   4.510   0.287
 5711SOL     OW18031   5.391   1.620   5.315
 5711SOL    HW118032   5.427   1.674   5.391
 5711SOL    HW218033   5.299   1.650   5.294
 5712SOL     OW18034   6.568   6.781   6.793
 5712SOL    HW118035   6.603   6.710   6.855
 5712SOL    HW218036   6.470   6.792   6.808
 5713SOL     OW18037   0.528   2.840   2.684
 5713SOL    HW118038   0.490   2.901   2.753
 5713SOL    HW218039   0.453   2.802   2.629
 5714SOL     OW18040   2.123   0.456   6.780
 5714SOL    HW118041   2.078   0.511   6.709
 5714SOL    HW218042   2.055   0.431   6.850
 5715SOL     OW18043   1.457   0.488   3.439
 5715SOL    HW118044   1.522   0.551   3.396
 5715SOL    HW218045   1.364   0.522   3.425
 5716SOL     OW18046   2.018   2.423   5.310
 5716SOL    HW118047   1.945   2.409   5.244
 5716SOL    HW218048   2.106   2.399   5.268
 5717SOL     OW18049   0.693   3.053   5.710
 5717SOL    HW118050   0.752   3.132   5.730
 5717SOL    HW218051   0.616   3.082   5.654
 5718SOL     OW18052   2.972   5.478   6.293
 5718SOL    HW118053   2.908   5.410   6.329
 5718SOL    HW218054   2.921   5.552   6.249
 5719SOL     OW18055   2.105   0.746   0.546
 5719SOL    HW118056   2.198   0.782   0.549
 5719SOL    HW218057   2.050   0.790   0.617
 5720SOL     OW18058   1.913   5.827   3.944
 5720SOL    HW118059   1.982   5.887   3.983
 5720SOL    HW218060   1.864   5.875   3.872
 5721SOL     OW18061   6.636   4.006   6.977
 5721SOL    HW118062   6.676   4.045   0.036
 5721SOL    HW218063   6.582   3.925   7.000
 5722SOL     OW18064   5.442   1.112   4.267
 5722SOL    HW118065   5.466   1.089   4.361
 5722SOL    HW218066   5.513   1.078   4.205
 5723SOL     OW18067   0.636   4.346   1.144
 5723SOL    HW118068   0.689   4.309   1.221
 5723SOL    HW218069   0.559   4.398   1.180
 5724SOL     OW18070   5.406   2.813   5.828
 5724SOL    HW118071   5.393   2.775   5.920
 5724SOL    HW218072   5.362   2.754   5.761
 5725SOL     OW18073   5.560   6.715   5.757
 5725SOL    HW118074   5.653   6.733   5.726
 5725SOL    HW218075   5.510   6.666   5.685
 5726SOL     OW18076   4.366   4.940   5.479
 5726SOL    HW118077   4.379   4.863   5.542
 5726SOL    HW218078   4.338   4.905   5.390
 5727SOL     OW18079   5.699   2.846   4.046
 5727SOL    HW118080   5.789   2.891   4.046
 5727SOL    HW218081   5.629   2.913   4.073
 5728SOL     OW18082   4.256   0.886   4.984
 5728SOL    HW118083   4.294   0.848   5.068
 5728SOL    HW218084   4.316   0.864   4.907
 5729SOL     OW18085   1.422   2.805   4.017
 5729SOL    HW118086   1.405   2.706   4.014
 5729SOL    HW218087   1.334   2.853   4.020
 5730SOL     OW18088   4.033   4.407   0.121
 5730SOL    HW118089   4.124   4.431   0.155
 5730SOL    HW218090   3.982   4.359   0.193
 5731SOL     OW18091   4.162   1.159   4.819
 5731SOL    HW118092   4.195   1.067   4.842
 5731SOL    HW218093   4.195   1.185   4.729
 5732SOL     OW18094   5.400   4.444   4.560
 5732SOL    HW118095   5.413   4.383   4.638
 5732SOL    HW218096   5.460   4.523   4.570
 5733SOL     OW18097   2.783   0.054   1.713
 5733SOL    HW118098   2.800   0.153   1.710
 5733SOL    HW218099   2.865   0.005   1.682
 5734SOL     OW18100   1.555   6.866   5.988
 5734SOL    HW118101   1.586   6.821   6.071
 5734SOL    HW218102   1.460   6.843   5.971
 5735SOL     OW18103   5.283   0.915   1.011
 5735SOL    HW118104   5.264   0.993   0.952
 5735SOL    HW218105   5.211   0.907   1.080
 5736SOL     OW18106   5.099   3.866   6.660
 5736SOL    HW118107   5.104   3.767   6.651
 5736SOL    HW218108   5.051   3.889   6.745
 5737SOL     OW18109   5.125   5.614   2.375
 5737SOL    HW118110   5.045   5.667   2.402
 5737SOL    HW218111   5.127   5.527   2.425
 5738SOL     OW18112   2.645   0.820   1.446
 5738SOL    HW118113   2.736   0.834   1.405
 5738SOL    HW218114   2.650   0.745   1.512
 5739SOL     OW18115   2.021   0.343   5.034
 5739SOL    HW118116   2.118   0.325   5.046
 5739SOL    HW218117   1.999   0.347   4.937
 5740SOL     OW18118   4.948   3.466   2.533
 5740SOL    HW118119   4.960   3.477   2.435
 5740SOL    HW218120   4.892   3.541   2.569
 5741SOL     OW18121   1.470   3.095   4.163
 5741SOL    HW118122   1.525   3.177   4.146
 5741SOL    HW218123   1.526   3.014   4.150
 5742SOL     OW18124   5.565   5.500   1.963
 5742SOL    HW118125   5.555   5.472   2.058
 5742SOL    HW218126   5.476   5.522   1.924
 5743SOL     OW18127   4.055   6.066   0.195
 5743SOL    HW118128   4.086   5.976   0.228
 5743SOL    HW218129   4.096   6.083   0.105
 5744SOL     OW18130   5.176   6.268   3.145
 5744SOL    HW118131   5.127   6.327   3.209
 5744SOL    HW218132   5.160   6.172   3.169
 5745SOL     OW18133   0.819   3.455   2.826
 5745SOL    HW118134   0.810   3.367   2.779
 5745SOL    HW218135   0.730   3.498   2.834
 5746SOL     OW18136   5.222   0.480   3.277
 5746SOL    HW118137   5.202   0.574   3.247
 5746SOL    HW218138   5.185   0.416   3.210
 5747SOL     OW18139   1.847   7.016   1.422
 5747SOL    HW118140   1.821   0.036   1.509
 5747SOL    HW218141   1.905   6.937   1.441
 5748SOL     OW18142   6.061   6.666   6.859
 5748SOL    HW118143   6.016   6.580   6.883
 5748SOL    HW218144   6.047   6.733   6.932
 5749SOL     OW18145   2.369   6.302   6.368
 5749SOL    HW118146   2.394   6.228   6.430
 5749SOL    HW218147   2.344   6.265   6.279
 5750SOL     OW18148   6.494   2.542   4.461
 5750SOL    HW118149   6.508   2.536   4.362
 5750SOL    HW218150   6.474   2.637   4.486
 5751SOL     OW18151   0.217   3.843   4.333
 5751SOL    HW118152   0.120   3.845   4.311
 5751SOL    HW218153   0.270   3.822   4.251
 5752SOL     OW18154   5.527   0.887   0.535
 5752SOL    HW118155   5.576   0.929   0.612
 5752SOL    HW218156   5.551   0.791   0.528
 5753SOL     OW18157   3.549   3.797   4.273
 5753SOL    HW118158   3.601   3.882   4.263
 5753SOL    HW218159   3.602   3.731   4.327
 5754SOL     OW18160   6.191   6.058   0.905
 5754SOL    HW118161   6.132   6.130   0.870
 5754SOL    HW218162   6.236   6.088   0.989
 5755SOL     OW18163   1.422   2.964   6.444
 5755SOL    HW118164   1.436   3.063   6.452
 5755SOL    HW218165   1.330   2.941   6.475
 5756SOL     OW18166   6.431   6.340   1.772
 5756SOL    HW118167   6.474   6.357   1.860
 5756SOL    HW218168   6.498   6.304   1.708
 5757SOL     OW18169   0.727   1.377   3.810
 5757SOL    HW118170   0.808   1.337   3.768
 5757SOL    HW218171   0.647   1.319   3.791
 5758SOL     OW18172   6.350   6.916   3.383
 5758SOL    HW118173   6.306   7.006   3.379
 5758SOL    HW218174   6.393   6.896   3.295
 5759SOL     OW18175   1.860   6.864   2.809
 5759SOL    HW118176   1.835   6.930   2.738
 5759SOL    HW218177   1.885   6.913   2.893
 5760SOL     OW18178   0.526   2.136   6.739
 5760SOL    HW118179   0.562   2.088   6.820
 5760SOL    HW218180   0.455   2.200   6.767
 5761SOL     OW18181   6.869   6.398   4.686
 5761SOL    HW118182   6.861   6.466   4.759
 5761SOL    HW218183   6.807   6.422   4.611
 5762SOL     OW18184   1.004   5.456   5.416
 5762SOL    HW118185   0.996   5.373   5.470
 5762SOL    HW218186   1.068   5.441   5.340
 5763SOL     OW18187   4.953   0.430   0.027
 5763SOL    HW118188   4.997   0.520   0.028
 5763SOL    HW218189   4.945   0.396   0.121
 5764SOL     OW18190   4.416   6.230   4.540
 5764SOL    HW118191   4.421   6.225   4.440
 5764SOL    HW218192   4.494   6.281   4.575
 5765SOL     OW18193   0.061   5.876   2.467
 5765SOL    HW118194   7.004   5.826   2.500
 5765SOL    HW218195   0.143   5.821   2.482
 5766SOL     OW18196   0.763   1.230   4.187
 5766SOL    HW118197   0.724   1.310   4.141
 5766SOL    HW218198   0.712   1.212   4.271
 5767SOL     OW18199   4.905   6.728   0.064
 5767SOL    HW118200   4.937   6.812   0.020
 5767SOL    HW218201   4.863   6.750   0.151
 5768SOL     OW18202   1.258   0.984   4.909
 5768SOL    HW118203   1.189   0.981   4.837
 5768SOL    HW218204   1.225   0.934   4.989
 5769SOL     OW18205   0.574   2.607   5.432
 5769SOL    HW118206   0.673   2.601   5.418
 5769SOL    HW218207   0.549   2.557   5.515
 5770SOL     OW18208   1.798   4.469   2.153
 5770SOL    HW118209   1.776   4.374   2.134
 5770SOL    HW218210   1.850   4.475   2.238
 5771SOL     OW18211   2.928   5.300   3.391
 5771SOL    HW118212   2.941   5.333   3.485
 5771SOL    HW218213   2.831   5.297   3.370
 5772SOL     OW18214   2.924   0.190   3.223
 5772SOL    HW118215   2.902   0.159   3.315
 5772SOL    HW218216   2.982   0.272   3.229
 5773SOL     OW18217   5.665   0.768   3.830
 5773SOL    HW118218   5.582   0.819   3.808
 5773SOL    HW218219   5.665   0.746   3.928
 5774SOL     OW18220   0.956   6.715   3.733
 5774SOL    HW118221   0.901   6.653   3.677
 5774SOL    HW218222   0.911   6.804   3.740
 5775SOL     OW18223   6.218   5.095   2.130
 5775SOL    HW118224   6.156   5.115   2.055
 5775SOL    HW218225   6.260   5.179   2.163
 5776SOL     OW18226   2.930   0.869   3.928
 5776SOL    HW118227   2.913   0.856   4.026
 5776SOL    HW218228   2.895   0.959   3.900
 5777SOL     OW18229   1.315   0.595   1.652
 5777SOL    HW118230   1.342   0.499   1.646
 5777SOL    HW218231   1.217   0.604   1.638
 5778SOL     OW18232   0.238   0.256   0.539
 5778SOL    HW118233   0.184   0.292   0.462
 5778SOL    HW218234   0.317   0.315   0.554
 5779SOL     OW18235   5.756   1.665   0.672
 5779SOL    HW118236   5.698   1.737   0.711
 5779SOL    HW218237   5.839   1.707   0.635
 5780SOL     OW18238   5.063   4.741   3.801
 5780SOL    HW118239   5.035   4.822   3.852
 5780SOL    HW218240   5.135   4.693   3.852
 5781SOL     OW18241   1.516   5.390   6.202
 5781SOL    HW118242   1.525   5.440   6.289
 5781SOL    HW218243   1.604   5.349   6.178
 5782SOL     OW18244   6.916   0.734   0.105
 5782SOL    HW118245   6.925   0.780   0.194
 5782SOL    HW218246   7.008   0.715   0.069
 5783SOL     OW18247   2.652   2.619   6.965
 5783SOL    HW118248   2.604   2.631   0.028
 5783SOL    HW218249   2.656   2.522   6.942
 5784SOL     OW18250   0.404   6.211   6.687
 5784SOL    HW118251   0.355   6.168   6.763
 5784SOL    HW218252   0.404   6.311   6.700
 5785SOL     OW18253   1.856   1.358   1.064
 5785SOL    HW118254   1.914   1.375   0.984
 5785SOL    HW218255   1.794   1.436   1.077
 5786SOL     OW18256   6.284   5.466   1.475
 5786SOL    HW118257   6.207   5.529   1.466
 5786SOL    HW218258   6.368   5.512   1.447
 5787SOL     OW18259   2.064   3.423   5.801
 5787SOL    HW118260   2.036   3.486   5.873
 5787SOL    HW218261   2.135   3.362   5.836
 5788SOL     OW18262   3.423   0.824   3.609
 5788SOL    HW118263   3.500   0.769   3.640
 5788SOL    HW218264   3.412   0.903   3.670
 5789SOL     OW18265   3.830   5.035   6.189
 5789SOL    HW118266   3.741   5.079   6.175
 5789SOL    HW218267   3.899   5.081   6.133
 5790SOL     OW18268   1.115   3.908   3.823
 5790SOL    HW118269   1.138   4.001   3.854
 5790SOL    HW218270   1.199   3.855   3.810
 5791SOL     OW18271   1.638   0.659   3.314
 5791SOL    HW118272   1.737   0.642   3.318
 5791SOL    HW218273   1.620   0.754   3.341
 5792SOL     OW18274   7.018   2.353   2.751
 5792SOL    HW118275   0.037   2.426   2.697
 5792SOL    HW218276   0.060   2.278   2.763
 5793SOL     OW18277   6.377   0.618   4.738
 5793SOL    HW118278   6.420   0.553   4.675
 5793SOL    HW218279   6.361   0.573   4.826
 5794SOL     OW18280   6.316   4.163   6.606
 5794SOL    HW118281   6.375   4.230   6.651
 5794SOL    HW218282   6.345   4.070   6.631
 5795SOL     OW18283   5.671   4.152   6.492
 5795SOL    HW118284   5.597   4.104   6.445
 5795SOL    HW218285   5.633   4.217   6.558
 5796SOL     OW18286   3.000   2.552   0.857
 5796SOL    HW118287   2.977   2.517   0.948
 5796SOL    HW218288   2.943   2.632   0.837
 5797SOL     OW18289   2.775   2.662   5.387
 5797SOL    HW118290   2.848   2.605   5.425
 5797SOL    HW218291   2.735   2.617   5.307
 5798SOL     OW18292   6.301   5.132   4.186
 5798SOL    HW118293   6.303   5.153   4.089
 5798SOL    HW218294   6.328   5.214   4.238
 5799SOL     OW18295   5.220   0.965   4.037
 5799SOL    HW118296   5.224   1.064   4.051
 5799SOL    HW218297   5.125   0.937   4.023
 5800SOL     OW18298   6.201   6.045   6.795
 5800SOL    HW118299   6.237   6.111   6.729
 5800SOL    HW218300   6.209   5.952   6.757
 5801SOL     OW18301   2.163   0.952   2.594
 5801SOL    HW118302   2.204   0.959   2.685
 5801SOL    HW218303   2.130   1.042   2.565
 5802SOL     OW18304   0.514   2.801   4.481
 5802SOL    HW118305   0.507   2.731   4.553
 5802SOL    HW218306   0.604   2.796   4.438
 5803SOL     OW18307   1.506   4.956   1.289
 5803SOL    HW118308   1.425   4.982   1.235
 5803SOL    HW218309   1.479   4.891   1.359
 5804SOL     OW18310   0.096   2.651   6.094
 5804SOL    HW118311   0.062   2.656   6.187
 5804SOL    HW218312   0.035   2.702   6.033
 5805SOL     OW18313   5.968   3.296   6.525
 5805SOL    HW118314   5.913   3.279   6.607
 5805SOL    HW218315   5.911   3.336   6.454
 5806SOL     OW18316   6.707   7.018   6.867
 5806SOL    HW118317   6.663   6.929   6.866
 5806SOL    HW218318   6.735   0.017   6.960
 5807SOL     OW18319   2.257   3.568   1.536
 5807SOL    HW118320   2.285   3.545   1.630
 5807SOL    HW218321   2.158   3.551   1.526
 5808SOL     OW18322   6.187   1.701   3.322
 5808SOL    HW118323   6.166   1.766   3.395
 5808SOL    HW218324   6.284   1.679   3.324
 5809SOL     OW18325   0.080   3.024   4.128
 5809SOL    HW118326   0.125   2.935   4.131
 5809SOL    HW218327   0.107   3.073   4.045
 5810SOL     OW18328   2.402   1.864   2.743
 5810SOL    HW118329   2.499   1.854   2.718
 5810SOL    HW218330   2.348   1.877   2.661
 5811SOL     OW18331   3.208   0.233   2.789
 5811SOL    HW118332   3.117   0.232   2.746
 5811SOL    HW218333   3.202   0.277   2.879
 5812SOL     OW18334   4.648   0.662   4.640
 5812SOL    HW118335   4.620   0.570   4.667
 5812SOL    HW218336   4.743   0.677   4.667
 5813SOL     OW18337   1.575   1.278   5.274
 5813SOL    HW118338   1.649   1.211   5.275
 5813SOL    HW218339   1.599   1.355   5.334
 5814SOL     OW18340   6.823   5.223   0.714
 5814SOL    HW118341   6.847   5.144   0.771
 5814SOL    HW218342   6.741   5.202   0.662
 5815SOL     OW18343   3.882   1.207   3.453
 5815SOL    HW118344   3.865   1.122   3.504
 5815SOL    HW218345   3.956   1.257   3.497
 5816SOL     OW18346   5.051   6.842   0.656
 5816SOL    HW118347   4.964   6.798   0.678
 5816SOL    HW218348   5.126   6.786   0.690
 5817SOL     OW18349   6.050   2.185   6.073
 5817SOL    HW118350   6.114   2.235   6.014
 5817SOL    HW218351   6.089   2.175   6.164
 5818SOL     OW18352   6.212   6.049   5.720
 5818SOL    HW118353   6.270   6.129   5.716
 5818SOL    HW218354   6.227   5.993   5.638
 5819SOL     OW18355   5.785   0.158   0.569
 5819SOL    HW118356   5.695   0.168   0.610
 5819SOL    HW218357   5.810   0.061   0.568
 5820SOL     OW18358   5.697   5.231   2.155
 5820SOL    HW118359   5.669   5.323   2.183
 5820SOL    HW218360   5.637   5.163   2.197
 5821SOL     OW18361   3.183   6.553   2.821
 5821SOL    HW118362   3.128   6.634   2.839
 5821SOL    HW218363   3.123   6.475   2.804
 5822SOL     OW18364   0.820   1.185   2.099
 5822SOL    HW118365   0.873   1.123   2.041
 5822SOL    HW218366   0.880   1.255   2.137
 5823SOL     OW18367   2.030   2.800   4.196
 5823SOL    HW118368   2.093   2.741   4.246
 5823SOL    HW218369   1.953   2.825   4.255
 5824SOL     OW18370   4.163   0.454   3.579
 5824SOL    HW118371   4.113   0.379   3.536
 5824SOL    HW218372   4.176   0.434   3.676
 5825SOL     OW18373   3.523   1.075   1.461
 5825SOL    HW118374   3.429   1.093   1.489
 5825SOL    HW218375   3.587   1.122   1.522
 5826SOL     OW18376   0.085   6.710   3.667
 5826SOL    HW118377   0.033   6.678   3.747
 5826SOL    HW218378   0.058   6.657   3.586
 5827SOL     OW18379   1.807   4.673   5.433
 5827SOL    HW118380   1.855   4.760   5.447
 5827SOL    HW218381   1.814   4.647   5.336
 5828SOL     OW18382   6.556   2.213   1.730
 5828SOL    HW118383   6.598   2.137   1.779
 5828SOL    HW218384   6.461   2.191   1.708
 5829SOL     OW18385   1.258   1.575   1.604
 5829SOL    HW118386   1.186   1.551   1.539
 5829SOL    HW218387   1.317   1.497   1.621
 5830SOL     OW18388   2.070   0.827   5.217
 5830SOL    HW118389   2.042   0.880   5.136
 5830SOL    HW218390   2.043   0.732   5.205
 5831SOL     OW18391   6.055   6.137   2.991
 5831SOL    HW118392   6.123   6.114   3.060
 5831SOL    HW218393   5.964   6.135   3.032
 5832SOL     OW18394   3.536   3.349   4.279
 5832SOL    HW118395   3.494   3.281   4.219
 5832SOL    HW218396   3.478   3.430   4.283
 5833SOL     OW18397   3.259   3.540   5.097
 5833SOL    HW118398   3.318   3.462   5.078
 5833SOL    HW218399   3.165   3.509   5.109
 5834SOL     OW18400   6.243   0.580   0.069
 5834SOL    HW118401   6.264   0.596   6.996
 5834SOL    HW218402   6.308   0.630   0.126
 5835SOL     OW18403   5.416   3.150   4.585
 5835SOL    HW118404   5.339   3.193   4.632
 5835SOL    HW218405   5.431   3.058   4.621
 5836SOL     OW18406   3.518   7.022   2.930
 5836SOL    HW118407   3.441   0.023   2.989
 5836SOL    HW218408   3.540   6.926   2.944
 5837SOL     OW18409   4.363   4.514   6.612
 5837SOL    HW118410   4.313   4.592   6.650
 5837SOL    HW218411   4.343   4.432   6.666
 5838SOL     OW18412   0.904   1.245   5.865
 5838SOL    HW118413   0.978   1.303   5.831
 5838SOL    HW218414   0.877   1.181   5.794
 5839SOL     OW18415   0.155   2.263   2.274
 5839SOL    HW118416   0.197   2.210   2.347
 5839SOL    HW218417   0.226   2.302   2.216
 5840SOL     OW18418   3.277   5.233   0.230
 5840SOL    HW118419   3.329   5.253   0.313
 5840SOL    HW218420   3.184   5.205   0.254
 5841SOL     OW18421   6.301   2.432   3.255
 5841SOL    HW118422   6.236   2.508   3.265
 5841SOL    HW218423   6.387   2.455   3.300
 5842SOL     OW18424   3.753   2.902   0.378
 5842SOL    HW118425   3.707   2.880   0.464
 5842SOL    HW218426   3.776   3.000   0.377
 5843SOL     OW18427   0.439   3.314   1.229
 5843SOL    HW118428   0.493   3.337   1.310
 5843SOL    HW218429   0.498   3.271   1.161
 5844SOL     OW18430   1.588   6.152   7.022
 5844SOL    HW118431   1.488   6.154   7.011
 5844SOL    HW218432   1.627   6.236   6.985
 5845SOL     OW18433   1.114   2.620   4.747
 5845SOL    HW118434   1.051   2.649   4.675
 5845SOL    HW218435   1.207   2.648   4.724
 5846SOL     OW18436   0.333   3.615   6.344
 5846SOL    HW118437   0.367   3.685   6.281
 5846SOL    HW218438   0.406   3.588   6.406
 5847SOL     OW18439   1.628   2.526   3.902
 5847SOL    HW118440   1.616   2.457   3.831
 5847SOL    HW218441   1.576   2.608   3.878
 5848SOL     OW18442   1.179   4.865   3.374
 5848SOL    HW118443   1.221   4.918   3.300
 5848SOL    HW218444   1.251   4.829   3.433
 5849SOL     OW18445   3.187   6.574   5.954
 5849SOL    HW118446   3.217   6.669   5.948
 5849SOL    HW218447   3.119   6.565   6.027
 5850SOL     OW18448   0.796   4.500   3.444
 5850SOL    HW118449   0.891   4.481   3.418
 5850SOL    HW218450   0.795   4.542   3.535
 5851SOL     OW18451   5.361   2.808   1.892
 5851SOL    HW118452   5.354   2.719   1.847
 5851SOL    HW218453   5.320   2.878   1.833
 5852SOL     OW18454   4.334   6.253   2.834
 5852SOL    HW118455   4.260   6.238   2.769
 5852SOL    HW218456   4.296   6.277   2.923
 5853SOL     OW18457   4.753   3.915   5.766
 5853SOL    HW118458   4.748   3.994   5.704
 5853SOL    HW218459   4.670   3.860   5.756
 5854SOL     OW18460   0.892   0.890   6.410
 5854SOL    HW118461   0.967   0.911   6.473
 5854SOL    HW218462   0.858   0.974   6.368
 5855SOL     OW18463   1.900   1.429   5.083
 5855SOL    HW118464   1.840   1.350   5.069
 5855SOL    HW218465   1.952   1.446   4.999
 5856SOL     OW18466   1.837   5.198   3.223
 5856SOL    HW118467   1.930   5.232   3.211
 5856SOL    HW218468   1.772   5.262   3.182
 5857SOL     OW18469   0.308   2.224   5.255
 5857SOL    HW118470   0.284   2.213   5.351
 5857SOL    HW218471   0.224   2.222   5.200
 5858SOL     OW18472   4.053   0.102   3.418
 5858SOL    HW118473   3.976   0.041   3.434
 5858SOL    HW218474   4.139   0.052   3.432
 5859SOL     OW18475   6.113   5.864   1.821
 5859SOL    HW118476   6.181   5.910   1.763
 5859SOL    HW218477   6.131   5.887   1.917
 5860SOL     OW18478   0.173   3.740   1.094
 5860SOL    HW118479   0.187   3.806   1.168
 5860SOL    HW218480   0.217   3.774   1.011
 5861SOL     OW18481   6.070   1.772   3.928
 5861SOL    HW118482   6.063   1.731   4.019
 5861SOL    HW218483   6.122   1.711   3.868
 5862SOL     OW18484   4.757   4.701   3.903
 5862SOL    HW118485   4.740   4.738   3.994
 5862SOL    HW218486   4.849   4.662   3.900
 5863SOL     OW18487   2.179   1.510   1.373
 5863SOL    HW118488   2.153   1.421   1.337
 5863SOL    HW218489   2.137   1.582   1.318
 5864SOL     OW18490   4.220   5.571   0.542
 5864SOL    HW118491   4.160   5.528   0.610
 5864SOL    HW218492   4.263   5.652   0.583
 5865SOL     OW18493   4.521   0.829   3.592
 5865SOL    HW118494   4.566   0.917   3.609
 5865SOL    HW218495   4.429   0.831   3.631
 5866SOL     OW18496   3.266   1.896   6.928
 5866SOL    HW118497   3.294   1.979   6.976
 5866SOL    HW218498   3.219   1.922   6.843
 5867SOL     OW18499   6.926   2.847   1.307
 5867SOL    HW118500   6.847   2.899   1.276
 5867SOL    HW218501   6.962   2.793   1.231
 5868SOL     OW18502   1.195   6.793   4.469
 5868SOL    HW118503   1.144   6.725   4.417
 5868SOL    HW218504   1.132   6.864   4.502
 5869SOL     OW18505   3.342   4.997   4.048
 5869SOL    HW118506   3.424   4.975   4.100
 5869SOL    HW218507   3.263   4.955   4.092
 5870SOL     OW18508   5.020   5.582   4.033
 5870SOL    HW118509   5.081   5.509   4.001
 5870SOL    HW218510   5.068   5.670   4.028
 5871SOL     OW18511   2.836   3.574   0.266
 5871SOL    HW118512   2.775   3.595   0.343
 5871SOL    HW218513   2.869   3.480   0.275
 5872SOL     OW18514   4.011   5.448   4.079
 5872SOL    HW118515   3.921   5.457   4.035
 5872SOL    HW218516   4.080   5.435   4.008
 5873SOL     OW18517   1.763   2.828   0.083
 5873SOL    HW118518   1.803   2.916   0.109
 5873SOL    HW218519   1.759   2.821   7.007
 5874SOL     OW18520   1.238   4.327   6.554
 5874SOL    HW118521   1.192   4.242   6.528
 5874SOL    HW218522   1.225   4.395   6.481
 5875SOL     OW18523   3.595   2.348   0.743
 5875SOL    HW118524   3.529   2.408   0.698
 5875SOL    HW218525   3.685   2.391   0.745
 5876SOL     OW18526   3.962   4.190   6.336
 5876SOL    HW118527   3.949   4.282   6.301
 5876SOL    HW218528   4.059   4.167   6.336
 5877SOL     OW18529   6.004   0.152   2.285
 5877SOL    HW118530   6.028   0.201   2.369
 5877SOL    HW218531   5.933   0.085   2.305
 5878SOL     OW18532   4.860   4.064   2.143
 5878SOL    HW118533   4.953   4.029   2.133
 5878SOL    HW218534   4.842   4.132   2.073
 5879SOL     OW18535   3.012   4.343   5.302
 5879SOL    HW118536   2.993   4.422   5.244
 5879SOL    HW218537   2.989   4.365   5.397
 5880SOL     OW18538   5.666   2.274   0.164
 5880SOL    HW118539   5.579   2.223   0.164
 5880SOL    HW218540   5.654   2.359   0.112
 5881SOL     OW18541   1.665   6.210   2.833
 5881SOL    HW118542   1.728   6.213   2.755
 5881SOL    HW218543   1.590   6.148   2.813
 5882SOL     OW18544   1.697   4.938   5.687
 5882SOL    HW118545   1.660   4.846   5.699
 5882SOL    HW218546   1.753   4.962   5.767
 5883SOL     OW18547   6.807   5.472   7.020
 5883SOL    HW118548   6.863   5.478   0.079
 5883SOL    HW218549   6.863   5.495   6.940
 5884SOL     OW18550   6.396   1.254   2.336
 5884SOL    HW118551   6.334   1.284   2.408
 5884SOL    HW218552   6.364   1.168   2.298
 5885SOL     OW18553   0.068   5.256   1.302
 5885SOL    HW118554   6.997   5.278   1.325
 5885SOL    HW218555   0.118   5.231   1.385
 5886SOL     OW18556   2.053   4.802   3.521
 5886SOL    HW118557   1.960   4.837   3.508
 5886SOL    HW218558   2.108   4.823   3.441
 5887SOL     OW18559   3.155   3.238   0.339
 5887SOL    HW118560   3.114   3.234   0.430
 5887SOL    HW218561   3.242   3.187   0.339
 5888SOL     OW18562   2.640   6.130   1.638
 5888SOL    HW118563   2.593   6.158   1.722
 5888SOL    HW218564   2.578   6.072   1.584
 5889SOL     OW18565   5.591   1.485   2.321
 5889SOL    HW118566   5.506   1.499   2.271
 5889SOL    HW218567   5.575   1.495   2.419
 5890SOL     OW18568   2.761   5.040   3.510
 5890SOL    HW118569   2.797   5.051   3.603
 5890SOL    HW218570   2.831   5.069   3.445
 5891SOL     OW18571   2.615   3.314   6.620
 5891SOL    HW118572   2.632   3.226   6.665
 5891SOL    HW218573   2.557   3.300   6.540
 5892SOL     OW18574   1.160   2.746   0.440
 5892SOL    HW118575   1.129   2.725   0.533
 5892SOL    HW218576   1.085   2.729   0.376
 5893SOL     OW18577   0.769   6.331   1.594
 5893SOL    HW118578   0.756   6.276   1.511
 5893SOL    HW218579   0.855   6.304   1.639
 5894SOL     OW18580   1.973   5.732   6.859
 5894SOL    HW118581   1.968   5.683   6.946
 5894SOL    HW218582   1.975   5.831   6.876
 5895SOL     OW18583   5.742   4.011   3.508
 5895SOL    HW118584   5.769   3.916   3.523
 5895SOL    HW218585   5.794   4.071   3.570
 5896SOL     OW18586   5.431   2.650   2.487
 5896SOL    HW118587   5.465   2.566   2.445
 5896SOL    HW218588   5.437   2.725   2.420
 5897SOL     OW18589   3.217   2.171   0.430
 5897SOL    HW118590   3.131   2.135   0.393
 5897SOL    HW218591   3.255   2.238   0.366
 5898SOL     OW18592   2.376   0.490   6.697
 5898SOL    HW118593   2.440   0.541   6.755
 5898SOL    HW218594   2.291   0.475   6.747
 5899SOL     OW18595   6.768   6.904   0.455
 5899SOL    HW118596   6.696   6.944   0.512
 5899SOL    HW218597   6.821   6.839   0.509
 5900SOL     OW18598   5.941   6.697   2.239
 5900SOL    HW118599   6.040   6.696   2.224
 5900SOL    HW218600   5.917   6.627   2.305
 5901SOL     OW18601   2.340   0.410   5.093
 5901SOL    HW118602   2.436   0.437   5.107
 5901SOL    HW218603   2.298   0.389   5.181
 5902SOL     OW18604   4.074   4.360   5.578
 5902SOL    HW118605   3.981   4.322   5.572
 5902SOL    HW218606   4.105   4.385   5.486
 5903SOL     OW18607   6.560   2.017   4.872
 5903SOL    HW118608   6.540   2.086   4.941
 5903SOL    HW218609   6.614   2.058   4.798
 5904SOL     OW18610   0.274   4.825   1.355
 5904SOL    HW118611   0.285   4.875   1.440
 5904SOL    HW218612   0.177   4.815   1.334
 5905SOL     OW18613   6.284   2.549   4.934
 5905SOL    HW118614   6.218   2.556   5.008
 5905SOL    HW218615   6.240   2.572   4.847
 5906SOL     OW18616   4.765   1.158   5.834
 5906SOL    HW118617   4.708   1.208   5.770
 5906SOL    HW218618   4.746   1.060   5.826
 5907SOL     OW18619   1.458   3.397   5.812
 5907SOL    HW118620   1.531   3.422   5.875
 5907SOL    HW218621   1.458   3.297   5.799
 5908SOL     OW18622   4.245   3.918   6.786
 5908SOL    HW118623   4.223   3.942   6.691
 5908SOL    HW218624   4.162   3.917   6.841
 5909SOL     OW18625   5.963   4.847   3.847
 5909SOL    HW118626   5.951   4.858   3.946
 5909SOL    HW218627   5.874   4.855   3.802
 5910SOL     OW18628   3.216   4.436   1.143
 5910SOL    HW118629   3.191   4.401   1.053
 5910SOL    HW218630   3.143   4.494   1.177
 5911SOL     OW18631   6.337   0.300   6.329
 5911SOL    HW118632   6.351   0.255   6.417
 5911SOL    HW218633   6.423   0.298   6.277
 5912SOL     OW18634   0.490   3.345   5.780
 5912SOL    HW118635   0.540   3.385   5.703
 5912SOL    HW218636   0.408   3.299   5.746
 5913SOL     OW18637   1.826   2.532   4.518
 5913SOL    HW118638   1.806   2.563   4.425
 5913SOL    HW218639   1.868   2.607   4.570
 5914SOL     OW18640   1.400   6.043   0.886
 5914SOL    HW118641   1.360   6.081   0.968
 5914SOL    HW218642   1.499   6.030   0.900
 5915SOL     OW18643   5.795   3.505   4.284
 5915SOL    HW118644   5.740   3.582   4.316
 5915SOL    HW218645   5.835   3.457   4.361
 5916SOL     OW18646   3.118   0.374   6.488
 5916SOL    HW118647   3.100   0.461   6.535
 5916SOL    HW218648   3.142   0.304   6.555
 5917SOL     OW18649   3.707   3.918   2.471
 5917SOL    HW118650   3.782   3.867   2.429
 5917SOL    HW218651   3.732   3.943   2.564
 5918SOL     OW18652   2.375   1.998   4.063
 5918SOL    HW118653   2.295   2.041   4.104
 5918SOL    HW218654   2.384   1.905   4.097
 5919SOL     OW18655   1.873   1.683   6.865
 5919SOL    HW118656   1.941   1.752   6.892
 5919SOL    HW218657   1.791   1.692   6.921
 5920SOL     OW18658   2.795   5.244   6.804
 5920SOL    HW118659   2.708   5.214   6.765
 5920SOL    HW218660   2.784   5.256   6.903
 5921SOL     OW18661   4.012   5.320   5.355
 5921SOL    HW118662   4.063   5.305   5.439
 5921SOL    HW218663   3.936   5.255   5.350
 5922SOL     OW18664   6.434   4.834   1.454
 5922SOL    HW118665   6.356   4.891   1.478
 5922SOL    HW218666   6.402   4.756   1.399
 5923SOL     OW18667   0.705   0.706   3.446
 5923SOL    HW118668   0.697   0.606   3.441
 5923SOL    HW218669   0.633   0.742   3.505
 5924SOL     OW18670   5.877   1.813   4.513
 5924SOL    HW118671   5.883   1.911   4.496
 5924SOL    HW218672   5.967   1.771   4.500
 5925SOL     OW18673   6.311   5.771   0.257
 5925SOL    HW118674   6.236   5.752   0.194
 5925SOL    HW218675   6.334   5.868   0.254
 5926SOL     OW18676   3.709   5.888   1.862
 5926SOL    HW118677   3.720   5.817   1.793
 5926SOL    HW218678   3.795   5.936   1.876
 5927SOL     OW18679   2.407   5.198   1.784
 5927SOL    HW118680   2.349   5.117   1.797
 5927SOL    HW218681   2.426   5.239   1.873
 5928SOL     OW18682   0.708   6.026   1.109
 5928SOL    HW118683   0.613   6.031   1.078
 5928SOL    HW218684   0.728   5.932   1.139
 5929SOL     OW18685   0.428   6.711   5.495
 5929SOL    HW118686   0.527   6.699   5.491
 5929SOL    HW218687   0.407   6.809   5.491
 5930SOL     OW18688   6.133   1.160   5.005
 5930SOL    HW118689   6.052   1.194   4.956
 5930SOL    HW218690   6.104   1.090   5.070
 5931SOL     OW18691   6.067   5.138   0.657
 5931SOL    HW118692   6.029   5.067   0.715
 5931SOL    HW218693   5.996   5.204   0.633
 5932SOL     OW18694   2.049   0.198   0.174
 5932SOL    HW118695   2.000   0.122   0.131
 5932SOL    HW218696   1.996   0.231   0.253
 5933SOL     OW18697   6.521   3.323   3.222
 5933SOL    HW118698   6.450   3.365   3.164
 5933SOL    HW218699   6.603   3.308   3.168
 5934SOL     OW18700   3.917   3.812   2.356
 5934SOL    HW118701   3.999   3.871   2.360
 5934SOL    HW218702   3.922   3.753   2.276
 5935SOL     OW18703   4.113   3.244   3.028
 5935SOL    HW118704   4.031   3.232   2.971
 5935SOL    HW218705   4.118   3.339   3.060
 5936SOL     OW18706   6.654   6.290   6.920
 5936SOL    HW118707   6.646   6.206   6.867
 5936SOL    HW218708   6.711   6.273   7.000
 5937SOL     OW18709   1.201   4.251   0.154
 5937SOL    HW118710   1.128   4.282   0.094
 5937SOL    HW218711   1.184   4.284   0.247
 5938SOL     OW18712   2.244   4.398   0.383
 5938SOL    HW118713   2.202   4.471   0.437
 5938SOL    HW218714   2.252   4.316   0.439
 5939SOL     OW18715   1.563   1.450   2.193
 5939SOL    HW118716   1.569   1.499   2.280
 5939SOL    HW218717   1.547   1.353   2.212
 5940SOL     OW18718   3.842   4.915   3.529
 5940SOL    HW118719   3.777   4.869   3.590
 5940SOL    HW218720   3.800   4.998   3.493
 5941SOL     OW18721   6.566   2.972   3.120
 5941SOL    HW118722   6.648   3.023   3.094
 5941SOL    HW218723   6.583   2.921   3.204
 5942SOL     OW18724   0.133   1.594   4.522
 5942SOL    HW118725   0.036   1.577   4.539
 5942SOL    HW218726   0.184   1.575   4.606
 5943SOL     OW18727   1.458   5.050   0.748
 5943SOL    HW118728   1.552   5.069   0.778
 5943SOL    HW218729   1.460   4.983   0.674
 5944SOL     OW18730   4.982   2.390   3.097
 5944SOL    HW118731   5.010   2.400   3.192
 5944SOL    HW218732   4.991   2.294   3.069
 5945SOL     OW18733   6.809   5.494   6.127
 5945SOL    HW118734   6.720   5.532   6.102
 5945SOL    HW218735   6.797   5.424   6.197
 5946SOL     OW18736   3.689   2.503   5.396
 5946SOL    HW118737   3.676   2.555   5.312
 5946SOL    HW218738   3.603   2.457   5.420
 5947SOL     OW18739   4.653   3.960   1.752
 5947SOL    HW118740   4.644   3.879   1.696
 5947SOL    HW218741   4.604   4.036   1.710
 5948SOL     OW18742   3.094   5.186   3.208
 5948SOL    HW118743   3.104   5.091   3.237
 5948SOL    HW218744   3.023   5.230   3.263
 5949SOL     OW18745   4.333   4.600   3.114
 5949SOL    HW118746   4.238   4.604   3.081
 5949SOL    HW218747   4.339   4.643   3.204
 5950SOL     OW18748   6.036   2.686   4.238
 5950SOL    HW118749   5.944   2.654   4.262
 5950SOL    HW218750   6.098   2.607   4.230
 5951SOL     OW18751   2.169   0.294   4.328
 5951SOL    HW118752   2.136   0.295   4.423
 5951SOL    HW218753   2.113   0.355   4.273
 5952SOL     OW18754   0.426   5.711   4.887
 5952SOL    HW118755   0.359   5.784   4.867
 5952SOL    HW218756   0.500   5.749   4.942
 5953SOL     OW18757   1.238   3.029   6.080
 5953SOL    HW118758   1.247   3.017   5.981
 5953SOL    HW218759   1.271   2.947   6.127
 5954SOL     OW18760   1.299   4.862   6.445
 5954SOL    HW118761   1.225   4.822   6.500
 5954SOL    HW218762   1.260   4.924   6.377
 5955SOL     OW18763   4.826   4.979   2.944
 5955SOL    HW118764   4.800   4.981   2.847
 5955SOL    HW218765   4.868   4.891   2.965
 5956SOL     OW18766   0.305   2.149   0.039
 5956SOL    HW118767   0.263   2.087   6.997
 5956SOL    HW218768   0.263   2.136   0.129
 5957SOL     OW18769   4.289   6.651   5.309
 5957SOL    HW118770   4.305   6.554   5.325
 5957SOL    HW218771   4.256   6.694   5.393
 5958SOL     OW18772   0.894   5.372   2.503
 5958SOL    HW118773   0.854   5.339   2.418
 5958SOL    HW218774   0.960   5.446   2.483
 5959SOL     OW18775   1.092   0.859   6.621
 5959SOL    HW118776   1.106   0.816   6.710
 5959SOL    HW218777   1.139   0.806   6.551
 5960SOL     OW18778   3.492   6.738   5.658
 5960SOL    HW118779   3.478   6.692   5.570
 5960SOL    HW218780   3.543   6.822   5.643
 5961SOL     OW18781   2.483   0.913   5.316
 5961SOL    HW118782   2.581   0.911   5.296
 5961SOL    HW218783   2.434   0.861   5.247
 5962SOL     OW18784   5.292   3.740   2.196
 5962SOL    HW118785   5.322   3.684   2.273
 5962SOL    HW218786   5.291   3.685   2.113
 5963SOL     OW18787   4.290   3.719   1.674
 5963SOL    HW118788   4.233   3.796   1.702
 5963SOL    HW218789   4.295   3.652   1.748
 5964SOL     OW18790   1.860   3.870   5.542
 5964SOL    HW118791   1.834   3.782   5.582
 5964SOL    HW218792   1.818   3.879   5.451
 5965SOL     OW18793   2.052   1.726   3.852
 5965SOL    HW118794   2.039   1.819   3.818
 5965SOL    HW218795   2.141   1.691   3.821
 5966SOL     OW18796   2.252   5.765   4.164
 5966SOL    HW118797   2.199   5.751   4.247
 5966SOL    HW218798   2.328   5.700   4.162
 5967SOL     OW18799   4.617   6.008   2.423
 5967SOL    HW118800   4.681   6.075   2.459
 5967SOL    HW218801   4.630   5.997   2.325
 5968SOL     OW18802   0.397   1.673   3.725
 5968SOL    HW118803   0.346   1.651   3.641
 5968SOL    HW218804   0.409   1.591   3.780
 5969SOL     OW18805   5.952   2.818   2.884
 5969SOL    HW118806   5.993   2.764   2.957
 5969SOL    HW218807   5.972   2.776   2.795
 5970SOL     OW18808   2.019   3.331   3.648
 5970SOL    HW118809   2.018   3.416   3.701
 5970SOL    HW218810   1.937   3.327   3.590
 5971SOL     OW18811   2.956   6.655   3.210
 5971SOL    HW118812   2.875   6.697   3.169
 5971SOL    HW218813   2.963   6.682   3.306
 5972SOL     OW18814   5.600   0.176   1.919
 5972SOL    HW118815   5.513   0.131   1.897
 5972SOL    HW218816   5.672   0.107   1.927
 5973SOL     OW18817   1.581   4.270   2.994
 5973SOL    HW118818   1.596   4.268   3.093
 5973SOL    HW218819   1.491   4.233   2.973
 5974SOL     OW18820   1.113   3.882   6.134
 5974SOL    HW118821   1.209   3.861   6.154
 5974SOL    HW218822   1.054   3.816   6.180
 5975SOL     OW18823   2.337   2.543   6.500
 5975SOL    HW118824   2.407   2.580   6.438
 5975SOL    HW218825   2.315   2.612   6.569
 5976SOL     OW18826   3.385   2.890   4.575
 5976SOL    HW118827   3.303   2.844   4.609
 5976SOL    HW218828   3.404   2.970   4.632
 5977SOL     OW18829   0.517   3.713   3.283
 5977SOL    HW118830   0.454   3.772   3.332
 5977SOL    HW218831   0.605   3.759   3.271
 5978SOL     OW18832   4.734   5.554   2.168
 5978SOL    HW118833   4.832   5.537   2.169
 5978SOL    HW218834   4.685   5.466   2.170
 5979SOL     OW18835   0.865   1.219   1.527
 5979SOL    HW118836   0.799   1.146   1.510
 5979SOL    HW218837   0.849   1.294   1.463
 5980SOL     OW18838   6.289   3.027   5.951
 5980SOL    HW118839   6.306   2.970   6.032
 5980SOL    HW218840   6.320   2.979   5.869
 5981SOL     OW18841   4.002   2.193   0.576
 5981SOL    HW118842   4.005   2.104   0.622
 5981SOL    HW218843   3.925   2.246   0.611
 5982SOL     OW18844   6.146   2.076   0.208
 5982SOL    HW118845   6.116   2.151   0.149
 5982SOL    HW218846   6.070   2.011   0.219
 5983SOL     OW18847   1.097   0.432   4.835
 5983SOL    HW118848   1.150   0.383   4.766
 5983SOL    HW218849   1.003   0.397   4.835
 5984SOL     OW18850   0.413   6.899   5.776
 5984SOL    HW118851   0.377   6.935   5.690
 5984SOL    HW218852   0.429   6.975   5.839
 5985SOL     OW18853   5.328   3.208   4.336
 5985SOL    HW118854   5.364   3.162   4.417
 5985SOL    HW218855   5.397   3.271   4.300
 5986SOL     OW18856   2.926   3.226   2.992
 5986SOL    HW118857   2.843   3.179   2.962
 5986SOL    HW218858   2.991   3.158   3.026
 5987SOL     OW18859   5.013   0.296   5.608
 5987SOL    HW118860   4.918   0.272   5.592
 5987SOL    HW218861   5.030   0.299   5.707
 5988SOL     OW18862   3.935   0.332   5.606
 5988SOL    HW118863   4.032   0.331   5.581
 5988SOL    HW218864   3.911   0.421   5.645
 5989SOL     OW18865   2.865   1.771   6.947
 5989SOL    HW118866   2.814   1.856   6.961
 5989SOL    HW218867   2.961   1.792   6.932
 5990SOL     OW18868   3.556   5.120   2.360
 5990SOL    HW118869   3.565   5.027   2.324
 5990SOL    HW218870   3.509   5.117   2.449
 5991SOL     OW18871   3.072   5.055   3.542
 5991SOL    HW118872   3.135   5.130   3.523
 5991SOL    HW218873   3.048   5.055   3.640
 5992SOL     OW18874   4.185   2.195   3.802
 5992SOL    HW118875   4.224   2.274   3.850
 5992SOL    HW218876   4.239   2.114   3.824
 5993SOL     OW18877   3.116   5.739   3.748
 5993SOL    HW118878   3.035   5.788   3.718
 5993SOL    HW218879   3.142   5.671   3.679
 5994SOL     OW18880   6.121   2.016   1.403
 5994SOL    HW118881   6.034   2.041   1.445
 5994SOL    HW218882   6.118   2.038   1.306
 5995SOL     OW18883   1.064   4.554   1.146
 5995SOL    HW118884   1.027   4.622   1.082
 5995SOL    HW218885   1.017   4.562   1.234
 5996SOL     OW18886   0.882   5.887   5.470
 5996SOL    HW118887   0.968   5.921   5.507
 5996SOL    HW218888   0.868   5.792   5.500
 5997SOL     OW18889   0.555   0.636   1.485
 5997SOL    HW118890   0.526   0.731   1.472
 5997SOL    HW218891   0.592   0.600   1.399
 5998SOL     OW18892   4.456   2.326   3.332
 5998SOL    HW118893   4.379   2.324   3.396
 5998SOL    HW218894   4.536   2.285   3.376
 5999SOL     OW18895   2.477   2.579   3.269
 5999SOL    HW118896   2.543   2.523   3.318
 5999SOL    HW218897   2.439   2.647   3.331
 6000SOL     OW18898   4.892   0.534   3.357
 6000SOL    HW118899   4.937   0.445   3.360
 6000SOL    HW218900   4.877   0.567   3.450
 6001SOL     OW18901   6.527   1.996   0.111
 6001SOL    HW118902   6.478   1.960   0.190
 6001SOL    HW218903   6.543   2.094   0.124
 6002SOL     OW18904   1.743   0.380   2.011
 6002SOL    HW118905   1.644   0.391   2.000
 6002SOL    HW218906   1.767   0.381   2.108
 6003SOL     OW18907   5.649   4.289   3.694
 6003SOL    HW118908   5.599   4.374   3.708
 6003SOL    HW218909   5.599   4.213   3.736
 6004SOL     OW18910   0.044   3.246   2.011
 6004SOL    HW118911   0.136   3.207   2.002
 6004SOL    HW218912   7.021   3.240   1.923
 6005SOL     OW18913   2.074   5.980   2.233
 6005SOL    HW118914   2.159   5.951   2.191
 6005SOL    HW218915   2.076   6.078   2.250
 6006SOL     OW18916   2.294   5.708   0.352
 6006SOL    HW118917   2.331   5.801   0.344
 6006SOL    HW218918   2.232   5.690   0.275
 6007SOL     OW18919   4.866   3.190   4.896
 6007SOL    HW118920   4.897   3.187   4.801
 6007SOL    HW218921   4.902   3.272   4.941
 6008SOL     OW18922   4.647   3.707   1.267
 6008SOL    HW118923   4.589   3.706   1.349
 6008SOL    HW218924   4.740   3.732   1.294
 6009SOL     OW18925   4.261   1.735   4.884
 6009SOL    HW118926   4.326   1.731   4.959
 6009SOL    HW218927   4.172   1.766   4.918
 6010SOL     OW18928   1.460   4.012   3.204
 6010SOL    HW118929   1.461   3.994   3.302
 6010SOL    HW218930   1.504   4.100   3.185
 6011SOL     OW18931   6.779   2.567   2.028
 6011SOL    HW118932   6.705   2.543   1.966
 6011SOL    HW218933   6.859   2.596   1.976
 6012SOL     OW18934   0.485   2.872   1.883
 6012SOL    HW118935   0.404   2.840   1.932
 6012SOL    HW218936   0.487   2.833   1.791
 6013SOL     OW18937   5.892   0.720   2.384
 6013SOL    HW118938   5.856   0.813   2.370
 6013SOL    HW218939   5.986   0.725   2.416
 6014SOL     OW18940   6.158   0.277   1.192
 6014SOL    HW118941   6.184   0.358   1.243
 6014SOL    HW218942   6.201   0.280   1.101
 6015SOL     OW18943   5.871   0.447   4.224
 6015SOL    HW118944   5.857   0.508   4.146
 6015SOL    HW218945   5.929   0.371   4.198
 6016SOL     OW18946   2.055   0.038   5.287
 6016SOL    HW118947   1.970   0.075   5.248
 6016SOL    HW218948   2.063   6.966   5.261
 6017SOL     OW18949   0.055   3.719   2.560
 6017SOL    HW118950   6.990   3.722   2.606
 6017SOL    HW218951   0.124   3.761   2.618
 6018SOL     OW18952   2.790   5.223   1.572
 6018SOL    HW118953   2.733   5.167   1.512
 6018SOL    HW218954   2.886   5.211   1.547
 6019SOL     OW18955   5.843   6.164   3.321
 6019SOL    HW118956   5.941   6.181   3.305
 6019SOL    HW218957   5.810   6.224   3.393
 6020SOL     OW18958   2.640   6.855   2.938
 6020SOL    HW118959   2.661   6.950   2.964
 6020SOL    HW218960   2.560   6.854   2.879
 6021SOL     OW18961   3.833   0.548   3.908
 6021SOL    HW118962   3.856   0.503   3.994
 6021SOL    HW218963   3.859   0.644   3.912
 6022SOL     OW18964   4.717   0.800   5.272
 6022SOL    HW118965   4.765   0.772   5.189
 6022SOL    HW218966   4.620   0.813   5.251
 6023SOL     OW18967   0.242   2.051   2.500
 6023SOL    HW118968   0.232   2.095   2.589
 6023SOL    HW218969   0.217   1.955   2.507
 6024SOL     OW18970   6.829   6.035   2.695
 6024SOL    HW118971   6.761   5.963   2.701
 6024SOL    HW218972   6.909   6.001   2.646
 6025SOL     OW18973   4.154   2.281   2.451
 6025SOL    HW118974   4.158   2.337   2.368
 6025SOL    HW218975   4.234   2.301   2.508
 6026SOL     OW18976   0.487   4.666   5.639
 6026SOL    HW118977   0.492   4.569   5.616
 6026SOL    HW218978   0.532   4.720   5.568
 6027SOL     OW18979   4.046   3.256   0.311
 6027SOL    HW118980   4.068   3.332   0.250
 6027SOL    HW218981   3.947   3.252   0.324
 6028SOL     OW18982   0.902   4.115   0.148
 6028SOL    HW118983   0.886   4.143   0.243
 6028SOL    HW218984   0.842   4.167   0.087
 6029SOL     OW18985   0.761   4.819   1.476
 6029SOL    HW118986   0.682   4.798   1.533
 6029SOL    HW218987   0.837   4.758   1.498
 6030SOL     OW18988   1.726   6.752   1.648
 6030SOL    HW118989   1.632   6.745   1.615
 6030SOL    HW218990   1.745   6.846   1.676
 6031SOL     OW18991   5.105   0.687   4.395
 6031SOL    HW118992   5.009   0.661   4.381
 6031SOL    HW218993   5.157   0.609   4.428
 6032SOL     OW18994   0.552   3.415   2.431
 6032SOL    HW118995   0.533   3.332   2.377
 6032SOL    HW218996   0.481   3.483   2.412
 6033SOL     OW18997   0.582   6.581   4.564
 6033SOL    HW118998   0.527   6.650   4.610
 6033SOL    HW218999   0.645   6.538   4.629
 6034SOL     OW19000   2.490   4.507   5.080
 6034SOL    HW119001   2.525   4.428   5.131
 6034SOL    HW219002   2.401   4.483   5.039
 6035SOL     OW19003   5.402   0.183   3.854
 6035SOL    HW119004   5.407   0.283   3.844
 6035SOL    HW219005   5.346   0.145   3.781
 6036SOL     OW19006   7.021   0.681   4.344
 6036SOL    HW119007   6.952   0.750   4.326
 6036SOL    HW219008   0.052   0.707   4.423
 6037SOL     OW19009   0.316   5.482   4.807
 6037SOL    HW119010   0.355   5.561   4.853
 6037SOL    HW219011   0.231   5.508   4.761
 6038SOL     OW19012   6.095   3.912   6.799
 6038SOL    HW119013   6.009   3.877   6.836
 6038SOL    HW219014   6.082   3.937   6.703
 6039SOL     OW19015   4.008   3.207   4.797
 6039SOL    HW119016   4.096   3.183   4.758
 6039SOL    HW219017   3.944   3.130   4.786
 6040SOL     OW19018   1.746   0.981   1.314
 6040SOL    HW119019   1.836   1.023   1.322
 6040SOL    HW219020   1.726   0.929   1.397
 6041SOL     OW19021   0.755   2.764   0.571
 6041SOL    HW119022   0.665   2.795   0.603
 6041SOL    HW219023   0.820   2.840   0.578
 6042SOL     OW19024   5.686   5.664   4.999
 6042SOL    HW119025   5.592   5.649   4.969
 6042SOL    HW219026   5.730   5.576   5.018
 6043SOL     OW19027   0.176   4.701   4.313
 6043SOL    HW119028   0.268   4.695   4.275
 6043SOL    HW219029   0.109   4.672   4.245
 6044SOL     OW19030   1.484   0.502   1.451
 6044SOL    HW119031   1.495   0.567   1.376
 6044SOL    HW219032   1.443   0.547   1.529
 6045SOL     OW19033   6.542   4.128   0.894
 6045SOL    HW119034   6.639   4.104   0.888
 6045SOL    HW219035   6.496   4.064   0.957
 6046SOL     OW19036   1.973   3.247   0.593
 6046SOL    HW119037   1.922   3.330   0.569
 6046SOL    HW219038   1.998   3.197   0.511
 6047SOL     OW19039   0.486   6.337   4.509
 6047SOL    HW119040   0.554   6.310   4.577
 6047SOL    HW219041   0.476   6.436   4.509
 6048SOL     OW19042   4.935   6.150   4.733
 6048SOL    HW119043   4.995   6.224   4.702
 6048SOL    HW219044   4.853   6.188   4.776
 6049SOL     OW19045   6.600   5.613   6.907
 6049SOL    HW119046   6.608   5.712   6.894
 6049SOL    HW219047   6.655   5.585   6.985
 6050SOL     OW19048   5.488   4.555   5.903
 6050SOL    HW119049   5.473   4.586   5.809
 6050SOL    HW219050   5.575   4.507   5.909
 6051SOL     OW19051   2.922   1.560   3.245
 6051SOL    HW119052   2.971   1.494   3.302
 6051SOL    HW219053   2.840   1.592   3.294
 6052SOL     OW19054   6.581   1.408   0.371
 6052SOL    HW119055   6.541   1.384   0.459
 6052SOL    HW219056   6.544   1.496   0.340
 6053SOL     OW19057   1.629   0.088   6.222
 6053SOL    HW119058   1.719   0.045   6.211
 6053SOL    HW219059   1.608   0.096   6.320
 6054SOL     OW19060   1.765   4.068   6.216
 6054SOL    HW119061   1.815   4.152   6.194
 6054SOL    HW219062   1.704   4.045   6.140
 6055SOL     OW19063   5.327   0.234   3.551
 6055SOL    HW119064   5.413   0.255   3.503
 6055SOL    HW219065   5.265   0.312   3.543
 6056SOL     OW19066   5.202   3.550   6.208
 6056SOL    HW119067   5.149   3.611   6.150
 6056SOL    HW219068   5.243   3.601   6.283
 6057SOL     OW19069   3.675   0.690   6.231
 6057SOL    HW119070   3.643   0.697   6.326
 6057SOL    HW219071   3.703   0.781   6.199
 6058SOL     OW19072   5.352   1.947   5.198
 6058SOL    HW119073   5.306   1.859   5.186
 6058SOL    HW219074   5.286   2.021   5.185
 6059SOL     OW19075   6.764   6.186   6.259
 6059SOL    HW119076   6.765   6.284   6.277
 6059SOL    HW219077   6.749   6.171   6.161
 6060SOL     OW19078   3.345   6.352   6.625
 6060SOL    HW119079   3.437   6.382   6.650
 6060SOL    HW219080   3.295   6.323   6.706
 6061SOL     OW19081   2.038   1.788   0.137
 6061SOL    HW119082   2.039   1.795   0.038
 6061SOL    HW219083   2.130   1.769   0.171
 6062SOL     OW19084   0.926   0.163   3.957
 6062SOL    HW119085   0.998   0.126   4.014
 6062SOL    HW219086   0.837   0.146   4.000
 6063SOL     OW19087   5.429   5.979   0.221
 6063SOL    HW119088   5.501   5.912   0.207
 6063SOL    HW219089   5.339   5.935   0.213
 6064SOL     OW19090   0.815   5.200   2.696
 6064SOL    HW119091   0.840   5.273   2.632
 6064SOL    HW219092   0.788   5.118   2.644
 6065SOL     OW19093   5.718   6.687   1.774
 6065SOL    HW119094   5.796   6.652   1.826
 6065SOL    HW219095   5.654   6.612   1.756
 6066SOL     OW19096   4.713   2.073   6.425
 6066SOL    HW119097   4.742   2.158   6.467
 6066SOL    HW219098   4.613   2.064   6.432
 6067SOL     OW19099   5.161   2.433   6.698
 6067SOL    HW119100   5.095   2.439   6.773
 6067SOL    HW219101   5.145   2.348   6.647
 6068SOL     OW19102   5.691   1.690   5.640
 6068SOL    HW119103   5.695   1.719   5.735
 6068SOL    HW219104   5.596   1.684   5.610
 6069SOL     OW19105   5.938   4.401   4.345
 6069SOL    HW119106   6.031   4.365   4.349
 6069SOL    HW219107   5.929   4.462   4.267
 6070SOL     OW19108   4.696   3.012   6.800
 6070SOL    HW119109   4.744   3.035   6.715
 6070SOL    HW219110   4.755   2.956   6.858
 6071SOL     OW19111   5.230   6.837   5.609
 6071SOL    HW119112   5.279   6.750   5.614
 6071SOL    HW219113   5.142   6.823   5.563
 6072SOL     OW19114   6.829   1.697   0.531
 6072SOL    HW119115   6.755   1.687   0.597
 6072SOL    HW219116   6.909   1.736   0.576
 6073SOL     OW19117   6.787   1.691   0.976
 6073SOL    HW119118   6.731   1.735   0.905
 6073SOL    HW219119   6.783   1.592   0.964
 6074SOL     OW19120   0.524   0.347   5.120
 6074SOL    HW119121   0.474   0.427   5.154
 6074SOL    HW219122   0.592   0.319   5.189
 6075SOL     OW19123   4.519   4.011   6.599
 6075SOL    HW119124   4.557   3.967   6.680
 6075SOL    HW219125   4.466   4.091   6.627
 6076SOL     OW19126   2.732   0.328   4.400
 6076SOL    HW119127   2.659   0.391   4.425
 6076SOL    HW219128   2.752   0.337   4.302
 6077SOL     OW19129   5.161   4.990   2.901
 6077SOL    HW119130   5.080   4.945   2.864
 6077SOL    HW219131   5.141   5.087   2.916
 6078SOL     OW19132   2.096   4.529   3.656
 6078SOL    HW119133   2.186   4.493   3.683
 6078SOL    HW219134   2.109   4.608   3.596
 6079SOL     OW19135   2.737   1.574   0.738
 6079SOL    HW119136   2.783   1.540   0.656
 6079SOL    HW219137   2.689   1.499   0.783
 6080SOL     OW19138   6.078   2.656   3.062
 6080SOL    HW119139   6.166   2.683   3.023
 6080SOL    HW219140   6.073   2.683   3.158
 6081SOL     OW19141   0.589   3.866   2.783
 6081SOL    HW119142   0.608   3.836   2.690
 6081SOL    HW219143   0.609   3.792   2.847
 6082SOL     OW19144   3.468   1.420   4.819
 6082SOL    HW119145   3.439   1.508   4.782
 6082SOL    HW219146   3.454   1.419   4.918
 6083SOL     OW19147   2.036   6.950   0.722
 6083SOL    HW119148   2.079   6.871   0.765
 6083SOL    HW219149   1.949   6.969   0.767
 6084SOL     OW19150   7.011   5.402   5.504
 6084SOL    HW119151   6.980   5.345   5.428
 6084SOL    HW219152   0.012   5.493   5.469
 6085SOL     OW19153   5.195   5.503   1.461
 6085SOL    HW119154   5.157   5.425   1.510
 6085SOL    HW219155   5.174   5.495   1.364
 6086SOL     OW19156   2.937   1.818   2.683
 6086SOL    HW119157   2.990   1.855   2.759
 6086SOL    HW219158   2.946   1.718   2.681
 6087SOL     OW19159   3.506   0.552   0.868
 6087SOL    HW119160   3.601   0.520   0.870
 6087SOL    HW219161   3.505   0.652   0.858
 6088SOL     OW19162   0.125   0.272   5.560
 6088SOL    HW119163   0.221   0.245   5.562
 6088SOL    HW219164   0.070   0.205   5.610
 6089SOL     OW19165   6.531   3.756   0.739
 6089SOL    HW119166   6.615   3.786   0.695
 6089SOL    HW219167   6.456   3.757   0.672
 6090SOL     OW19168   0.355   5.689   3.991
 6090SOL    HW119169   0.296   5.617   4.029
 6090SOL    HW219170   0.383   5.663   3.898
 6091SOL     OW19171   6.130   2.152   1.126
 6091SOL    HW119172   6.033   2.175   1.140
 6091SOL    HW219173   6.186   2.231   1.149
 6092SOL     OW19174   0.842   3.197   1.066
 6092SOL    HW119175   0.833   3.294   1.091
 6092SOL    HW219176   0.936   3.167   1.083
 6093SOL     OW19177   1.062   3.959   0.568
 6093SOL    HW119178   1.128   4.011   0.515
 6093SOL    HW219179   0.981   3.941   0.512
 6094SOL     OW19180   0.602   1.320   0.587
 6094SOL    HW119181   0.566   1.301   0.679
 6094SOL    HW219182   0.609   1.419   0.574
 6095SOL     OW19183   0.007   4.184   4.965
 6095SOL    HW119184   0.060   4.104   4.936
 6095SOL    HW219185   6.955   4.199   4.902
 6096SOL     OW19186   4.822   1.835   2.854
 6096SOL    HW119187   4.735   1.882   2.843
 6096SOL    HW219188   4.842   1.781   2.772
 6097SOL     OW19189   3.265   2.004   2.043
 6097SOL    HW119190   3.189   2.040   2.098
 6097SOL    HW219191   3.295   2.074   1.978
 6098SOL     OW19192   1.183   0.314   6.311
 6098SOL    HW119193   1.262   0.342   6.257
 6098SOL    HW219194   1.209   0.300   6.406
 6099SOL     OW19195   5.873   4.383   5.177
 6099SOL    HW119196   5.819   4.300   5.164
 6099SOL    HW219197   5.948   4.365   5.240
 6100SOL     OW19198   0.071   2.466   6.741
 6100SOL    HW119199   7.023   2.524   6.702
 6100SOL    HW219200   0.062   2.466   6.841
 6101SOL     OW19201   6.069   0.100   3.655
 6101SOL    HW119202   6.034   0.053   3.573
 6101SOL    HW219203   6.167   0.083   3.664
 6102SOL     OW19204   2.888   6.862   5.032
 6102SOL    HW119205   2.987   6.870   5.034
 6102SOL    HW219206   2.854   6.844   5.124
 6103SOL     OW19207   5.815   1.459   5.547
 6103SOL    HW119208   5.742   1.521   5.575
 6103SOL    HW219209   5.891   1.466   5.611
 6104SOL     OW19210   1.205   3.195   1.010
 6104SOL    HW119211   1.304   3.206   1.013
 6104SOL    HW219212   1.164   3.275   0.968
 6105SOL     OW19213   3.308   4.937   5.002
 6105SOL    HW119214   3.212   4.929   5.027
 6105SOL    HW219215   3.318   4.921   4.904
 6106SOL     OW19216   3.117   4.849   4.187
 6106SOL    HW119217   3.034   4.792   4.183
 6106SOL    HW219218   3.147   4.856   4.282
 6107SOL     OW19219   2.159   5.239   5.338
 6107SOL    HW119220   2.101   5.245   5.420
 6107SOL    HW219221   2.168   5.143   5.311
 6108SOL     OW19222   5.521   1.767   4.675
 6108SOL    HW119223   5.449   1.820   4.721
 6108SOL    HW219224   5.545   1.688   4.732
 6109SOL     OW19225   6.755   3.645   1.931
 6109SOL    HW119226   6.840   3.616   1.976
 6109SOL    HW219227   6.703   3.564   1.903
 6110SOL     OW19228   3.334   2.051   3.644
 6110SOL    HW119229   3.295   1.997   3.570
 6110SOL    HW219230   3.406   2.111   3.608
 6111SOL     OW19231   0.623   4.809   3.600
 6111SOL    HW119232   0.526   4.785   3.594
 6111SOL    HW219233   0.674   4.731   3.637
 6112SOL     OW19234   1.233   2.284   0.544
 6112SOL    HW119235   1.214   2.277   0.642
 6112SOL    HW219236   1.326   2.316   0.530
 6113SOL     OW19237   1.723   5.473   5.144
 6113SOL    HW119238   1.815   5.448   5.174
 6113SOL    HW219239   1.724   5.493   5.046
 6114SOL     OW19240   4.869   4.577   0.798
 6114SOL    HW119241   4.952   4.585   0.742
 6114SOL    HW219242   4.790   4.603   0.744
 6115SOL     OW19243   6.434   4.488   1.950
 6115SOL    HW119244   6.424   4.493   2.049
 6115SOL    HW219245   6.383   4.563   1.908
 6116SOL     OW19246   3.288   2.308   1.012
 6116SOL    HW119247   3.297   2.234   0.946
 6116SOL    HW219248   3.198   2.303   1.055
 6117SOL     OW19249   5.547   6.826   4.163
 6117SOL    HW119250   5.551   6.784   4.254
 6117SOL    HW219251   5.557   6.925   4.172
 6118SOL     OW19252   6.444   0.442   3.361
 6118SOL    HW119253   6.439   0.359   3.416
 6118SOL    HW219254   6.395   0.428   3.274
 6119SOL     OW19255   5.474   5.878   4.112
 6119SOL    HW119256   5.519   5.906   4.196
 6119SOL    HW219257   5.515   5.794   4.078
 6120SOL     OW19258   2.472   1.856   3.389
 6120SOL    HW119259   2.405   1.903   3.333
 6120SOL    HW219260   2.490   1.909   3.472
 6121SOL     OW19261   6.852   1.364   4.678
 6121SOL    HW119262   6.764   1.382   4.721
 6121SOL    HW219263   6.925   1.394   4.739
 6122SOL     OW19264   3.881   6.262   4.154
 6122SOL    HW119265   3.782   6.259   4.164
 6122SOL    HW219266   3.916   6.343   4.201
 6123SOL     OW19267   5.684   1.462   2.664
 6123SOL    HW119268   5.756   1.484   2.729
 6123SOL    HW219269   5.595   1.464   2.710
 6124SOL     OW19270   2.964   0.379   4.588
 6124SOL    HW119271   2.975   0.303   4.653
 6124SOL    HW219272   2.902   0.351   4.515
 6125SOL     OW19273   0.891   4.645   2.147
 6125SOL    HW119274   0.918   4.658   2.052
 6125SOL    HW219275   0.812   4.583   2.151
 6126SOL     OW19276   3.763   6.076   2.607
 6126SOL    HW119277   3.734   6.121   2.523
 6126SOL    HW219278   3.683   6.047   2.659
 6127SOL     OW19279   2.089   5.106   2.090
 6127SOL    HW119280   2.171   5.091   2.146
 6127SOL    HW219281   2.087   5.200   2.057
 6128SOL     OW19282   4.966   3.490   1.172
 6128SOL    HW119283   4.903   3.539   1.231
 6128SOL    HW219284   4.917   3.450   1.094
 6129SOL     OW19285   6.398   3.968   3.402
 6129SOL    HW119286   6.482   4.020   3.421
 6129SOL    HW219287   6.350   4.010   3.325
 6130SOL     OW19288   5.079   4.268   2.539
 6130SOL    HW119289   5.030   4.276   2.452
 6130SOL    HW219290   5.013   4.251   2.612
 6131SOL     OW19291   6.238   1.391   4.872
 6131SOL    HW119292   6.311   1.444   4.914
 6131SOL    HW219293   6.233   1.301   4.916
 6132SOL     OW19294   6.384   2.485   0.563
 6132SOL    HW119295   6.481   2.464   0.577
 6132SOL    HW219296   6.339   2.496   0.651
 6133SOL     OW19297   1.650   4.470   0.485
 6133SOL    HW119298   1.601   4.448   0.400
 6133SOL    HW219299   1.744   4.495   0.464
 6134SOL     OW19300   4.803   3.966   0.233
 6134SOL    HW119301   4.759   3.877   0.243
 6134SOL    HW219302   4.785   4.022   0.314
 6135SOL     OW19303   5.769   0.299   2.774
 6135SOL    HW119304   5.682   0.251   2.791
 6135SOL    HW219305   5.827   0.290   2.855
 6136SOL     OW19306   0.955   1.451   2.434
 6136SOL    HW119307   0.857   1.446   2.457
 6136SOL    HW219308   0.985   1.546   2.437
 6137SOL     OW19309   3.169   7.024   6.479
 6137SOL    HW119310   3.104   0.031   6.547
 6137SOL    HW219311   3.253   0.055   6.484
 6138SOL     OW19312   5.122   0.296   3.121
 6138SOL    HW119313   5.103   0.206   3.159
 6138SOL    HW219314   5.121   0.291   3.021
 6139SOL     OW19315   2.408   6.139   3.891
 6139SOL    HW119316   2.350   6.140   3.810
 6139SOL    HW219317   2.499   6.105   3.867
 6140SOL     OW19318   1.924   5.647   1.169
 6140SOL    HW119319   1.908   5.567   1.228
 6140SOL    HW219320   1.850   5.713   1.183
 6141SOL     OW19321   0.016   6.031   5.288
 6141SOL    HW119322   0.027   6.076   5.199
 6141SOL    HW219323   0.080   6.072   5.354
 6142SOL     OW19324   0.556   4.172   3.552
 6142SOL    HW119325   0.623   4.209   3.488
 6142SOL    HW219326   0.514   4.090   3.513
 6143SOL     OW19327   6.475   4.400   6.154
 6143SOL    HW119328   6.476   4.310   6.199
 6143SOL    HW219329   6.495   4.388   6.056
 6144SOL     OW19330   0.191   5.084   4.237
 6144SOL    HW119331   0.134   5.039   4.306
 6144SOL    HW219332   0.281   5.042   4.234
 6145SOL     OW19333   5.873   5.241   3.389
 6145SOL    HW119334   5.847   5.200   3.477
 6145SOL    HW219335   5.812   5.317   3.369
 6146SOL     OW19336   5.800   2.524   3.669
 6146SOL    HW119337   5.842   2.571   3.747
 6146SOL    HW219338   5.861   2.452   3.637
 6147SOL     OW19339   1.088   3.888   2.721
 6147SOL    HW119340   1.142   3.811   2.754
 6147SOL    HW219341   1.135   3.931   2.644
 6148SOL     OW19342   6.223   5.949   2.848
 6148SOL    HW119343   6.306   6.005   2.851
 6148SOL    HW219344   6.146   6.003   2.882
 6149SOL     OW19345   1.551   6.031   4.837
 6149SOL    HW119346   1.572   5.935   4.854
 6149SOL    HW219347   1.636   6.082   4.823
 6150SOL     OW19348   4.362   6.237   5.872
 6150SOL    HW119349   4.347   6.332   5.845
 6150SOL    HW219350   4.454   6.227   5.910
 6151SOL     OW19351   4.598   0.301   5.601
 6151SOL    HW119352   4.641   0.231   5.545
 6151SOL    HW219353   4.662   0.377   5.616
 6152SOL     OW19354   6.393   4.436   5.181
 6152SOL    HW119355   6.463   4.507   5.180
 6152SOL    HW219356   6.320   4.463   5.244
 6153SOL     OW19357   4.315   4.771   6.720
 6153SOL    HW119358   4.408   4.775   6.683
 6153SOL    HW219359   4.316   4.801   6.816
 6154SOL     OW19360   5.370   3.220   3.737
 6154SOL    HW119361   5.308   3.142   3.729
 6154SOL    HW219362   5.434   3.221   3.661
 6155SOL     OW19363   2.383   4.831   4.905
 6155SOL    HW119364   2.463   4.777   4.879
 6155SOL    HW219365   2.413   4.915   4.952
 6156SOL     OW19366   6.020   0.403   4.588
 6156SOL    HW119367   6.037   0.373   4.682
 6156SOL    HW219368   6.076   0.484   4.569
 6157SOL     OW19369   0.877   1.599   3.757
 6157SOL    HW119370   0.795   1.542   3.759
 6157SOL    HW219371   0.851   1.695   3.752
 6158SOL     OW19372   5.565   6.789   0.085
 6158SOL    HW119373   5.596   6.874   0.128
 6158SOL    HW219374   5.481   6.757   0.128
 6159SOL     OW19375   4.890   3.568   6.769
 6159SOL    HW119376   4.962   3.563   6.699
 6159SOL    HW219377   4.822   3.497   6.750
 6160SOL     OW19378   6.419   4.240   0.681
 6160SOL    HW119379   6.488   4.312   0.669
 6160SOL    HW219380   6.436   4.193   0.767
 6161SOL     OW19381   6.234   7.004   6.395
 6161SOL    HW119382   6.299   6.989   6.469
 6161SOL    HW219383   6.284   7.022   6.310
 6162SOL     OW19384   5.197   5.052   4.110
 6162SOL    HW119385   5.140   5.132   4.128
 6162SOL    HW219386   5.282   5.059   4.161
 6163SOL     OW19387   0.047   4.015   2.489
 6163SOL    HW119388   0.079   3.946   2.424
 6163SOL    HW219389   7.007   3.972   2.553
 6164SOL     OW19390   4.367   2.955   0.458
 6164SOL    HW119391   4.337   2.982   0.367
 6164SOL    HW219392   4.466   2.969   0.466
 6165SOL     OW19393   3.907   0.486   1.339
 6165SOL    HW119394   3.916   0.489   1.239
 6165SOL    HW219395   3.810   0.482   1.363
 6166SOL     OW19396   3.734   1.321   0.648
 6166SOL    HW119397   3.646   1.312   0.601
 6166SOL    HW219398   3.769   1.230   0.670
 6167SOL     OW19399   6.683   5.417   3.839
 6167SOL    HW119400   6.691   5.492   3.905
 6167SOL    HW219401   6.740   5.340   3.869
 6168SOL     OW19402   0.242   3.140   1.176
 6168SOL    HW119403   0.228   3.104   1.269
 6168SOL    HW219404   0.316   3.207   1.177
 6169SOL     OW19405   2.077   4.479   1.454
 6169SOL    HW119406   2.167   4.492   1.413
 6169SOL    HW219407   2.088   4.457   1.551
 6170SOL     OW19408   6.528   1.895   3.333
 6170SOL    HW119409   6.483   1.819   3.380
 6170SOL    HW219410   6.461   1.966   3.312
 6171SOL     OW19411   6.055   1.180   5.769
 6171SOL    HW119412   5.977   1.121   5.746
 6171SOL    HW219413   6.063   1.187   5.869
 6172SOL     OW19414   1.039   4.636   4.273
 6172SOL    HW119415   0.956   4.671   4.316
 6172SOL    HW219416   1.119   4.670   4.322
 6173SOL     OW19417   5.572   6.228   2.992
 6173SOL    HW119418   5.512   6.191   3.063
 6173SOL    HW219419   5.663   6.186   3.000
 6174SOL     OW19420   6.572   2.376   3.067
 6174SOL    HW119421   6.600   2.390   3.162
 6174SOL    HW219422   6.599   2.285   3.037
 6175SOL     OW19423   3.815   1.394   6.795
 6175SOL    HW119424   3.717   1.388   6.810
 6175SOL    HW219425   3.841   1.490   6.785
 6176SOL     OW19426   2.629   4.378   6.548
 6176SOL    HW119427   2.720   4.362   6.586
 6176SOL    HW219428   2.612   4.477   6.542
 6177SOL     OW19429   5.760   5.322   1.489
 6177SOL    HW119430   5.838   5.367   1.531
 6177SOL    HW219431   5.749   5.230   1.528
 6178SOL     OW19432   4.054   4.785   2.161
 6178SOL    HW119433   3.983   4.855   2.155
 6178SOL    HW219434   4.083   4.760   2.068
 6179SOL     OW19435   5.497   5.074   4.926
 6179SOL    HW119436   5.439   5.019   4.987
 6179SOL    HW219437   5.449   5.090   4.840
 6180SOL     OW19438   2.122   4.060   6.687
 6180SOL    HW119439   2.155   3.974   6.726
 6180SOL    HW219440   2.033   4.083   6.728
 6181SOL     OW19441   6.304   6.054   0.181
 6181SOL    HW119442   6.316   6.082   0.276
 6181SOL    HW219443   6.212   6.079   0.151
 6182SOL     OW19444   2.563   2.376   6.893
 6182SOL    HW119445   2.474   2.421   6.892
 6182SOL    HW219446   2.564   2.302   6.826
 6183SOL     OW19447   0.135   0.712   0.359
 6183SOL    HW119448   0.055   0.771   0.371
 6183SOL    HW219449   0.174   0.690   0.448
 6184SOL     OW19450   2.964   6.861   5.481
 6184SOL    HW119451   3.048   6.912   5.464
 6184SOL    HW219452   2.983   6.763   5.475
 6185SOL     OW19453   3.567   2.926   5.297
 6185SOL    HW119454   3.560   3.021   5.269
 6185SOL    HW219455   3.528   2.915   5.389
 6186SOL     OW19456   1.252   2.263   2.585
 6186SOL    HW119457   1.174   2.237   2.642
 6186SOL    HW219458   1.219   2.319   2.508
 6187SOL     OW19459   3.141   1.908   6.102
 6187SOL    HW119460   3.229   1.924   6.146
 6187SOL    HW219461   3.067   1.918   6.169
 6188SOL     OW19462   1.677   1.474   5.841
 6188SOL    HW119463   1.597   1.419   5.816
 6188SOL    HW219464   1.664   1.567   5.809
 6189SOL     OW19465   6.661   5.024   0.311
 6189SOL    HW119466   6.572   4.994   0.276
 6189SOL    HW219467   6.682   5.115   0.275
 6190SOL     OW19468   0.631   2.682   3.517
 6190SOL    HW119469   0.555   2.729   3.563
 6190SOL    HW219470   0.716   2.700   3.566
 6191SOL     OW19471   2.471   4.068   0.693
 6191SOL    HW119472   2.536   4.129   0.648
 6191SOL    HW219473   2.407   4.032   0.625
 6192SOL     OW19474   3.250   1.755   1.456
 6192SOL    HW119475   3.233   1.671   1.403
 6192SOL    HW219476   3.297   1.732   1.541
 6193SOL     OW19477   4.077   5.937   6.795
 6193SOL    HW119478   4.055   5.982   6.882
 6193SOL    HW219479   4.091   5.839   6.811
 6194SOL     OW19480   5.361   0.171   6.165
 6194SOL    HW119481   5.322   0.085   6.132
 6194SOL    HW219482   5.323   0.192   6.256
 6195SOL     OW19483   4.811   5.763   5.722
 6195SOL    HW119484   4.796   5.729   5.815
 6195SOL    HW219485   4.752   5.842   5.706
 6196SOL     OW19486   6.456   3.540   3.426
 6196SOL    HW119487   6.470   3.463   3.488
 6196SOL    HW219488   6.523   3.535   3.352
 6197SOL     OW19489   0.889   5.082   1.066
 6197SOL    HW119490   0.828   5.114   0.993
 6197SOL    HW219491   0.867   5.131   1.151
 6198SOL     OW19492   5.979   1.423   6.463
 6198SOL    HW119493   6.067   1.382   6.439
 6198SOL    HW219494   5.914   1.409   6.389
 6199SOL     OW19495   2.555   0.017   5.986
 6199SOL    HW119496   2.637   0.041   5.933
 6199SOL    HW219497   2.508   6.964   5.942
 6200SOL     OW19498   1.348   0.214   0.828
 6200SOL    HW119499   1.403   0.195   0.747
 6200SOL    HW219500   1.291   0.135   0.848
 6201SOL     OW19501   0.196   5.371   3.607
 6201SOL    HW119502   0.106   5.335   3.631
 6201SOL    HW219503   0.199   5.469   3.625
 6202SOL     OW19504   5.760   0.768   2.053
 6202SOL    HW119505   5.713   0.722   2.129
 6202SOL    HW219506   5.712   0.748   1.968
 6203SOL     OW19507   6.102   1.111   1.926
 6203SOL    HW119508   6.123   1.038   1.861
 6203SOL    HW219509   6.014   1.092   1.969
 6204SOL     OW19510   0.929   5.847   4.783
 6204SOL    HW119511   0.846   5.793   4.777
 6204SOL    HW219512   0.945   5.895   4.697
 6205SOL     OW19513   6.096   4.534   3.234
 6205SOL    HW119514   6.100   4.519   3.332
 6205SOL    HW219515   6.178   4.497   3.191
 6206SOL     OW19516   5.673   2.322   3.312
 6206SOL    HW119517   5.623   2.365   3.387
 6206SOL    HW219518   5.707   2.392   3.249
 6207SOL     OW19519   1.856   5.765   3.617
 6207SOL    HW119520   1.814   5.804   3.535
 6207SOL    HW219521   1.936   5.711   3.591
 6208SOL     OW19522   3.993   4.421   6.553
 6208SOL    HW119523   4.003   4.333   6.598
 6208SOL    HW219524   3.988   4.408   6.454
 6209SOL     OW19525   3.736   1.481   2.050
 6209SOL    HW119526   3.707   1.576   2.053
 6209SOL    HW219527   3.662   1.422   2.082
 6210SOL     OW19528   5.634   1.097   4.082
 6210SOL    HW119529   5.714   1.144   4.118
 6210SOL    HW219530   5.628   1.111   3.983
 6211SOL     OW19531   5.102   3.300   5.535
 6211SOL    HW119532   5.062   3.391   5.523
 6211SOL    HW219533   5.077   3.243   5.457
 6212SOL     OW19534   4.810   4.420   5.090
 6212SOL    HW119535   4.793   4.470   5.006
 6212SOL    HW219536   4.725   4.378   5.122
 6213SOL     OW19537   5.248   6.068   0.638
 6213SOL    HW119538   5.263   6.113   0.550
 6213SOL    HW219539   5.200   5.981   0.622
 6214SOL     OW19540   6.411   0.260   6.610
 6214SOL    HW119541   6.405   0.321   6.689
 6214SOL    HW219542   6.379   0.169   6.637
 6215SOL     OW19543   5.802   2.102   5.245
 6215SOL    HW119544   5.727   2.074   5.185
 6215SOL    HW219545   5.803   2.043   5.325
 6216SOL     OW19546   4.980   2.114   5.424
 6216SOL    HW119547   5.027   2.102   5.336
 6216SOL    HW219548   4.930   2.201   5.423
 6217SOL     OW19549   6.953   4.305   2.579
 6217SOL    HW119550   0.006   4.341   2.631
 6217SOL    HW219551   6.987   4.261   2.495
 6218SOL     OW19552   4.777   6.766   0.699
 6218SOL    HW119553   4.713   6.759   0.776
 6218SOL    HW219554   4.757   6.849   0.647
 6219SOL     OW19555   2.429   0.294   7.013
 6219SOL    HW119556   2.454   0.369   6.951
 6219SOL    HW219557   2.423   0.329   0.083
 6220SOL     OW19558   3.341   6.738   2.159
 6220SOL    HW119559   3.417   6.779   2.109
 6220SOL    HW219560   3.360   6.741   2.257
 6221SOL     OW19561   4.399   5.759   5.521
 6221SOL    HW119562   4.431   5.674   5.563
 6221SOL    HW219563   4.304   5.748   5.493
 6222SOL     OW19564   6.143   1.410   2.486
 6222SOL    HW119565   6.043   1.415   2.488
 6222SOL    HW219566   6.177   1.453   2.402
 6223SOL     OW19567   6.500   5.188   4.509
 6223SOL    HW119568   6.448   5.187   4.594
 6223SOL    HW219569   6.450   5.239   4.440
 6224SOL     OW19570   4.376   6.583   0.325
 6224SOL    HW119571   4.315   6.628   0.390
 6224SOL    HW219572   4.335   6.583   0.234
 6225SOL     OW19573   4.834   6.323   6.217
 6225SOL    HW119574   4.902   6.311   6.144
 6225SOL    HW219575   4.816   6.236   6.261
 6226SOL     OW19576   0.950   1.010   3.879
 6226SOL    HW119577   0.942   1.092   3.823
 6226SOL    HW219578   0.861   0.986   3.917
 6227SOL     OW19579   2.346   5.122   5.932
 6227SOL    HW119580   2.369   5.025   5.935
 6227SOL    HW219581   2.316   5.152   6.023
 6228SOL     OW19582   0.604   3.614   3.910
 6228SOL    HW119583   0.651   3.700   3.931
 6228SOL    HW219584   0.568   3.574   3.995
 6229SOL     OW19585   0.271   4.259   4.608
 6229SOL    HW119586   0.366   4.265   4.637
 6229SOL    HW219587   0.238   4.351   4.584
 6230SOL     OW19588   0.661   0.890   1.809
 6230SOL    HW119589   0.593   0.818   1.796
 6230SOL    HW219590   0.672   0.908   1.907
 6231SOL     OW19591   2.224   5.503   6.347
 6231SOL    HW119592   2.147   5.496   6.285
 6231SOL    HW219593   2.192   5.494   6.441
 6232SOL     OW19594   4.557   6.923   6.890
 6232SOL    HW119595   4.637   6.970   6.853
 6232SOL    HW219596   4.578   6.827   6.903
 6233SOL     OW19597   0.058   4.019   1.463
 6233SOL    HW119598   0.132   4.084   1.482
 6233SOL    HW219599   0.076   3.974   1.376
 6234SOL     OW19600   4.820   5.842   3.884
 6234SOL    HW119601   4.772   5.930   3.876
 6234SOL    HW219602   4.919   5.857   3.875
 6235SOL     OW19603   0.748   0.549   1.938
 6235SOL    HW119604   0.740   0.648   1.926
 6235SOL    HW219605   0.718   0.503   1.854
 6236SOL     OW19606   6.889   5.850   1.385
 6236SOL    HW119607   6.843   5.898   1.459
 6236SOL    HW219608   6.979   5.819   1.416
 6237SOL     OW19609   3.785   1.172   2.335
 6237SOL    HW119610   3.747   1.152   2.425
 6237SOL    HW219611   3.713   1.207   2.275
 6238SOL     OW19612   2.546   0.400   3.672
 6238SOL    HW119613   2.588   0.487   3.696
 6238SOL    HW219614   2.457   0.392   3.717
 6239SOL     OW19615   4.104   1.405   3.895
 6239SOL    HW119616   4.074   1.310   3.887
 6239SOL    HW219617   4.127   1.424   3.991
 6240SOL     OW19618   3.930   3.009   4.398
 6240SOL    HW119619   3.844   3.060   4.401
 6240SOL    HW219620   3.913   2.915   4.369
 6241SOL     OW19621   3.419   0.183   3.689
 6241SOL    HW119622   3.440   0.112   3.623
 6241SOL    HW219623   3.474   0.264   3.671
 6242SOL     OW19624   3.370   1.986   4.410
 6242SOL    HW119625   3.436   1.957   4.480
 6242SOL    HW219626   3.309   2.056   4.449
 6243SOL     OW19627   4.380   1.141   0.316
 6243SOL    HW119628   4.449   1.147   0.244
 6243SOL    HW219629   4.345   1.048   0.320
 6244SOL     OW19630   4.455   2.178   2.001
 6244SOL    HW119631   4.382   2.146   2.061
 6244SOL    HW219632   4.469   2.276   2.015
 6245SOL     OW19633   6.923   5.256   1.668
 6245SOL    HW119634   6.965   5.317   1.734
 6245SOL    HW219635   6.926   5.162   1.703
 6246SOL     OW19636   0.758   6.239   5.210
 6246SOL    HW119637   0.831   6.267   5.148
 6246SOL    HW219638   0.774   6.277   5.301
 6247SOL     OW19639   5.592   5.091   2.914
 6247SOL    HW119640   5.614   4.993   2.909
 6247SOL    HW219641   5.634   5.131   2.995
 6248SOL     OW19642   4.563   2.604   5.537
 6248SOL    HW119643   4.492   2.608   5.467
 6248SOL    HW219644   4.632   2.674   5.518
 6249SOL     OW19645   5.704   3.325   3.334
 6249SOL    HW119646   5.761   3.282   3.264
 6249SOL    HW219647   5.632   3.378   3.289
 6250SOL     OW19648   5.495   0.167   5.776
 6250SOL    HW119649   5.402   0.203   5.777
 6250SOL    HW219650   5.498   0.080   5.826
 6251SOL     OW19651   3.003   0.516   4.301
 6251SOL    HW119652   3.066   0.460   4.356
 6251SOL    HW219653   2.969   0.462   4.225
 6252SOL     OW19654   3.266   5.275   0.606
 6252SOL    HW119655   3.332   5.258   0.679
 6252SOL    HW219656   3.211   5.193   0.590
 6253SOL     OW19657   4.915   6.214   3.811
 6253SOL    HW119658   4.991   6.164   3.852
 6253SOL    HW219659   4.828   6.171   3.836
 6254SOL     OW19660   0.796   0.324   1.745
 6254SOL    HW119661   0.740   0.320   1.663
 6254SOL    HW219662   0.747   0.283   1.822
 6255SOL     OW19663   1.960   0.989   1.005
 6255SOL    HW119664   1.968   0.912   0.941
 6255SOL    HW219665   1.883   1.046   0.979
 6256SOL     OW19666   6.066   5.336   2.202
 6256SOL    HW119667   6.052   5.367   2.296
 6256SOL    HW219668   6.001   5.262   2.182
 6257SOL     OW19669   3.928   3.418   0.960
 6257SOL    HW119670   3.942   3.456   1.051
 6257SOL    HW219671   3.965   3.481   0.891
 6258SOL     OW19672   3.904   5.247   4.938
 6258SOL    HW119673   3.878   5.306   4.861
 6258SOL    HW219674   3.882   5.152   4.917
 6259SOL     OW19675   4.298   1.215   4.555
 6259SOL    HW119676   4.236   1.282   4.515
 6259SOL    HW219677   4.393   1.243   4.538
 6260SOL     OW19678   3.249   2.109   0.819
 6260SOL    HW119679   3.172   2.169   0.799
 6260SOL    HW219680   3.307   2.100   0.737
 6261SOL     OW19681   4.039   0.107   0.859
 6261SOL    HW119682   4.100   0.028   0.862
 6261SOL    HW219683   3.978   0.105   0.938
 6262SOL     OW19684   5.871   1.112   2.701
 6262SOL    HW119685   5.870   1.050   2.779
 6262SOL    HW219686   5.881   1.206   2.733
 6263SOL     OW19687   6.459   6.208   6.413
 6263SOL    HW119688   6.527   6.279   6.429
 6263SOL    HW219689   6.498   6.137   6.354
 6264SOL     OW19690   0.920   6.288   0.695
 6264SOL    HW119691   1.008   6.299   0.649
 6264SOL    HW219692   0.854   6.249   0.631
 6265SOL     OW19693   4.124   7.004   6.644
 6265SOL    HW119694   4.100   0.063   6.593
 6265SOL    HW219695   4.106   6.923   6.589
 6266SOL     OW19696   3.209   5.379   3.039
 6266SOL    HW119697   3.297   5.347   3.075
 6266SOL    HW219698   3.135   5.346   3.097
 6267SOL     OW19699   0.525   6.243   4.258
 6267SOL    HW119700   0.617   6.213   4.231
 6267SOL    HW219701   0.524   6.264   4.355
 6268SOL     OW19702   3.861   1.693   0.915
 6268SOL    HW119703   3.834   1.659   0.825
 6268SOL    HW219704   3.820   1.783   0.930
 6269SOL     OW19705   6.847   6.142   0.048
 6269SOL    HW119706   6.884   6.050   0.062
 6269SOL    HW219707   6.771   6.157   0.110
 6270SOL     OW19708   1.254   6.423   0.740
 6270SOL    HW119709   1.258   6.416   0.839
 6270SOL    HW219710   1.197   6.501   0.714
 6271SOL     OW19711   6.798   3.140   5.412
 6271SOL    HW119712   6.713   3.119   5.459
 6271SOL    HW219713   6.780   3.206   5.339
 6272SOL     OW19714   0.703   1.167   0.292
 6272SOL    HW119715   0.799   1.144   0.277
 6272SOL    HW219716   0.695   1.262   0.322
 6273SOL     OW19717   0.403   6.338   3.345
 6273SOL    HW119718   0.395   6.306   3.250
 6273SOL    HW219719   0.490   6.386   3.357
 6274SOL     OW19720   2.875   6.407   4.159
 6274SOL    HW119721   2.950   6.455   4.203
 6274SOL    HW219722   2.815   6.472   4.113
 6275SOL     OW19723   2.627   5.990   0.497
 6275SOL    HW119724   2.541   6.020   0.537
 6275SOL    HW219725   2.609   5.952   0.406
 6276SOL     OW19726   1.958   5.254   2.823
 6276SOL    HW119727   2.001   5.232   2.911
 6276SOL    HW219728   1.930   5.350   2.823
 6277SOL     OW19729   5.105   2.586   1.042
 6277SOL    HW119730   5.180   2.532   1.080
 6277SOL    HW219731   5.045   2.618   1.115
 6278SOL     OW19732   3.598   2.674   0.340
 6278SOL    HW119733   3.693   2.705   0.338
 6278SOL    HW219734   3.582   2.612   0.263
 6279SOL     OW19735   1.940   6.452   2.205
 6279SOL    HW119736   1.858   6.407   2.169
 6279SOL    HW219737   1.914   6.515   2.279
 6280SOL     OW19738   5.018   1.109   6.699
 6280SOL    HW119739   4.947   1.164   6.742
 6280SOL    HW219740   5.017   1.124   6.600
 6281SOL     OW19741   4.994   4.232   6.157
 6281SOL    HW119742   4.995   4.270   6.064
 6281SOL    HW219743   4.904   4.192   6.175
 6282SOL     OW19744   0.798   3.566   5.821
 6282SOL    HW119745   0.710   3.607   5.845
 6282SOL    HW219746   0.820   3.492   5.885
 6283SOL     OW19747   2.626   0.715   4.545
 6283SOL    HW119748   2.628   0.635   4.605
 6283SOL    HW219749   2.535   0.756   4.548
 6284SOL     OW19750   1.901   3.314   6.093
 6284SOL    HW119751   1.844   3.316   6.175
 6284SOL    HW219752   1.983   3.369   6.107
 6285SOL     OW19753   0.915   3.959   2.942
 6285SOL    HW119754   0.980   3.949   3.017
 6285SOL    HW219755   0.946   3.906   2.863
 6286SOL     OW19756   1.069   2.386   6.576
 6286SOL    HW119757   1.012   2.314   6.615
 6286SOL    HW219758   1.086   2.367   6.479
 6287SOL     OW19759   4.507   4.852   4.463
 6287SOL    HW119760   4.507   4.754   4.483
 6287SOL    HW219761   4.438   4.897   4.519
 6288SOL     OW19762   3.165   3.630   5.997
 6288SOL    HW119763   3.071   3.627   5.962
 6288SOL    HW219764   3.226   3.664   5.926
 6289SOL     OW19765   2.591   4.676   4.879
 6289SOL    HW119766   2.690   4.689   4.889
 6289SOL    HW219767   2.555   4.631   4.961
 6290SOL     OW19768   6.738   6.760   3.494
 6290SOL    HW119769   6.742   6.683   3.429
 6290SOL    HW219770   6.646   6.768   3.530
 6291SOL     OW19771   3.272   3.725   2.068
 6291SOL    HW119772   3.183   3.743   2.110
 6291SOL    HW219773   3.328   3.671   2.131
 6292SOL     OW19774   1.579   4.325   4.503
 6292SOL    HW119775   1.495   4.322   4.449
 6292SOL    HW219776   1.643   4.390   4.461
 6293SOL     OW19777   3.053   1.078   6.707
 6293SOL    HW119778   3.057   1.009   6.780
 6293SOL    HW219779   3.117   1.054   6.635
 6294SOL     OW19780   1.865   1.239   2.277
 6294SOL    HW119781   1.866   1.195   2.187
 6294SOL    HW219782   1.771   1.259   2.304
 6295SOL     OW19783   4.559   3.303   6.158
 6295SOL    HW119784   4.519   3.388   6.123
 6295SOL    HW219785   4.510   3.275   6.241
 6296SOL     OW19786   0.224   2.832   0.123
 6296SOL    HW119787   0.197   2.789   0.210
 6296SOL    HW219788   0.143   2.844   0.066
 6297SOL     OW19789   6.517   0.859   4.332
 6297SOL    HW119790   6.495   0.861   4.430
 6297SOL    HW219791   6.610   0.825   4.319
 6298SOL     OW19792   7.015   6.768   6.733
 6298SOL    HW119793   0.031   6.765   6.825
 6298SOL    HW219794   7.004   6.675   6.698
 6299SOL     OW19795   3.499   1.886   4.038
 6299SOL    HW119796   3.483   1.866   3.942
 6299SOL    HW219797   3.523   1.982   4.049
 6300SOL     OW19798   2.598   1.906   1.338
 6300SOL    HW119799   2.605   2.006   1.339
 6300SOL    HW219800   2.516   1.878   1.388
 6301SOL     OW19801   3.925   6.572   0.439
 6301SOL    HW119802   3.996   6.522   0.487
 6301SOL    HW219803   3.878   6.511   0.374
 6302SOL     OW19804   1.687   3.511   0.182
 6302SOL    HW119805   1.631   3.448   0.237
 6302SOL    HW219806   1.637   3.595   0.166
 6303SOL     OW19807   6.700   5.013   4.401
 6303SOL    HW119808   6.631   5.079   4.429
 6303SOL    HW219809   6.683   4.925   4.445
 6304SOL     OW19810   2.259   1.598   3.745
 6304SOL    HW119811   2.268   1.505   3.782
 6304SOL    HW219812   2.348   1.631   3.716
 6305SOL     OW19813   0.668   5.416   5.607
 6305SOL    HW119814   0.649   5.422   5.510
 6305SOL    HW219815   0.591   5.453   5.659
 6306SOL     OW19816   0.886   4.353   4.285
 6306SOL    HW119817   0.850   4.400   4.204
 6306SOL    HW219818   0.975   4.393   4.310
 6307SOL     OW19819   3.124   3.058   3.078
 6307SOL    HW119820   3.155   2.973   3.034
 6307SOL    HW219821   3.201   3.120   3.090
 6308SOL     OW19822   1.309   1.802   0.765
 6308SOL    HW119823   1.239   1.740   0.729
 6308SOL    HW219824   1.274   1.896   0.766
 6309SOL     OW19825   2.306   5.556   4.983
 6309SOL    HW119826   2.214   5.518   4.997
 6309SOL    HW219827   2.374   5.483   4.991
 6310SOL     OW19828   0.256   6.979   3.356
 6310SOL    HW119829   0.161   7.000   3.379
 6310SOL    HW219830   0.281   6.890   3.396
 6311SOL     OW19831   6.471   1.269   6.720
 6311SOL    HW119832   6.439   1.351   6.674
 6311SOL    HW219833   6.531   1.295   6.796
 6312SOL     OW19834   3.522   5.406   1.247
 6312SOL    HW119835   3.471   5.329   1.287
 6312SOL    HW219836   3.503   5.411   1.149
 6313SOL     OW19837   5.732   4.813   3.737
 6313SOL    HW119838   5.648   4.830   3.788
 6313SOL    HW219839   5.718   4.736   3.674
 6314SOL     OW19840   2.118   6.890   3.489
 6314SOL    HW119841   2.036   6.929   3.531
 6314SOL    HW219842   2.197   6.907   3.548
 6315SOL     OW19843   2.843   2.085   3.232
 6315SOL    HW119844   2.747   2.079   3.204
 6315SOL    HW219845   2.849   2.119   3.326
 6316SOL     OW19846   4.372   0.523   5.090
 6316SOL    HW119847   4.445   0.502   5.154
 6316SOL    HW219848   4.306   0.584   5.133
 6317SOL     OW19849   4.401   4.623   2.851
 6317SOL    HW119850   4.444   4.713   2.843
 6317SOL    HW219851   4.389   4.600   2.948
 6318SOL     OW19852   6.304   6.793   6.872
 6318SOL    HW119853   6.327   6.812   6.968
 6318SOL    HW219854   6.227   6.729   6.868
 6319SOL     OW19855   4.875   2.196   4.514
 6319SOL    HW119856   4.862   2.292   4.490
 6319SOL    HW219857   4.813   2.139   4.459
 6320SOL     OW19858   6.335   1.284   6.160
 6320SOL    HW119859   6.414   1.263   6.102
 6320SOL    HW219860   6.344   1.377   6.196
 6321SOL     OW19861   0.322   3.665   0.520
 6321SOL    HW119862   0.243   3.629   0.469
 6321SOL    HW219863   0.357   3.746   0.473
 6322SOL     OW19864   1.571   1.802   2.848
 6322SOL    HW119865   1.489   1.771   2.895
 6322SOL    HW219866   1.652   1.775   2.900
 6323SOL     OW19867   2.282   5.886   1.313
 6323SOL    HW119868   2.223   5.918   1.388
 6323SOL    HW219869   2.371   5.860   1.350
 6324SOL     OW19870   4.999   3.086   0.823
 6324SOL    HW119871   5.001   3.186   0.822
 6324SOL    HW219872   4.956   3.053   0.907
 6325SOL     OW19873   1.361   3.824   3.803
 6325SOL    HW119874   1.432   3.891   3.828
 6325SOL    HW219875   1.392   3.773   3.723
 6326SOL     OW19876   4.788   5.345   5.109
 6326SOL    HW119877   4.765   5.249   5.128
 6326SOL    HW219878   4.704   5.398   5.101
 6327SOL     OW19879   0.643   0.841   2.666
 6327SOL    HW119880   0.659   0.939   2.660
 6327SOL    HW219881   0.544   0.823   2.666
 6328SOL     OW19882   3.870   3.493   5.542
 6328SOL    HW119883   3.819   3.551   5.605
 6328SOL    HW219884   3.878   3.537   5.453
 6329SOL     OW19885   0.561   2.704   5.018
 6329SOL    HW119886   0.613   2.687   4.934
 6329SOL    HW219887   0.464   2.708   4.997
 6330SOL     OW19888   4.136   1.922   3.562
 6330SOL    HW119889   4.177   2.005   3.599
 6330SOL    HW219890   4.189   1.891   3.483
 6331SOL     OW19891   1.866   3.830   3.782
 6331SOL    HW119892   1.929   3.842   3.859
 6331SOL    HW219893   1.919   3.812   3.699
 6332SOL     OW19894   4.225   1.652   0.061
 6332SOL    HW119895   4.322   1.675   0.052
 6332SOL    HW219896   4.205   1.568   0.010
 6333SOL     OW19897   5.860   0.661   0.391
 6333SOL    HW119898   5.912   0.685   0.473
 6333SOL    HW219899   5.904   0.584   0.345
 6334SOL     OW19900   2.501   1.227   1.916
 6334SOL    HW119901   2.542   1.232   1.825
 6334SOL    HW219902   2.406   1.196   1.908
 6335SOL     OW19903   6.822   3.508   5.589
 6335SOL    HW119904   6.732   3.507   5.632
 6335SOL    HW219905   6.818   3.561   5.504
 6336SOL     OW19906   1.258   4.309   5.240
 6336SOL    HW119907   1.177   4.361   5.268
 6336SOL    HW219908   1.281   4.243   5.312
 6337SOL     OW19909   6.102   6.804   5.008
 6337SOL    HW119910   6.080   6.901   5.007
 6337SOL    HW219911   6.081   6.764   4.919
 6338SOL     OW19912   0.758   0.552   2.678
 6338SOL    HW119913   0.667   0.574   2.644
 6338SOL    HW219914   0.821   0.626   2.658
 6339SOL     OW19915   0.433   3.900   3.534
 6339SOL    HW119916   0.338   3.877   3.513
 6339SOL    HW219917   0.481   3.818   3.564
 6340SOL     OW19918   2.801   5.208   6.342
 6340SOL    HW119919   2.790   5.109   6.353
 6340SOL    HW219920   2.750   5.238   6.261
 6341SOL     OW19921   0.251   4.820   3.046
 6341SOL    HW119922   0.285   4.730   3.075
 6341SOL    HW219923   0.162   4.809   3.001
 6342SOL     OW19924   2.203   0.736   1.694
 6342SOL    HW119925   2.281   0.705   1.748
 6342SOL    HW219926   2.178   0.665   1.627
 6343SOL     OW19927   1.511   5.141   6.793
 6343SOL    HW119928   1.527   5.173   6.700
 6343SOL    HW219929   1.430   5.186   6.831
 6344SOL     OW19930   1.392   1.837   4.565
 6344SOL    HW119931   1.352   1.908   4.507
 6344SOL    HW219932   1.443   1.773   4.508
 6345SOL     OW19933   6.865   3.142   3.314
 6345SOL    HW119934   6.854   3.114   3.218
 6345SOL    HW219935   6.883   3.061   3.370
 6346SOL     OW19936   0.547   4.727   4.398
 6346SOL    HW119937   0.515   4.819   4.376
 6346SOL    HW219938   0.504   4.661   4.337
 6347SOL     OW19939   2.139   2.632   3.373
 6347SOL    HW119940   2.072   2.703   3.394
 6347SOL    HW219941   2.120   2.551   3.429
 6348SOL     OW19942   0.798   2.738   6.461
 6348SOL    HW119943   0.809   2.832   6.492
 6348SOL    HW219944   0.708   2.727   6.419
 6349SOL     OW19945   6.024   1.009   0.514
 6349SOL    HW119946   6.120   1.031   0.496
 6349SOL    HW219947   5.997   1.048   0.602
 6350SOL     OW19948   0.677   5.835   1.427
 6350SOL    HW119949   0.712   5.791   1.344
 6350SOL    HW219950   0.592   5.883   1.407
 6351SOL     OW19951   5.941   2.657   1.936
 6351SOL    HW119952   5.914   2.739   1.886
 6351SOL    HW219953   6.040   2.659   1.953
 6352SOL     OW19954   4.554   0.674   4.387
 6352SOL    HW119955   4.574   0.685   4.484
 6352SOL    HW219956   4.511   0.584   4.372
 6353SOL     OW19957   3.525   6.563   6.021
 6353SOL    HW119958   3.512   6.595   6.116
 6353SOL    HW219959   3.593   6.621   5.976
 6354SOL     OW19960   5.266   4.896   2.611
 6354SOL    HW119961   5.257   4.897   2.711
 6354SOL    HW219962   5.227   4.980   2.574
 6355SOL     OW19963   4.752   5.837   0.240
 6355SOL    HW119964   4.803   5.874   0.318
 6355SOL    HW219965   4.755   5.737   0.243
 6356SOL     OW19966   0.026   6.787   6.131
 6356SOL    HW119967   0.078   6.702   6.119
 6356SOL    HW219968   6.974   6.772   6.194
 6357SOL     OW19969   4.898   2.093   3.110
 6357SOL    HW119970   4.928   2.072   3.017
 6357SOL    HW219971   4.812   2.044   3.129
 6358SOL     OW19972   1.153   1.864   4.364
 6358SOL    HW119973   1.082   1.810   4.409
 6358SOL    HW219974   1.156   1.840   4.267
 6359SOL     OW19975   5.981   4.979   1.108
 6359SOL    HW119976   5.888   4.944   1.092
 6359SOL    HW219977   5.988   5.009   1.203
 6360SOL     OW19978   2.047   3.237   1.247
 6360SOL    HW119979   2.118   3.299   1.282
 6360SOL    HW219980   1.979   3.289   1.195
 6361SOL     OW19981   0.202   1.789   2.485
 6361SOL    HW119982   0.170   1.727   2.414
 6361SOL    HW219983   0.281   1.749   2.531
 6362SOL     OW19984   1.526   5.031   0.327
 6362SOL    HW119985   1.531   5.007   0.423
 6362SOL    HW219986   1.603   5.090   0.303
 6363SOL     OW19987   1.057   2.279   1.792
 6363SOL    HW119988   1.124   2.267   1.866
 6363SOL    HW219989   1.099   2.253   1.705
 6364SOL     OW19990   2.861   1.134   3.887
 6364SOL    HW119991   2.761   1.129   3.880
 6364SOL    HW219992   2.898   1.178   3.806
 6365SOL     OW19993   6.586   6.952   2.757
 6365SOL    HW119994   6.610   6.891   2.681
 6365SOL    HW219995   6.624   6.917   2.842
 6366SOL     OW19996   5.828   1.530   5.291
 6366SOL    HW119997   5.872   1.619   5.302
 6366SOL    HW219998   5.830   1.481   5.379
 6367SOL     OW19999   1.084   2.317   4.575
 6367SOL    HW120000   1.040   2.354   4.657
 6367SOL    HW220001   1.049   2.225   4.557
 6368SOL     OW20002   5.021   3.446   4.999
 6368SOL    HW120003   4.937   3.500   4.988
 6368SOL    HW220004   5.035   3.426   5.096
 6369SOL     OW20005   3.387   4.035   0.934
 6369SOL    HW120006   3.401   4.111   0.998
 6369SOL    HW220007   3.359   3.954   0.985
 6370SOL     OW20008   5.896   3.994   4.821
 6370SOL    HW120009   5.902   4.039   4.910
 6370SOL    HW220010   5.938   4.053   4.751
 6371SOL     OW20011   5.814   3.962   0.779
 6371SOL    HW120012   5.906   3.985   0.747
 6371SOL    HW220013   5.746   4.002   0.717
 6372SOL     OW20014   6.487   1.159   0.871
 6372SOL    HW120015   6.525   1.116   0.953
 6372SOL    HW220016   6.394   1.126   0.857
 6373SOL     OW20017   5.309   2.094   1.494
 6373SOL    HW120018   5.372   2.110   1.418
 6373SOL    HW220019   5.284   2.181   1.536
 6374SOL     OW20020   4.404   3.542   6.228
 6374SOL    HW120021   4.448   3.631   6.220
 6374SOL    HW220022   4.309   3.549   6.200
 6375SOL     OW20023   5.031   0.989   1.691
 6375SOL    HW120024   5.120   0.961   1.654
 6375SOL    HW220025   4.982   0.908   1.725
 6376SOL     OW20026   2.689   6.499   0.414
 6376SOL    HW120027   2.778   6.472   0.377
 6376SOL    HW220028   2.616   6.463   0.356
 6377SOL     OW20029   0.527   0.951   0.313
 6377SOL    HW120030   0.578   1.036   0.299
 6377SOL    HW220031   0.487   0.951   0.404
 6378SOL     OW20032   6.202   3.758   2.992
 6378SOL    HW120033   6.145   3.828   3.035
 6378SOL    HW220034   6.288   3.749   3.043
 6379SOL     OW20035   3.094   5.327   0.020
 6379SOL    HW120036   3.030   5.378   0.078
 6379SOL    HW220037   3.169   5.293   0.077
 6380SOL     OW20038   2.206   3.120   4.604
 6380SOL    HW120039   2.261   3.083   4.529
 6380SOL    HW220040   2.109   3.112   4.581
 6381SOL     OW20041   3.490   3.706   0.741
 6381SOL    HW120042   3.439   3.656   0.812
 6381SOL    HW220043   3.439   3.703   0.656
 6382SOL     OW20044   2.072   1.257   1.281
 6382SOL    HW120045   2.078   1.158   1.272
 6382SOL    HW220046   1.984   1.283   1.319
 6383SOL     OW20047   2.645   1.858   2.625
 6383SOL    HW120048   2.646   1.786   2.556
 6383SOL    HW220049   2.720   1.922   2.608
 6384SOL     OW20050   6.594   1.980   2.111
 6384SOL    HW120051   6.551   2.057   2.157
 6384SOL    HW220052   6.577   1.896   2.163
 6385SOL     OW20053   6.904   3.753   1.301
 6385SOL    HW120054   6.960   3.735   1.381
 6385SOL    HW220055   6.853   3.670   1.276
 6386SOL     OW20056   3.129   3.982   0.299
 6386SOL    HW120057   3.137   3.903   0.238
 6386SOL    HW220058   3.138   3.953   0.394
 6387SOL     OW20059   6.405   0.699   5.980
 6387SOL    HW120060   6.491   0.677   5.934
 6387SOL    HW220061   6.339   0.625   5.965
 6388SOL     OW20062   6.032   4.565   1.940
 6388SOL    HW120063   5.989   4.653   1.959
 6388SOL    HW220064   6.118   4.580   1.891
 6389SOL     OW20065   6.548   6.462   0.594
 6389SOL    HW120066   6.574   6.548   0.636
 6389SOL    HW220067   6.572   6.386   0.654
 6390SOL     OW20068   5.013   6.678   6.404
 6390SOL    HW120069   4.947   6.607   6.380
 6390SOL    HW220070   4.981   6.728   6.484
 6391SOL     OW20071   1.667   2.336   4.802
 6391SOL    HW120072   1.653   2.435   4.798
 6391SOL    HW220073   1.739   2.315   4.868
 6392SOL     OW20074   4.981   6.619   4.047
 6392SOL    HW120075   5.036   6.536   4.037
 6392SOL    HW220076   4.988   6.674   3.965
 6393SOL     OW20077   2.512   5.217   0.721
 6393SOL    HW120078   2.457   5.144   0.680
 6393SOL    HW220079   2.452   5.282   0.768
 6394SOL     OW20080   1.734   5.395   2.243
 6394SOL    HW120081   1.772   5.475   2.196
 6394SOL    HW220082   1.668   5.350   2.183
 6395SOL     OW20083   1.510   3.933   4.465
 6395SOL    HW120084   1.601   3.974   4.469
 6395SOL    HW220085   1.518   3.836   4.441
 6396SOL     OW20086   1.817   3.607   5.179
 6396SOL    HW120087   1.899   3.577   5.230
 6396SOL    HW220088   1.788   3.533   5.118
 6397SOL     OW20089   6.894   2.923   5.030
 6397SOL    HW120090   6.942   2.937   4.943
 6397SOL    HW220091   6.922   2.993   5.095
 6398SOL     OW20092   1.423   0.495   2.521
 6398SOL    HW120093   1.370   0.576   2.547
 6398SOL    HW220094   1.395   0.417   2.576
 6399SOL     OW20095   2.696   0.178   7.011
 6399SOL    HW120096   2.750   0.183   0.072
 6399SOL    HW220097   2.599   0.189   0.009
 6400SOL     OW20098   0.891   6.360   2.953
 6400SOL    HW120099   0.973   6.397   2.909
 6400SOL    HW220100   0.841   6.302   2.888
 6401SOL     OW20101   3.987   5.203   2.017
 6401SOL    HW120102   3.916   5.132   2.021
 6401SOL    HW220103   4.062   5.178   2.078
 6402SOL     OW20104   3.647   3.732   6.388
 6402SOL    HW120105   3.621   3.707   6.295
 6402SOL    HW220106   3.693   3.820   6.388
 6403SOL     OW20107   4.525   5.496   5.638
 6403SOL    HW120108   4.582   5.464   5.562
 6403SOL    HW220109   4.476   5.419   5.678
 6404SOL     OW20110   4.920   5.474   6.532
 6404SOL    HW120111   4.946   5.402   6.596
 6404SOL    HW220112   4.887   5.553   6.583
 6405SOL     OW20113   4.521   1.128   2.420
 6405SOL    HW120114   4.575   1.160   2.343
 6405SOL    HW220115   4.441   1.078   2.386
 6406SOL     OW20116   0.742   3.567   2.171
 6406SOL    HW120117   0.827   3.544   2.219
 6406SOL    HW220118   0.675   3.601   2.237
 6407SOL     OW20119   0.420   6.932   1.520
 6407SOL    HW120120   0.437   7.013   1.464
 6407SOL    HW220121   0.495   6.921   1.586
 6408SOL     OW20122   0.387   1.003   1.520
 6408SOL    HW120123   0.384   0.986   1.422
 6408SOL    HW220124   0.300   1.042   1.550
 6409SOL     OW20125   5.732   4.244   3.242
 6409SOL    HW120126   5.650   4.187   3.241
 6409SOL    HW220127   5.810   4.191   3.210
 6410SOL     OW20128   2.026   1.074   0.618
 6410SOL    HW120129   2.045   1.124   0.533
 6410SOL    HW220130   2.109   1.068   0.673
 6411SOL     OW20131   1.106   2.579   3.521
 6411SOL    HW120132   1.130   2.659   3.467
 6411SOL    HW220133   1.149   2.586   3.611
 6412SOL     OW20134   3.985   6.908   0.111
 6412SOL    HW120135   4.042   6.886   0.190
 6412SOL    HW220136   4.040   6.902   0.028
 6413SOL     OW20137   4.680   6.083   2.987
 6413SOL    HW120138   4.598   6.044   3.028
 6413SOL    HW220139   4.761   6.046   3.031
 6414SOL     OW20140   3.244   0.144   0.254
 6414SOL    HW120141   3.336   0.115   0.229
 6414SOL    HW220142   3.242   0.166   0.352
 6415SOL     OW20143   0.787   2.060   3.578
 6415SOL    HW120144   0.695   2.099   3.585
 6415SOL    HW220145   0.782   1.961   3.581
 6416SOL     OW20146   3.017   4.744   0.426
 6416SOL    HW120147   3.025   4.674   0.497
 6416SOL    HW220148   2.985   4.703   0.341
 6417SOL     OW20149   4.069   3.476   6.411
 6417SOL    HW120150   4.120   3.530   6.478
 6417SOL    HW220151   3.971   3.488   6.427
 6418SOL     OW20152   4.846   5.531   0.442
 6418SOL    HW120153   4.943   5.508   0.432
 6418SOL    HW220154   4.804   5.540   0.352
 6419SOL     OW20155   0.965   6.774   6.195
 6419SOL    HW120156   0.939   6.720   6.275
 6419SOL    HW220157   0.919   6.738   6.114
 6420SOL     OW20158   2.804   4.781   3.412
 6420SOL    HW120159   2.766   4.707   3.467
 6420SOL    HW220160   2.788   4.868   3.458
 6421SOL     OW20161   5.637   6.927   1.623
 6421SOL    HW120162   5.667   6.887   1.536
 6421SOL    HW220163   5.661   6.865   1.698
 6422SOL     OW20164   0.681   2.127   4.208
 6422SOL    HW120165   0.738   2.205   4.181
 6422SOL    HW220166   0.740   2.048   4.228
 6423SOL     OW20167   1.215   4.291   4.381
 6423SOL    HW120168   1.253   4.200   4.396
 6423SOL    HW220169   1.172   4.323   4.465
 6424SOL     OW20170   6.890   3.875   5.488
 6424SOL    HW120171   6.803   3.921   5.472
 6424SOL    HW220172   6.885   3.782   5.452
 6425SOL     OW20173   0.517   6.742   4.967
 6425SOL    HW120174   0.550   6.673   4.902
 6425SOL    HW220175   0.564   6.731   5.055
 6426SOL     OW20176   3.867   5.714   3.932
 6426SOL    HW120177   3.892   5.796   3.879
 6426SOL    HW220178   3.849   5.638   3.870
 6427SOL     OW20179   4.003   3.254   3.533
 6427SOL    HW120180   4.052   3.199   3.600
 6427SOL    HW220181   3.966   3.194   3.462
 6428SOL     OW20182   6.078   2.388   0.460
 6428SOL    HW120183   5.985   2.396   0.425
 6428SOL    HW220184   6.130   2.470   0.437
 6429SOL     OW20185   2.246   1.449   4.994
 6429SOL    HW120186   2.304   1.423   4.916
 6429SOL    HW220187   2.299   1.444   5.078
 6430SOL     OW20188   5.525   1.435   4.657
 6430SOL    HW120189   5.612   1.456   4.612
 6430SOL    HW220190   5.535   1.453   4.755
 6431SOL     OW20191   3.157   5.209   2.827
 6431SOL    HW120192   3.154   5.278   2.899
 6431SOL    HW220193   3.239   5.153   2.839
 6432SOL     OW20194   4.231   3.230   6.389
 6432SOL    HW120195   4.325   3.260   6.405
 6432SOL    HW220196   4.168   3.305   6.408
 6433SOL     OW20197   3.429   5.112   6.400
 6433SOL    HW120198   3.482   5.153   6.475
 6433SOL    HW220199   3.349   5.169   6.381
 6434SOL     OW20200   6.610   5.086   6.160
 6434SOL    HW120201   6.708   5.071   6.147
 6434SOL    HW220202   6.560   5.002   6.141
 6435SOL     OW20203   4.521   1.435   1.202
 6435SOL    HW120204   4.529   1.350   1.151
 6435SOL    HW220205   4.429   1.473   1.188
 6436SOL     OW20206   0.422   3.075   3.478
 6436SOL    HW120207   0.404   2.993   3.423
 6436SOL    HW220208   0.497   3.056   3.542
 6437SOL     OW20209   1.688   2.942   5.445
 6437SOL    HW120210   1.700   2.928   5.544
 6437SOL    HW220211   1.739   2.873   5.395
 6438SOL     OW20212   0.452   5.081   1.048
 6438SOL    HW120213   0.454   5.123   0.957
 6438SOL    HW220214   0.358   5.062   1.074
 6439SOL     OW20215   5.368   6.610   3.242
 6439SOL    HW120216   5.427   6.689   3.224
 6439SOL    HW220217   5.340   6.569   3.156
 6440SOL     OW20218   2.384   1.811   5.531
 6440SOL    HW120219   2.378   1.747   5.455
 6440SOL    HW220220   2.467   1.793   5.584
 6441SOL     OW20221   1.214   2.217   2.010
 6441SOL    HW120222   1.165   2.240   2.094
 6441SOL    HW220223   1.221   2.118   2.002
 6442SOL     OW20224   2.498   1.762   4.370
 6442SOL    HW120225   2.571   1.713   4.323
 6442SOL    HW220226   2.484   1.723   4.461
 6443SOL     OW20227   2.492   2.663   6.289
 6443SOL    HW120228   2.589   2.683   6.273
 6443SOL    HW220229   2.461   2.594   6.223
 6444SOL     OW20230   0.134   3.670   4.908
 6444SOL    HW120231   0.230   3.669   4.880
 6444SOL    HW220232   0.109   3.579   4.941
 6445SOL     OW20233   3.721   2.946   3.559
 6445SOL    HW120234   3.637   2.988   3.522
 6445SOL    HW220235   3.715   2.943   3.658
 6446SOL     OW20236   1.823   1.240   1.644
 6446SOL    HW120237   1.889   1.229   1.718
 6446SOL    HW220238   1.845   1.323   1.593
 6447SOL     OW20239   5.852   3.649   1.133
 6447SOL    HW120240   5.793   3.675   1.209
 6447SOL    HW220241   5.916   3.724   1.113
 6448SOL     OW20242   4.057   4.191   1.454
 6448SOL    HW120243   3.967   4.159   1.483
 6448SOL    HW220244   4.103   4.234   1.532
 6449SOL     OW20245   4.335   5.129   0.589
 6449SOL    HW120246   4.323   5.187   0.508
 6449SOL    HW220247   4.246   5.116   0.634
 6450SOL     OW20248   4.978   3.630   7.017
 6450SOL    HW120249   4.943   3.719   0.024
 6450SOL    HW220250   4.953   3.616   6.921
 6451SOL     OW20251   4.224   2.842   1.459
 6451SOL    HW120252   4.173   2.824   1.375
 6451SOL    HW220253   4.165   2.890   1.524
 6452SOL     OW20254   4.292   1.810   4.472
 6452SOL    HW120255   4.356   1.807   4.549
 6452SOL    HW220256   4.267   1.905   4.453
 6453SOL     OW20257   2.529   0.459   2.989
 6453SOL    HW120258   2.607   0.409   3.027
 6453SOL    HW220259   2.540   0.467   2.890
 6454SOL     OW20260   5.165   3.671   4.766
 6454SOL    HW120261   5.101   3.598   4.741
 6454SOL    HW220262   5.240   3.632   4.821
 6455SOL     OW20263   0.269   2.824   4.215
 6455SOL    HW120264   0.354   2.874   4.231
 6455SOL    HW220265   0.231   2.795   4.303
 6456SOL     OW20266   6.246   1.988   3.242
 6456SOL    HW120267   6.265   2.045   3.162
 6456SOL    HW220268   6.202   1.904   3.213
 6457SOL     OW20269   2.079   6.057   2.841
 6457SOL    HW120270   2.139   6.086   2.766
 6457SOL    HW220271   2.115   6.092   2.928
 6458SOL     OW20272   1.183   0.293   4.628
 6458SOL    HW120273   1.122   0.262   4.555
 6458SOL    HW220274   1.275   0.257   4.612
 6459SOL     OW20275   0.624   3.242   3.005
 6459SOL    HW120276   0.602   3.319   3.065
 6459SOL    HW220277   0.719   3.213   3.022
 6460SOL     OW20278   1.956   5.140   6.123
 6460SOL    HW120279   1.952   5.148   6.223
 6460SOL    HW220280   2.011   5.060   6.098
 6461SOL     OW20281   0.560   6.586   1.393
 6461SOL    HW120282   0.524   6.679   1.390
 6461SOL    HW220283   0.624   6.571   1.317
 6462SOL     OW20284   2.394   4.387   5.501
 6462SOL    HW120285   2.313   4.335   5.474
 6462SOL    HW220286   2.375   4.484   5.494
 6463SOL     OW20287   4.798   3.027   1.105
 6463SOL    HW120288   4.746   2.946   1.133
 6463SOL    HW220289   4.747   3.078   1.037
 6464SOL     OW20290   1.143   3.718   3.410
 6464SOL    HW120291   1.144   3.663   3.326
 6464SOL    HW220292   1.078   3.793   3.399
 6465SOL     OW20293   2.381   1.530   3.385
 6465SOL    HW120294   2.447   1.550   3.457
 6465SOL    HW220295   2.290   1.521   3.425
 6466SOL     OW20296   6.792   4.735   6.245
 6466SOL    HW120297   6.888   4.733   6.273
 6466SOL    HW220298   6.736   4.772   6.319
 6467SOL     OW20299   2.695   3.172   5.910
 6467SOL    HW120300   2.737   3.104   5.849
 6467SOL    HW220301   2.767   3.229   5.950
 6468SOL     OW20302   0.931   0.649   1.264
 6468SOL    HW120303   1.005   0.656   1.197
 6468SOL    HW220304   0.953   0.703   1.345
 6469SOL     OW20305   2.246   0.884   1.197
 6469SOL    HW120306   2.164   0.926   1.236
 6469SOL    HW220307   2.263   0.920   1.106
 6470SOL     OW20308   6.084   1.818   6.447
 6470SOL    HW120309   6.010   1.763   6.408
 6470SOL    HW220310   6.047   1.902   6.485
 6471SOL     OW20311   0.732   6.097   5.960
 6471SOL    HW120312   0.688   6.017   5.921
 6471SOL    HW220313   0.721   6.175   5.898
 6472SOL     OW20314   0.595   6.532   1.700
 6472SOL    HW120315   0.512   6.518   1.647
 6472SOL    HW220316   0.673   6.494   1.651
 6473SOL     OW20317   2.656   1.645   3.478
 6473SOL    HW120318   2.586   1.712   3.452
 6473SOL    HW220319   2.745   1.690   3.481
 6474SOL     OW20320   3.854   6.724   4.328
 6474SOL    HW120321   3.802   6.809   4.322
 6474SOL    HW220322   3.889   6.712   4.421
 6475SOL     OW20323   5.032   5.863   3.372
 6475SOL    HW120324   5.010   5.957   3.345
 6475SOL    HW220325   5.117   5.835   3.326
 6476SOL     OW20326   4.627   3.955   6.010
 6476SOL    HW120327   4.587   3.864   6.003
 6476SOL    HW220328   4.697   3.966   5.939
 6477SOL     OW20329   0.450   6.010   0.999
 6477SOL    HW120330   0.378   5.948   1.029
 6477SOL    HW220331   0.410   6.086   0.947
 6478SOL     OW20332   1.714   6.338   1.017
 6478SOL    HW120333   1.642   6.393   0.975
 6478SOL    HW220334   1.754   6.277   0.949
 6479SOL     OW20335   4.541   6.053   3.608
 6479SOL    HW120336   4.511   5.987   3.677
 6479SOL    HW220337   4.510   6.023   3.517
 6480SOL     OW20338   3.373   1.409   5.360
 6480SOL    HW120339   3.291   1.459   5.334
 6480SOL    HW220340   3.353   1.311   5.362
 6481SOL     OW20341   4.287   3.101   1.791
 6481SOL    HW120342   4.379   3.063   1.795
 6481SOL    HW220343   4.229   3.042   1.735
 6482SOL     OW20344   5.027   3.151   5.273
 6482SOL    HW120345   5.086   3.180   5.197
 6482SOL    HW220346   4.932   3.146   5.242
 6483SOL     OW20347   1.815   5.753   5.959
 6483SOL    HW120348   1.720   5.776   5.937
 6483SOL    HW220349   1.872   5.835   5.953
 6484SOL     OW20350   3.923   1.659   3.051
 6484SOL    HW120351   3.861   1.713   2.993
 6484SOL    HW220352   3.898   1.563   3.046
 6485SOL     OW20353   2.578   5.010   4.616
 6485SOL    HW120354   2.627   5.034   4.700
 6485SOL    HW220355   2.527   5.090   4.584
 6486SOL     OW20356   6.999   3.855   2.224
 6486SOL    HW120357   6.977   3.880   2.130
 6486SOL    HW220358   0.044   3.783   2.225
 6487SOL     OW20359   5.997   5.267   4.071
 6487SOL    HW120360   6.021   5.194   4.136
 6487SOL    HW220361   6.019   5.237   3.978
 6488SOL     OW20362   3.905   5.134   3.894
 6488SOL    HW120363   3.924   5.160   3.988
 6488SOL    HW220364   3.927   5.210   3.833
 6489SOL     OW20365   6.482   2.937   4.791
 6489SOL    HW120366   6.495   3.036   4.798
 6489SOL    HW220367   6.542   2.891   4.856
 6490SOL     OW20368   1.766   3.034   0.613
 6490SOL    HW120369   1.786   3.131   0.605
 6490SOL    HW220370   1.670   3.018   0.587
 6491SOL     OW20371   1.897   0.628   1.780
 6491SOL    HW120372   1.905   0.529   1.793
 6491SOL    HW220373   1.837   0.647   1.702
 6492SOL     OW20374   4.139   3.374   4.093
 6492SOL    HW120375   4.171   3.374   4.188
 6492SOL    HW220376   4.088   3.459   4.075
 6493SOL     OW20377   1.350   4.836   4.192
 6493SOL    HW120378   1.313   4.919   4.151
 6493SOL    HW220379   1.308   4.821   4.281
 6494SOL     OW20380   6.685   1.034   1.557
 6494SOL    HW120381   6.592   1.018   1.590
 6494SOL    HW220382   6.717   0.953   1.506
 6495SOL     OW20383   6.551   6.670   2.764
 6495SOL    HW120384   6.535   6.703   2.671
 6495SOL    HW220385   6.648   6.650   2.776
 6496SOL     OW20386   3.062   2.329   1.359
 6496SOL    HW120387   3.114   2.375   1.287
 6496SOL    HW220388   3.125   2.278   1.418
 6497SOL     OW20389   0.961   2.363   1.015
 6497SOL    HW120390   1.008   2.352   0.928
 6497SOL    HW220391   0.875   2.413   1.001
 6498SOL     OW20392   2.240   4.822   4.172
 6498SOL    HW120393   2.245   4.730   4.211
 6498SOL    HW220394   2.212   4.887   4.244
 6499SOL     OW20395   5.347   2.389   2.942
 6499SOL    HW120396   5.283   2.409   2.868
 6499SOL    HW220397   5.436   2.429   2.921
 6500SOL     OW20398   1.622   3.692   2.635
 6500SOL    HW120399   1.582   3.767   2.689
 6500SOL    HW220400   1.722   3.694   2.645
 6501SOL     OW20401   6.709   0.542   2.565
 6501SOL    HW120402   6.733   0.575   2.656
 6501SOL    HW220403   6.712   0.442   2.565
 6502SOL     OW20404   0.826   2.944   1.725
 6502SOL    HW120405   0.871   2.895   1.800
 6502SOL    HW220406   0.894   2.986   1.666
 6503SOL     OW20407   0.078   2.580   5.400
 6503SOL    HW120408   0.078   2.648   5.473
 6503SOL    HW220409   0.156   2.596   5.340
 6504SOL     OW20410   4.144   6.931   5.944
 6504SOL    HW120411   4.176   6.848   5.898
 6504SOL    HW220412   4.139   7.006   5.878
 6505SOL     OW20413   0.062   6.371   0.211
 6505SOL    HW120414   0.105   6.447   0.259
 6505SOL    HW220415   0.048   6.395   0.115
 6506SOL     OW20416   6.796   3.485   1.585
 6506SOL    HW120417   6.726   3.460   1.652
 6506SOL    HW220418   6.754   3.490   1.494
 6507SOL     OW20419   4.169   5.483   1.156
 6507SOL    HW120420   4.210   5.422   1.087
 6507SOL    HW220421   4.201   5.576   1.141
 6508SOL     OW20422   6.918   0.445   4.063
 6508SOL    HW120423   6.984   0.413   4.131
 6508SOL    HW220424   6.862   0.518   4.102
 6509SOL     OW20425   2.135   1.703   0.465
 6509SOL    HW120426   2.111   1.607   0.472
 6509SOL    HW220427   2.185   1.720   0.380
 6510SOL     OW20428   3.477   4.926   4.514
 6510SOL    HW120429   3.384   4.901   4.541
 6510SOL    HW220430   3.476   4.958   4.419
 6511SOL     OW20431   3.290   2.642   6.797
 6511SOL    HW120432   3.207   2.691   6.823
 6511SOL    HW220433   3.324   2.677   6.710
 6512SOL     OW20434   4.963   0.926   0.929
 6512SOL    HW120435   4.953   0.828   0.945
 6512SOL    HW220436   4.993   0.971   1.013
 6513SOL     OW20437   3.143   4.918   2.720
 6513SOL    HW120438   3.059   4.968   2.745
 6513SOL    HW220439   3.186   4.882   2.803
 6514SOL     OW20440   5.150   5.449   5.397
 6514SOL    HW120441   5.130   5.519   5.467
 6514SOL    HW220442   5.134   5.358   5.435
 6515SOL     OW20443   0.508   4.812   2.146
 6515SOL    HW120444   0.540   4.902   2.177
 6515SOL    HW220445   0.543   4.794   2.054
 6516SOL     OW20446   5.962   1.142   3.874
 6516SOL    HW120447   5.975   1.241   3.883
 6516SOL    HW220448   5.897   1.124   3.800
 6517SOL     OW20449   6.816   4.090   0.861
 6517SOL    HW120450   6.875   4.170   0.851
 6517SOL    HW220451   6.863   4.019   0.913
 6518SOL     OW20452   1.196   1.596   2.266
 6518SOL    HW120453   1.266   1.657   2.302
 6518SOL    HW220454   1.110   1.613   2.313
 6519SOL     OW20455   1.162   1.578   3.105
 6519SOL    HW120456   1.080   1.592   3.050
 6519SOL    HW220457   1.141   1.595   3.202
 6520SOL     OW20458   6.108   5.489   6.528
 6520SOL    HW120459   6.200   5.521   6.504
 6520SOL    HW220460   6.042   5.524   6.461
 6521SOL     OW20461   1.931   4.248   4.375
 6521SOL    HW120462   1.859   4.312   4.351
 6521SOL    HW220463   1.982   4.283   4.454
 6522SOL     OW20464   2.189   3.175   4.953
 6522SOL    HW120465   2.218   3.239   4.881
 6522SOL    HW220466   2.268   3.122   4.984
 6523SOL     OW20467   5.726   6.475   0.474
 6523SOL    HW120468   5.805   6.414   0.468
 6523SOL    HW220469   5.713   6.522   0.386
 6524SOL     OW20470   3.259   2.909   1.273
 6524SOL    HW120471   3.174   2.918   1.324
 6524SOL    HW220472   3.316   2.839   1.316
 6525SOL     OW20473   2.111   4.864   3.789
 6525SOL    HW120474   2.150   4.785   3.837
 6525SOL    HW220475   2.114   4.848   3.691
 6526SOL     OW20476   6.613   6.170   0.214
 6526SOL    HW120477   6.603   6.094   0.277
 6526SOL    HW220478   6.554   6.246   0.242
 6527SOL     OW20479   5.036   1.864   1.288
 6527SOL    HW120480   4.990   1.869   1.200
 6527SOL    HW220481   5.124   1.817   1.277
 6528SOL     OW20482   4.602   6.506   0.143
 6528SOL    HW120483   4.541   6.472   0.072
 6528SOL    HW220484   4.547   6.546   0.217
 6529SOL     OW20485   4.382   0.441   1.613
 6529SOL    HW120486   4.313   0.494   1.664
 6529SOL    HW220487   4.342   0.353   1.586
 6530SOL     OW20488   0.161   2.649   4.015
 6530SOL    HW120489   0.139   2.701   3.932
 6530SOL    HW220490   0.185   2.713   4.089
 6531SOL     OW20491   3.738   3.377   3.604
 6531SOL    HW120492   3.808   3.313   3.573
 6531SOL    HW220493   3.670   3.389   3.531
 6532SOL     OW20494   0.808   5.600   0.099
 6532SOL    HW120495   0.747   5.521   0.112
 6532SOL    HW220496   0.754   5.684   0.103
 6533SOL     OW20497   5.300   5.242   1.219
 6533SOL    HW120498   5.270   5.179   1.291
 6533SOL    HW220499   5.242   5.324   1.221
 6534SOL     OW20500   6.634   3.021   4.170
 6534SOL    HW120501   6.617   3.093   4.102
 6534SOL    HW220502   6.561   2.953   4.166
 6535SOL     OW20503   5.338   3.858   5.981
 6535SOL    HW120504   5.411   3.888   5.920
 6535SOL    HW220505   5.261   3.921   5.975
 6536SOL     OW20506   0.284   5.076   5.639
 6536SOL    HW120507   0.379   5.080   5.608
 6536SOL    HW220508   0.281   5.030   5.728
 6537SOL     OW20509   6.664   5.404   4.558
 6537SOL    HW120510   6.628   5.329   4.503
 6537SOL    HW220511   6.695   5.478   4.498
 6538SOL     OW20512   1.626   3.487   3.593
 6538SOL    HW120513   1.709   3.477   3.539
 6538SOL    HW220514   1.549   3.509   3.533
 6539SOL     OW20515   5.064   0.075   6.349
 6539SOL    HW120516   5.157   0.071   6.384
 6539SOL    HW220517   5.066   0.073   6.249
 6540SOL     OW20518   0.777   2.210   4.805
 6540SOL    HW120519   0.872   2.179   4.795
 6540SOL    HW220520   0.745   2.245   4.717
 6541SOL     OW20521   3.804   1.522   5.464
 6541SOL    HW120522   3.799   1.484   5.372
 6541SOL    HW220523   3.877   1.477   5.515
 6542SOL     OW20524   1.577   4.306   1.855
 6542SOL    HW120525   1.650   4.289   1.789
 6542SOL    HW220526   1.510   4.368   1.815
 6543SOL     OW20527   3.855   1.458   4.158
 6543SOL    HW120528   3.858   1.442   4.059
 6543SOL    HW220529   3.905   1.542   4.179
 6544SOL     OW20530   1.040   0.425   1.040
 6544SOL    HW120531   1.041   0.353   1.109
 6544SOL    HW220532   1.097   0.501   1.071
 6545SOL     OW20533   5.797   5.805   0.854
 6545SOL    HW120534   5.874   5.742   0.867
 6545SOL    HW220535   5.746   5.780   0.771
 6546SOL     OW20536   4.562   5.243   5.255
 6546SOL    HW120537   4.542   5.339   5.238
 6546SOL    HW220538   4.489   5.186   5.217
 6547SOL     OW20539   0.997   6.476   5.432
 6547SOL    HW120540   1.033   6.542   5.365
 6547SOL    HW220541   0.898   6.471   5.424
 6548SOL     OW20542   1.367   2.104   6.192
 6548SOL    HW120543   1.355   2.055   6.106
 6548SOL    HW220544   1.465   2.115   6.212
 6549SOL     OW20545   3.649   1.382   2.677
 6549SOL    HW120546   3.595   1.345   2.601
 6549SOL    HW220547   3.658   1.481   2.666
 6550SOL     OW20548   6.354   7.016   1.711
 6550SOL    HW120549   6.272   6.987   1.661
 6550SOL    HW220550   6.370   6.954   1.787
 6551SOL     OW20551   2.708   4.807   1.100
 6551SOL    HW120552   2.740   4.723   1.057
 6551SOL    HW220553   2.629   4.842   1.049
 6552SOL     OW20554   2.096   3.883   6.919
 6552SOL    HW120555   2.085   3.784   6.910
 6552SOL    HW220556   2.006   3.927   6.917
 6553SOL     OW20557   6.955   1.926   3.257
 6553SOL    HW120558   6.926   1.835   3.229
 6553SOL    HW220559   6.875   1.985   3.266
 6554SOL     OW20560   1.491   2.353   3.440
 6554SOL    HW120561   1.536   2.352   3.350
 6554SOL    HW220562   1.502   2.442   3.482
 6555SOL     OW20563   1.450   3.992   2.650
 6555SOL    HW120564   1.450   3.971   2.748
 6555SOL    HW220565   1.415   4.084   2.636
 6556SOL     OW20566   4.899   3.295   2.991
 6556SOL    HW120567   4.841   3.313   2.912
 6556SOL    HW220568   4.923   3.381   3.036
 6557SOL     OW20569   1.756   0.415   2.639
 6557SOL    HW120570   1.710   0.369   2.716
 6557SOL    HW220571   1.851   0.433   2.663
 6558SOL     OW20572   5.253   5.495   0.866
 6558SOL    HW120573   5.348   5.466   0.857
 6558SOL    HW220574   5.192   5.424   0.832
 6559SOL     OW20575   0.500   2.071   6.481
 6559SOL    HW120576   0.432   2.133   6.442
 6559SOL    HW220577   0.498   2.079   6.581
 6560SOL     OW20578   0.030   4.692   6.339
 6560SOL    HW120579   0.043   4.712   6.436
 6560SOL    HW220580   0.108   4.637   6.307
 6561SOL     OW20581   2.706   5.384   0.922
 6561SOL    HW120582   2.737   5.461   0.867
 6561SOL    HW220583   2.694   5.304   0.864
 6562SOL     OW20584   4.894   2.351   1.979
 6562SOL    HW120585   4.839   2.407   2.040
 6562SOL    HW220586   4.906   2.260   2.018
 6563SOL     OW20587   6.145   5.262   5.390
 6563SOL    HW120588   6.187   5.182   5.433
 6563SOL    HW220589   6.142   5.338   5.455
 6564SOL     OW20590   5.252   3.395   2.436
 6564SOL    HW120591   5.209   3.363   2.351
 6564SOL    HW220592   5.181   3.416   2.503
 6565SOL     OW20593   4.915   5.815   2.467
 6565SOL    HW120594   4.819   5.823   2.440
 6565SOL    HW220595   4.921   5.789   2.563
 6566SOL     OW20596   5.326   5.652   3.804
 6566SOL    HW120597   5.263   5.657   3.727
 6566SOL    HW220598   5.330   5.557   3.837
 6567SOL     OW20599   3.173   0.928   2.690
 6567SOL    HW120600   3.168   0.968   2.781
 6567SOL    HW220601   3.197   0.999   2.623
 6568SOL     OW20602   5.585   0.925   0.981
 6568SOL    HW120603   5.488   0.936   0.960
 6568SOL    HW220604   5.596   0.863   1.059
 6569SOL     OW20605   1.634   4.710   3.178
 6569SOL    HW120606   1.564   4.697   3.108
 6569SOL    HW220607   1.703   4.775   3.145
 6570SOL     OW20608   4.583   0.100   2.530
 6570SOL    HW120609   4.617   0.022   2.478
 6570SOL    HW220610   4.518   0.152   2.474
 6571SOL     OW20611   2.917   6.388   2.974
 6571SOL    HW120612   2.873   6.478   2.975
 6571SOL    HW220613   2.939   6.364   2.879
 6572SOL     OW20614   1.769   6.225   3.863
 6572SOL    HW120615   1.730   6.133   3.870
 6572SOL    HW220616   1.797   6.256   3.954
 6573SOL     OW20617   0.196   1.909   3.333
 6573SOL    HW120618   0.101   1.923   3.308
 6573SOL    HW220619   0.250   1.894   3.250
 6574SOL     OW20620   0.474   5.164   2.051
 6574SOL    HW120621   0.536   5.224   2.001
 6574SOL    HW220622   0.521   5.127   2.131
 6575SOL     OW20623   0.138   1.387   3.425
 6575SOL    HW120624   0.137   1.410   3.522
 6575SOL    HW220625   0.056   1.425   3.381
 6576SOL     OW20626   3.766   0.085   1.726
 6576SOL    HW120627   3.806   0.077   1.634
 6576SOL    HW220628   3.835   0.120   1.789
 6577SOL     OW20629   3.487   1.035   5.099
 6577SOL    HW120630   3.461   1.076   5.186
 6577SOL    HW220631   3.448   0.944   5.092
 6578SOL     OW20632   1.072   5.468   6.647
 6578SOL    HW120633   1.001   5.453   6.577
 6578SOL    HW220634   1.029   5.496   6.733
 6579SOL     OW20635   1.480   1.813   3.790
 6579SOL    HW120636   1.493   1.811   3.691
 6579SOL    HW220637   1.426   1.894   3.815
 6580SOL     OW20638   3.213   2.717   0.171
 6580SOL    HW120639   3.225   2.806   0.125
 6580SOL    HW220640   3.116   2.697   0.179
 6581SOL     OW20641   0.611   2.549   2.232
 6581SOL    HW120642   0.573   2.642   2.229
 6581SOL    HW220643   0.660   2.531   2.146
 6582SOL     OW20644   4.513   0.579   3.137
 6582SOL    HW120645   4.416   0.596   3.121
 6582SOL    HW220646   4.553   0.657   3.186
 6583SOL     OW20647   2.747   4.555   0.931
 6583SOL    HW120648   2.801   4.602   0.860
 6583SOL    HW220649   2.804   4.486   0.976
 6584SOL     OW20650   3.667   2.942   6.459
 6584SOL    HW120651   3.710   2.946   6.369
 6584SOL    HW220652   3.729   2.897   6.523
 6585SOL     OW20653   5.679   0.227   1.633
 6585SOL    HW120654   5.673   0.221   1.733
 6585SOL    HW220655   5.641   0.145   1.592
 6586SOL     OW20656   6.460   1.619   0.061
 6586SOL    HW120657   6.367   1.583   0.057
 6586SOL    HW220658   6.475   1.662   0.150
 6587SOL     OW20659   3.369   5.223   5.040
 6587SOL    HW120660   3.294   5.259   5.096
 6587SOL    HW220661   3.349   5.129   5.014
 6588SOL     OW20662   0.992   1.177   0.381
 6588SOL    HW120663   1.015   1.274   0.382
 6588SOL    HW220664   0.934   1.155   0.459
 6589SOL     OW20665   6.230   6.819   1.190
 6589SOL    HW120666   6.168   6.895   1.206
 6589SOL    HW220667   6.291   6.809   1.268
 6590SOL     OW20668   1.380   6.378   4.746
 6590SOL    HW120669   1.331   6.348   4.664
 6590SOL    HW220670   1.360   6.315   4.821
 6591SOL     OW20671   6.463   3.347   3.615
 6591SOL    HW120672   6.543   3.369   3.670
 6591SOL    HW220673   6.486   3.275   3.550
 6592SOL     OW20674   0.254   0.670   3.943
 6592SOL    HW120675   0.339   0.716   3.969
 6592SOL    HW220676   0.198   0.733   3.889
 6593SOL     OW20677   1.671   0.772   2.779
 6593SOL    HW120678   1.592   0.830   2.757
 6593SOL    HW220679   1.659   0.682   2.738
 6594SOL     OW20680   5.844   0.405   6.666
 6594SOL    HW120681   5.862   0.502   6.650
 6594SOL    HW220682   5.746   0.388   6.663
 6595SOL     OW20683   1.344   1.605   5.028
 6595SOL    HW120684   1.296   1.669   5.089
 6595SOL    HW220685   1.291   1.520   5.022
 6596SOL     OW20686   5.275   0.860   3.016
 6596SOL    HW120687   5.364   0.831   2.980
 6596SOL    HW220688   5.239   0.933   2.958
 6597SOL     OW20689   1.009   5.151   1.372
 6597SOL    HW120690   0.972   5.151   1.465
 6597SOL    HW220691   0.956   5.214   1.315
 6598SOL     OW20692   1.036   4.964   1.954
 6598SOL    HW120693   1.105   5.024   1.913
 6598SOL    HW220694   1.078   4.907   2.024
 6599SOL     OW20695   0.829   5.502   6.461
 6599SOL    HW120696   0.823   5.563   6.382
 6599SOL    HW220697   0.740   5.497   6.506
 6600SOL     OW20698   4.062   6.269   4.942
 6600SOL    HW120699   4.056   6.358   4.986
 6600SOL    HW220700   4.135   6.270   4.873
 6601SOL     OW20701   0.940   2.781   1.923
 6601SOL    HW120702   0.945   2.691   1.881
 6601SOL    HW220703   1.033   2.814   1.941
 6602SOL     OW20704   6.219   5.762   0.940
 6602SOL    HW120705   6.156   5.697   0.898
 6602SOL    HW220706   6.186   5.855   0.926
 6603SOL     OW20707   0.044   4.257   2.323
 6603SOL    HW120708   0.008   4.278   2.232
 6603SOL    HW220709   0.057   4.159   2.332
 6604SOL     OW20710   1.140   5.154   2.583
 6604SOL    HW120711   1.157   5.238   2.634
 6604SOL    HW220712   1.082   5.173   2.504
 6605SOL     OW20713   0.078   5.068   1.049
 6605SOL    HW120714   0.148   4.998   1.063
 6605SOL    HW220715   0.086   5.138   1.121
 6606SOL     OW20716   1.550   4.343   2.452
 6606SOL    HW120717   1.544   4.386   2.362
 6606SOL    HW220718   1.601   4.258   2.445
 6607SOL     OW20719   6.991   3.561   4.319
 6607SOL    HW120720   0.013   3.502   4.252
 6607SOL    HW220721   6.998   3.656   4.291
 6608SOL     OW20722   1.111   0.229   5.419
 6608SOL    HW120723   1.137   0.298   5.352
 6608SOL    HW220724   1.160   0.246   5.505
 6609SOL     OW20725   2.868   2.521   6.778
 6609SOL    HW120726   2.963   2.530   6.808
 6609SOL    HW220727   2.813   2.594   6.819
 6610SOL     OW20728   2.882   6.621   1.390
 6610SOL    HW120729   2.931   6.691   1.338
 6610SOL    HW220730   2.837   6.664   1.469
 6611SOL     OW20731   3.267   1.579   4.429
 6611SOL    HW120732   3.222   1.660   4.465
 6611SOL    HW220733   3.265   1.581   4.329
 6612SOL     OW20734   0.486   6.783   0.033
 6612SOL    HW120735   0.395   6.744   0.018
 6612SOL    HW220736   0.479   6.882   0.039
 6613SOL     OW20737   3.916   6.693   1.308
 6613SOL    HW120738   3.990   6.674   1.243
 6613SOL    HW220739   3.878   6.784   1.289
 6614SOL     OW20740   3.637   4.385   1.006
 6614SOL    HW120741   3.553   4.333   1.018
 6614SOL    HW220742   3.644   4.454   1.079
 6615SOL     OW20743   3.131   5.407   5.843
 6615SOL    HW120744   3.204   5.338   5.839
 6615SOL    HW220745   3.156   5.485   5.786
 6616SOL     OW20746   4.227   1.801   6.557
 6616SOL    HW120747   4.180   1.764   6.637
 6616SOL    HW220748   4.182   1.769   6.474
 6617SOL     OW20749   3.475   1.608   4.047
 6617SOL    HW120750   3.493   1.573   4.139
 6617SOL    HW220751   3.525   1.694   4.034
 6618SOL     OW20752   5.862   3.363   3.850
 6618SOL    HW120753   5.944   3.373   3.907
 6618SOL    HW220754   5.789   3.422   3.885
 6619SOL     OW20755   4.974   4.918   3.992
 6619SOL    HW120756   4.889   4.952   4.032
 6619SOL    HW220757   5.051   4.940   4.053
 6620SOL     OW20758   1.449   2.978   3.355
 6620SOL    HW120759   1.461   3.077   3.350
 6620SOL    HW220760   1.497   2.935   3.279
 6621SOL     OW20761   3.531   3.843   3.586
 6621SOL    HW120762   3.629   3.834   3.569
 6621SOL    HW220763   3.491   3.905   3.519
 6622SOL     OW20764   0.213   4.837   1.042
 6622SOL    HW120765   0.204   4.787   1.128
 6622SOL    HW220766   0.219   4.772   0.966
 6623SOL     OW20767   3.533   3.567   3.443
 6623SOL    HW120768   3.613   3.565   3.382
 6623SOL    HW220769   3.540   3.647   3.503
 6624SOL     OW20770   2.568   2.121   3.101
 6624SOL    HW120771   2.602   2.213   3.078
 6624SOL    HW220772   2.576   2.062   3.021
 6625SOL     OW20773   6.957   4.435   5.197
 6625SOL    HW120774   0.004   4.365   5.192
 6625SOL    HW220775   7.000   4.522   5.224
 6626SOL     OW20776   2.799   5.688   5.885
 6626SOL    HW120777   2.802   5.588   5.879
 6626SOL    HW220778   2.892   5.724   5.893
 6627SOL     OW20779   2.281   6.669   4.396
 6627SOL    HW120780   2.248   6.709   4.310
 6627SOL    HW220781   2.222   6.699   4.471
 6628SOL     OW20782   3.877   0.603   3.196
 6628SOL    HW120783   3.902   0.507   3.209
 6628SOL    HW220784   3.780   0.616   3.216
 6629SOL     OW20785   4.635   5.704   4.938
 6629SOL    HW120786   4.697   5.725   5.014
 6629SOL    HW220787   4.610   5.608   4.940
 6630SOL     OW20788   1.902   0.212   0.420
 6630SOL    HW120789   1.900   0.275   0.497
 6630SOL    HW220790   1.827   0.147   0.429
 6631SOL     OW20791   1.479   2.325   5.327
 6631SOL    HW120792   1.433   2.236   5.334
 6631SOL    HW220793   1.557   2.327   5.390
 6632SOL     OW20794   1.288   7.016   6.526
 6632SOL    HW120795   1.272   6.997   6.429
 6632SOL    HW220796   1.249   0.081   6.550
 6633SOL     OW20797   4.568   6.751   5.811
 6633SOL    HW120798   4.571   6.849   5.834
 6633SOL    HW220799   4.475   6.726   5.785
 6634SOL     OW20800   2.723   2.203   3.650
 6634SOL    HW120801   2.658   2.210   3.573
 6634SOL    HW220802   2.693   2.132   3.713
 6635SOL     OW20803   5.028   5.916   5.949
 6635SOL    HW120804   5.030   5.938   5.851
 6635SOL    HW220805   5.042   5.818   5.962
 6636SOL     OW20806   3.994   1.088   1.020
 6636SOL    HW120807   4.080   1.122   0.982
 6636SOL    HW220808   4.009   1.060   1.115
 6637SOL     OW20809   0.171   1.976   6.901
 6637SOL    HW120810   0.138   1.964   6.808
 6637SOL    HW220811   0.108   1.932   6.965
 6638SOL     OW20812   3.201   3.472   3.531
 6638SOL    HW120813   3.116   3.455   3.480
 6638SOL    HW220814   3.190   3.440   3.625
 6639SOL     OW20815   4.704   2.777   1.280
 6639SOL    HW120816   4.698   2.693   1.334
 6639SOL    HW220817   4.638   2.772   1.205
 6640SOL     OW20818   1.253   4.020   4.414
 6640SOL    HW120819   1.343   3.987   4.441
 6640SOL    HW220820   1.223   3.970   4.332
 6641SOL     OW20821   6.278   2.338   0.194
 6641SOL    HW120822   6.210   2.320   0.123
 6641SOL    HW220823   6.266   2.272   0.268
 6642SOL     OW20824   0.766   5.032   6.129
 6642SOL    HW120825   0.724   5.111   6.174
 6642SOL    HW220826   0.702   4.993   6.062
 6643SOL     OW20827   4.011   5.515   6.090
 6643SOL    HW120828   4.026   5.456   6.011
 6643SOL    HW220829   3.915   5.511   6.118
 6644SOL     OW20830   1.740   0.638   3.787
 6644SOL    HW120831   1.646   0.632   3.823
 6644SOL    HW220832   1.776   0.730   3.804
 6645SOL     OW20833   4.563   2.417   5.993
 6645SOL    HW120834   4.471   2.413   5.956
 6645SOL    HW220835   4.604   2.506   5.972
 6646SOL     OW20836   4.629   0.272   6.246
 6646SOL    HW120837   4.611   0.201   6.178
 6646SOL    HW220838   4.579   0.251   6.331
 6647SOL     OW20839   4.041   4.591   1.424
 6647SOL    HW120840   4.032   4.685   1.391
 6647SOL    HW220841   4.017   4.528   1.350
 6648SOL     OW20842   3.326   5.212   5.811
 6648SOL    HW120843   3.337   5.257   5.723
 6648SOL    HW220844   3.414   5.174   5.840
 6649SOL     OW20845   5.202   2.418   6.014
 6649SOL    HW120846   5.115   2.425   5.966
 6649SOL    HW220847   5.277   2.406   5.948
 6650SOL     OW20848   2.472   1.399   5.180
 6650SOL    HW120849   2.475   1.327   5.250
 6650SOL    HW220850   2.512   1.365   5.095
 6651SOL     OW20851   6.874   1.332   4.183
 6651SOL    HW120852   6.865   1.291   4.274
 6651SOL    HW220853   6.896   1.429   4.193
 6652SOL     OW20854   0.202   4.620   6.780
 6652SOL    HW120855   0.294   4.659   6.772
 6652SOL    HW220856   0.157   4.658   6.861
 6653SOL     OW20857   5.608   4.228   6.785
 6653SOL    HW120858   5.598   4.314   6.835
 6653SOL    HW220859   5.536   4.222   6.715
 6654SOL     OW20860   6.724   2.077   3.259
 6654SOL    HW120861   6.669   2.010   3.308
 6654SOL    HW220862   6.683   2.094   3.169
 6655SOL     OW20863   6.751   5.984   1.171
 6655SOL    HW120864   6.792   5.953   1.257
 6655SOL    HW220865   6.746   5.907   1.107
 6656SOL     OW20866   4.140   1.191   2.006
 6656SOL    HW120867   4.108   1.152   2.092
 6656SOL    HW220868   4.074   1.257   1.972
 6657SOL     OW20869   4.559   1.940   4.914
 6657SOL    HW120870   4.627   2.004   4.950
 6657SOL    HW220871   4.525   1.882   4.988
 6658SOL     OW20872   6.886   5.835   4.576
 6658SOL    HW120873   6.963   5.811   4.517
 6658SOL    HW220874   6.843   5.918   4.541
 6659SOL     OW20875   0.507   5.472   0.891
 6659SOL    HW120876   0.591   5.504   0.846
 6659SOL    HW220877   0.501   5.373   0.882
 6660SOL     OW20878   0.786   0.139   4.324
 6660SOL    HW120879   0.763   0.226   4.279
 6660SOL    HW220880   0.791   0.067   4.255
 6661SOL     OW20881   4.313   6.336   3.694
 6661SOL    HW120882   4.383   6.325   3.623
 6661SOL    HW220883   4.261   6.251   3.702
 6662SOL     OW20884   3.507   6.928   2.463
 6662SOL    HW120885   3.517   6.969   2.553
 6662SOL    HW220886   3.436   6.858   2.465
 6663SOL     OW20887   1.846   4.430   5.619
 6663SOL    HW120888   1.824   4.512   5.567
 6663SOL    HW220889   1.921   4.381   5.576
 6664SOL     OW20890   3.376   0.097   1.788
 6664SOL    HW120891   3.433   0.048   1.854
 6664SOL    HW220892   3.335   0.031   1.725
 6665SOL     OW20893   2.762   0.613   0.580
 6665SOL    HW120894   2.798   0.619   0.673
 6665SOL    HW220895   2.719   0.700   0.555
 6666SOL     OW20896   2.747   6.118   5.799
 6666SOL    HW120897   2.843   6.090   5.803
 6666SOL    HW220898   2.689   6.037   5.796
 6667SOL     OW20899   1.539   5.520   0.302
 6667SOL    HW120900   1.597   5.451   0.345
 6667SOL    HW220901   1.510   5.587   0.371
 6668SOL     OW20902   6.989   3.829   6.791
 6668SOL    HW120903   0.026   3.782   6.727
 6668SOL    HW220904   6.969   3.921   6.757
 6669SOL     OW20905   1.268   2.794   3.466
 6669SOL    HW120906   1.324   2.866   3.426
 6669SOL    HW220907   1.325   2.714   3.484
 6670SOL     OW20908   3.103   3.520   0.544
 6670SOL    HW120909   3.048   3.582   0.600
 6670SOL    HW220910   3.171   3.475   0.601
 6671SOL     OW20911   4.455   4.884   0.554
 6671SOL    HW120912   4.391   4.812   0.526
 6671SOL    HW220913   4.404   4.965   0.583
 6672SOL     OW20914   1.675   2.785   1.414
 6672SOL    HW120915   1.703   2.698   1.374
 6672SOL    HW220916   1.583   2.808   1.382
 6673SOL     OW20917   5.644   3.493   3.912
 6673SOL    HW120918   5.622   3.569   3.973
 6673SOL    HW220919   5.559   3.455   3.875
 6674SOL     OW20920   6.834   0.324   0.715
 6674SOL    HW120921   6.772   0.247   0.728
 6674SOL    HW220922   6.917   0.311   0.768
 6675SOL     OW20923   4.513   1.371   0.017
 6675SOL    HW120924   4.454   1.443   0.054
 6675SOL    HW220925   4.456   1.300   7.000
 6676SOL     OW20926   0.895   4.268   5.086
 6676SOL    HW120927   0.899   4.286   5.184
 6676SOL    HW220928   0.869   4.172   5.071
 6677SOL     OW20929   0.362   2.353   6.861
 6677SOL    HW120930   0.265   2.329   6.861
 6677SOL    HW220931   0.407   2.311   6.939
 6678SOL     OW20932   3.039   4.397   6.408
 6678SOL    HW120933   3.088   4.312   6.387
 6678SOL    HW220934   2.984   4.384   6.490
 6679SOL     OW20935   1.275   0.511   4.147
 6679SOL    HW120936   1.340   0.439   4.172
 6679SOL    HW220937   1.194   0.505   4.207
 6680SOL     OW20938   6.090   4.750   1.628
 6680SOL    HW120939   6.131   4.839   1.610
 6680SOL    HW220940   6.067   4.705   1.541
 6681SOL     OW20941   2.843   5.981   1.519
 6681SOL    HW120942   2.921   5.919   1.525
 6681SOL    HW220943   2.781   5.963   1.595
 6682SOL     OW20944   2.396   5.762   6.693
 6682SOL    HW120945   2.451   5.845   6.702
 6682SOL    HW220946   2.364   5.753   6.599
 6683SOL     OW20947   6.667   5.896   5.802
 6683SOL    HW120948   6.606   5.894   5.722
 6683SOL    HW220949   6.691   5.802   5.828
 6684SOL     OW20950   2.883   5.710   6.177
 6684SOL    HW120951   2.949   5.725   6.103
 6684SOL    HW220952   2.867   5.797   6.224
 6685SOL     OW20953   4.227   2.600   1.151
 6685SOL    HW120954   4.229   2.510   1.195
 6685SOL    HW220955   4.168   2.662   1.203
 6686SOL     OW20956   4.747   4.997   5.603
 6686SOL    HW120957   4.711   5.070   5.545
 6686SOL    HW220958   4.682   4.978   5.677
 6687SOL     OW20959   0.449   2.242   1.382
 6687SOL    HW120960   0.350   2.244   1.365
 6687SOL    HW220961   0.497   2.272   1.300
 6688SOL     OW20962   4.777   5.983   0.787
 6688SOL    HW120963   4.752   6.068   0.833
 6688SOL    HW220964   4.744   5.905   0.840
 6689SOL     OW20965   3.502   4.834   6.378
 6689SOL    HW120966   3.452   4.921   6.382
 6689SOL    HW220967   3.574   4.840   6.309
 6690SOL     OW20968   1.070   0.482   0.521
 6690SOL    HW120969   1.108   0.479   0.614
 6690SOL    HW220970   1.145   0.477   0.455
 6691SOL     OW20971   2.713   1.761   1.984
 6691SOL    HW120972   2.806   1.792   2.001
 6691SOL    HW220973   2.703   1.666   2.014
 6692SOL     OW20974   4.422   6.484   2.246
 6692SOL    HW120975   4.347   6.481   2.180
 6692SOL    HW220976   4.418   6.402   2.304
 6693SOL     OW20977   3.432   1.575   5.824
 6693SOL    HW120978   3.440   1.672   5.804
 6693SOL    HW220979   3.491   1.523   5.761
 6694SOL     OW20980   4.445   3.710   1.468
 6694SOL    HW120981   4.493   3.797   1.461
 6694SOL    HW220982   4.389   3.709   1.551
 6695SOL     OW20983   3.011   2.676   0.497
 6695SOL    HW120984   3.029   2.586   0.537
 6695SOL    HW220985   3.004   2.667   0.398
 6696SOL     OW20986   3.684   2.705   5.211
 6696SOL    HW120987   3.719   2.744   5.126
 6696SOL    HW220988   3.642   2.778   5.265
 6697SOL     OW20989   4.609   1.911   2.517
 6697SOL    HW120990   4.584   1.857   2.598
 6697SOL    HW220991   4.667   1.856   2.458
 6698SOL     OW20992   2.780   3.643   1.740
 6698SOL    HW120993   2.838   3.676   1.814
 6698SOL    HW220994   2.825   3.660   1.652
 6699SOL     OW20995   1.394   3.250   6.421
 6699SOL    HW120996   1.369   3.331   6.475
 6699SOL    HW220997   1.399   3.275   6.324
 6700SOL     OW20998   5.681   0.637   1.498
 6700SOL    HW120999   5.713   0.661   1.590
 6700SOL    HW221000   5.600   0.579   1.505
 6701SOL     OW21001   6.013   0.078   1.678
 6701SOL    HW121002   6.063   7.019   1.654
 6701SOL    HW221003   6.076   0.145   1.718
 6702SOL     OW21004   4.063   2.891   0.770
 6702SOL    HW121005   4.026   2.911   0.861
 6702SOL    HW221006   4.150   2.842   0.780
 6703SOL     OW21007   0.731   1.470   0.321
 6703SOL    HW121008   0.689   1.543   0.375
 6703SOL    HW221009   0.681   1.459   0.235
 6704SOL     OW21010   2.968   0.212   5.661
 6704SOL    HW121011   2.972   0.276   5.738
 6704SOL    HW221012   3.060   0.184   5.636
 6705SOL     OW21013   6.933   4.367   2.107
 6705SOL    HW121014   6.852   4.425   2.098
 6705SOL    HW221015   6.936   4.301   2.032
 6706SOL     OW21016   7.002   6.155   0.353
 6706SOL    HW121017   6.908   6.163   0.319
 6706SOL    HW221018   0.037   6.219   0.305
 6707SOL     OW21019   4.244   1.063   2.911
 6707SOL    HW121020   4.156   1.043   2.868
 6707SOL    HW221021   4.295   0.979   2.922
 6708SOL     OW21022   0.486   2.972   0.385
 6708SOL    HW121023   0.401   2.983   0.333
 6708SOL    HW221024   0.541   3.055   0.378
 6709SOL     OW21025   2.220   4.392   1.979
 6709SOL    HW121026   2.225   4.428   2.073
 6709SOL    HW221027   2.136   4.339   1.969
 6710SOL     OW21028   4.689   1.652   1.137
 6710SOL    HW121029   4.771   1.652   1.194
 6710SOL    HW221030   4.629   1.577   1.165
 6711SOL     OW21031   3.774   5.547   6.215
 6711SOL    HW121032   3.687   5.500   6.229
 6711SOL    HW221033   3.820   5.560   6.302
 6712SOL     OW21034   4.992   4.043   1.390
 6712SOL    HW121035   4.989   3.944   1.399
 6712SOL    HW221036   4.956   4.085   1.474
 6713SOL     OW21037   2.056   4.258   4.130
 6713SOL    HW121038   2.026   4.347   4.095
 6713SOL    HW221039   2.014   4.241   4.219
 6714SOL     OW21040   5.191   1.314   1.439
 6714SOL    HW121041   5.203   1.217   1.415
 6714SOL    HW221042   5.093   1.334   1.448
 6715SOL     OW21043   0.944   0.211   5.914
 6715SOL    HW121044   0.993   0.294   5.941
 6715SOL    HW221045   0.850   0.215   5.949
 6716SOL     OW21046   1.198   5.411   1.528
 6716SOL    HW121047   1.119   5.454   1.484
 6716SOL    HW221048   1.179   5.314   1.542
 6717SOL     OW21049   6.420   2.005   5.415
 6717SOL    HW121050   6.366   2.020   5.332
 6717SOL    HW221051   6.359   2.005   5.494
 6718SOL     OW21052   4.647   1.967   1.244
 6718SOL    HW121053   4.690   1.922   1.322
 6718SOL    HW221054   4.639   1.903   1.168
 6719SOL     OW21055   1.635   1.390   0.443
 6719SOL    HW121056   1.693   1.467   0.469
 6719SOL    HW221057   1.541   1.410   0.470
 6720SOL     OW21058   1.368   1.580   5.331
 6720SOL    HW121059   1.402   1.573   5.237
 6720SOL    HW221060   1.295   1.513   5.345
 6721SOL     OW21061   6.341   6.407   7.019
 6721SOL    HW121062   6.395   6.484   6.986
 6721SOL    HW221063   6.388   6.364   0.072
 6722SOL     OW21064   5.710   4.562   0.960
 6722SOL    HW121065   5.666   4.640   1.004
 6722SOL    HW221066   5.694   4.566   0.862
 6723SOL     OW21067   1.399   3.267   4.406
 6723SOL    HW121068   1.429   3.211   4.329
 6723SOL    HW221069   1.338   3.339   4.374
 6724SOL     OW21070   2.181   3.982   4.576
 6724SOL    HW121071   2.174   3.953   4.481
 6724SOL    HW221072   2.209   3.904   4.632
 6725SOL     OW21073   4.860   3.093   4.293
 6725SOL    HW121074   4.858   3.020   4.362
 6725SOL    HW221075   4.818   3.060   4.208
 6726SOL     OW21076   0.081   1.557   6.947
 6726SOL    HW121077   7.018   1.604   6.929
 6726SOL    HW221078   0.068   1.458   6.933
 6727SOL     OW21079   0.814   4.693   5.319
 6727SOL    HW121080   0.764   4.732   5.242
 6727SOL    HW221081   0.913   4.706   5.304
 6728SOL     OW21082   3.201   1.322   4.071
 6728SOL    HW121083   3.203   1.417   4.104
 6728SOL    HW221084   3.204   1.260   4.149
 6729SOL     OW21085   4.062   1.048   1.658
 6729SOL    HW121086   4.042   1.144   1.673
 6729SOL    HW221087   3.981   1.003   1.621
 6730SOL     OW21088   0.137   2.010   0.883
 6730SOL    HW121089   0.060   1.956   0.848
 6730SOL    HW221090   0.221   1.957   0.873
 6731SOL     OW21091   4.216   0.474   5.856
 6731SOL    HW121092   4.190   0.570   5.865
 6731SOL    HW221093   4.148   0.417   5.901
 6732SOL     OW21094   6.563   4.892   5.860
 6732SOL    HW121095   6.611   4.814   5.900
 6732SOL    HW221096   6.625   4.969   5.851
 6733SOL     OW21097   4.856   4.903   4.842
 6733SOL    HW121098   4.953   4.914   4.865
 6733SOL    HW221099   4.829   4.974   4.777
 6734SOL     OW21100   5.636   2.322   5.243
 6734SOL    HW121101   5.705   2.252   5.225
 6734SOL    HW221102   5.627   2.335   5.342
 6735SOL     OW21103   5.145   2.752   4.524
 6735SOL    HW121104   5.076   2.735   4.594
 6735SOL    HW221105   5.224   2.692   4.540
 6736SOL     OW21106   3.527   4.134   0.619
 6736SOL    HW121107   3.436   4.098   0.640
 6736SOL    HW221108   3.590   4.058   0.603
 6737SOL     OW21109   6.160   3.646   1.129
 6737SOL    HW121110   6.188   3.562   1.175
 6737SOL    HW221111   6.160   3.722   1.194
 6738SOL     OW21112   2.104   6.760   4.608
 6738SOL    HW121113   2.132   6.755   4.704
 6738SOL    HW221114   2.018   6.711   4.595
 6739SOL     OW21115   6.908   6.657   5.810
 6739SOL    HW121116   6.982   6.595   5.835
 6739SOL    HW221117   6.859   6.685   5.893
 6740SOL     OW21118   0.386   0.084   1.885
 6740SOL    HW121119   0.396   7.013   1.916
 6740SOL    HW221120   0.470   0.134   1.903
 6741SOL     OW21121   3.155   1.875   0.315
 6741SOL    HW121122   3.182   1.843   0.224
 6741SOL    HW221123   3.056   1.885   0.319
 6742SOL     OW21124   6.509   4.487   2.609
 6742SOL    HW121125   6.569   4.427   2.556
 6742SOL    HW221126   6.427   4.437   2.635
 6743SOL     OW21127   3.642   3.618   0.177
 6743SOL    HW121128   3.589   3.551   0.228
 6743SOL    HW221129   3.656   3.585   0.083
 6744SOL     OW21130   6.577   6.848   5.526
 6744SOL    HW121131   6.548   6.860   5.621
 6744SOL    HW221132   6.666   6.891   5.513
 6745SOL     OW21133   6.637   4.012   5.450
 6745SOL    HW121134   6.654   4.055   5.361
 6745SOL    HW221135   6.584   4.074   5.508
 6746SOL     OW21136   1.290   2.231   3.128
 6746SOL    HW121137   1.362   2.281   3.080
 6746SOL    HW221138   1.272   2.275   3.216
 6747SOL     OW21139   0.973   6.279   5.021
 6747SOL    HW121140   0.944   6.341   4.948
 6747SOL    HW221141   1.057   6.233   4.993
 6748SOL     OW21142   1.791   1.173   5.040
 6748SOL    HW121143   1.769   1.092   4.984
 6748SOL    HW221144   1.785   1.149   5.137
 6749SOL     OW21145   4.145   5.054   2.278
 6749SOL    HW121146   4.053   5.069   2.315
 6749SOL    HW221147   4.210   5.115   2.323
 6750SOL     OW21148   3.357   1.285   5.666
 6750SOL    HW121149   3.436   1.308   5.723
 6750SOL    HW221150   3.349   1.351   5.591
 6751SOL     OW21151   4.419   0.789   4.789
 6751SOL    HW121152   4.457   0.835   4.709
 6751SOL    HW221153   4.483   0.720   4.822
 6752SOL     OW21154   2.263   4.934   2.841
 6752SOL    HW121155   2.345   4.950   2.897
 6752SOL    HW221156   2.244   5.015   2.786
 6753SOL     OW21157   3.716   3.641   6.906
 6753SOL    HW121158   3.666   3.605   6.827
 6753SOL    HW221159   3.759   3.728   6.882
 6754SOL     OW21160   6.282   1.085   0.530
 6754SOL    HW121161   6.302   1.030   0.612
 6754SOL    HW221162   6.290   1.027   0.449
 6755SOL     OW21163   3.237   5.821   6.155
 6755SOL    HW121164   3.295   5.901   6.174
 6755SOL    HW221165   3.218   5.773   6.241
 6756SOL     OW21166   3.471   3.391   6.370
 6756SOL    HW121167   3.389   3.407   6.315
 6756SOL    HW221168   3.552   3.419   6.319
 6757SOL     OW21169   4.329   0.198   1.511
 6757SOL    HW121170   4.339   0.114   1.457
 6757SOL    HW221171   4.238   0.237   1.494
 6758SOL     OW21172   5.139   3.292   3.173
 6758SOL    HW121173   5.213   3.225   3.160
 6758SOL    HW221174   5.055   3.257   3.131
 6759SOL     OW21175   1.238   1.778   2.693
 6759SOL    HW121176   1.304   1.705   2.674
 6759SOL    HW221177   1.280   1.866   2.673
 6760SOL     OW21178   5.484   2.052   5.440
 6760SOL    HW121179   5.569   2.006   5.469
 6760SOL    HW221180   5.461   2.024   5.347
 6761SOL     OW21181   3.254   1.176   5.015
 6761SOL    HW121182   3.204   1.161   5.100
 6761SOL    HW221183   3.334   1.117   5.013
 6762SOL     OW21184   5.596   4.710   4.558
 6762SOL    HW121185   5.626   4.704   4.463
 6762SOL    HW221186   5.657   4.770   4.609
 6763SOL     OW21187   6.076   0.173   4.392
 6763SOL    HW121188   6.137   0.133   4.324
 6763SOL    HW221189   6.120   0.252   4.435
 6764SOL     OW21190   0.519   4.775   1.620
 6764SOL    HW121191   0.469   4.692   1.597
 6764SOL    HW221192   0.467   4.855   1.590
 6765SOL     OW21193   0.380   3.619   2.368
 6765SOL    HW121194   0.303   3.620   2.432
 6765SOL    HW221195   0.371   3.695   2.303
 6766SOL     OW21196   6.067   0.018   1.227
 6766SOL    HW121197   6.089   0.115   1.225
 6766SOL    HW221198   5.992   0.002   1.292
 6767SOL     OW21199   2.921   0.300   1.344
 6767SOL    HW121200   2.935   0.397   1.325
 6767SOL    HW221201   2.848   0.264   1.285
 6768SOL     OW21202   1.863   6.948   6.867
 6768SOL    HW121203   1.779   6.899   6.887
 6768SOL    HW221204   1.856   6.992   6.778
 6769SOL     OW21205   4.971   3.108   1.286
 6769SOL    HW121206   4.920   3.084   1.204
 6769SOL    HW221207   5.059   3.148   1.260
 6770SOL     OW21208   0.007   1.371   1.670
 6770SOL    HW121209   0.103   1.393   1.689
 6770SOL    HW221210   6.995   1.312   1.742
 6771SOL     OW21211   4.761   1.818   3.320
 6771SOL    HW121212   4.792   1.732   3.280
 6771SOL    HW221213   4.695   1.861   3.258
 6772SOL     OW21214   3.713   1.647   4.476
 6772SOL    HW121215   3.650   1.582   4.434
 6772SOL    HW221216   3.773   1.685   4.406
 6773SOL     OW21217   0.725   3.736   1.606
 6773SOL    HW121218   0.794   3.677   1.565
 6773SOL    HW221219   0.719   3.821   1.555
 6774SOL     OW21220   0.763   2.632   6.114
 6774SOL    HW121221   0.712   2.663   6.194
 6774SOL    HW221222   0.829   2.702   6.087
 6775SOL     OW21223   1.355   4.184   6.797
 6775SOL    HW121224   1.306   4.113   6.848
 6775SOL    HW221225   1.294   4.222   6.727
 6776SOL     OW21226   5.956   5.488   6.793
 6776SOL    HW121227   6.006   5.505   6.878
 6776SOL    HW221228   6.019   5.494   6.716
 6777SOL     OW21229   4.813   5.188   0.045
 6777SOL    HW121230   4.790   5.265   7.009
 6777SOL    HW221231   4.870   5.122   7.018
 6778SOL     OW21232   6.364   5.816   3.176
 6778SOL    HW121233   6.460   5.839   3.191
 6778SOL    HW221234   6.349   5.719   3.197
 6779SOL     OW21235   6.206   3.806   6.288
 6779SOL    HW121236   6.220   3.822   6.191
 6779SOL    HW221237   6.151   3.724   6.301
 6780SOL     OW21238   0.834   3.189   1.861
 6780SOL    HW121239   0.821   3.111   1.799
 6780SOL    HW221240   0.811   3.162   1.954
 6781SOL     OW21241   5.984   4.902   5.666
 6781SOL    HW121242   5.885   4.909   5.675
 6781SOL    HW221243   6.028   4.970   5.725
 6782SOL     OW21244   5.789   0.705   3.398
 6782SOL    HW121245   5.861   0.682   3.332
 6782SOL    HW221246   5.706   0.653   3.377
 6783SOL     OW21247   0.745   5.570   6.776
 6783SOL    HW121248   0.842   5.591   6.787
 6783SOL    HW221249   0.710   5.615   6.694
 6784SOL     OW21250   4.142   2.708   6.995
 6784SOL    HW121251   4.093   2.750   6.918
 6784SOL    HW221252   4.105   2.743   0.057
 6785SOL     OW21253   6.035   5.720   2.293
 6785SOL    HW121254   6.088   5.640   2.323
 6785SOL    HW221255   5.951   5.690   2.248
 6786SOL     OW21256   1.772   3.872   5.810
 6786SOL    HW121257   1.838   3.806   5.846
 6786SOL    HW221258   1.812   3.918   5.731
 6787SOL     OW21259   1.148   3.836   1.622
 6787SOL    HW121260   1.224   3.902   1.618
 6787SOL    HW221261   1.103   3.832   1.533
 6788SOL     OW21262   2.932   4.335   0.978
 6788SOL    HW121263   2.895   4.275   0.907
 6788SOL    HW221264   3.030   4.350   0.962
 6789SOL     OW21265   0.924   5.575   3.522
 6789SOL    HW121266   0.912   5.561   3.423
 6789SOL    HW221267   0.834   5.590   3.564
 6790SOL     OW21268   1.156   2.706   0.716
 6790SOL    HW121269   1.095   2.689   0.793
 6790SOL    HW221270   1.182   2.802   0.714
 6791SOL     OW21271   3.148   3.917   5.993
 6791SOL    HW121272   3.224   3.917   5.928
 6791SOL    HW221273   3.130   3.823   6.023
 6792SOL     OW21274   0.258   4.954   6.983
 6792SOL    HW121275   0.342   4.971   0.009
 6792SOL    HW221276   0.211   4.874   7.022
 6793SOL     OW21277   5.813   1.583   1.612
 6793SOL    HW121278   5.778   1.510   1.669
 6793SOL    HW221279   5.827   1.550   1.519
 6794SOL     OW21280   4.134   1.144   4.238
 6794SOL    HW121281   4.050   1.101   4.270
 6794SOL    HW221282   4.214   1.097   4.277
 6795SOL     OW21283   3.559   6.145   7.017
 6795SOL    HW121284   3.613   6.088   0.054
 6795SOL    HW221285   3.560   6.240   0.026
 6796SOL     OW21286   3.885   1.866   3.275
 6796SOL    HW121287   3.855   1.914   3.192
 6796SOL    HW221288   3.980   1.891   3.294
 6797SOL     OW21289   7.008   2.381   1.994
 6797SOL    HW121290   6.968   2.308   1.938
 6797SOL    HW221291   6.948   2.401   2.071
 6798SOL     OW21292   6.589   0.199   2.352
 6798SOL    HW121293   6.580   0.185   2.451
 6798SOL    HW221294   6.673   0.248   2.332
 6799SOL     OW21295   5.111   6.059   1.751
 6799SOL    HW121296   5.159   6.144   1.729
 6799SOL    HW221297   5.077   6.063   1.845
 6800SOL     OW21298   3.209   4.152   6.418
 6800SOL    HW121299   3.154   4.118   6.341
 6800SOL    HW221300   3.300   4.176   6.385
 6801SOL     OW21301   1.020   2.575   2.808
 6801SOL    HW121302   0.954   2.647   2.832
 6801SOL    HW221303   1.032   2.513   2.885
 6802SOL     OW21304   2.809   4.744   2.776
 6802SOL    HW121305   2.877   4.784   2.837
 6802SOL    HW221306   2.829   4.770   2.682
 6803SOL     OW21307   3.830   2.532   0.453
 6803SOL    HW121308   3.892   2.508   0.528
 6803SOL    HW221309   3.821   2.454   0.390
 6804SOL     OW21310   0.992   0.003   3.754
 6804SOL    HW121311   0.960   0.066   3.824
 6804SOL    HW221312   1.084   0.030   3.725
 6805SOL     OW21313   5.438   0.743   5.043
 6805SOL    HW121314   5.379   0.694   4.978
 6805SOL    HW221315   5.503   0.800   4.993
 6806SOL     OW21316   5.620   6.322   5.490
 6806SOL    HW121317   5.538   6.337   5.434
 6806SOL    HW221318   5.669   6.409   5.500
 6807SOL     OW21319   3.446   3.492   0.033
 6807SOL    HW121320   3.356   3.478   7.015
 6807SOL    HW221321   3.465   3.590   0.040
 6808SOL     OW21322   2.122   3.325   3.898
 6808SOL    HW121323   2.103   3.286   3.808
 6808SOL    HW221324   2.037   3.334   3.950
 6809SOL     OW21325   1.781   3.241   6.864
 6809SOL    HW121326   1.685   3.253   6.890
 6809SOL    HW221327   1.833   3.210   6.944
 6810SOL     OW21328   5.730   1.496   3.074
 6810SOL    HW121329   5.741   1.402   3.104
 6810SOL    HW221330   5.795   1.555   3.123
 6811SOL     OW21331   4.668   5.666   1.931
 6811SOL    HW121332   4.590   5.618   1.892
 6811SOL    HW221333   4.686   5.631   2.023
 6812SOL     OW21334   3.609   2.938   2.636
 6812SOL    HW121335   3.518   2.921   2.599
 6812SOL    HW221336   3.658   3.001   2.576
 6813SOL     OW21337   5.254   3.407   1.007
 6813SOL    HW121338   5.179   3.400   0.941
 6813SOL    HW221339   5.325   3.340   0.985
 6814SOL     OW21340   2.535   2.862   0.807
 6814SOL    HW121341   2.518   2.884   0.903
 6814SOL    HW221342   2.514   2.941   0.750
 6815SOL     OW21343   1.194   6.962   1.370
 6815SOL    HW121344   1.156   0.031   1.367
 6815SOL    HW221345   1.288   6.965   1.401
 6816SOL     OW21346   6.200   3.828   1.355
 6816SOL    HW121347   6.261   3.883   1.412
 6816SOL    HW221348   6.126   3.791   1.411
 6817SOL     OW21349   0.770   2.423   6.291
 6817SOL    HW121350   0.864   2.401   6.315
 6817SOL    HW221351   0.769   2.484   6.211
 6818SOL     OW21352   3.683   5.446   1.590
 6818SOL    HW121353   3.697   5.494   1.503
 6818SOL    HW221354   3.678   5.348   1.573
 6819SOL     OW21355   2.962   1.219   3.658
 6819SOL    HW121356   2.953   1.279   3.579
 6819SOL    HW221357   2.965   1.123   3.629
 6820SOL     OW21358   2.181   5.459   4.010
 6820SOL    HW121359   2.119   5.536   3.997
 6820SOL    HW221360   2.223   5.464   4.101
 6821SOL     OW21361   2.284   2.354   4.274
 6821SOL    HW121362   2.319   2.260   4.280
 6821SOL    HW221363   2.340   2.406   4.209
 6822SOL     OW21364   5.206   1.886   6.249
 6822SOL    HW121365   5.257   1.929   6.324
 6822SOL    HW221366   5.124   1.940   6.229
 6823SOL     OW21367   4.035   3.437   2.312
 6823SOL    HW121368   4.106   3.473   2.251
 6823SOL    HW221369   3.946   3.440   2.267
 6824SOL     OW21370   1.464   4.994   6.125
 6824SOL    HW121371   1.375   5.010   6.169
 6824SOL    HW221372   1.523   4.943   6.187
 6825SOL     OW21373   5.541   0.082   4.108
 6825SOL    HW121374   5.495   0.092   4.020
 6825SOL    HW221375   5.640   0.088   4.095
 6826SOL     OW21376   0.567   3.100   2.604
 6826SOL    HW121377   0.529   3.112   2.512
 6826SOL    HW221378   0.572   3.002   2.625
 6827SOL     OW21379   5.682   6.174   4.923
 6827SOL    HW121380   5.701   6.114   5.000
 6827SOL    HW221381   5.586   6.204   4.928
 6828SOL     OW21382   2.021   1.686   1.240
 6828SOL    HW121383   1.924   1.687   1.216
 6828SOL    HW221384   2.046   1.774   1.282
 6829SOL     OW21385   5.485   4.949   3.378
 6829SOL    HW121386   5.472   4.933   3.280
 6829SOL    HW221387   5.459   4.866   3.428
 6830SOL     OW21388   5.019   2.166   4.187
 6830SOL    HW121389   5.071   2.226   4.248
 6830SOL    HW221390   4.936   2.213   4.158
 6831SOL     OW21391   6.729   1.371   5.683
 6831SOL    HW121392   6.643   1.393   5.637
 6831SOL    HW221393   6.766   1.287   5.644
 6832SOL     OW21394   2.958   5.668   1.818
 6832SOL    HW121395   3.042   5.618   1.798
 6832SOL    HW221396   2.908   5.622   1.891
 6833SOL     OW21397   4.436   5.607   0.136
 6833SOL    HW121398   4.351   5.649   0.166
 6833SOL    HW221399   4.431   5.508   0.151
 6834SOL     OW21400   3.706   5.687   2.305
 6834SOL    HW121401   3.763   5.614   2.267
 6834SOL    HW221402   3.762   5.745   2.364
 6835SOL     OW21403   4.083   0.008   4.637
 6835SOL    HW121404   3.989   7.015   4.665
 6835SOL    HW221405   4.146   6.992   4.703
 6836SOL     OW21406   3.709   5.613   6.638
 6836SOL    HW121407   3.779   5.600   6.568
 6836SOL    HW221408   3.625   5.646   6.595
 6837SOL     OW21409   0.172   2.915   3.048
 6837SOL    HW121410   0.156   2.968   2.965
 6837SOL    HW221411   0.091   2.860   3.070
 6838SOL     OW21412   2.554   1.969   0.732
 6838SOL    HW121413   2.559   1.912   0.814
 6838SOL    HW221414   2.482   1.933   0.672
 6839SOL     OW21415   4.401   0.767   1.544
 6839SOL    HW121416   4.392   0.706   1.623
 6839SOL    HW221417   4.468   0.730   1.480
 6840SOL     OW21418   0.592   1.031   6.708
 6840SOL    HW121419   0.667   1.097   6.710
 6840SOL    HW221420   0.583   0.987   6.797
 6841SOL     OW21421   0.248   3.226   5.712
 6841SOL    HW121422   0.183   3.293   5.749
 6841SOL    HW221423   0.210   3.185   5.629
 6842SOL     OW21424   2.550   4.958   2.635
 6842SOL    HW121425   2.486   4.968   2.711
 6842SOL    HW221426   2.503   4.917   2.557
 6843SOL     OW21427   4.362   0.144   1.039
 6843SOL    HW121428   4.313   0.069   0.995
 6843SOL    HW221429   4.426   0.185   0.973
 6844SOL     OW21430   5.542   0.680   5.755
 6844SOL    HW121431   5.579   0.601   5.705
 6844SOL    HW221432   5.592   0.762   5.727
 6845SOL     OW21433   5.015   2.015   2.852
 6845SOL    HW121434   5.093   1.962   2.883
 6845SOL    HW221435   4.939   1.954   2.829
 6846SOL     OW21436   2.244   3.424   0.232
 6846SOL    HW121437   2.196   3.337   0.221
 6846SOL    HW221438   2.334   3.408   0.274
 6847SOL     OW21439   6.826   2.559   4.557
 6847SOL    HW121440   6.801   2.565   4.461
 6847SOL    HW221441   6.765   2.618   4.611
 6848SOL     OW21442   6.775   4.980   3.585
 6848SOL    HW121443   6.750   5.065   3.539
 6848SOL    HW221444   6.807   4.914   3.517
 6849SOL     OW21445   3.018   4.440   5.788
 6849SOL    HW121446   3.098   4.467   5.841
 6849SOL    HW221447   2.978   4.522   5.745
 6850SOL     OW21448   4.760   0.314   3.835
 6850SOL    HW121449   4.729   0.223   3.861
 6850SOL    HW221450   4.855   0.310   3.804
 6851SOL     OW21451   1.891   3.724   2.866
 6851SOL    HW121452   1.883   3.788   2.789
 6851SOL    HW221453   1.829   3.753   2.939
 6852SOL     OW21454   4.453   4.514   0.596
 6852SOL    HW121455   4.373   4.454   0.603
 6852SOL    HW221456   4.457   4.554   0.504
 6853SOL     OW21457   4.089   4.822   6.514
 6853SOL    HW121458   4.094   4.817   6.414
 6853SOL    HW221459   4.181   4.832   6.552
 6854SOL     OW21460   5.092   5.262   5.910
 6854SOL    HW121461   5.119   5.192   5.977
 6854SOL    HW221462   5.170   5.285   5.852
 6855SOL     OW21463   4.492   5.372   3.154
 6855SOL    HW121464   4.417   5.314   3.185
 6855SOL    HW221465   4.546   5.324   3.086
 6856SOL     OW21466   7.000   2.848   0.007
 6856SOL    HW121467   6.968   2.930   6.983
 6856SOL    HW221468   6.926   2.811   0.063
 6857SOL     OW21469   1.278   4.383   5.764
 6857SOL    HW121470   1.210   4.311   5.782
 6857SOL    HW221471   1.265   4.458   5.828
 6858SOL     OW21472   1.555   3.995   1.723
 6858SOL    HW121473   1.535   3.930   1.796
 6858SOL    HW221474   1.607   4.072   1.760
 6859SOL     OW21475   2.108   1.764   1.708
 6859SOL    HW121476   2.049   1.683   1.708
 6859SOL    HW221477   2.165   1.763   1.790
 6860SOL     OW21478   0.338   6.074   0.202
 6860SOL    HW121479   0.256   6.130   0.202
 6860SOL    HW221480   0.318   5.986   0.158
 6861SOL     OW21481   5.936   3.146   6.225
 6861SOL    HW121482   5.863   3.148   6.293
 6861SOL    HW221483   6.006   3.080   6.253
 6862SOL     OW21484   1.285   4.417   3.775
 6862SOL    HW121485   1.342   4.498   3.761
 6862SOL    HW221486   1.331   4.337   3.737
 6863SOL     OW21487   5.617   1.620   5.156
 6863SOL    HW121488   5.539   1.622   5.218
 6863SOL    HW221489   5.694   1.573   5.199
 6864SOL     OW21490   1.214   3.481   6.468
 6864SOL    HW121491   1.190   3.561   6.523
 6864SOL    HW221492   1.132   3.424   6.455
 6865SOL     OW21493   2.278   0.650   4.322
 6865SOL    HW121494   2.336   0.730   4.313
 6865SOL    HW221495   2.193   0.664   4.271
 6866SOL     OW21496   1.861   4.609   0.394
 6866SOL    HW121497   1.827   4.671   0.466
 6866SOL    HW221498   1.803   4.618   0.313
 6867SOL     OW21499   2.224   3.128   6.910
 6867SOL    HW121500   2.176   3.135   6.823
 6867SOL    HW221501   2.221   3.216   6.957
 6868SOL     OW21502   3.673   5.026   3.277
 6868SOL    HW121503   3.677   5.084   3.196
 6868SOL    HW221504   3.751   4.963   3.276
 6869SOL     OW21505   2.186   0.733   5.728
 6869SOL    HW121506   2.255   0.771   5.667
 6869SOL    HW221507   2.123   0.805   5.758
 6870SOL     OW21508   5.439   2.207   6.945
 6870SOL    HW121509   5.439   2.200   0.021
 6870SOL    HW221510   5.522   2.164   6.908
 6871SOL     OW21511   6.776   3.295   2.643
 6871SOL    HW121512   6.709   3.309   2.570
 6871SOL    HW221513   6.811   3.384   2.674
 6872SOL     OW21514   1.507   4.165   1.065
 6872SOL    HW121515   1.581   4.211   1.015
 6872SOL    HW221516   1.534   4.155   1.161
 6873SOL     OW21517   0.585   4.519   2.921
 6873SOL    HW121518   0.674   4.475   2.937
 6873SOL    HW221519   0.543   4.480   2.839
 6874SOL     OW21520   4.687   6.536   2.281
 6874SOL    HW121521   4.693   6.519   2.380
 6874SOL    HW221522   4.591   6.549   2.255
 6875SOL     OW21523   2.601   1.302   0.234
 6875SOL    HW121524   2.665   1.264   0.167
 6875SOL    HW221525   2.647   1.373   0.288
 6876SOL     OW21526   5.303   5.295   3.216
 6876SOL    HW121527   5.397   5.329   3.220
 6876SOL    HW221528   5.295   5.210   3.269
 6877SOL     OW21529   0.682   4.426   1.762
 6877SOL    HW121530   0.598   4.435   1.707
 6877SOL    HW221531   0.761   4.431   1.701
 6878SOL     OW21532   2.014   0.746   4.761
 6878SOL    HW121533   2.072   0.702   4.693
 6878SOL    HW221534   1.920   0.713   4.752
 6879SOL     OW21535   1.264   1.475   1.207
 6879SOL    HW121536   1.304   1.512   1.123
 6879SOL    HW221537   1.338   1.445   1.268
 6880SOL     OW21538   1.663   6.062   0.265
 6880SOL    HW121539   1.591   6.056   0.196
 6880SOL    HW221540   1.677   6.158   0.291
 6881SOL     OW21541   6.721   3.336   0.284
 6881SOL    HW121542   6.791   3.374   0.344
 6881SOL    HW221543   6.707   3.396   0.206
 6882SOL     OW21544   3.338   6.451   0.549
 6882SOL    HW121545   3.253   6.499   0.569
 6882SOL    HW221546   3.355   6.383   0.620
 6883SOL     OW21547   5.473   0.445   1.396
 6883SOL    HW121548   5.445   0.524   1.341
 6883SOL    HW221549   5.473   0.363   1.339
 6884SOL     OW21550   2.487   4.982   3.500
 6884SOL    HW121551   2.432   5.008   3.579
 6884SOL    HW221552   2.583   5.004   3.518
 6885SOL     OW21553   6.014   4.505   4.871
 6885SOL    HW121554   5.970   4.448   4.941
 6885SOL    HW221555   5.948   4.526   4.799
 6886SOL     OW21556   5.622   3.768   6.970
 6886SOL    HW121557   5.552   3.784   6.900
 6886SOL    HW221558   5.587   3.798   0.035
 6887SOL     OW21559   5.294   6.007   5.733
 6887SOL    HW121560   5.206   5.964   5.715
 6887SOL    HW221561   5.322   5.988   5.827
 6888SOL     OW21562   6.372   4.259   0.209
 6888SOL    HW121563   6.341   4.318   0.283
 6888SOL    HW221564   6.352   4.163   0.232
 6889SOL     OW21565   0.016   1.616   5.244
 6889SOL    HW121566   7.003   1.698   5.200
 6889SOL    HW221567   6.965   1.557   5.273
 6890SOL     OW21568   4.945   4.478   3.964
 6890SOL    HW121569   4.861   4.424   3.971
 6890SOL    HW221570   5.024   4.419   3.978
 6891SOL     OW21571   1.377   1.548   0.958
 6891SOL    HW121572   1.365   1.603   0.876
 6891SOL    HW221573   1.432   1.467   0.937
 6892SOL     OW21574   2.927   0.906   5.114
 6892SOL    HW121575   2.955   0.838   5.047
 6892SOL    HW221576   2.831   0.931   5.100
 6893SOL     OW21577   6.117   2.802   0.467
 6893SOL    HW121578   6.173   2.736   0.417
 6893SOL    HW221579   6.057   2.850   0.403
 6894SOL     OW21580   5.748   4.897   0.082
 6894SOL    HW121581   5.750   4.798   0.067
 6894SOL    HW221582   5.747   4.944   7.018
 6895SOL     OW21583   0.996   5.850   2.223
 6895SOL    HW121584   0.897   5.838   2.222
 6895SOL    HW221585   1.025   5.904   2.144
 6896SOL     OW21586   4.779   1.477   5.635
 6896SOL    HW121587   4.759   1.559   5.580
 6896SOL    HW221588   4.694   1.445   5.677
 6897SOL     OW21589   4.377   2.587   5.324
 6897SOL    HW121590   4.287   2.587   5.280
 6897SOL    HW221591   4.443   2.636   5.266
 6898SOL     OW21592   1.376   6.593   1.133
 6898SOL    HW121593   1.366   6.573   1.230
 6898SOL    HW221594   1.380   6.692   1.119
 6899SOL     OW21595   5.670   5.875   2.690
 6899SOL    HW121596   5.739   5.946   2.676
 6899SOL    HW221597   5.624   5.890   2.778
 6900SOL     OW21598   6.705   3.666   4.616
 6900SOL    HW121599   6.704   3.588   4.554
 6900SOL    HW221600   6.799   3.698   4.628
 6901SOL     OW21601   5.402   4.954   5.809
 6901SOL    HW121602   5.452   4.920   5.729
 6901SOL    HW221603   5.313   4.908   5.814
 6902SOL     OW21604   0.588   5.763   5.593
 6902SOL    HW121605   0.685   5.741   5.584
 6902SOL    HW221606   0.535   5.679   5.597
 6903SOL     OW21607   1.344   6.183   4.943
 6903SOL    HW121608   1.287   6.128   5.004
 6903SOL    HW221609   1.421   6.127   4.911
 6904SOL     OW21610   0.340   0.654   5.630
 6904SOL    HW121611   0.363   0.709   5.710
 6904SOL    HW221612   0.250   0.613   5.643
 6905SOL     OW21613   5.033   5.912   5.659
 6905SOL    HW121614   5.017   5.982   5.589
 6905SOL    HW221615   4.955   5.849   5.661
 6906SOL     OW21616   2.424   0.733   3.921
 6906SOL    HW121617   2.428   0.714   3.823
 6906SOL    HW221618   2.440   0.648   3.972
 6907SOL     OW21619   5.818   1.518   0.968
 6907SOL    HW121620   5.720   1.534   0.966
 6907SOL    HW221621   5.865   1.599   1.004
 6908SOL     OW21622   3.784   5.455   0.816
 6908SOL    HW121623   3.711   5.434   0.880
 6908SOL    HW221624   3.773   5.548   0.781
 6909SOL     OW21625   5.389   4.130   2.308
 6909SOL    HW121626   5.339   4.085   2.382
 6909SOL    HW221627   5.428   4.061   2.247
 6910SOL     OW21628   0.999   2.527   2.549
 6910SOL    HW121629   1.003   2.526   2.649
 6910SOL    HW221630   0.908   2.556   2.519
 6911SOL     OW21631   2.755   6.529   5.757
 6911SOL    HW121632   2.797   6.538   5.847
 6911SOL    HW221633   2.696   6.608   5.739
 6912SOL     OW21634   3.180   4.129   6.922
 6912SOL    HW121635   3.230   4.191   6.982
 6912SOL    HW221636   3.175   4.168   6.830
 6913SOL     OW21637   4.530   5.683   5.838
 6913SOL    HW121638   4.454   5.732   5.880
 6913SOL    HW221639   4.494   5.609   5.781
 6914SOL     OW21640   6.483   2.317   2.433
 6914SOL    HW121641   6.565   2.370   2.412
 6914SOL    HW221642   6.407   2.379   2.450
 6915SOL     OW21643   0.186   3.444   3.684
 6915SOL    HW121644   0.266   3.484   3.638
 6915SOL    HW221645   0.166   3.355   3.643
 6916SOL     OW21646   4.664   6.501   5.850
 6916SOL    HW121647   4.636   6.590   5.814
 6916SOL    HW221648   4.733   6.460   5.790
 6917SOL     OW21649   3.534   6.126   1.973
 6917SOL    HW121650   3.489   6.180   2.044
 6917SOL    HW221651   3.524   6.029   1.993
 6918SOL     OW21652   1.780   3.424   0.492
 6918SOL    HW121653   1.717   3.369   0.437
 6918SOL    HW221654   1.741   3.515   0.507
 6919SOL     OW21655   6.285   6.091   3.158
 6919SOL    HW121656   6.346   6.154   3.110
 6919SOL    HW221657   6.312   5.997   3.138
 6920SOL     OW21658   6.686   2.261   5.326
 6920SOL    HW121659   6.713   2.356   5.313
 6920SOL    HW221660   6.683   2.241   5.424
 6921SOL     OW21661   3.958   0.062   4.159
 6921SOL    HW121662   3.895   0.048   4.235
 6921SOL    HW221663   4.021   7.008   4.154
 6922SOL     OW21664   2.849   5.360   6.548
 6922SOL    HW121665   2.819   5.303   6.472
 6922SOL    HW221666   2.795   5.340   6.629
 6923SOL     OW21667   5.111   0.225   2.868
 6923SOL    HW121668   5.040   0.155   2.880
 6923SOL    HW221669   5.109   0.259   2.773
 6924SOL     OW21670   3.329   5.674   1.869
 6924SOL    HW121671   3.379   5.592   1.842
 6924SOL    HW221672   3.275   5.706   1.791
 6925SOL     OW21673   5.845   6.430   4.911
 6925SOL    HW121674   5.891   6.453   4.997
 6925SOL    HW221675   5.816   6.334   4.912
 6926SOL     OW21676   3.143   2.437   0.523
 6926SOL    HW121677   3.229   2.387   0.522
 6926SOL    HW221678   3.093   2.414   0.607
 6927SOL     OW21679   3.537   0.420   6.850
 6927SOL    HW121680   3.552   0.491   6.918
 6927SOL    HW221681   3.498   0.339   6.894
 6928SOL     OW21682   3.407   5.424   0.042
 6928SOL    HW121683   3.423   5.499   7.001
 6928SOL    HW221684   3.311   5.425   0.072
 6929SOL     OW21685   4.677   4.645   2.489
 6929SOL    HW121686   4.699   4.558   2.445
 6929SOL    HW221687   4.760   4.699   2.500
 6930SOL     OW21688   0.985   6.243   1.779
 6930SOL    HW121689   0.978   6.235   1.878
 6930SOL    HW221690   1.021   6.158   1.741
 6931SOL     OW21691   3.127   3.218   1.065
 6931SOL    HW121692   3.218   3.191   1.096
 6931SOL    HW221693   3.059   3.155   1.103
 6932SOL     OW21694   4.242   0.214   6.208
 6932SOL    HW121695   4.252   0.206   6.307
 6932SOL    HW221696   4.328   0.189   6.163
 6933SOL     OW21697   2.601   6.061   6.190
 6933SOL    HW121698   2.664   6.133   6.160
 6933SOL    HW221699   2.507   6.088   6.169
 6934SOL     OW21700   5.220   5.151   0.091
 6934SOL    HW121701   5.203   5.055   0.111
 6934SOL    HW221702   5.299   5.160   0.031
 6935SOL     OW21703   3.897   6.054   1.794
 6935SOL    HW121704   3.914   6.054   1.695
 6935SOL    HW221705   3.836   6.130   1.817
 6936SOL     OW21706   1.036   1.812   6.324
 6936SOL    HW121707   1.111   1.813   6.391
 6936SOL    HW221708   0.992   1.722   6.325
 6937SOL     OW21709   5.878   5.323   0.543
 6937SOL    HW121710   5.785   5.318   0.507
 6937SOL    HW221711   5.938   5.367   0.476
 6938SOL     OW21712   2.917   1.010   4.535
 6938SOL    HW121713   2.843   1.028   4.600
 6938SOL    HW221714   2.919   0.913   4.512
 6939SOL     OW21715   5.824   3.350   3.555
 6939SOL    HW121716   5.770   3.422   3.600
 6939SOL    HW221717   5.788   3.335   3.463
 6940SOL     OW21718   2.415   6.728   1.027
 6940SOL    HW121719   2.417   6.770   0.937
 6940SOL    HW221720   2.361   6.644   1.024
 6941SOL     OW21721   3.892   3.036   2.796
 6941SOL    HW121722   3.844   3.008   2.713
 6941SOL    HW221723   3.863   2.978   2.872
 6942SOL     OW21724   6.197   5.117   2.746
 6942SOL    HW121725   6.126   5.160   2.690
 6942SOL    HW221726   6.286   5.155   2.722
 6943SOL     OW21727   4.600   4.980   6.132
 6943SOL    HW121728   4.675   4.994   6.197
 6943SOL    HW221729   4.552   4.895   6.153
 6944SOL     OW21730   1.042   4.613   5.109
 6944SOL    HW121731   1.083   4.697   5.071
 6944SOL    HW221732   1.057   4.537   5.045
 6945SOL     OW21733   4.833   2.094   0.864
 6945SOL    HW121734   4.806   2.127   0.774
 6945SOL    HW221735   4.771   2.131   0.934
 6946SOL     OW21736   5.408   6.138   2.571
 6946SOL    HW121737   5.502   6.129   2.607
 6946SOL    HW221738   5.388   6.235   2.557
 6947SOL     OW21739   6.456   4.200   5.088
 6947SOL    HW121740   6.449   4.295   5.118
 6947SOL    HW221741   6.495   4.198   4.996
 6948SOL     OW21742   6.920   4.061   6.685
 6948SOL    HW121743   6.957   4.092   6.598
 6948SOL    HW221744   6.822   4.081   6.689
 6949SOL     OW21745   3.030   1.330   2.683
 6949SOL    HW121746   2.977   1.400   2.634
 6949SOL    HW221747   2.994   1.240   2.661
 6950SOL     OW21748   1.558   0.984   3.912
 6950SOL    HW121749   1.637   1.043   3.927
 6950SOL    HW221750   1.499   0.985   3.992
 6951SOL     OW21751   1.260   3.627   6.818
 6951SOL    HW121752   1.221   3.537   6.835
 6951SOL    HW221753   1.212   3.670   6.741
 6952SOL     OW21754   4.661   5.870   3.226
 6952SOL    HW121755   4.732   5.879   3.157
 6952SOL    HW221756   4.616   5.782   3.217
 6953SOL     OW21757   6.647   1.328   1.536
 6953SOL    HW121758   6.682   1.234   1.539
 6953SOL    HW221759   6.666   1.373   1.623
 6954SOL     OW21760   0.107   4.153   6.189
 6954SOL    HW121761   0.112   4.061   6.151
 6954SOL    HW221762   0.127   4.220   6.117
 6955SOL     OW21763   4.806   5.381   2.907
 6955SOL    HW121764   4.825   5.311   2.976
 6955SOL    HW221765   4.844   5.469   2.937
 6956SOL     OW21766   5.210   5.689   1.657
 6956SOL    HW121767   5.214   5.594   1.625
 6956SOL    HW221768   5.120   5.728   1.635
 6957SOL     OW21769   5.944   5.177   5.198
 6957SOL    HW121770   5.978   5.101   5.255
 6957SOL    HW221771   6.022   5.230   5.165
 6958SOL     OW21772   3.499   3.507   2.416
 6958SOL    HW121773   3.538   3.466   2.498
 6958SOL    HW221774   3.521   3.605   2.415
 6959SOL     OW21775   1.768   4.103   2.857
 6959SOL    HW121776   1.686   4.156   2.880
 6959SOL    HW221777   1.846   4.137   2.909
 6960SOL     OW21778   5.076   4.635   1.422
 6960SOL    HW121779   5.073   4.724   1.467
 6960SOL    HW221780   5.165   4.622   1.379
 6961SOL     OW21781   4.843   2.788   5.834
 6961SOL    HW121782   4.858   2.868   5.892
 6961SOL    HW221783   4.768   2.734   5.872
 6962SOL     OW21784   2.695   5.997   0.200
 6962SOL    HW121785   2.793   5.987   0.220
 6962SOL    HW221786   2.673   6.094   0.188
 6963SOL     OW21787   0.469   6.443   6.789
 6963SOL    HW121788   0.555   6.435   6.841
 6963SOL    HW221789   0.462   6.536   6.751
 6964SOL     OW21790   2.179   1.793   4.847
 6964SOL    HW121791   2.086   1.772   4.877
 6964SOL    HW221792   2.189   1.892   4.838
 6965SOL     OW21793   1.821   1.340   0.110
 6965SOL    HW121794   1.791   1.341   0.015
 6965SOL    HW221795   1.849   1.432   0.137
 6966SOL     OW21796   1.096   6.808   1.122
 6966SOL    HW121797   1.159   6.835   1.195
 6966SOL    HW221798   1.026   6.746   1.159
 6967SOL     OW21799   3.647   0.578   0.032
 6967SOL    HW121800   3.628   0.492   0.080
 6967SOL    HW221801   3.604   0.654   0.079
 6968SOL     OW21802   3.297   0.609   3.072
 6968SOL    HW121803   3.251   0.669   3.138
 6968SOL    HW221804   3.280   0.642   2.979
 6969SOL     OW21805   1.711   2.629   1.713
 6969SOL    HW121806   1.647   2.694   1.674
 6969SOL    HW221807   1.768   2.675   1.781
 6970SOL     OW21808   3.090   5.723   5.678
 6970SOL    HW121809   3.083   5.731   5.778
 6970SOL    HW221810   3.184   5.702   5.653
 6971SOL     OW21811   5.819   4.073   6.733
 6971SOL    HW121812   5.733   4.122   6.743
 6971SOL    HW221813   5.809   3.980   6.769
 6972SOL     OW21814   5.682   3.687   1.370
 6972SOL    HW121815   5.624   3.746   1.427
 6972SOL    HW221816   5.730   3.621   1.428
 6973SOL     OW21817   0.770   1.454   2.941
 6973SOL    HW121818   0.712   1.514   2.996
 6973SOL    HW221819   0.830   1.401   3.002
 6974SOL     OW21820   4.163   3.488   3.116
 6974SOL    HW121821   4.261   3.502   3.133
 6974SOL    HW221822   4.113   3.569   3.146
 6975SOL     OW21823   3.274   5.184   4.731
 6975SOL    HW121824   3.222   5.241   4.668
 6975SOL    HW221825   3.366   5.223   4.743
 6976SOL     OW21826   4.303   5.113   6.201
 6976SOL    HW121827   4.390   5.123   6.153
 6976SOL    HW221828   4.268   5.203   6.227
 6977SOL     OW21829   4.896   4.831   2.469
 6977SOL    HW121830   4.937   4.750   2.511
 6977SOL    HW221831   4.941   4.849   2.382
 6978SOL     OW21832   0.712   3.809   0.720
 6978SOL    HW121833   0.683   3.778   0.629
 6978SOL    HW221834   0.634   3.847   0.768
 6979SOL     OW21835   1.317   3.449   2.606
 6979SOL    HW121836   1.298   3.378   2.539
 6979SOL    HW221837   1.410   3.437   2.643
 6980SOL     OW21838   2.513   4.942   2.929
 6980SOL    HW121839   2.573   4.878   2.882
 6980SOL    HW221840   2.502   4.913   3.024
 6981SOL     OW21841   4.506   3.267   6.456
 6981SOL    HW121842   4.560   3.184   6.468
 6981SOL    HW221843   4.481   3.303   6.546
 6982SOL     OW21844   7.019   0.290   1.613
 6982SOL    HW121845   0.047   0.214   1.652
 6982SOL    HW221846   6.950   0.255   1.550
 6983SOL     OW21847   6.454   6.851   4.211
 6983SOL    HW121848   6.530   6.905   4.247
 6983SOL    HW221849   6.435   6.879   4.117
 6984SOL     OW21850   1.491   3.729   3.182
 6984SOL    HW121851   1.529   3.677   3.259
 6984SOL    HW221852   1.466   3.821   3.212
 6985SOL     OW21853   5.096   2.883   0.332
 6985SOL    HW121854   5.000   2.908   0.340
 6985SOL    HW221855   5.149   2.931   0.403
 6986SOL     OW21856   4.187   5.285   5.596
 6986SOL    HW121857   4.273   5.264   5.643
 6986SOL    HW221858   4.170   5.384   5.602
 6987SOL     OW21859   6.903   1.084   6.720
 6987SOL    HW121860   6.871   1.037   6.637
 6987SOL    HW221861   6.839   1.155   6.746
 6988SOL     OW21862   2.449   1.298   6.611
 6988SOL    HW121863   2.377   1.360   6.580
 6988SOL    HW221864   2.504   1.343   6.681
 6989SOL     OW21865   0.416   4.490   2.639
 6989SOL    HW121866   0.371   4.424   2.579
 6989SOL    HW221867   0.482   4.544   2.586
 6990SOL     OW21868   3.628   3.643   6.631
 6990SOL    HW121869   3.624   3.671   6.535
 6990SOL    HW221870   3.659   3.548   6.636
 6991SOL     OW21871   5.793   3.803   3.077
 6991SOL    HW121872   5.799   3.817   2.978
 6991SOL    HW221873   5.759   3.711   3.096
 6992SOL     OW21874   1.666   5.063   7.004
 6992SOL    HW121875   1.744   5.010   6.973
 6992SOL    HW221876   1.612   5.093   6.925
 6993SOL     OW21877   3.848   2.267   1.649
 6993SOL    HW121878   3.774   2.309   1.702
 6993SOL    HW221879   3.932   2.320   1.662
 6994SOL     OW21880   2.860   0.991   3.063
 6994SOL    HW121881   2.936   1.022   3.005
 6994SOL    HW221882   2.872   0.894   3.084
 6995SOL     OW21883   0.389   4.513   0.450
 6995SOL    HW121884   0.435   4.543   0.534
 6995SOL    HW221885   0.399   4.583   0.380
 6996SOL     OW21886   0.783   1.213   6.622
 6996SOL    HW121887   0.822   1.195   6.531
 6996SOL    HW221888   0.817   1.300   6.657
 6997SOL     OW21889   6.294   6.192   6.200
 6997SOL    HW121890   6.216   6.252   6.221
 6997SOL    HW221891   6.355   6.188   6.279
 6998SOL     OW21892   0.646   0.512   0.500
 6998SOL    HW121893   0.728   0.562   0.473
 6998SOL    HW221894   0.667   0.414   0.508
 6999SOL     OW21895   6.776   2.642   6.909
 6999SOL    HW121896   6.710   2.715   6.896
 6999SOL    HW221897   6.843   2.643   6.834
 7000SOL     OW21898   0.454   5.478   3.382
 7000SOL    HW121899   0.506   5.519   3.457
 7000SOL    HW221900   0.446   5.379   3.397
 7001SOL     OW21901   0.106   1.373   3.746
 7001SOL    HW121902   0.202   1.398   3.758
 7001SOL    HW221903   0.051   1.413   3.819
 7002SOL     OW21904   0.854   4.746   2.745
 7002SOL    HW121905   0.861   4.840   2.711
 7002SOL    HW221906   0.887   4.682   2.675
 7003SOL     OW21907   0.532   5.137   7.012
 7003SOL    HW121908   0.567   5.217   6.962
 7003SOL    HW221909   0.442   5.157   0.025
 7004SOL     OW21910   2.088   6.991   6.403
 7004SOL    HW121911   2.035   0.037   6.451
 7004SOL    HW221912   2.172   0.007   6.366
 7005SOL     OW21913   1.715   5.359   0.480
 7005SOL    HW121914   1.729   5.260   0.470
 7005SOL    HW221915   1.801   5.407   0.467
 7006SOL     OW21916   0.440   0.508   3.618
 7006SOL    HW121917   0.533   0.516   3.582
 7006SOL    HW221918   0.443   0.464   3.708
 7007SOL     OW21919   2.175   0.294   6.130
 7007SOL    HW121920   2.187   0.303   6.031
 7007SOL    HW221921   2.265   0.285   6.173
 7008SOL     OW21922   4.915   3.091   3.488
 7008SOL    HW121923   4.990   3.042   3.443
 7008SOL    HW221924   4.937   3.188   3.492
 7009SOL     OW21925   5.074   6.122   2.020
 7009SOL    HW121926   5.123   6.210   2.020
 7009SOL    HW221927   5.084   6.078   2.110
 7010SOL     OW21928   5.229   3.123   2.803
 7010SOL    HW121929   5.195   3.215   2.781
 7010SOL    HW221930   5.161   3.055   2.774
 7011SOL     OW21931   2.634   6.725   6.211
 7011SOL    HW121932   2.644   6.756   6.306
 7011SOL    HW221933   2.537   6.723   6.187
 7012SOL     OW21934   6.985   3.465   0.634
 7012SOL    HW121935   6.911   3.424   0.687
 7012SOL    HW221936   0.022   3.516   0.695
 7013SOL     OW21937   3.601   2.818   6.985
 7013SOL    HW121938   3.549   2.847   0.042
 7013SOL    HW221939   3.538   2.782   6.917
 7014SOL     OW21940   6.023   3.146   0.013
 7014SOL    HW121941   6.029   3.073   0.081
 7014SOL    HW221942   6.107   3.199   0.014
 7015SOL     OW21943   6.403   6.058   1.123
 7015SOL    HW121944   6.458   5.983   1.086
 7015SOL    HW221945   6.423   6.070   1.220
 7016SOL     OW21946   3.038   4.627   1.216
 7016SOL    HW121947   3.007   4.715   1.179
 7016SOL    HW221948   2.972   4.595   1.285
 7017SOL     OW21949   6.228   4.490   6.224
 7017SOL    HW121950   6.322   4.466   6.200
 7017SOL    HW221951   6.209   4.463   6.319
 7018SOL     OW21952   5.562   3.667   5.161
 7018SOL    HW121953   5.490   3.684   5.228
 7018SOL    HW221954   5.634   3.736   5.171
 7019SOL     OW21955   3.796   5.439   2.189
 7019SOL    HW121956   3.844   5.428   2.102
 7019SOL    HW221957   3.706   5.396   2.183
 7020SOL     OW21958   0.934   2.187   6.682
 7020SOL    HW121959   0.995   2.172   6.759
 7020SOL    HW221960   0.909   2.099   6.641
 7021SOL     OW21961   1.151   1.685   4.670
 7021SOL    HW121962   1.225   1.752   4.668
 7021SOL    HW221963   1.087   1.703   4.595
 7022SOL     OW21964   2.179   3.841   0.911
 7022SOL    HW121965   2.082   3.817   0.902
 7022SOL    HW221966   2.234   3.772   0.865
 7023SOL     OW21967   0.282   1.724   0.778
 7023SOL    HW121968   0.243   1.634   0.797
 7023SOL    HW221969   0.342   1.751   0.854
 7024SOL     OW21970   3.315   4.039   5.383
 7024SOL    HW121971   3.262   4.101   5.324
 7024SOL    HW221972   3.315   3.948   5.343
 7025SOL     OW21973   3.193   0.917   1.214
 7025SOL    HW121974   3.147   0.991   1.164
 7025SOL    HW221975   3.165   0.829   1.176
 7026SOL     OW21976   3.016   2.228   1.060
 7026SOL    HW121977   2.937   2.279   1.026
 7026SOL    HW221978   2.993   2.187   1.149
 7027SOL     OW21979   3.313   4.895   1.981
 7027SOL    HW121980   3.411   4.876   1.982
 7027SOL    HW221981   3.266   4.827   1.926
 7028SOL     OW21982   3.568   0.408   3.595
 7028SOL    HW121983   3.539   0.408   3.499
 7028SOL    HW221984   3.543   0.495   3.637
 7029SOL     OW21985   3.411   4.057   3.760
 7029SOL    HW121986   3.438   3.965   3.733
 7029SOL    HW221987   3.488   4.103   3.805
 7030SOL     OW21988   6.242   0.085   5.402
 7030SOL    HW121989   6.311   0.090   5.329
 7030SOL    HW221990   6.246   0.168   5.457
 7031SOL     OW21991   4.717   5.747   0.920
 7031SOL    HW121992   4.716   5.702   0.831
 7031SOL    HW221993   4.699   5.680   0.992
 7032SOL     OW21994   4.374   4.980   4.653
 7032SOL    HW121995   4.408   5.034   4.730
 7032SOL    HW221996   4.348   4.889   4.685
 7033SOL     OW21997   1.724   1.791   5.388
 7033SOL    HW121998   1.626   1.814   5.392
 7033SOL    HW221999   1.777   1.875   5.380
 7034SOL     OW22000   6.573   1.722   2.203
 7034SOL    HW122001   6.542   1.651   2.267
 7034SOL    HW222002   6.602   1.680   2.118
 7035SOL     OW22003   2.960   1.722   1.467
 7035SOL    HW122004   2.892   1.705   1.395
 7035SOL    HW222005   3.050   1.732   1.426
 7036SOL     OW22006   6.072   1.708   1.647
 7036SOL    HW122007   5.983   1.663   1.654
 7036SOL    HW222008   6.072   1.790   1.705
 7037SOL     OW22009   1.725   0.471   6.404
 7037SOL    HW122010   1.752   0.459   6.500
 7037SOL    HW222011   1.806   0.462   6.346
 7038SOL     OW22012   0.773   4.609   0.299
 7038SOL    HW122013   0.843   4.611   0.228
 7038SOL    HW222014   0.730   4.518   0.301
 7039SOL     OW22015   6.668   0.031   1.681
 7039SOL    HW122016   6.764   0.059   1.688
 7039SOL    HW222017   6.623   0.042   1.769
 7040SOL     OW22018   5.578   2.917   5.328
 7040SOL    HW122019   5.534   2.905   5.417
 7040SOL    HW222020   5.548   3.003   5.287
 7041SOL     OW22021   1.021   0.418   3.930
 7041SOL    HW122022   1.037   0.434   4.028
 7041SOL    HW222023   0.965   0.336   3.919
 7042SOL     OW22024   6.154   5.812   5.309
 7042SOL    HW122025   6.064   5.844   5.337
 7042SOL    HW222026   6.157   5.804   5.209
 7043SOL     OW22027   2.090   5.891   0.616
 7043SOL    HW122028   2.071   5.926   0.524
 7043SOL    HW222029   2.003   5.867   0.660
 7044SOL     OW22030   4.488   6.190   5.346
 7044SOL    HW122031   4.494   6.289   5.360
 7044SOL    HW222032   4.542   6.144   5.417
 7045SOL     OW22033   5.826   6.282   1.995
 7045SOL    HW122034   5.807   6.188   2.024
 7045SOL    HW222035   5.849   6.282   1.898
 7046SOL     OW22036   2.391   1.699   3.147
 7046SOL    HW122037   2.415   1.705   3.244
 7046SOL    HW222038   2.473   1.683   3.093
 7047SOL     OW22039   1.245   6.954   0.894
 7047SOL    HW122040   1.174   6.930   0.961
 7047SOL    HW222041   1.333   6.923   0.927
 7048SOL     OW22042   0.746   6.213   3.675
 7048SOL    HW122043   0.726   6.274   3.598
 7048SOL    HW222044   0.661   6.193   3.725
 7049SOL     OW22045   3.386   1.188   4.646
 7049SOL    HW122046   3.290   1.167   4.630
 7049SOL    HW222047   3.393   1.258   4.718
 7050SOL     OW22048   3.983   4.231   0.868
 7050SOL    HW122049   3.917   4.187   0.930
 7050SOL    HW222050   3.933   4.279   0.796
 7051SOL     OW22051   1.602   1.965   1.616
 7051SOL    HW122052   1.668   1.918   1.674
 7051SOL    HW222053   1.520   1.908   1.606
 7052SOL     OW22054   4.947   2.481   2.833
 7052SOL    HW122055   4.904   2.414   2.772
 7052SOL    HW222056   4.921   2.460   2.928
 7053SOL     OW22057   1.361   5.054   3.689
 7053SOL    HW122058   1.420   5.015   3.619
 7053SOL    HW222059   1.346   4.987   3.762
 7054SOL     OW22060   5.389   0.032   7.014
 7054SOL    HW122061   5.375   6.958   6.998
 7054SOL    HW222062   5.397   0.079   6.926
 7055SOL     OW22063   2.390   6.955   0.539
 7055SOL    HW122064   2.466   6.996   0.488
 7055SOL    HW222065   2.304   6.993   0.505
 7056SOL     OW22066   6.692   5.469   0.925
 7056SOL    HW122067   6.593   5.474   0.926
 7056SOL    HW222068   6.724   5.420   1.007
 7057SOL     OW22069   3.585   5.875   4.753
 7057SOL    HW122070   3.588   5.853   4.656
 7057SOL    HW222071   3.656   5.823   4.801
 7058SOL     OW22072   6.489   2.267   6.227
 7058SOL    HW122073   6.496   2.172   6.258
 7058SOL    HW222074   6.393   2.290   6.208
 7059SOL     OW22075   1.851   0.205   5.193
 7059SOL    HW122076   1.765   0.191   5.144
 7059SOL    HW222077   1.915   0.256   5.135
 7060SOL     OW22078   3.201   2.609   1.491
 7060SOL    HW122079   3.278   2.645   1.544
 7060SOL    HW222080   3.117   2.613   1.546
 7061SOL     OW22081   2.094   0.988   1.701
 7061SOL    HW122082   2.140   0.901   1.686
 7061SOL    HW222083   2.134   1.058   1.641
 7062SOL     OW22084   3.442   0.701   4.322
 7062SOL    HW122085   3.434   0.800   4.324
 7062SOL    HW222086   3.538   0.675   4.328
 7063SOL     OW22087   0.126   1.118   1.974
 7063SOL    HW122088   0.217   1.155   1.991
 7063SOL    HW222089   0.058   1.191   1.980
 7064SOL     OW22090   3.003   1.369   5.687
 7064SOL    HW122091   2.972   1.434   5.618
 7064SOL    HW222092   2.935   1.296   5.697
 7065SOL     OW22093   3.540   6.115   4.857
 7065SOL    HW122094   3.549   6.016   4.846
 7065SOL    HW222095   3.626   6.160   4.835
 7066SOL     OW22096   3.052   0.621   1.540
 7066SOL    HW122097   3.007   0.598   1.453
 7066SOL    HW222098   3.132   0.679   1.522
 7067SOL     OW22099   2.293   4.643   6.224
 7067SOL    HW122100   2.373   4.600   6.183
 7067SOL    HW222101   2.322   4.712   6.291
 7068SOL     OW22102   5.042   4.165   4.460
 7068SOL    HW122103   5.028   4.083   4.515
 7068SOL    HW222104   5.124   4.154   4.404
 7069SOL     OW22105   4.717   0.818   5.537
 7069SOL    HW122106   4.814   0.834   5.559
 7069SOL    HW222107   4.708   0.805   5.438
 7070SOL     OW22108   0.455   1.248   6.145
 7070SOL    HW122109   0.516   1.295   6.081
 7070SOL    HW222110   0.469   1.150   6.140
 7071SOL     OW22111   4.526   5.709   6.531
 7071SOL    HW122112   4.445   5.739   6.582
 7071SOL    HW222113   4.527   5.752   6.441
 7072SOL     OW22114   0.771   3.943   6.416
 7072SOL    HW122115   0.693   3.885   6.390
 7072SOL    HW222116   0.815   3.905   6.497
 7073SOL     OW22117   4.633   1.052   3.682
 7073SOL    HW122118   4.732   1.064   3.691
 7073SOL    HW222119   4.592   1.044   3.773
 7074SOL     OW22120   6.023   3.886   1.943
 7074SOL    HW122121   6.073   3.972   1.951
 7074SOL    HW222122   6.060   3.820   2.009
 7075SOL     OW22123   2.375   5.303   2.458
 7075SOL    HW122124   2.409   5.341   2.544
 7075SOL    HW222125   2.360   5.376   2.392
 7076SOL     OW22126   5.778   1.736   1.272
 7076SOL    HW122127   5.766   1.647   1.318
 7076SOL    HW222128   5.865   1.737   1.223
 7077SOL     OW22129   3.616   6.056   1.328
 7077SOL    HW122130   3.566   6.129   1.375
 7077SOL    HW222131   3.669   6.003   1.394
 7078SOL     OW22132   6.871   1.429   6.321
 7078SOL    HW122133   6.857   1.475   6.409
 7078SOL    HW222134   6.837   1.335   6.328
 7079SOL     OW22135   2.039   5.503   4.990
 7079SOL    HW122136   1.991   5.479   5.075
 7079SOL    HW222137   2.014   5.438   4.918
 7080SOL     OW22138   4.253   1.445   6.019
 7080SOL    HW122139   4.216   1.392   5.943
 7080SOL    HW222140   4.306   1.522   5.983
 7081SOL     OW22141   2.217   6.425   0.460
 7081SOL    HW122142   2.178   6.434   0.551
 7081SOL    HW222143   2.224   6.515   0.418
 7082SOL     OW22144   0.807   4.221   2.161
 7082SOL    HW122145   0.712   4.205   2.189
 7082SOL    HW222146   0.809   4.256   2.068
 7083SOL     OW22147   5.298   2.906   2.983
 7083SOL    HW122148   5.275   2.974   2.914
 7083SOL    HW222149   5.250   2.821   2.963
 7084SOL     OW22150   1.252   5.187   0.688
 7084SOL    HW122151   1.277   5.281   0.709
 7084SOL    HW222152   1.330   5.127   0.706
 7085SOL     OW22153   0.213   4.199   2.628
 7085SOL    HW122154   0.139   4.138   2.600
 7085SOL    HW222155   0.238   4.258   2.552
 7086SOL     OW22156   4.783   0.733   3.667
 7086SOL    HW122157   4.683   0.733   3.657
 7086SOL    HW222158   4.820   0.814   3.621
 7087SOL     OW22159   5.382   2.631   3.341
 7087SOL    HW122160   5.468   2.634   3.391
 7087SOL    HW222161   5.352   2.536   3.332
 7088SOL     OW22162   5.988   2.703   5.083
 7088SOL    HW122163   6.000   2.605   5.064
 7088SOL    HW222164   5.891   2.721   5.098
 7089SOL     OW22165   3.249   5.515   1.071
 7089SOL    HW122166   3.234   5.520   1.170
 7089SOL    HW222167   3.162   5.524   1.024
 7090SOL     OW22168   4.713   2.898   0.786
 7090SOL    HW122169   4.792   2.859   0.738
 7090SOL    HW222170   4.665   2.961   0.726
 7091SOL     OW22171   6.216   0.044   6.736
 7091SOL    HW122172   6.143   0.085   6.682
 7091SOL    HW222173   6.275   7.014   6.676
 7092SOL     OW22174   4.433   7.019   6.422
 7092SOL    HW122175   4.360   6.980   6.478
 7092SOL    HW222176   4.471   0.076   6.468
 7093SOL     OW22177   3.598   3.508   0.523
 7093SOL    HW122178   3.593   3.567   0.603
 7093SOL    HW222179   3.562   3.417   0.547
 7094SOL     OW22180   4.580   1.087   4.961
 7094SOL    HW122181   4.628   1.159   5.012
 7094SOL    HW222182   4.501   1.056   5.014
 7095SOL     OW22183   2.841   4.731   4.148
 7095SOL    HW122184   2.835   4.749   4.049
 7095SOL    HW222185   2.773   4.662   4.173
 7096SOL     OW22186   6.239   6.159   0.414
 7096SOL    HW122187   6.144   6.188   0.401
 7096SOL    HW222188   6.254   6.138   0.511
 7097SOL     OW22189   4.925   1.491   2.852
 7097SOL    HW122190   4.909   1.438   2.769
 7097SOL    HW222191   4.931   1.430   2.931
 7098SOL     OW22192   0.471   1.297   2.618
 7098SOL    HW122193   0.439   1.237   2.544
 7098SOL    HW222194   0.499   1.242   2.696
 7099SOL     OW22195   3.543   1.866   4.602
 7099SOL    HW122196   3.487   1.805   4.658
 7099SOL    HW222197   3.597   1.812   4.537
 7100SOL     OW22198   0.236   4.203   1.593
 7100SOL    HW122199   0.201   4.297   1.596
 7100SOL    HW222200   0.333   4.205   1.566
 7101SOL     OW22201   2.962   5.564   4.041
 7101SOL    HW122202   3.025   5.630   4.083
 7101SOL    HW222203   2.922   5.605   3.959
 7102SOL     OW22204   5.240   1.260   2.987
 7102SOL    HW122205   5.151   1.258   3.032
 7102SOL    HW222206   5.288   1.344   3.010
 7103SOL     OW22207   5.622   4.045   3.807
 7103SOL    HW122208   5.664   4.015   3.721
 7103SOL    HW222209   5.685   4.031   3.882
 7104SOL     OW22210   5.013   2.738   4.781
 7104SOL    HW122211   4.989   2.758   4.876
 7104SOL    HW222212   4.986   2.644   4.759
 7105SOL     OW22213   3.402   4.111   2.261
 7105SOL    HW122214   3.341   4.036   2.234
 7105SOL    HW222215   3.364   4.158   2.340
 7106SOL     OW22216   3.052   2.142   2.137
 7106SOL    HW122217   3.003   2.211   2.084
 7106SOL    HW222218   3.027   2.151   2.234
 7107SOL     OW22219   3.905   1.065   6.717
 7107SOL    HW122220   3.976   1.094   6.780
 7107SOL    HW222221   3.856   1.145   6.682
 7108SOL     OW22222   3.666   0.357   1.745
 7108SOL    HW122223   3.694   0.262   1.740
 7108SOL    HW222224   3.566   0.363   1.741
 7109SOL     OW22225   3.273   4.785   5.658
 7109SOL    HW122226   3.356   4.830   5.691
 7109SOL    HW222227   3.194   4.842   5.680
 7110SOL     OW22228   2.493   6.085   5.461
 7110SOL    HW122229   2.436   6.030   5.523
 7110SOL    HW222230   2.587   6.051   5.464
 7111SOL     OW22231   6.523   1.037   4.881
 7111SOL    HW122232   6.445   1.073   4.829
 7111SOL    HW222233   6.605   1.038   4.823
 7112SOL     OW22234   6.966   5.229   5.295
 7112SOL    HW122235   6.986   5.145   5.346
 7112SOL    HW222236   6.891   5.213   5.232
 7113SOL     OW22237   3.150   6.812   5.090
 7113SOL    HW122238   3.241   6.832   5.127
 7113SOL    HW222239   3.122   6.720   5.119
 7114SOL     OW22240   5.541   3.851   0.807
 7114SOL    HW122241   5.468   3.783   0.803
 7114SOL    HW222242   5.628   3.807   0.830
 7115SOL     OW22243   4.743   2.856   6.133
 7115SOL    HW122244   4.765   2.952   6.115
 7115SOL    HW222245   4.647   2.850   6.162
 7116SOL     OW22246   6.351   4.668   4.901
 7116SOL    HW122247   6.314   4.669   4.994
 7116SOL    HW222248   6.315   4.746   4.850
 7117SOL     OW22249   4.671   0.405   2.740
 7117SOL    HW122250   4.735   0.362   2.803
 7117SOL    HW222251   4.676   0.505   2.749
 7118SOL     OW22252   4.434   4.236   5.851
 7118SOL    HW122253   4.485   4.159   5.890
 7118SOL    HW222254   4.496   4.313   5.836
 7119SOL     OW22255   2.817   6.500   4.681
 7119SOL    HW122256   2.905   6.464   4.650
 7119SOL    HW222257   2.752   6.425   4.694
 7120SOL     OW22258   4.128   1.544   1.570
 7120SOL    HW122259   4.152   1.510   1.479
 7120SOL    HW222260   4.079   1.631   1.562
 7121SOL     OW22261   1.424   6.049   2.229
 7121SOL    HW122262   1.349   6.040   2.296
 7121SOL    HW222263   1.484   6.125   2.256
 7122SOL     OW22264   3.841   1.859   6.425
 7122SOL    HW122265   3.931   1.855   6.382
 7122SOL    HW222266   3.828   1.948   6.468
 7123SOL     OW22267   4.881   4.519   6.328
 7123SOL    HW122268   4.808   4.452   6.315
 7123SOL    HW222269   4.876   4.556   6.421
 7124SOL     OW22270   2.835   2.965   0.209
 7124SOL    HW122271   2.789   2.877   0.222
 7124SOL    HW222272   2.780   3.024   0.150
 7125SOL     OW22273   1.050   6.515   1.764
 7125SOL    HW122274   1.045   6.416   1.751
 7125SOL    HW222275   1.145   6.542   1.779
 7126SOL     OW22276   4.256   4.816   1.210
 7126SOL    HW122277   4.293   4.802   1.119
 7126SOL    HW222278   4.322   4.866   1.267
 7127SOL     OW22279   2.753   6.299   6.138
 7127SOL    HW122280   2.744   6.345   6.049
 7127SOL    HW222281   2.840   6.252   6.143
 7128SOL     OW22282   3.547   4.091   0.242
 7128SOL    HW122283   3.521   4.082   0.146
 7128SOL    HW222284   3.641   4.123   0.249
 7129SOL     OW22285   0.170   0.419   6.991
 7129SOL    HW122286   0.174   0.464   0.056
 7129SOL    HW222287   0.113   0.337   6.998
 7130SOL     OW22288   3.619   0.508   4.100
 7130SOL    HW122289   3.606   0.574   4.026
 7130SOL    HW222290   3.647   0.555   4.183
 7131SOL     OW22291   2.441   1.591   2.334
 7131SOL    HW122292   2.378   1.660   2.298
 7131SOL    HW222293   2.414   1.568   2.428
 7132SOL     OW22294   4.971   4.334   1.985
 7132SOL    HW122295   4.903   4.271   1.946
 7132SOL    HW222296   5.050   4.281   2.016
 7133SOL     OW22297   4.605   6.262   2.803
 7133SOL    HW122298   4.505   6.261   2.808
 7133SOL    HW222299   4.641   6.178   2.844
 7134SOL     OW22300   4.774   4.797   0.221
 7134SOL    HW122301   4.755   4.771   0.126
 7134SOL    HW222302   4.873   4.803   0.235
 7135SOL     OW22303   1.963   4.414   1.197
 7135SOL    HW122304   1.970   4.420   1.297
 7135SOL    HW222305   2.002   4.496   1.156
 7136SOL     OW22306   1.139   2.678   1.583
 7136SOL    HW122307   1.202   2.755   1.575
 7136SOL    HW222308   1.144   2.621   1.501
 7137SOL     OW22309   2.699   0.888   2.535
 7137SOL    HW122310   2.779   0.829   2.537
 7137SOL    HW222311   2.616   0.831   2.531
 7138SOL     OW22312   6.855   3.041   6.856
 7138SOL    HW122313   6.870   3.139   6.843
 7138SOL    HW222314   6.757   3.024   6.870
 7139SOL     OW22315   5.619   5.493   1.013
 7139SOL    HW122316   5.581   5.420   1.070
 7139SOL    HW222317   5.718   5.498   1.028
 7140SOL     OW22318   6.983   5.271   0.321
 7140SOL    HW122319   6.913   5.314   0.379
 7140SOL    HW222320   7.016   5.338   0.255
 7141SOL     OW22321   3.685   1.430   0.989
 7141SOL    HW122322   3.590   1.435   0.957
 7141SOL    HW222323   3.736   1.509   0.955
 7142SOL     OW22324   4.685   0.087   5.185
 7142SOL    HW122325   4.600   0.073   5.134
 7142SOL    HW222326   4.763   0.060   5.129
 7143SOL     OW22327   3.143   2.569   6.097
 7143SOL    HW122328   3.237   2.590   6.124
 7143SOL    HW222329   3.080   2.626   6.150
 7144SOL     OW22330   6.541   1.423   5.448
 7144SOL    HW122331   6.538   1.323   5.453
 7144SOL    HW222332   6.493   1.454   5.366
 7145SOL     OW22333   6.560   2.283   5.965
 7145SOL    HW122334   6.493   2.272   6.039
 7145SOL    HW222335   6.532   2.227   5.886
 7146SOL     OW22336   0.301   1.806   4.514
 7146SOL    HW122337   0.322   1.820   4.610
 7146SOL    HW222338   0.250   1.721   4.503
 7147SOL     OW22339   6.877   6.841   1.086
 7147SOL    HW122340   6.970   6.820   1.117
 7147SOL    HW222341   6.867   6.817   0.990
 7148SOL     OW22342   5.524   6.623   0.919
 7148SOL    HW122343   5.505   6.526   0.932
 7148SOL    HW222344   5.577   6.636   0.835
 7149SOL     OW22345   5.463   4.163   6.045
 7149SOL    HW122346   5.507   4.109   5.974
 7149SOL    HW222347   5.532   4.207   6.102
 7150SOL     OW22348   2.856   2.355   0.001
 7150SOL    HW122349   2.787   2.361   0.073
 7150SOL    HW222350   2.823   2.402   6.943
 7151SOL     OW22351   5.395   1.306   0.070
 7151SOL    HW122352   5.320   1.368   0.095
 7151SOL    HW222353   5.372   1.213   0.101
 7152SOL     OW22354   4.758   0.126   5.445
 7152SOL    HW122355   4.723   0.109   5.353
 7152SOL    HW222356   4.752   0.043   5.499
 7153SOL     OW22357   4.040   5.826   0.849
 7153SOL    HW122358   3.956   5.784   0.817
 7153SOL    HW222359   4.117   5.764   0.832
 7154SOL     OW22360   5.257   0.873   1.618
 7154SOL    HW122361   5.232   0.778   1.598
 7154SOL    HW222362   5.343   0.874   1.670
 7155SOL     OW22363   1.653   6.958   1.248
 7155SOL    HW122364   1.729   6.958   1.313
 7155SOL    HW222365   1.566   6.958   1.297
 7156SOL     OW22366   6.422   3.778   5.356
 7156SOL    HW122367   6.354   3.704   5.348
 7156SOL    HW222368   6.410   3.824   5.444
 7157SOL     OW22369   0.302   3.711   5.566
 7157SOL    HW122370   0.390   3.708   5.613
 7157SOL    HW222371   0.266   3.804   5.569
 7158SOL     OW22372   5.437   0.444   3.804
 7158SOL    HW122373   5.487   0.469   3.721
 7158SOL    HW222374   5.494   0.461   3.884
 7159SOL     OW22375   0.706   6.175   3.324
 7159SOL    HW122376   0.704   6.232   3.406
 7159SOL    HW222377   0.781   6.109   3.332
 7160SOL     OW22378   5.839   0.048   2.609
 7160SOL    HW122379   5.909   0.114   2.633
 7160SOL    HW222380   5.748   0.087   2.628
 7161SOL     OW22381   3.930   3.719   2.109
 7161SOL    HW122382   4.000   3.731   2.038
 7161SOL    HW222383   3.849   3.773   2.085
 7162SOL     OW22384   0.159   5.983   0.925
 7162SOL    HW122385   0.072   5.970   0.973
 7162SOL    HW222386   0.153   6.065   0.867
 7163SOL     OW22387   6.808   6.823   0.816
 7163SOL    HW122388   6.738   6.756   0.793
 7163SOL    HW222389   6.882   6.819   0.749
 7164SOL     OW22390   1.713   0.344   0.050
 7164SOL    HW122391   1.805   0.369   0.019
 7164SOL    HW222392   1.706   0.360   0.148
 7165SOL     OW22393   4.982   1.976   6.729
 7165SOL    HW122394   5.040   1.954   6.808
 7165SOL    HW222395   4.895   2.015   6.762
 7166SOL     OW22396   6.655   5.489   5.086
 7166SOL    HW122397   6.727   5.519   5.148
 7166SOL    HW222398   6.694   5.473   4.995
 7167SOL     OW22399   0.488   3.107   5.535
 7167SOL    HW122400   0.466   3.139   5.443
 7167SOL    HW222401   0.403   3.083   5.583
 7168SOL     OW22402   1.344   1.125   2.469
 7168SOL    HW122403   1.255   1.080   2.472
 7168SOL    HW222404   1.340   1.210   2.522
 7169SOL     OW22405   1.683   4.639   5.780
 7169SOL    HW122406   1.779   4.612   5.771
 7169SOL    HW222407   1.624   4.570   5.738
 7170SOL     OW22408   3.933   1.993   1.000
 7170SOL    HW122409   3.834   1.974   1.000
 7170SOL    HW222410   3.963   2.015   1.093
 7171SOL     OW22411   6.819   4.527   0.990
 7171SOL    HW122412   6.765   4.582   0.927
 7171SOL    HW222413   6.767   4.512   1.074
 7172SOL     OW22414   0.623   2.416   3.430
 7172SOL    HW122415   0.720   2.401   3.451
 7172SOL    HW222416   0.604   2.514   3.427
 7173SOL     OW22417   3.611   5.844   5.100
 7173SOL    HW122418   3.695   5.863   5.049
 7173SOL    HW222419   3.630   5.847   5.198
 7174SOL     OW22420   6.549   3.853   2.191
 7174SOL    HW122421   6.516   3.806   2.109
 7174SOL    HW222422   6.633   3.808   2.223
 7175SOL     OW22423   6.805   3.742   5.759
 7175SOL    HW122424   6.776   3.679   5.832
 7175SOL    HW222425   6.856   3.691   5.690
 7176SOL     OW22426   0.399   1.260   6.410
 7176SOL    HW122427   0.433   1.260   6.316
 7176SOL    HW222428   0.367   1.352   6.434
 7177SOL     OW22429   1.456   5.555   3.291
 7177SOL    HW122430   1.548   5.592   3.308
 7177SOL    HW222431   1.418   5.520   3.376
 7178SOL     OW22432   0.958   6.368   5.690
 7178SOL    HW122433   1.043   6.371   5.742
 7178SOL    HW222434   0.975   6.392   5.595
 7179SOL     OW22435   4.356   4.855   5.921
 7179SOL    HW122436   4.346   4.940   5.971
 7179SOL    HW222437   4.276   4.840   5.862
 7180SOL     OW22438   1.208   2.947   1.856
 7180SOL    HW122439   1.299   2.907   1.865
 7180SOL    HW222440   1.217   3.043   1.828
 7181SOL     OW22441   2.854   0.891   0.456
 7181SOL    HW122442   2.757   0.869   0.457
 7181SOL    HW222443   2.867   0.988   0.477
 7182SOL     OW22444   1.835   1.174   3.286
 7182SOL    HW122445   1.865   1.098   3.344
 7182SOL    HW222446   1.901   1.249   3.293
 7183SOL     OW22447   1.325   0.303   1.692
 7183SOL    HW122448   1.234   0.297   1.732
 7183SOL    HW222449   1.390   0.255   1.750
 7184SOL     OW22450   0.043   0.889   3.910
 7184SOL    HW122451   7.009   0.841   3.845
 7184SOL    HW222452   7.017   0.902   3.996
 7185SOL     OW22453   3.899   0.549   3.637
 7185SOL    HW122454   3.916   0.458   3.599
 7185SOL    HW222455   3.873   0.540   3.733
 7186SOL     OW22456   6.497   0.986   6.294
 7186SOL    HW122457   6.468   0.949   6.382
 7186SOL    HW222458   6.563   0.924   6.251
 7187SOL     OW22459   3.496   3.186   4.069
 7187SOL    HW122460   3.460   3.268   4.025
 7187SOL    HW222461   3.591   3.171   4.039
 7188SOL     OW22462   5.012   4.932   0.479
 7188SOL    HW122463   4.922   4.976   0.484
 7188SOL    HW222464   5.018   4.880   0.394
 7189SOL     OW22465   6.821   2.289   5.996
 7189SOL    HW122466   6.722   2.276   5.991
 7189SOL    HW222467   6.857   2.311   5.906
 7190SOL     OW22468   6.153   5.554   6.980
 7190SOL    HW122469   6.237   5.543   6.927
 7190SOL    HW222470   6.139   5.651   6.999
 7191SOL     OW22471   0.035   4.983   2.253
 7191SOL    HW122472   0.071   5.060   2.306
 7191SOL    HW222473   0.000   4.913   2.316
 7192SOL     OW22474   2.820   4.134   5.333
 7192SOL    HW122475   2.793   4.115   5.239
 7192SOL    HW222476   2.875   4.218   5.336
 7193SOL     OW22477   3.617   1.467   3.871
 7193SOL    HW122478   3.702   1.518   3.868
 7193SOL    HW222479   3.548   1.520   3.920
 7194SOL     OW22480   2.583   2.335   5.815
 7194SOL    HW122481   2.624   2.367   5.901
 7194SOL    HW222482   2.569   2.413   5.754
 7195SOL     OW22483   0.873   3.385   5.987
 7195SOL    HW122484   0.950   3.405   6.048
 7195SOL    HW222485   0.897   3.309   5.927
 7196SOL     OW22486   2.898   3.702   1.464
 7196SOL    HW122487   2.923   3.627   1.403
 7196SOL    HW222488   2.967   3.774   1.458
 7197SOL     OW22489   3.448   5.140   0.020
 7197SOL    HW122490   3.399   5.219   0.057
 7197SOL    HW222491   3.381   5.073   7.011
 7198SOL     OW22492   1.150   0.422   2.060
 7198SOL    HW122493   1.243   0.423   2.096
 7198SOL    HW222494   1.152   0.432   1.961
 7199SOL     OW22495   5.775   0.978   3.412
 7199SOL    HW122496   5.853   1.018   3.461
 7199SOL    HW222497   5.777   0.879   3.422
 7200SOL     OW22498   1.024   2.983   6.699
 7200SOL    HW122499   1.023   3.073   6.741
 7200SOL    HW222500   0.940   2.968   6.648
 7201SOL     OW22501   6.173   6.166   3.817
 7201SOL    HW122502   6.091   6.150   3.873
 7201SOL    HW222503   6.182   6.093   3.750
 7202SOL     OW22504   4.935   0.201   6.084
 7202SOL    HW122505   4.912   0.254   6.166
 7202SOL    HW222506   4.880   0.117   6.083
 7203SOL     OW22507   0.451   1.826   0.987
 7203SOL    HW122508   0.474   1.742   1.038
 7203SOL    HW222509   0.530   1.888   0.989
 7204SOL     OW22510   5.876   1.010   2.412
 7204SOL    HW122511   5.880   1.030   2.510
 7204SOL    HW222512   5.934   1.075   2.362
 7205SOL     OW22513   2.961   1.160   4.184
 7205SOL    HW122514   2.916   1.245   4.212
 7205SOL    HW222515   2.957   1.152   4.085
 7206SOL     OW22516   2.228   3.399   6.991
 7206SOL    HW122517   2.325   3.398   6.967
 7206SOL    HW222518   2.216   3.443   0.057
 7207SOL     OW22519   1.828   1.425   2.900
 7207SOL    HW122520   1.829   1.330   2.929
 7207SOL    HW222521   1.772   1.479   2.963
 7208SOL     OW22522   3.756   0.312   3.771
 7208SOL    HW122523   3.793   0.383   3.832
 7208SOL    HW222524   3.682   0.351   3.716
 7209SOL     OW22525   3.630   0.958   2.194
 7209SOL    HW122526   3.728   0.954   2.213
 7209SOL    HW222527   3.600   1.053   2.190
 7210SOL     OW22528   3.589   1.459   4.246
 7210SOL    HW122529   3.558   1.406   4.325
 7210SOL    HW222530   3.685   1.440   4.228
 7211SOL     OW22531   3.875   6.186   5.843
 7211SOL    HW122532   3.823   6.250   5.900
 7211SOL    HW222533   3.842   6.093   5.859
 7212SOL     OW22534   0.841   5.620   5.546
 7212SOL    HW122535   0.787   5.565   5.610
 7212SOL    HW222536   0.911   5.562   5.503
 7213SOL     OW22537   4.514   2.701   0.230
 7213SOL    HW122538   4.484   2.793   0.205
 7213SOL    HW222539   4.538   2.699   0.327
 7214SOL     OW22540   5.954   1.051   6.225
 7214SOL    HW122541   5.917   0.968   6.182
 7214SOL    HW222542   6.042   1.029   6.268
 7215SOL     OW22543   6.765   1.486   2.381
 7215SOL    HW122544   6.669   1.462   2.364
 7215SOL    HW222545   6.774   1.525   2.473
 7216SOL     OW22546   5.304   6.843   3.641
 7216SOL    HW122547   5.299   6.895   3.556
 7216SOL    HW222548   5.231   6.774   3.643
 7217SOL     OW22549   1.160   3.377   3.573
 7217SOL    HW122550   1.138   3.355   3.477
 7217SOL    HW222551   1.214   3.303   3.612
 7218SOL     OW22552   6.478   2.155   5.086
 7218SOL    HW122553   6.574   2.163   5.110
 7218SOL    HW222554   6.426   2.227   5.133
 7219SOL     OW22555   2.556   6.414   2.088
 7219SOL    HW122556   2.592   6.396   2.180
 7219SOL    HW222557   2.633   6.426   2.025
 7220SOL     OW22558   6.599   4.140   3.487
 7220SOL    HW122559   6.639   4.126   3.578
 7220SOL    HW222560   6.656   4.205   3.436
 7221SOL     OW22561   4.246   5.141   3.517
 7221SOL    HW122562   4.258   5.240   3.506
 7221SOL    HW222563   4.159   5.114   3.477
 7222SOL     OW22564   0.324   5.929   4.120
 7222SOL    HW122565   0.344   6.016   4.076
 7222SOL    HW222566   0.322   5.856   4.052
 7223SOL     OW22567   6.977   5.018   1.775
 7223SOL    HW122568   6.945   4.927   1.804
 7223SOL    HW222569   0.003   5.061   1.851
 7224SOL     OW22570   4.593   1.975   2.846
 7224SOL    HW122571   4.497   1.964   2.820
 7224SOL    HW222572   4.633   2.049   2.792
 7225SOL     OW22573   1.078   6.030   0.315
 7225SOL    HW122574   1.094   6.110   0.257
 7225SOL    HW222575   1.131   6.038   0.399
 7226SOL     OW22576   5.645   6.331   0.073
 7226SOL    HW122577   5.637   6.274   7.015
 7226SOL    HW222578   5.727   6.388   0.066
 7227SOL     OW22579   1.856   1.340   2.564
 7227SOL    HW122580   1.917   1.350   2.485
 7227SOL    HW222581   1.881   1.406   2.634
 7228SOL     OW22582   5.875   3.105   2.711
 7228SOL    HW122583   5.923   3.017   2.708
 7228SOL    HW222584   5.823   3.117   2.627
 7229SOL     OW22585   6.025   0.040   4.969
 7229SOL    HW122586   5.996   0.134   4.984
 7229SOL    HW222587   5.953   7.014   4.920
 7230SOL     OW22588   2.282   5.258   4.872
 7230SOL    HW122589   2.231   5.198   4.933
 7230SOL    HW222590   2.368   5.285   4.915
 7231SOL     OW22591   4.006   3.529   6.127
 7231SOL    HW122592   4.077   3.593   6.099
 7231SOL    HW222593   4.039   3.472   6.202
 7232SOL     OW22594   4.453   6.016   3.333
 7232SOL    HW122595   4.521   5.954   3.295
 7232SOL    HW222596   4.470   6.109   3.302
 7233SOL     OW22597   0.452   1.584   6.220
 7233SOL    HW122598   0.521   1.521   6.255
 7233SOL    HW222599   0.442   1.660   6.284
 7234SOL     OW22600   5.694   4.620   3.528
 7234SOL    HW122601   5.636   4.547   3.491
 7234SOL    HW222602   5.790   4.599   3.510
 7235SOL     OW22603   6.467   0.489   1.844
 7235SOL    HW122604   6.506   0.443   1.924
 7235SOL    HW222605   6.449   0.421   1.772
 7236SOL     OW22606   1.211   3.652   2.770
 7236SOL    HW122607   1.234   3.593   2.693
 7236SOL    HW222608   1.221   3.601   2.855
 7237SOL     OW22609   5.329   1.291   0.638
 7237SOL    HW122610   5.254   1.356   0.625
 7237SOL    HW222611   5.409   1.323   0.587
 7238SOL     OW22612   4.101   3.479   0.163
 7238SOL    HW122613   4.108   3.518   0.071
 7238SOL    HW222614   4.042   3.536   0.219
 7239SOL     OW22615   5.741   2.392   2.073
 7239SOL    HW122616   5.651   2.400   2.116
 7239SOL    HW222617   5.731   2.350   1.982
 7240SOL     OW22618   0.003   1.396   0.289
 7240SOL    HW122619   0.053   1.483   0.289
 7240SOL    HW222620   6.960   1.396   0.214
 7241SOL     OW22621   2.095   7.007   2.695
 7241SOL    HW122622   2.023   0.048   2.722
 7241SOL    HW222623   2.066   6.914   2.715
 7242SOL     OW22624   6.775   4.737   5.466
 7242SOL    HW122625   6.795   4.825   5.511
 7242SOL    HW222626   6.860   4.698   5.432
 7243SOL     OW22627   5.160   4.525   6.242
 7243SOL    HW122628   5.060   4.522   6.248
 7243SOL    HW222629   5.191   4.462   6.170
 7244SOL     OW22630   0.217   6.129   6.871
 7244SOL    HW122631   0.257   6.189   6.940
 7244SOL    HW222632   0.281   6.055   6.850
 7245SOL     OW22633   1.275   2.830   6.787
 7245SOL    HW122634   1.280   2.760   6.715
 7245SOL    HW222635   1.298   2.919   6.749
 7246SOL     OW22636   4.028   0.093   3.136
 7246SOL    HW122637   3.960   0.025   3.108
 7246SOL    HW222638   4.048   0.081   3.234
 7247SOL     OW22639   2.871   3.522   4.248
 7247SOL    HW122640   2.949   3.464   4.219
 7247SOL    HW222641   2.889   3.616   4.221
 7248SOL     OW22642   3.179   1.586   5.730
 7248SOL    HW122643   3.141   1.493   5.731
 7248SOL    HW222644   3.268   1.586   5.775
 7249SOL     OW22645   3.723   5.622   2.628
 7249SOL    HW122646   3.749   5.700   2.571
 7249SOL    HW222647   3.634   5.588   2.597
 7250SOL     OW22648   5.698   5.204   5.579
 7250SOL    HW122649   5.633   5.259   5.631
 7250SOL    HW222650   5.652   5.165   5.499
 7251SOL     OW22651   1.122   5.247   4.597
 7251SOL    HW122652   1.029   5.279   4.577
 7251SOL    HW222653   1.122   5.200   4.685
 7252SOL     OW22654   4.109   3.442   2.590
 7252SOL    HW122655   4.080   3.451   2.495
 7252SOL    HW222656   4.103   3.347   2.619
 7253SOL     OW22657   2.417   5.222   4.531
 7253SOL    HW122658   2.402   5.222   4.432
 7253SOL    HW222659   2.376   5.304   4.571
 7254SOL     OW22660   6.186   3.631   3.990
 7254SOL    HW122661   6.170   3.711   3.932
 7254SOL    HW222662   6.099   3.597   4.025
 7255SOL     OW22663   4.724   4.046   0.519
 7255SOL    HW122664   4.686   3.956   0.542
 7255SOL    HW222665   4.785   4.076   0.593
 7256SOL     OW22666   3.397   0.352   4.586
 7256SOL    HW122667   3.376   0.316   4.676
 7256SOL    HW222668   3.341   0.433   4.569
 7257SOL     OW22669   1.054   1.435   4.720
 7257SOL    HW122670   1.083   1.531   4.719
 7257SOL    HW222671   1.068   1.395   4.630
 7258SOL     OW22672   6.132   3.040   2.146
 7258SOL    HW122673   6.201   2.968   2.139
 7258SOL    HW222674   6.143   3.105   2.070
 7259SOL     OW22675   1.363   4.273   2.662
 7259SOL    HW122676   1.265   4.294   2.662
 7259SOL    HW222677   1.409   4.329   2.592
 7260SOL     OW22678   6.005   2.940   0.683
 7260SOL    HW122679   6.074   3.013   0.687
 7260SOL    HW222680   6.040   2.864   0.628
 7261SOL     OW22681   6.668   4.128   6.726
 7261SOL    HW122682   6.661   4.101   6.822
 7261SOL    HW222683   6.611   4.208   6.709
 7262SOL     OW22684   5.170   1.362   5.006
 7262SOL    HW122685   5.089   1.372   4.948
 7262SOL    HW222686   5.230   1.292   4.967
 7263SOL     OW22687   6.864   5.603   5.758
 7263SOL    HW122688   6.956   5.626   5.790
 7263SOL    HW222689   6.807   5.578   5.835
 7264SOL     OW22690   5.370   1.468   1.285
 7264SOL    HW122691   5.318   1.405   1.342
 7264SOL    HW222692   5.468   1.455   1.301
 7265SOL     OW22693   3.682   0.701   5.450
 7265SOL    HW122694   3.647   0.618   5.494
 7265SOL    HW222695   3.780   0.693   5.435
 7266SOL     OW22696   0.258   0.773   3.075
 7266SOL    HW122697   0.162   0.779   3.101
 7266SOL    HW222698   0.294   0.684   3.100
 7267SOL     OW22699   6.781   4.283   4.646
 7267SOL    HW122700   6.856   4.316   4.589
 7267SOL    HW222701   6.730   4.361   4.682
 7268SOL     OW22702   6.199   6.474   4.129
 7268SOL    HW122703   6.241   6.534   4.198
 7268SOL    HW222704   6.113   6.515   4.098
 7269SOL     OW22705   2.531   4.555   4.651
 7269SOL    HW122706   2.502   4.644   4.616
 7269SOL    HW222707   2.605   4.568   4.717
 7270SOL     OW22708   0.783   0.557   4.830
 7270SOL    HW122709   0.830   0.611   4.899
 7270SOL    HW222710   0.685   0.576   4.833
 7271SOL     OW22711   0.530   4.980   3.367
 7271SOL    HW122712   0.474   5.062   3.378
 7271SOL    HW222713   0.472   4.898   3.374
 7272SOL     OW22714   6.570   3.624   1.417
 7272SOL    HW122715   6.617   3.700   1.372
 7272SOL    HW222716   6.545   3.555   1.349
 7273SOL     OW22717   0.812   1.605   5.442
 7273SOL    HW122718   0.727   1.658   5.452
 7273SOL    HW222719   0.807   1.524   5.500
 7274SOL     OW22720   0.350   5.211   5.946
 7274SOL    HW122721   0.416   5.265   5.998
 7274SOL    HW222722   0.271   5.268   5.923
 7275SOL     OW22723   0.997   5.831   3.921
 7275SOL    HW122724   0.998   5.739   3.962
 7275SOL    HW222725   1.015   5.823   3.823
 7276SOL     OW22726   4.810   5.869   3.562
 7276SOL    HW122727   4.875   5.873   3.486
 7276SOL    HW222728   4.753   5.951   3.561
 7277SOL     OW22729   4.819   0.954   0.296
 7277SOL    HW122730   4.892   0.958   0.229
 7277SOL    HW222731   4.730   0.953   0.250
 7278SOL     OW22732   3.393   2.931   2.429
 7278SOL    HW122733   3.336   2.978   2.361
 7278SOL    HW222734   3.352   2.939   2.519
 7279SOL     OW22735   3.490   6.659   6.273
 7279SOL    HW122736   3.502   6.757   6.286
 7279SOL    HW222737   3.392   6.637   6.274
 7280SOL     OW22738   4.773   1.976   5.979
 7280SOL    HW122739   4.751   2.059   5.927
 7280SOL    HW222740   4.702   1.907   5.964
 7281SOL     OW22741   5.278   0.838   6.120
 7281SOL    HW122742   5.328   0.925   6.117
 7281SOL    HW222743   5.343   0.762   6.113
 7282SOL     OW22744   5.331   5.973   2.050
 7282SOL    HW122745   5.258   6.042   2.044
 7282SOL    HW222746   5.290   5.884   2.069
 7283SOL     OW22747   2.203   1.087   4.135
 7283SOL    HW122748   2.171   1.108   4.042
 7283SOL    HW222749   2.142   1.128   4.202
 7284SOL     OW22750   0.865   1.965   5.142
 7284SOL    HW122751   0.794   2.024   5.104
 7284SOL    HW222752   0.945   2.021   5.166
 7285SOL     OW22753   5.772   4.561   1.467
 7285SOL    HW122754   5.806   4.520   1.382
 7285SOL    HW222755   5.751   4.488   1.532
 7286SOL     OW22756   2.237   4.201   0.593
 7286SOL    HW122757   2.309   4.218   0.660
 7286SOL    HW222758   2.241   4.106   0.562
 7287SOL     OW22759   5.899   1.567   5.845
 7287SOL    HW122760   5.855   1.653   5.870
 7287SOL    HW222761   5.833   1.492   5.856
 7288SOL     OW22762   2.939   6.862   0.070
 7288SOL    HW122763   2.850   6.892   0.035
 7288SOL    HW222764   2.942   6.762   0.072
 7289SOL     OW22765   5.353   2.325   4.067
 7289SOL    HW122766   5.317   2.367   4.150
 7289SOL    HW222767   5.369   2.227   4.083
 7290SOL     OW22768   2.568   5.650   4.786
 7290SOL    HW122769   2.575   5.645   4.686
 7290SOL    HW222770   2.484   5.700   4.811
 7291SOL     OW22771   3.460   5.462   1.743
 7291SOL    HW122772   3.416   5.374   1.764
 7291SOL    HW222773   3.536   5.447   1.680
 7292SOL     OW22774   3.236   6.948   4.861
 7292SOL    HW122775   3.200   6.932   4.953
 7292SOL    HW222776   3.299   6.875   4.836
 7293SOL     OW22777   2.077   1.945   6.624
 7293SOL    HW122778   2.068   1.908   6.717
 7293SOL    HW222779   2.007   2.014   6.609
 7294SOL     OW22780   4.442   5.762   0.593
 7294SOL    HW122781   4.467   5.691   0.527
 7294SOL    HW222782   4.477   5.850   0.561
 7295SOL     OW22783   5.592   0.008   1.324
 7295SOL    HW122784   5.538   0.017   1.241
 7295SOL    HW222785   5.532   7.018   1.403
 7296SOL     OW22786   4.154   5.270   1.813
 7296SOL    HW122787   4.085   5.261   1.884
 7296SOL    HW222788   4.212   5.188   1.811
 7297SOL     OW22789   5.422   6.428   2.370
 7297SOL    HW122790   5.329   6.422   2.405
 7297SOL    HW222791   5.481   6.468   2.440
 7298SOL     OW22792   6.501   3.708   4.083
 7298SOL    HW122793   6.408   3.677   4.105
 7298SOL    HW222794   6.558   3.629   4.062
 7299SOL     OW22795   5.343   3.724   6.383
 7299SOL    HW122796   5.425   3.732   6.441
 7299SOL    HW222797   5.288   3.807   6.392
 7300SOL     OW22798   4.923   5.156   1.211
 7300SOL    HW122799   4.871   5.136   1.295
 7300SOL    HW222800   5.020   5.164   1.233
 7301SOL     OW22801   6.564   0.930   5.956
 7301SOL    HW122802   6.536   1.025   5.948
 7301SOL    HW222803   6.529   0.891   6.041
 7302SOL     OW22804   5.623   0.905   6.188
 7302SOL    HW122805   5.569   0.937   6.266
 7302SOL    HW222806   5.581   0.824   6.149
 7303SOL     OW22807   3.454   0.834   0.753
 7303SOL    HW122808   3.531   0.839   0.691
 7303SOL    HW222809   3.466   0.899   0.828
 7304SOL     OW22810   3.670   3.859   5.274
 7304SOL    HW122811   3.608   3.792   5.235
 7304SOL    HW222812   3.761   3.849   5.234
 7305SOL     OW22813   5.705   1.234   0.521
 7305SOL    HW122814   5.671   1.148   0.560
 7305SOL    HW222815   5.701   1.306   0.590
 7306SOL     OW22816   5.188   5.082   1.795
 7306SOL    HW122817   5.211   4.985   1.792
 7306SOL    HW222818   5.089   5.094   1.800
 7307SOL     OW22819   4.052   6.759   2.243
 7307SOL    HW122820   4.018   6.778   2.335
 7307SOL    HW222821   4.025   6.666   2.217
 7308SOL     OW22822   6.116   1.262   4.336
 7308SOL    HW122823   6.152   1.245   4.244
 7308SOL    HW222824   6.126   1.179   4.391
 7309SOL     OW22825   4.305   5.564   2.237
 7309SOL    HW122826   4.223   5.601   2.280
 7309SOL    HW222827   4.384   5.583   2.295
 7310SOL     OW22828   1.980   5.650   1.541
 7310SOL    HW122829   1.968   5.577   1.474
 7310SOL    HW222830   2.077   5.663   1.561
 7311SOL     OW22831   2.753   2.220   2.158
 7311SOL    HW122832   2.800   2.253   2.076
 7311SOL    HW222833   2.807   2.242   2.239
 7312SOL     OW22834   6.829   1.678   5.745
 7312SOL    HW122835   6.814   1.734   5.663
 7312SOL    HW222836   6.757   1.696   5.812
 7313SOL     OW22837   3.845   2.410   6.519
 7313SOL    HW122838   3.795   2.425   6.604
 7313SOL    HW222839   3.827   2.486   6.456
 7314SOL     OW22840   0.754   2.878   4.191
 7314SOL    HW122841   0.696   2.938   4.134
 7314SOL    HW222842   0.790   2.931   4.268
 7315SOL     OW22843   6.898   0.762   5.454
 7315SOL    HW122844   6.952   0.840   5.485
 7315SOL    HW222845   6.855   0.718   5.533
 7316SOL     OW22846   3.564   3.531   5.347
 7316SOL    HW122847   3.525   3.614   5.385
 7316SOL    HW222848   3.646   3.553   5.295
 7317SOL     OW22849   3.289   1.093   3.405
 7317SOL    HW122850   3.325   1.128   3.319
 7317SOL    HW222851   3.327   1.147   3.481
 7318SOL     OW22852   1.358   1.783   1.156
 7318SOL    HW122853   1.292   1.708   1.149
 7318SOL    HW222854   1.409   1.791   1.070
 7319SOL     OW22855   0.170   3.901   6.143
 7319SOL    HW122856   0.156   3.902   6.242
 7319SOL    HW222857   0.151   3.809   6.108
 7320SOL     OW22858   6.766   2.468   2.438
 7320SOL    HW122859   6.761   2.433   2.531
 7320SOL    HW222860   6.861   2.468   2.407
 7321SOL     OW22861   2.777   1.441   4.455
 7321SOL    HW122862   2.874   1.429   4.474
 7321SOL    HW222863   2.734   1.491   4.531
 7322SOL     OW22864   0.422   3.827   1.763
 7322SOL    HW122865   0.339   3.838   1.818
 7322SOL    HW222866   0.485   3.765   1.810
 7323SOL     OW22867   2.136   3.877   3.100
 7323SOL    HW122868   2.144   3.891   3.002
 7323SOL    HW222869   2.051   3.918   3.133
 7324SOL     OW22870   5.281   5.736   2.175
 7324SOL    HW122871   5.319   5.813   2.226
 7324SOL    HW222872   5.237   5.672   2.238
 7325SOL     OW22873   3.028   6.569   0.899
 7325SOL    HW122874   3.077   6.503   0.955
 7325SOL    HW222875   2.979   6.633   0.958
 7326SOL     OW22876   2.609   0.485   4.677
 7326SOL    HW122877   2.662   0.473   4.761
 7326SOL    HW222878   2.519   0.443   4.689
 7327SOL     OW22879   1.681   2.557   5.025
 7327SOL    HW122880   1.689   2.627   4.955
 7327SOL    HW222881   1.584   2.543   5.048
 7328SOL     OW22882   2.677   6.553   6.884
 7328SOL    HW122883   2.674   6.612   6.804
 7328SOL    HW222884   2.651   6.460   6.859
 7329SOL     OW22885   4.409   3.272   1.296
 7329SOL    HW122886   4.505   3.300   1.293
 7329SOL    HW222887   4.357   3.337   1.352
 7330SOL     OW22888   4.329   2.262   0.893
 7330SOL    HW122889   4.279   2.186   0.935
 7330SOL    HW222890   4.410   2.283   0.947
 7331SOL     OW22891   5.086   1.063   1.958
 7331SOL    HW122892   5.064   1.020   1.870
 7331SOL    HW222893   5.005   1.061   2.017
 7332SOL     OW22894   3.389   5.172   1.329
 7332SOL    HW122895   3.299   5.200   1.295
 7332SOL    HW222896   3.402   5.074   1.314
 7333SOL     OW22897   0.378   4.817   2.745
 7333SOL    HW122898   0.471   4.818   2.781
 7333SOL    HW222899   0.332   4.733   2.773
 7334SOL     OW22900   3.897   6.724   4.606
 7334SOL    HW122901   3.867   6.801   4.662
 7334SOL    HW222902   3.909   6.644   4.664
 7335SOL     OW22903   2.363   2.651   2.554
 7335SOL    HW122904   2.441   2.617   2.607
 7335SOL    HW222905   2.302   2.703   2.613
 7336SOL     OW22906   1.846   6.292   4.105
 7336SOL    HW122907   1.792   6.300   4.190
 7336SOL    HW222908   1.936   6.254   4.126
 7337SOL     OW22909   4.983   2.105   2.217
 7337SOL    HW122910   5.009   2.041   2.289
 7337SOL    HW222911   4.932   2.182   2.257
 7338SOL     OW22912   6.664   3.127   0.053
 7338SOL    HW122913   6.654   3.225   0.036
 7338SOL    HW222914   6.744   3.110   0.110
 7339SOL     OW22915   1.388   5.767   4.563
 7339SOL    HW122916   1.339   5.812   4.638
 7339SOL    HW222917   1.338   5.780   4.478
 7340SOL     OW22918   2.599   6.744   6.724
 7340SOL    HW122919   2.515   6.796   6.742
 7340SOL    HW222920   2.595   6.707   6.631
 7341SOL     OW22921   6.779   1.926   0.355
 7341SOL    HW122922   6.738   1.837   0.376
 7341SOL    HW222923   6.878   1.917   0.347
 7342SOL     OW22924   0.248   6.464   2.220
 7342SOL    HW122925   0.338   6.447   2.260
 7342SOL    HW222926   0.197   6.379   2.214
 7343SOL     OW22927   5.551   3.102   0.320
 7343SOL    HW122928   5.499   3.037   0.375
 7343SOL    HW222929   5.548   3.076   0.224
 7344SOL     OW22930   1.987   6.190   6.226
 7344SOL    HW122931   1.919   6.263   6.219
 7344SOL    HW222932   1.949   6.105   6.191
 7345SOL     OW22933   3.124   5.409   6.546
 7345SOL    HW122934   3.030   5.378   6.559
 7345SOL    HW222935   3.125   5.508   6.529
 7346SOL     OW22936   4.264   5.030   2.631
 7346SOL    HW122937   4.193   4.982   2.579
 7346SOL    HW222938   4.339   5.054   2.570
 7347SOL     OW22939   6.386   1.961   0.337
 7347SOL    HW122940   6.312   2.018   0.302
 7347SOL    HW222941   6.389   1.967   0.437
 7348SOL     OW22942   6.215   4.272   0.491
 7348SOL    HW122943   6.180   4.365   0.483
 7348SOL    HW222944   6.298   4.272   0.547
 7349SOL     OW22945   3.786   1.772   1.691
 7349SOL    HW122946   3.779   1.868   1.718
 7349SOL    HW222947   3.841   1.764   1.608
 7350SOL     OW22948   3.896   0.805   3.945
 7350SOL    HW122949   3.965   0.808   4.018
 7350SOL    HW222950   3.876   0.898   3.914
 7351SOL     OW22951   2.536   4.577   3.876
 7351SOL    HW122952   2.460   4.512   3.890
 7351SOL    HW222953   2.511   4.666   3.914
 7352SOL     OW22954   5.933   3.629   4.077
 7352SOL    HW122955   5.917   3.727   4.090
 7352SOL    HW222956   5.883   3.578   4.147
 7353SOL     OW22957   6.674   0.408   5.449
 7353SOL    HW122958   6.690   0.490   5.504
 7353SOL    HW222959   6.761   0.373   5.415
 7354SOL     OW22960   0.627   1.225   2.867
 7354SOL    HW122961   0.656   1.143   2.916
 7354SOL    HW222962   0.703   1.290   2.862
 7355SOL     OW22963   2.891   1.610   0.183
 7355SOL    HW122964   2.819   1.618   0.114
 7355SOL    HW222965   2.927   1.700   0.204
 7356SOL     OW22966   3.996   3.811   5.820
 7356SOL    HW122967   3.938   3.891   5.804
 7356SOL    HW222968   4.092   3.837   5.811
 7357SOL     OW22969   5.163   6.425   1.997
 7357SOL    HW122970   5.207   6.495   2.052
 7357SOL    HW222971   5.067   6.416   2.025
 7358SOL     OW22972   5.433   0.729   3.448
 7358SOL    HW122973   5.480   0.662   3.506
 7358SOL    HW222974   5.339   0.742   3.482
 7359SOL     OW22975   4.518   0.126   1.807
 7359SOL    HW122976   4.516   0.044   1.750
 7359SOL    HW222977   4.431   0.136   1.854
 7360SOL     OW22978   2.912   3.310   4.834
 7360SOL    HW122979   2.974   3.296   4.756
 7360SOL    HW222980   2.818   3.295   4.804
 7361SOL     OW22981   7.009   0.534   2.950
 7361SOL    HW122982   0.033   0.455   2.990
 7361SOL    HW222983   0.044   0.615   2.955
 7362SOL     OW22984   3.425   5.561   0.295
 7362SOL    HW122985   3.409   5.527   0.202
 7362SOL    HW222986   3.451   5.657   0.292
 7363SOL     OW22987   4.418   0.737   0.623
 7363SOL    HW122988   4.322   0.757   0.639
 7363SOL    HW222989   4.472   0.821   0.635
 7364SOL     OW22990   6.002   6.172   1.790
 7364SOL    HW122991   5.975   6.119   1.710
 7364SOL    HW222992   5.985   6.118   1.873
 7365SOL     OW22993   4.979   3.720   2.139
 7365SOL    HW122994   5.077   3.734   2.157
 7365SOL    HW222995   4.926   3.781   2.197
 7366SOL     OW22996   1.953   0.485   3.901
 7366SOL    HW122997   1.872   0.538   3.876
 7366SOL    HW222998   2.034   0.541   3.891
 7367SOL     OW22999   4.009   1.033   0.097
 7367SOL    HW123000   3.922   1.074   0.123
 7367SOL    HW223001   3.994   0.961   0.030
 7368SOL     OW23002   3.492   3.324   3.295
 7368SOL    HW123003   3.496   3.243   3.355
 7368SOL    HW223004   3.482   3.406   3.351
 7369SOL     OW23005   5.244   3.220   0.192
 7369SOL    HW123006   5.198   3.220   0.103
 7369SOL    HW223007   5.250   3.127   0.227
 7370SOL     OW23008   2.051   1.186   4.352
 7370SOL    HW123009   2.046   1.286   4.354
 7370SOL    HW223010   2.135   1.157   4.397
 7371SOL     OW23011   3.974   1.184   3.779
 7371SOL    HW123012   4.046   1.131   3.734
 7371SOL    HW223013   3.979   1.279   3.751
 7372SOL     OW23014   5.589   1.157   5.022
 7372SOL    HW123015   5.587   1.106   5.108
 7372SOL    HW223016   5.671   1.213   5.018
 7373SOL     OW23017   6.229   3.089   4.670
 7373SOL    HW123018   6.316   3.135   4.652
 7373SOL    HW223019   6.174   3.090   4.586
 7374SOL     OW23020   6.997   1.959   6.228
 7374SOL    HW123021   0.012   2.026   6.291
 7374SOL    HW223022   7.018   1.984   6.134
 7375SOL     OW23023   1.459   3.790   1.137
 7375SOL    HW123024   1.402   3.849   1.081
 7375SOL    HW223025   1.554   3.797   1.107
 7376SOL     OW23026   6.934   3.875   1.036
 7376SOL    HW123027   6.922   3.834   1.126
 7376SOL    HW223028   0.008   3.875   1.013
 7377SOL     OW23029   2.574   5.597   1.196
 7377SOL    HW123030   2.612   5.652   1.270
 7377SOL    HW223031   2.535   5.657   1.126
 7378SOL     OW23032   1.989   5.140   4.646
 7378SOL    HW123033   2.048   5.092   4.711
 7378SOL    HW223034   1.993   5.093   4.557
 7379SOL     OW23035   4.232   1.479   2.628
 7379SOL    HW123036   4.149   1.444   2.585
 7379SOL    HW223037   4.251   1.571   2.594
 7380SOL     OW23038   5.266   3.487   1.622
 7380SOL    HW123039   5.365   3.502   1.632
 7380SOL    HW223040   5.231   3.442   1.703
 7381SOL     OW23041   3.636   6.877   1.840
 7381SOL    HW123042   3.700   6.948   1.810
 7381SOL    HW223043   3.613   6.818   1.763
 7382SOL     OW23044   6.531   1.275   5.953
 7382SOL    HW123045   6.617   1.323   5.971
 7382SOL    HW223046   6.487   1.315   5.873
 7383SOL     OW23047   2.196   0.068   0.920
 7383SOL    HW123048   2.126   0.047   0.852
 7383SOL    HW223049   2.192   0.165   0.944
 7384SOL     OW23050   6.565   6.659   0.800
 7384SOL    HW123051   6.485   6.612   0.837
 7384SOL    HW223052   6.551   6.758   0.802
 7385SOL     OW23053   5.994   4.638   2.989
 7385SOL    HW123054   5.987   4.553   2.936
 7385SOL    HW223055   6.009   4.615   3.085
 7386SOL     OW23056   5.227   3.795   6.978
 7386SOL    HW123057   5.234   3.696   6.965
 7386SOL    HW223058   5.132   3.821   6.992
 7387SOL     OW23059   6.334   5.745   4.808
 7387SOL    HW123060   6.341   5.837   4.770
 7387SOL    HW223061   6.382   5.680   4.748
 7388SOL     OW23062   2.249   4.362   2.737
 7388SOL    HW123063   2.319   4.373   2.666
 7388SOL    HW223064   2.160   4.390   2.702
 7389SOL     OW23065   6.318   3.091   0.306
 7389SOL    HW123066   6.329   3.070   0.209
 7389SOL    HW223067   6.228   3.059   0.337
 7390SOL     OW23068   2.309   2.675   3.966
 7390SOL    HW123069   2.366   2.594   3.978
 7390SOL    HW223070   2.319   2.734   4.047
 7391SOL     OW23071   3.433   4.125   2.945
 7391SOL    HW123072   3.510   4.063   2.931
 7391SOL    HW223073   3.448   4.176   3.030
 7392SOL     OW23074   3.352   6.751   6.988
 7392SOL    HW123075   3.421   6.773   0.033
 7392SOL    HW223076   3.312   6.661   7.008
 7393SOL     OW23077   4.888   5.595   3.696
 7393SOL    HW123078   4.879   5.565   3.791
 7393SOL    HW223079   4.825   5.671   3.679
 7394SOL     OW23080   2.098   2.016   5.829
 7394SOL    HW123081   2.172   1.958   5.863
 7394SOL    HW223082   2.074   1.988   5.736
 7395SOL     OW23083   2.948   5.935   1.106
 7395SOL    HW123084   2.947   5.932   1.006
 7395SOL    HW223085   2.958   6.030   1.136
 7396SOL     OW23086   1.817   5.144   2.346
 7396SOL    HW123087   1.809   5.071   2.279
 7396SOL    HW223088   1.769   5.226   2.312
 7397SOL     OW23089   5.967   4.571   3.802
 7397SOL    HW123090   6.060   4.541   3.827
 7397SOL    HW223091   5.958   4.669   3.817
 7398SOL     OW23092   3.270   4.921   2.254
 7398SOL    HW123093   3.173   4.904   2.271
 7398SOL    HW223094   3.287   4.924   2.156
 7399SOL     OW23095   5.176   1.233   5.998
 7399SOL    HW123096   5.141   1.186   5.918
 7399SOL    HW223097   5.209   1.324   5.972
 7400SOL     OW23098   4.776   3.325   5.543
 7400SOL    HW123099   4.716   3.301   5.619
 7400SOL    HW223100   4.824   3.410   5.564
 7401SOL     OW23101   1.270   2.340   3.968
 7401SOL    HW123102   1.260   2.241   3.965
 7401SOL    HW223103   1.250   2.373   4.061
 7402SOL     OW23104   3.655   5.338   4.579
 7402SOL    HW123105   3.643   5.321   4.677
 7402SOL    HW223106   3.566   5.330   4.533
 7403SOL     OW23107   2.056   4.547   4.305
 7403SOL    HW123108   1.974   4.587   4.264
 7403SOL    HW223109   2.058   4.569   4.403
 7404SOL     OW23110   2.949   3.671   0.700
 7404SOL    HW123111   2.888   3.739   0.740
 7404SOL    HW223112   2.912   3.580   0.716
 7405SOL     OW23113   3.834   6.890   5.499
 7405SOL    HW123114   3.867   6.817   5.560
 7405SOL    HW223115   3.751   6.930   5.538
 7406SOL     OW23116   0.932   2.060   4.547
 7406SOL    HW123117   0.959   2.016   4.633
 7406SOL    HW223118   0.872   1.999   4.496
 7407SOL     OW23119   1.192   6.164   5.617
 7407SOL    HW123120   1.185   6.201   5.524
 7407SOL    HW223121   1.167   6.068   5.617
 7408SOL     OW23122   4.546   5.502   5.143
 7408SOL    HW123123   4.466   5.476   5.090
 7408SOL    HW223124   4.527   5.586   5.194
 7409SOL     OW23125   6.863   4.193   1.445
 7409SOL    HW123126   6.837   4.226   1.355
 7409SOL    HW223127   6.944   4.134   1.437
 7410SOL     OW23128   6.784   0.419   0.999
 7410SOL    HW123129   6.806   0.418   0.901
 7410SOL    HW223130   6.823   0.500   1.042
 7411SOL     OW23131   2.784   1.833   4.946
 7411SOL    HW123132   2.783   1.745   4.994
 7411SOL    HW223133   2.694   1.877   4.957
 7412SOL     OW23134   4.022   0.078   0.579
 7412SOL    HW123135   3.996   0.164   0.535
 7412SOL    HW223136   4.003   0.084   0.677
 7413SOL     OW23137   4.927   0.937   3.531
 7413SOL    HW123138   4.908   1.036   3.530
 7413SOL    HW223139   4.958   0.909   3.440
 7414SOL     OW23140   2.605   0.682   3.703
 7414SOL    HW123141   2.703   0.661   3.704
 7414SOL    HW223142   2.589   0.762   3.645
 7415SOL     OW23143   4.113   6.760   6.520
 7415SOL    HW123144   4.206   6.738   6.488
 7415SOL    HW223145   4.066   6.676   6.547
 7416SOL     OW23146   1.824   0.956   2.116
 7416SOL    HW123147   1.731   0.991   2.116
 7416SOL    HW223148   1.821   0.856   2.103
 7417SOL     OW23149   0.741   0.900   2.398
 7417SOL    HW123150   0.710   0.994   2.408
 7417SOL    HW223151   0.730   0.852   2.485
 7418SOL     OW23152   1.371   3.887   6.201
 7418SOL    HW123153   1.410   3.839   6.280
 7418SOL    HW223154   1.444   3.909   6.136
 7419SOL     OW23155   0.306   3.497   4.389
 7419SOL    HW123156   0.406   3.496   4.400
 7419SOL    HW223157   0.265   3.543   4.468
 7420SOL     OW23158   0.022   6.260   0.620
 7420SOL    HW123159   7.012   6.272   0.527
 7420SOL    HW223160   0.065   6.169   0.629
 7421SOL     OW23161   5.769   3.674   0.857
 7421SOL    HW123162   5.793   3.663   0.953
 7421SOL    HW223163   5.805   3.760   0.823
 7422SOL     OW23164   5.603   2.880   1.948
 7422SOL    HW123165   5.593   2.896   2.046
 7422SOL    HW223166   5.514   2.858   1.908
 7423SOL     OW23167   4.907   2.379   6.156
 7423SOL    HW123168   4.892   2.390   6.254
 7423SOL    HW223169   4.936   2.466   6.116
 7424SOL     OW23170   0.379   2.442   3.119
 7424SOL    HW123171   0.388   2.541   3.111
 7424SOL    HW223172   0.459   2.405   3.165
 7425SOL     OW23173   5.702   1.001   0.730
 7425SOL    HW123174   5.659   0.958   0.809
 7425SOL    HW223175   5.786   1.048   0.759
 7426SOL     OW23176   2.790   2.635   5.866
 7426SOL    HW123177   2.792   2.697   5.945
 7426SOL    HW223178   2.881   2.632   5.824
 7427SOL     OW23179   2.861   0.472   3.433
 7427SOL    HW123180   2.932   0.434   3.373
 7427SOL    HW223181   2.896   0.553   3.479
 7428SOL     OW23182   3.413   6.857   5.231
 7428SOL    HW123183   3.386   6.795   5.305
 7428SOL    HW223184   3.505   6.891   5.248
 7429SOL     OW23185   0.806   6.825   2.273
 7429SOL    HW123186   0.819   6.869   2.361
 7429SOL    HW223187   0.884   6.764   2.255
 7430SOL     OW23188   6.595   4.661   2.905
 7430SOL    HW123189   6.502   4.628   2.890
 7430SOL    HW223190   6.658   4.613   2.844
 7431SOL     OW23191   0.689   1.776   3.514
 7431SOL    HW123192   0.624   1.815   3.579
 7431SOL    HW223193   0.685   1.676   3.518
 7432SOL     OW23194   1.765   1.189   2.981
 7432SOL    HW123195   1.751   1.199   3.079
 7432SOL    HW223196   1.824   1.110   2.963
 7433SOL     OW23197   2.916   6.603   6.961
 7433SOL    HW123198   2.957   6.607   6.870
 7433SOL    HW223199   2.817   6.594   6.952
 7434SOL     OW23200   4.452   6.893   3.580
 7434SOL    HW123201   4.476   6.989   3.573
 7434SOL    HW223202   4.352   6.882   3.581
 7435SOL     OW23203   4.666   4.377   3.461
 7435SOL    HW123204   4.717   4.349   3.542
 7435SOL    HW223205   4.691   4.318   3.384
 7436SOL     OW23206   5.647   3.084   5.951
 7436SOL    HW123207   5.654   3.049   5.857
 7436SOL    HW223208   5.731   3.134   5.974
 7437SOL     OW23209   3.113   0.276   1.136
 7437SOL    HW123210   3.071   0.283   1.226
 7437SOL    HW223211   3.047   0.238   1.071
 7438SOL     OW23212   2.274   0.116   6.879
 7438SOL    HW123213   2.242   0.155   6.793
 7438SOL    HW223214   2.317   0.187   6.934
 7439SOL     OW23215   0.717   4.752   6.104
 7439SOL    HW123216   0.789   4.769   6.036
 7439SOL    HW223217   0.628   4.778   6.066
 7440SOL     OW23218   5.559   4.123   4.112
 7440SOL    HW123219   5.647   4.166   4.090
 7440SOL    HW223220   5.572   4.057   4.186
 7441SOL     OW23221   4.983   5.904   1.041
 7441SOL    HW123222   4.973   6.003   1.033
 7441SOL    HW223223   4.975   5.862   0.951
 7442SOL     OW23224   5.113   0.811   6.342
 7442SOL    HW123225   5.017   0.823   6.317
 7442SOL    HW223226   5.171   0.829   6.262
 7443SOL     OW23227   0.323   0.302   1.074
 7443SOL    HW123228   0.358   0.281   0.982
 7443SOL    HW223229   0.272   0.223   1.109
 7444SOL     OW23230   1.721   6.293   0.390
 7444SOL    HW123231   1.682   6.382   0.415
 7444SOL    HW223232   1.818   6.304   0.371
 7445SOL     OW23233   3.922   6.017   2.058
 7445SOL    HW123234   3.921   6.074   1.976
 7445SOL    HW223235   3.857   6.053   2.125
 7446SOL     OW23236   5.787   4.553   6.574
 7446SOL    HW123237   5.736   4.555   6.488
 7446SOL    HW223238   5.830   4.464   6.586
 7447SOL     OW23239   0.635   5.026   0.735
 7447SOL    HW123240   0.686   4.994   0.655
 7447SOL    HW223241   0.634   4.954   0.805
 7448SOL     OW23242   4.668   5.292   6.726
 7448SOL    HW123243   4.766   5.288   6.705
 7448SOL    HW223244   4.653   5.352   6.804
 7449SOL     OW23245   6.442   4.282   5.835
 7449SOL    HW123246   6.517   4.347   5.849
 7449SOL    HW223247   6.477   4.189   5.832
 7450SOL     OW23248   5.701   2.066   6.509
 7450SOL    HW123249   5.666   2.009   6.583
 7450SOL    HW223250   5.693   2.016   6.422
 7451SOL     OW23251   4.617   4.517   3.165
 7451SOL    HW123252   4.573   4.470   3.088
 7451SOL    HW223253   4.547   4.545   3.231
 7452SOL     OW23254   6.349   5.321   5.873
 7452SOL    HW123255   6.348   5.222   5.883
 7452SOL    HW223256   6.276   5.349   5.810
 7453SOL     OW23257   3.762   5.810   6.086
 7453SOL    HW123258   3.724   5.736   6.141
 7453SOL    HW223259   3.843   5.847   6.133
 7454SOL     OW23260   3.453   2.730   1.356
 7454SOL    HW123261   3.484   2.743   1.450
 7454SOL    HW223262   3.461   2.634   1.331
 7455SOL     OW23263   6.777   1.065   3.191
 7455SOL    HW123264   6.743   1.029   3.104
 7455SOL    HW223265   6.873   1.092   3.180
 7456SOL     OW23266   2.856   2.208   5.998
 7456SOL    HW123267   2.946   2.244   6.020
 7456SOL    HW223268   2.854   2.179   5.902
 7457SOL     OW23269   1.228   1.410   2.542
 7457SOL    HW123270   1.283   1.471   2.599
 7457SOL    HW223271   1.132   1.437   2.547
 7458SOL     OW23272   1.525   5.649   5.129
 7458SOL    HW123273   1.491   5.668   5.222
 7458SOL    HW223274   1.591   5.574   5.133
 7459SOL     OW23275   5.462   0.120   3.209
 7459SOL    HW123276   5.487   0.209   3.247
 7459SOL    HW223277   5.427   0.131   3.116
 7460SOL     OW23278   1.297   0.266   1.398
 7460SOL    HW123279   1.396   0.270   1.392
 7460SOL    HW223280   1.268   0.289   1.491
 7461SOL     OW23281   1.745   4.447   4.964
 7461SOL    HW123282   1.817   4.393   4.921
 7461SOL    HW223283   1.737   4.421   5.060
 7462SOL     OW23284   1.631   4.210   0.582
 7462SOL    HW123285   1.683   4.153   0.519
 7462SOL    HW223286   1.657   4.306   0.569
 7463SOL     OW23287   4.721   5.059   1.605
 7463SOL    HW123288   4.638   5.025   1.649
 7463SOL    HW223289   4.697   5.135   1.544
 7464SOL     OW23290   6.465   6.056   5.272
 7464SOL    HW123291   6.388   6.019   5.219
 7464SOL    HW223292   6.533   6.093   5.209
 7465SOL     OW23293   1.393   4.431   6.973
 7465SOL    HW123294   1.312   4.438   0.008
 7465SOL    HW223295   1.379   4.357   6.907
 7466SOL     OW23296   0.087   0.530   5.046
 7466SOL    HW123297   0.004   0.477   5.063
 7466SOL    HW223298   0.123   0.562   5.134
 7467SOL     OW23299   0.938   3.607   4.794
 7467SOL    HW123300   0.993   3.690   4.809
 7467SOL    HW223301   0.993   3.526   4.814
 7468SOL     OW23302   5.733   2.799   5.965
 7468SOL    HW123303   5.675   2.857   6.022
 7468SOL    HW223304   5.729   2.830   5.870
 7469SOL     OW23305   0.487   1.889   0.495
 7469SOL    HW123306   0.480   1.986   0.518
 7469SOL    HW223307   0.548   1.878   0.417
 7470SOL     OW23308   5.281   2.847   3.934
 7470SOL    HW123309   5.241   2.764   3.973
 7470SOL    HW223310   5.343   2.889   4.001
 7471SOL     OW23311   3.764   0.002   6.724
 7471SOL    HW123312   3.798   0.090   6.692
 7471SOL    HW223313   3.770   7.022   6.824
 7472SOL     OW23314   7.019   0.193   5.837
 7472SOL    HW123315   6.999   0.263   5.906
 7472SOL    HW223316   0.044   0.117   5.880
 7473SOL     OW23317   3.888   5.747   3.529
 7473SOL    HW123318   3.962   5.713   3.472
 7473SOL    HW223319   3.805   5.756   3.474
 7474SOL     OW23320   5.891   2.130   0.777
 7474SOL    HW123321   5.808   2.116   0.832
 7474SOL    HW223322   5.911   2.046   0.727
 7475SOL     OW23323   4.918   2.751   0.692
 7475SOL    HW123324   5.009   2.792   0.684
 7475SOL    HW223325   4.923   2.669   0.749
 7476SOL     OW23326   2.652   1.059   2.898
 7476SOL    HW123327   2.666   1.148   2.853
 7476SOL    HW223328   2.737   1.031   2.943
 7477SOL     OW23329   2.109   3.458   6.156
 7477SOL    HW123330   2.068   3.548   6.165
 7477SOL    HW223331   2.197   3.466   6.108
 7478SOL     OW23332   0.164   1.562   5.495
 7478SOL    HW123333   0.113   1.596   5.416
 7478SOL    HW223334   0.102   1.510   5.555
 7479SOL     OW23335   5.066   2.580   1.474
 7479SOL    HW123336   4.998   2.512   1.503
 7479SOL    HW223337   5.103   2.625   1.555
 7480SOL     OW23338   4.090   6.020   2.764
 7480SOL    HW123339   4.079   6.104   2.712
 7480SOL    HW223340   3.999   5.987   2.793
 7481SOL     OW23341   0.114   3.695   6.594
 7481SOL    HW123342   0.132   3.745   6.509
 7481SOL    HW223343   0.200   3.675   6.639
 7482SOL     OW23344   5.692   2.420   4.035
 7482SOL    HW123345   5.599   2.424   4.072
 7482SOL    HW223346   5.743   2.349   4.083
 7483SOL     OW23347   4.502   1.777   6.429
 7483SOL    HW123348   4.454   1.864   6.423
 7483SOL    HW223349   4.455   1.709   6.372
 7484SOL     OW23350   3.198   0.223   3.813
 7484SOL    HW123351   3.288   0.211   3.772
 7484SOL    HW223352   3.193   0.173   3.899
 7485SOL     OW23353   3.905   0.210   6.627
 7485SOL    HW123354   3.963   0.267   6.686
 7485SOL    HW223355   3.876   0.263   6.548
 7486SOL     OW23356   4.233   0.272   0.710
 7486SOL    HW123357   4.191   0.312   0.630
 7486SOL    HW223358   4.171   0.204   0.750
 7487SOL     OW23359   3.502   6.556   3.917
 7487SOL    HW123360   3.409   6.527   3.891
 7487SOL    HW223361   3.549   6.593   3.837
 7488SOL     OW23362   1.259   5.541   4.193
 7488SOL    HW123363   1.341   5.596   4.210
 7488SOL    HW223364   1.274   5.447   4.223
 7489SOL     OW23365   5.846   2.952   6.950
 7489SOL    HW123366   5.927   3.007   6.970
 7489SOL    HW223367   5.777   2.966   7.020
 7490SOL     OW23368   1.169   2.983   2.130
 7490SOL    HW123369   1.216   3.004   2.044
 7490SOL    HW223370   1.226   2.923   2.185
 7491SOL     OW23371   4.258   3.753   0.126
 7491SOL    HW123372   4.162   3.768   0.151
 7491SOL    HW223373   4.316   3.773   0.205
 7492SOL     OW23374   1.678   0.367   3.990
 7492SOL    HW123375   1.746   0.302   4.027
 7492SOL    HW223376   1.661   0.438   4.058
 7493SOL     OW23377   6.062   4.781   4.978
 7493SOL    HW123378   6.018   4.695   4.953
 7493SOL    HW223379   6.140   4.763   5.037
 7494SOL     OW23380   6.374   1.302   2.708
 7494SOL    HW123381   6.300   1.322   2.645
 7494SOL    HW223382   6.337   1.261   2.791
 7495SOL     OW23383   1.741   3.062   5.027
 7495SOL    HW123384   1.836   3.040   5.047
 7495SOL    HW223385   1.681   3.016   5.092
 7496SOL     OW23386   6.275   4.064   2.647
 7496SOL    HW123387   6.355   4.065   2.587
 7496SOL    HW223388   6.265   3.973   2.688
 7497SOL     OW23389   6.339   6.765   1.436
 7497SOL    HW123390   6.401   6.837   1.404
 7497SOL    HW223391   6.392   6.688   1.472
 7498SOL     OW23392   3.239   6.403   3.534
 7498SOL    HW123393   3.202   6.401   3.441
 7498SOL    HW223394   3.196   6.477   3.586
 7499SOL     OW23395   3.043   1.341   3.369
 7499SOL    HW123396   3.063   1.289   3.286
 7499SOL    HW223397   3.102   1.310   3.443
 7500SOL     OW23398   4.086   0.770   3.560
 7500SOL    HW123399   4.007   0.817   3.600
 7500SOL    HW223400   4.076   0.671   3.571
 7501SOL     OW23401   6.702   2.081   4.670
 7501SOL    HW123402   6.675   2.173   4.642
 7501SOL    HW223403   6.801   2.072   4.664
 7502SOL     OW23404   4.290   0.842   3.735
 7502SOL    HW123405   4.222   0.773   3.710
 7502SOL    HW223406   4.262   0.931   3.699
 7503SOL     OW23407   1.848   5.617   2.095
 7503SOL    HW123408   1.895   5.631   2.008
 7503SOL    HW223409   1.881   5.683   2.162
 7504SOL     OW23410   5.605   6.411   4.242
 7504SOL    HW123411   5.512   6.420   4.279
 7504SOL    HW223412   5.623   6.316   4.220
 7505SOL     OW23413   0.317   6.212   5.021
 7505SOL    HW123414   0.220   6.190   5.027
 7505SOL    HW223415   0.365   6.175   5.101
 7506SOL     OW23416   2.907   1.994   3.716
 7506SOL    HW123417   2.955   1.920   3.765
 7506SOL    HW223418   2.966   2.074   3.710
 7507SOL     OW23419   6.468   4.356   6.711
 7507SOL    HW123420   6.454   4.366   6.810
 7507SOL    HW223421   6.520   4.434   6.676
 7508SOL     OW23422   3.009   6.291   0.721
 7508SOL    HW123423   2.938   6.306   0.791
 7508SOL    HW223424   3.056   6.378   0.703
 7509SOL     OW23425   5.960   4.157   2.369
 7509SOL    HW123426   5.888   4.098   2.332
 7509SOL    HW223427   5.973   4.236   2.309
 7510SOL     OW23428   3.506   4.144   1.977
 7510SOL    HW123429   3.461   4.193   2.052
 7510SOL    HW223430   3.507   4.201   1.895
 7511SOL     OW23431   4.350   6.057   4.076
 7511SOL    HW123432   4.361   5.958   4.070
 7511SOL    HW223433   4.258   6.078   4.110
 7512SOL     OW23434   3.858   0.832   0.978
 7512SOL    HW123435   3.912   0.913   1.001
 7512SOL    HW223436   3.783   0.823   1.043
 7513SOL     OW23437   1.137   1.246   1.893
 7513SOL    HW123438   1.198   1.210   1.822
 7513SOL    HW223439   1.181   1.321   1.941
 7514SOL     OW23440   0.260   6.725   1.406
 7514SOL    HW123441   0.309   6.809   1.429
 7514SOL    HW223442   0.276   6.656   1.478
 7515SOL     OW23443   0.194   4.310   5.249
 7515SOL    HW123444   0.217   4.293   5.345
 7515SOL    HW223445   0.147   4.231   5.211
 7516SOL     OW23446   1.605   6.511   5.553
 7516SOL    HW123447   1.650   6.426   5.578
 7516SOL    HW223448   1.598   6.570   5.634
 7517SOL     OW23449   0.882   1.510   6.127
 7517SOL    HW123450   0.836   1.599   6.123
 7517SOL    HW223451   0.822   1.441   6.088
 7518SOL     OW23452   4.410   1.726   4.156
 7518SOL    HW123453   4.478   1.776   4.209
 7518SOL    HW223454   4.364   1.660   4.215
 7519SOL     OW23455   4.039   0.238   4.462
 7519SOL    HW123456   4.063   0.180   4.540
 7519SOL    HW223457   4.050   0.334   4.488
 7520SOL     OW23458   1.948   1.490   0.457
 7520SOL    HW123459   1.948   1.391   0.447
 7520SOL    HW223460   1.893   1.516   0.536
 7521SOL     OW23461   4.144   1.467   4.574
 7521SOL    HW123462   4.055   1.509   4.592
 7521SOL    HW223463   4.206   1.535   4.534
 7522SOL     OW23464   1.922   0.220   3.819
 7522SOL    HW123465   1.917   0.305   3.872
 7522SOL    HW223466   2.003   0.169   3.848
 7523SOL     OW23467   5.966   0.765   0.659
 7523SOL    HW123468   5.996   0.816   0.739
 7523SOL    HW223469   5.924   0.827   0.593
 7524SOL     OW23470   0.614   3.834   4.559
 7524SOL    HW123471   0.568   3.898   4.498
 7524SOL    HW223472   0.552   3.758   4.581
 7525SOL     OW23473   3.320   4.657   6.294
 7525SOL    HW123474   3.238   4.672   6.350
 7525SOL    HW223475   3.399   4.697   6.340
 7526SOL     OW23476   2.380   4.042   0.943
 7526SOL    HW123477   2.291   3.999   0.928
 7526SOL    HW223478   2.417   4.072   0.855
 7527SOL     OW23479   2.924   5.114   2.884
 7527SOL    HW123480   2.944   5.022   2.918
 7527SOL    HW223481   3.009   5.157   2.852
 7528SOL     OW23482   6.558   2.046   5.812
 7528SOL    HW123483   6.560   1.985   5.892
 7528SOL    HW223484   6.511   2.000   5.737
 7529SOL     OW23485   6.494   3.377   3.990
 7529SOL    HW123486   6.453   3.414   4.073
 7529SOL    HW223487   6.442   3.296   3.961
 7530SOL     OW23488   1.194   3.080   3.131
 7530SOL    HW123489   1.217   3.087   3.034
 7530SOL    HW223490   1.147   2.994   3.148
 7531SOL     OW23491   3.922   2.124   3.899
 7531SOL    HW123492   3.975   2.200   3.860
 7531SOL    HW223493   3.835   2.116   3.851
 7532SOL     OW23494   4.502   5.851   6.261
 7532SOL    HW123495   4.551   5.893   6.185
 7532SOL    HW223496   4.426   5.910   6.289
 7533SOL     OW23497   4.168   4.290   1.674
 7533SOL    HW123498   4.195   4.383   1.648
 7533SOL    HW223499   4.243   4.246   1.723
 7534SOL     OW23500   4.789   6.151   5.120
 7534SOL    HW123501   4.789   6.244   5.086
 7534SOL    HW223502   4.787   6.087   5.044
 7535SOL     OW23503   0.459   6.347   3.800
 7535SOL    HW123504   0.528   6.414   3.827
 7535SOL    HW223505   0.376   6.395   3.772
 7536SOL     OW23506   6.249   6.040   3.564
 7536SOL    HW123507   6.225   6.123   3.514
 7536SOL    HW223508   6.167   5.987   3.583
 7537SOL     OW23509   1.768   6.627   2.890
 7537SOL    HW123510   1.829   6.556   2.854
 7537SOL    HW223511   1.784   6.713   2.842
 7538SOL     OW23512   0.573   4.775   0.330
 7538SOL    HW123513   0.653   4.715   0.329
 7538SOL    HW223514   0.501   4.737   0.272
 7539SOL     OW23515   6.733   7.008   4.444
 7539SOL    HW123516   6.641   0.023   4.446
 7539SOL    HW223517   6.753   6.974   4.352
 7540SOL     OW23518   5.378   4.644   3.042
 7540SOL    HW123519   5.420   4.590   3.114
 7540SOL    HW223520   5.366   4.588   2.960
 7541SOL     OW23521   2.769   4.239   5.873
 7541SOL    HW123522   2.690   4.230   5.934
 7541SOL    HW223523   2.737   4.254   5.779
 7542SOL     OW23524   5.970   5.529   4.987
 7542SOL    HW123525   5.961   5.502   5.083
 7542SOL    HW223526   6.031   5.465   4.941
 7543SOL     OW23527   2.352   1.471   0.316
 7543SOL    HW123528   2.416   1.455   0.242
 7543SOL    HW223529   2.391   1.538   0.380
 7544SOL     OW23530   6.576   1.173   4.601
 7544SOL    HW123531   6.552   1.197   4.507
 7544SOL    HW223532   6.663   1.217   4.625
 7545SOL     OW23533   1.941   5.503   5.839
 7545SOL    HW123534   1.897   5.584   5.876
 7545SOL    HW223535   1.989   5.527   5.754
 7546SOL     OW23536   2.389   2.523   1.849
 7546SOL    HW123537   2.294   2.513   1.820
 7546SOL    HW223538   2.444   2.559   1.774
 7547SOL     OW23539   3.988   0.258   1.865
 7547SOL    HW123540   3.904   0.289   1.909
 7547SOL    HW223541   4.034   0.336   1.822
 7548SOL     OW23542   2.779   2.686   6.242
 7548SOL    HW123543   2.834   2.710   6.322
 7548SOL    HW223544   2.801   2.746   6.166
 7549SOL     OW23545   5.428   0.272   4.571
 7549SOL    HW123546   5.394   0.357   4.533
 7549SOL    HW223547   5.523   0.284   4.601
 7550SOL     OW23548   2.459   5.550   4.485
 7550SOL    HW123549   2.376   5.533   4.539
 7550SOL    HW223550   2.466   5.647   4.464
 7551SOL     OW23551   6.228   2.395   6.338
 7551SOL    HW123552   6.134   2.425   6.321
 7551SOL    HW223553   6.291   2.452   6.285
 7552SOL     OW23554   2.476   6.649   4.609
 7552SOL    HW123555   2.424   6.666   4.525
 7552SOL    HW223556   2.439   6.568   4.654
 7553SOL     OW23557   6.314   6.284   5.936
 7553SOL    HW123558   6.323   6.231   6.020
 7553SOL    HW223559   6.369   6.367   5.943
 7554SOL     OW23560   4.779   1.567   0.566
 7554SOL    HW123561   4.723   1.628   0.620
 7554SOL    HW223562   4.735   1.478   0.558
 7555SOL     OW23563   4.452   4.948   4.197
 7555SOL    HW123564   4.378   4.976   4.136
 7555SOL    HW223565   4.417   4.886   4.266
 7556SOL     OW23566   1.232   6.115   1.427
 7556SOL    HW123567   1.214   6.064   1.511
 7556SOL    HW223568   1.150   6.168   1.402
 7557SOL     OW23569   4.453   0.035   1.332
 7557SOL    HW123570   4.489   0.070   1.246
 7557SOL    HW223571   4.528   0.020   1.396
 7558SOL     OW23572   0.592   1.860   3.230
 7558SOL    HW123573   0.602   1.766   3.196
 7558SOL    HW223574   0.622   1.865   3.325
 7559SOL     OW23575   2.705   1.543   4.718
 7559SOL    HW123576   2.763   1.495   4.784
 7559SOL    HW223577   2.641   1.602   4.767
 7560SOL     OW23578   1.297   1.336   6.032
 7560SOL    HW123579   1.316   1.283   5.949
 7560SOL    HW223580   1.277   1.431   6.007
 7561SOL     OW23581   5.346   1.350   5.367
 7561SOL    HW123582   5.387   1.270   5.322
 7561SOL    HW223583   5.368   1.432   5.315
 7562SOL     OW23584   2.112   5.807   3.257
 7562SOL    HW123585   2.207   5.838   3.263
 7562SOL    HW223586   2.100   5.753   3.173
 7563SOL     OW23587   3.868   5.948   2.951
 7563SOL    HW123588   3.865   6.023   3.018
 7563SOL    HW223589   3.803   5.967   2.877
 7564SOL     OW23590   4.028   1.812   4.993
 7564SOL    HW123591   3.991   1.831   5.085
 7564SOL    HW223592   3.978   1.735   4.953
 7565SOL     OW23593   6.387   3.589   5.929
 7565SOL    HW123594   6.330   3.516   5.967
 7565SOL    HW223595   6.473   3.593   5.979
 7566SOL     OW23596   4.723   4.526   1.783
 7566SOL    HW123597   4.724   4.454   1.852
 7566SOL    HW223598   4.704   4.486   1.694
 7567SOL     OW23599   1.088   7.022   4.624
 7567SOL    HW123600   1.167   0.032   4.675
 7567SOL    HW223601   1.029   0.075   4.599
 7568SOL     OW23602   5.880   4.273   1.080
 7568SOL    HW123603   5.825   4.190   1.067
 7568SOL    HW223604   5.967   4.248   1.123
 7569SOL     OW23605   5.061   3.538   0.319
 7569SOL    HW123606   5.156   3.556   0.293
 7569SOL    HW223607   5.001   3.556   0.241
 7570SOL     OW23608   1.079   3.342   2.217
 7570SOL    HW123609   1.020   3.413   2.256
 7570SOL    HW223610   1.038   3.252   2.235
 7571SOL     OW23611   4.452   1.374   2.785
 7571SOL    HW123612   4.387   1.401   2.714
 7571SOL    HW223613   4.502   1.292   2.756
 7572SOL     OW23614   4.723   0.011   3.911
 7572SOL    HW123615   4.760   0.020   3.818
 7572SOL    HW223616   4.666   6.953   3.916
 7573SOL     OW23617   4.156   6.516   5.988
 7573SOL    HW123618   4.241   6.503   6.038
 7573SOL    HW223619   4.103   6.590   6.030
 7574SOL     OW23620   0.635   2.518   4.030
 7574SOL    HW123621   0.656   2.440   3.971
 7574SOL    HW223622   0.721   2.561   4.058
 7575SOL     OW23623   6.969   6.606   2.027
 7575SOL    HW123624   6.911   6.590   1.947
 7575SOL    HW223625   6.940   6.546   2.102
 7576SOL     OW23626   4.758   2.451   6.660
 7576SOL    HW123627   4.755   2.550   6.649
 7576SOL    HW223628   4.753   2.428   6.757
 7577SOL     OW23629   0.868   0.410   6.812
 7577SOL    HW123630   0.775   0.375   6.819
 7577SOL    HW223631   0.905   0.425   6.903
 7578SOL     OW23632   6.459   6.336   3.388
 7578SOL    HW123633   6.408   6.405   3.440
 7578SOL    HW223634   6.450   6.355   3.290
 7579SOL     OW23635   0.624   2.021   6.955
 7579SOL    HW123636   0.719   2.005   6.983
 7579SOL    HW223637   0.569   1.940   6.978
 7580SOL     OW23638   2.675   5.327   3.282
 7580SOL    HW123639   2.604   5.387   3.320
 7580SOL    HW223640   2.646   5.293   3.193
 7581SOL     OW23641   6.823   0.269   1.930
 7581SOL    HW123642   6.882   0.293   1.852
 7581SOL    HW223643   6.880   0.241   2.007
 7582SOL     OW23644   2.336   1.645   6.192
 7582SOL    HW123645   2.361   1.690   6.278
 7582SOL    HW223646   2.416   1.642   6.132
 7583SOL     OW23647   5.684   3.141   2.387
 7583SOL    HW123648   5.604   3.148   2.447
 7583SOL    HW223649   5.712   3.232   2.358
 7584SOL     OW23650   0.803   1.050   3.262
 7584SOL    HW123651   0.720   1.038   3.317
 7584SOL    HW223652   0.882   1.061   3.323
 7585SOL     OW23653   1.052   1.311   6.178
 7585SOL    HW123654   1.131   1.318   6.117
 7585SOL    HW223655   0.983   1.378   6.150
 7586SOL     OW23656   1.978   6.956   3.994
 7586SOL    HW123657   1.976   6.862   3.960
 7586SOL    HW223658   1.893   6.975   4.043
 7587SOL     OW23659   4.711   0.112   1.492
 7587SOL    HW123660   4.796   0.159   1.512
 7587SOL    HW223661   4.639   0.179   1.474
 7588SOL     OW23662   2.173   2.757   4.600
 7588SOL    HW123663   2.240   2.689   4.568
 7588SOL    HW223664   2.211   2.807   4.677
 7589SOL     OW23665   0.070   0.511   2.688
 7589SOL    HW123666   0.021   0.536   2.772
 7589SOL    HW223667   0.069   0.412   2.677
 7590SOL     OW23668   6.315   0.919   0.311
 7590SOL    HW123669   6.400   0.868   0.294
 7590SOL    HW223670   6.264   0.928   0.226
 7591SOL     OW23671   3.294   3.602   4.509
 7591SOL    HW123672   3.196   3.591   4.525
 7591SOL    HW223673   3.311   3.618   4.412
 7592SOL     OW23674   0.028   6.058   3.579
 7592SOL    HW123675   0.051   6.028   3.487
 7592SOL    HW223676   6.962   6.102   3.579
 7593SOL     OW23677   6.925   1.207   5.547
 7593SOL    HW123678   7.022   1.209   5.527
 7593SOL    HW223679   6.885   1.122   5.511
 7594SOL     OW23680   6.891   3.947   5.913
 7594SOL    HW123681   6.875   3.869   5.853
 7594SOL    HW223682   6.884   3.918   6.009
 7595SOL     OW23683   0.961   3.314   6.485
 7595SOL    HW123684   0.987   3.226   6.445
 7595SOL    HW223685   0.911   3.368   6.416
 7596SOL     OW23686   2.729   1.495   0.379
 7596SOL    HW123687   2.645   1.546   0.395
 7596SOL    HW223688   2.783   1.541   0.308
 7597SOL     OW23689   2.280   5.113   1.315
 7597SOL    HW123690   2.309   5.207   1.300
 7597SOL    HW223691   2.278   5.064   1.227
 7598SOL     OW23692   5.880   1.002   2.023
 7598SOL    HW123693   5.812   1.068   2.056
 7598SOL    HW223694   5.843   0.909   2.031
 7599SOL     OW23695   3.029   3.717   1.082
 7599SOL    HW123696   3.066   3.809   1.068
 7599SOL    HW223697   3.065   3.681   1.168
 7600SOL     OW23698   0.831   6.892   4.113
 7600SOL    HW123699   0.846   6.879   4.211
 7600SOL    HW223700   0.747   6.945   4.099
 7601SOL     OW23701   2.238   6.589   1.369
 7601SOL    HW123702   2.243   6.676   1.417
 7601SOL    HW223703   2.207   6.604   1.275
 7602SOL     OW23704   0.798   1.089   0.950
 7602SOL    HW123705   0.867   1.161   0.939
 7602SOL    HW223706   0.743   1.082   0.866
 7603SOL     OW23707   4.301   1.164   5.970
 7603SOL    HW123708   4.346   1.252   5.963
 7603SOL    HW223709   4.220   1.173   6.029
 7604SOL     OW23710   1.629   2.584   4.718
 7604SOL    HW123711   1.687   2.538   4.650
 7604SOL    HW223712   1.658   2.679   4.727
 7605SOL     OW23713   2.642   6.273   0.129
 7605SOL    HW123714   2.622   6.270   0.031
 7605SOL    HW223715   2.560   6.303   0.179
 7606SOL     OW23716   6.947   0.792   3.408
 7606SOL    HW123717   6.892   0.734   3.347
 7606SOL    HW223718   0.020   0.768   3.398
 7607SOL     OW23719   1.879   6.315   5.856
 7607SOL    HW123720   1.921   6.398   5.820
 7607SOL    HW223721   1.894   6.240   5.791
 7608SOL     OW23722   0.110   2.165   6.376
 7608SOL    HW123723   0.081   2.184   6.470
 7608SOL    HW223724   0.206   2.192   6.366
 7609SOL     OW23725   3.031   1.467   4.547
 7609SOL    HW123726   3.031   1.457   4.647
 7609SOL    HW223727   3.120   1.501   4.517
 7610SOL     OW23728   4.064   4.834   4.780
 7610SOL    HW123729   4.067   4.865   4.685
 7610SOL    HW223730   4.139   4.771   4.798
 7611SOL     OW23731   4.705   2.497   0.156
 7611SOL    HW123732   4.657   2.579   0.187
 7611SOL    HW223733   4.793   2.490   0.204
 7612SOL     OW23734   3.817   2.126   3.118
 7612SOL    HW123735   3.911   2.158   3.103
 7612SOL    HW223736   3.797   2.125   3.216
 7613SOL     OW23737   0.901   0.290   0.253
 7613SOL    HW123738   0.839   0.267   0.328
 7613SOL    HW223739   0.952   0.208   0.227
 7614SOL     OW23740   5.439   4.898   0.674
 7614SOL    HW123741   5.412   4.831   0.605
 7614SOL    HW223742   5.532   4.929   0.656
 7615SOL     OW23743   6.279   3.377   5.451
 7615SOL    HW123744   6.186   3.410   5.434
 7615SOL    HW223745   6.340   3.456   5.465
 7616SOL     OW23746   6.871   6.827   2.857
 7616SOL    HW123747   6.955   6.775   2.874
 7616SOL    HW223748   6.814   6.827   2.939
 7617SOL     OW23749   6.467   3.909   2.805
 7617SOL    HW123750   6.429   3.821   2.776
 7617SOL    HW223751   6.532   3.942   2.736
 7618SOL     OW23752   2.682   2.428   0.701
 7618SOL    HW123753   2.752   2.359   0.679
 7618SOL    HW223754   2.601   2.382   0.737
 7619SOL     OW23755   1.643   1.307   4.480
 7619SOL    HW123756   1.710   1.360   4.530
 7619SOL    HW223757   1.668   1.305   4.383
 7620SOL     OW23758   3.039   3.464   0.918
 7620SOL    HW123759   3.085   3.410   0.989
 7620SOL    HW223760   3.029   3.559   0.949
 7621SOL     OW23761   5.905   4.321   6.611
 7621SOL    HW123762   5.873   4.229   6.633
 7621SOL    HW223763   5.974   4.315   6.539
 7622SOL     OW23764   3.206   3.794   1.666
 7622SOL    HW123765   3.158   3.832   1.744
 7622SOL    HW223766   3.143   3.784   1.589
 7623SOL     OW23767   5.816   4.012   1.775
 7623SOL    HW123768   5.880   3.956   1.828
 7623SOL    HW223769   5.765   4.072   1.837
 7624SOL     OW23770   0.773   3.550   2.569
 7624SOL    HW123771   0.700   3.494   2.529
 7624SOL    HW223772   0.808   3.505   2.651
 7625SOL     OW23773   5.440   0.619   2.098
 7625SOL    HW123774   5.376   0.553   2.137
 7625SOL    HW223775   5.525   0.618   2.150
 7626SOL     OW23776   4.273   0.035   0.317
 7626SOL    HW123777   4.174   0.047   0.319
 7626SOL    HW223778   4.301   0.000   0.227
 7627SOL     OW23779   4.172   2.783   6.091
 7627SOL    HW123780   4.152   2.705   6.150
 7627SOL    HW223781   4.167   2.867   6.146
 7628SOL     OW23782   2.908   2.892   0.619
 7628SOL    HW123783   2.954   2.814   0.577
 7628SOL    HW223784   2.904   2.879   0.718
 7629SOL     OW23785   6.254   2.298   3.570
 7629SOL    HW123786   6.243   2.198   3.564
 7629SOL    HW223787   6.320   2.328   3.501
 7630SOL     OW23788   1.488   6.172   3.961
 7630SOL    HW123789   1.446   6.119   3.887
 7630SOL    HW223790   1.566   6.122   3.998
 7631SOL     OW23791   1.076   0.919   5.544
 7631SOL    HW123792   1.143   0.992   5.526
 7631SOL    HW223793   1.090   0.884   5.636
 7632SOL     OW23794   4.837   5.462   1.338
 7632SOL    HW123795   4.886   5.449   1.252
 7632SOL    HW223796   4.823   5.559   1.354
 7633SOL     OW23797   6.069   0.987   1.430
 7633SOL    HW123798   5.971   0.986   1.409
 7633SOL    HW223799   6.094   1.076   1.469
 7634SOL     OW23800   0.269   2.516   6.535
 7634SOL    HW123801   0.224   2.470   6.611
 7634SOL    HW223802   0.364   2.488   6.529
 7635SOL     OW23803   2.163   3.616   5.546
 7635SOL    HW123804   2.126   3.557   5.617
 7635SOL    HW223805   2.253   3.650   5.574
 7636SOL     OW23806   6.915   3.626   3.973
 7636SOL    HW123807   6.982   3.556   3.997
 7636SOL    HW223808   6.830   3.583   3.944
 7637SOL     OW23809   0.598   4.298   5.345
 7637SOL    HW123810   0.522   4.344   5.391
 7637SOL    HW223811   0.588   4.308   5.246
 7638SOL     OW23812   0.270   5.814   1.160
 7638SOL    HW123813   0.208   5.845   1.088
 7638SOL    HW223814   0.224   5.747   1.217
 7639SOL     OW23815   1.462   0.183   0.586
 7639SOL    HW123816   1.473   0.279   0.560
 7639SOL    HW223817   1.549   0.135   0.575
 7640SOL     OW23818   3.403   1.403   0.932
 7640SOL    HW123819   3.341   1.396   1.010
 7640SOL    HW223820   3.351   1.393   0.847
 7641SOL     OW23821   0.395   4.790   4.856
 7641SOL    HW123822   0.476   4.796   4.798
 7641SOL    HW223823   0.394   4.867   4.919
 7642SOL     OW23824   5.193   0.784   3.579
 7642SOL    HW123825   5.200   0.882   3.597
 7642SOL    HW223826   5.100   0.762   3.550
 7643SOL     OW23827   5.371   3.593   4.966
 7643SOL    HW123828   5.412   3.563   4.880
 7643SOL    HW223829   5.443   3.623   5.028
 7644SOL     OW23830   5.101   3.985   0.926
 7644SOL    HW123831   5.200   3.989   0.918
 7644SOL    HW223832   5.062   4.072   0.895
 7645SOL     OW23833   4.320   4.691   0.364
 7645SOL    HW123834   4.231   4.690   0.408
 7645SOL    HW223835   4.310   4.723   0.270
 7646SOL     OW23836   0.178   2.389   0.687
 7646SOL    HW123837   0.141   2.366   0.777
 7646SOL    HW223838   0.185   2.305   0.633
 7647SOL     OW23839   7.020   2.337   4.154
 7647SOL    HW123840   6.926   2.333   4.189
 7647SOL    HW223841   7.017   2.355   4.056
 7648SOL     OW23842   2.103   2.438   1.872
 7648SOL    HW123843   2.018   2.423   1.821
 7648SOL    HW223844   2.122   2.359   1.929
 7649SOL     OW23845   3.834   0.721   0.319
 7649SOL    HW123846   3.823   0.623   0.303
 7649SOL    HW223847   3.922   0.738   0.363
 7650SOL     OW23848   3.623   2.453   0.167
 7650SOL    HW123849   3.656   2.395   0.242
 7650SOL    HW223850   3.696   2.467   0.100
 7651SOL     OW23851   3.577   5.172   6.172
 7651SOL    HW123852   3.601   5.267   6.192
 7651SOL    HW223853   3.522   5.135   6.248
 7652SOL     OW23854   1.102   0.924   4.706
 7652SOL    HW123855   1.051   0.867   4.640
 7652SOL    HW223856   1.156   0.992   4.657
 7653SOL     OW23857   2.109   0.023   0.478
 7653SOL    HW123858   2.088   6.984   0.553
 7653SOL    HW223859   2.028   0.078   0.457
 7654SOL     OW23860   6.722   1.911   6.127
 7654SOL    HW123861   6.798   1.975   6.140
 7654SOL    HW223862   6.642   1.944   6.176
 7655SOL     OW23863   3.623   1.697   5.122
 7655SOL    HW123864   3.671   1.662   5.203
 7655SOL    HW223865   3.557   1.766   5.151
 7656SOL     OW23866   5.881   4.167   0.010
 7656SOL    HW123867   5.848   4.120   6.952
 7656SOL    HW223868   5.849   4.262   0.010
 7657SOL     OW23869   1.106   4.039   4.673
 7657SOL    HW123870   1.126   3.958   4.729
 7657SOL    HW223871   1.153   4.031   4.585
 7658SOL     OW23872   2.742   0.863   1.097
 7658SOL    HW123873   2.763   0.765   1.103
 7658SOL    HW223874   2.798   0.912   1.164
 7659SOL     OW23875   4.986   4.662   5.518
 7659SOL    HW123876   4.935   4.658   5.431
 7659SOL    HW223877   5.037   4.578   5.531
 7660SOL     OW23878   6.659   6.537   5.729
 7660SOL    HW123879   6.640   6.552   5.632
 7660SOL    HW223880   6.729   6.602   5.760
 7661SOL     OW23881   3.323   0.810   5.112
 7661SOL    HW123882   3.282   0.769   5.031
 7661SOL    HW223883   3.253   0.859   5.163
 7662SOL     OW23884   6.746   5.723   1.068
 7662SOL    HW123885   6.802   5.679   0.998
 7662SOL    HW223886   6.749   5.668   1.152
 7663SOL     OW23887   0.860   5.387   4.554
 7663SOL    HW123888   0.775   5.358   4.596
 7663SOL    HW223889   0.861   5.486   4.546
 7664SOL     OW23890   4.581   2.147   2.397
 7664SOL    HW123891   4.581   2.068   2.458
 7664SOL    HW223892   4.535   2.124   2.311
 7665SOL     OW23893   3.400   0.614   5.327
 7665SOL    HW123894   3.334   0.653   5.263
 7665SOL    HW223895   3.493   0.631   5.295
 7666SOL     OW23896   5.182   5.380   3.921
 7666SOL    HW123897   5.273   5.358   3.956
 7666SOL    HW223898   5.160   5.320   3.843
 7667SOL     OW23899   4.054   6.474   2.273
 7667SOL    HW123900   3.971   6.418   2.281
 7667SOL    HW223901   4.110   6.462   2.355
 7668SOL     OW23902   1.291   5.737   0.397
 7668SOL    HW123903   1.234   5.703   0.322
 7668SOL    HW223904   1.292   5.837   0.395
 7669SOL     OW23905   2.818   1.597   6.687
 7669SOL    HW123906   2.776   1.517   6.730
 7669SOL    HW223907   2.844   1.663   6.758
 7670SOL     OW23908   0.861   0.375   0.833
 7670SOL    HW123909   0.871   0.461   0.782
 7670SOL    HW223910   0.936   0.366   0.898
 7671SOL     OW23911   2.959   6.827   1.621
 7671SOL    HW123912   3.027   6.754   1.628
 7671SOL    HW223913   3.005   6.914   1.602
 7672SOL     OW23914   5.494   3.441   2.097
 7672SOL    HW123915   5.396   3.426   2.097
 7672SOL    HW223916   5.542   3.355   2.078
 7673SOL     OW23917   1.841   6.859   4.707
 7673SOL    HW123918   1.908   6.900   4.769
 7673SOL    HW223919   1.822   6.765   4.736
 7674SOL     OW23920   3.804   5.595   4.603
 7674SOL    HW123921   3.799   5.503   4.563
 7674SOL    HW223922   3.761   5.660   4.541
 7675SOL     OW23923   4.499   6.521   3.199
 7675SOL    HW123924   4.503   6.592   3.270
 7675SOL    HW223925   4.541   6.557   3.115
 7676SOL     OW23926   3.299   2.828   5.240
 7676SOL    HW123927   3.273   2.778   5.323
 7676SOL    HW223928   3.398   2.843   5.240
 7677SOL     OW23929   6.850   4.767   6.965
 7677SOL    HW123930   6.876   4.681   6.920
 7677SOL    HW223931   6.862   4.757   0.040
 7678SOL     OW23932   3.539   1.542   5.508
 7678SOL    HW123933   3.468   1.492   5.457
 7678SOL    HW223934   3.629   1.509   5.481
 7679SOL     OW23935   3.166   5.368   4.561
 7679SOL    HW123936   3.159   5.366   4.461
 7679SOL    HW223937   3.221   5.446   4.589
 7680SOL     OW23938   2.090   0.031   4.275
 7680SOL    HW123939   2.110   7.023   4.368
 7680SOL    HW223940   2.116   0.127   4.266
 7681SOL     OW23941   2.015   2.268   5.533
 7681SOL    HW123942   2.114   2.259   5.548
 7681SOL    HW223943   1.999   2.310   5.444
 7682SOL     OW23944   3.246   0.990   2.257
 7682SOL    HW123945   3.276   1.007   2.164
 7682SOL    HW223946   3.225   0.893   2.269
 7683SOL     OW23947   0.555   4.300   4.695
 7683SOL    HW123948   0.518   4.374   4.752
 7683SOL    HW223949   0.602   4.234   4.753
 7684SOL     OW23950   5.230   2.915   1.161
 7684SOL    HW123951   5.267   2.867   1.082
 7684SOL    HW223952   5.136   2.886   1.177
 7685SOL     OW23953   2.860   0.414   0.391
 7685SOL    HW123954   2.821   0.460   0.471
 7685SOL    HW223955   2.960   0.410   0.400
 7686SOL     OW23956   6.743   6.865   4.208
 7686SOL    HW123957   6.704   6.778   4.179
 7686SOL    HW223958   6.835   6.875   4.170
 7687SOL     OW23959   5.006   3.335   6.234
 7687SOL    HW123960   5.066   3.415   6.241
 7687SOL    HW223961   4.983   3.318   6.138
 7688SOL     OW23962   5.736   2.709   6.897
 7688SOL    HW123963   5.751   2.806   6.881
 7688SOL    HW223964   5.815   2.657   6.866
 7689SOL     OW23965   6.001   0.316   2.062
 7689SOL    HW123966   6.083   0.280   2.018
 7689SOL    HW223967   5.990   0.273   2.152
 7690SOL     OW23968   5.561   4.961   1.933
 7690SOL    HW123969   5.582   4.991   2.026
 7690SOL    HW223970   5.628   4.891   1.906
 7691SOL     OW23971   5.120   2.937   4.258
 7691SOL    HW123972   5.136   2.919   4.355
 7691SOL    HW223973   5.021   2.942   4.242
 7692SOL     OW23974   3.022   6.437   2.144
 7692SOL    HW123975   3.066   6.498   2.078
 7692SOL    HW223976   3.054   6.459   2.236
 7693SOL     OW23977   2.991   1.791   1.740
 7693SOL    HW123978   2.955   1.757   1.653
 7693SOL    HW223979   2.954   1.882   1.758
 7694SOL     OW23980   4.197   2.248   6.621
 7694SOL    HW123981   4.175   2.207   6.710
 7694SOL    HW223982   4.297   2.255   6.612
 7695SOL     OW23983   5.008   6.819   3.851
 7695SOL    HW123984   5.024   6.775   3.763
 7695SOL    HW223985   5.046   6.912   3.850
 7696SOL     OW23986   2.296   2.258   5.525
 7696SOL    HW123987   2.360   2.196   5.570
 7696SOL    HW223988   2.302   2.247   5.426
 7697SOL     OW23989   5.980   6.756   3.373
 7697SOL    HW123990   5.907   6.690   3.357
 7697SOL    HW223991   6.008   6.797   3.286
 7698SOL     OW23992   6.363   2.721   0.972
 7698SOL    HW123993   6.305   2.773   1.034
 7698SOL    HW223994   6.399   2.782   0.901
 7699SOL     OW23995   3.978   6.431   5.484
 7699SOL    HW123996   3.896   6.372   5.486
 7699SOL    HW223997   4.018   6.435   5.575
 7700SOL     OW23998   6.061   5.269   1.539
 7700SOL    HW123999   6.130   5.329   1.500
 7700SOL    HW224000   6.070   5.266   1.638
 7701SOL     OW24001   1.995   1.455   6.729
 7701SOL    HW124002   1.961   1.535   6.780
 7701SOL    HW224003   1.918   1.410   6.684
 7702SOL     OW24004   5.419   6.595   5.536
 7702SOL    HW124005   5.392   6.500   5.524
 7702SOL    HW224006   5.476   6.624   5.459
 7703SOL     OW24007   0.003   6.602   5.272
 7703SOL    HW124008   0.005   6.537   5.348
 7703SOL    HW224009   0.096   6.612   5.234
 7704SOL     OW24010   1.861   1.843   4.719
 7704SOL    HW124011   1.791   1.908   4.688
 7704SOL    HW224012   1.940   1.893   4.755
 7705SOL     OW24013   0.516   4.244   0.056
 7705SOL    HW124014   0.609   4.235   0.021
 7705SOL    HW224015   0.451   4.238   7.003
 7706SOL     OW24016   3.266   3.381   2.384
 7706SOL    HW124017   3.352   3.431   2.392
 7706SOL    HW224018   3.243   3.368   2.287
 7707SOL     OW24019   0.018   4.163   6.452
 7707SOL    HW124020   0.043   4.170   6.356
 7707SOL    HW224021   0.028   4.253   6.496
 7708SOL     OW24022   1.145   0.186   4.147
 7708SOL    HW124023   1.176   0.091   4.154
 7708SOL    HW224024   1.223   0.248   4.155
 7709SOL     OW24025   6.306   4.590   0.982
 7709SOL    HW124026   6.306   4.670   0.922
 7709SOL    HW224027   6.219   4.542   0.974
 7710SOL     OW24028   6.546   3.252   2.116
 7710SOL    HW124029   6.473   3.221   2.056
 7710SOL    HW224030   6.633   3.211   2.087
 7711SOL     OW24031   1.034   4.442   3.937
 7711SOL    HW124032   1.117   4.446   3.882
 7711SOL    HW224033   0.973   4.372   3.899
 7712SOL     OW24034   0.746   4.748   4.907
 7712SOL    HW124035   0.758   4.649   4.921
 7712SOL    HW224036   0.705   4.765   4.818
 7713SOL     OW24037   0.941   4.779   0.711
 7713SOL    HW124038   1.006   4.851   0.686
 7713SOL    HW224039   0.972   4.692   0.674
 7714SOL     OW24040   5.897   1.790   5.375
 7714SOL    HW124041   5.960   1.775   5.451
 7714SOL    HW224042   5.811   1.829   5.410
 7715SOL     OW24043   3.432   3.106   6.400
 7715SOL    HW124044   3.444   3.203   6.380
 7715SOL    HW224045   3.521   3.065   6.422
 7716SOL     OW24046   1.208   6.935   6.291
 7716SOL    HW124047   1.157   6.849   6.285
 7716SOL    HW224048   1.213   6.978   6.201
 7717SOL     OW24049   0.538   2.124   6.097
 7717SOL    HW124050   0.616   2.119   6.159
 7717SOL    HW224051   0.531   2.039   6.045
 7718SOL     OW24052   0.111   3.075   2.625
 7718SOL    HW124053   0.108   3.076   2.725
 7718SOL    HW224054   0.087   2.983   2.592
 7719SOL     OW24055   2.124   5.683   5.246
 7719SOL    HW124056   2.106   5.780   5.263
 7719SOL    HW224057   2.127   5.667   5.147
 7720SOL     OW24058   4.543   1.317   6.667
 7720SOL    HW124059   4.608   1.296   6.593
 7720SOL    HW224060   4.584   1.385   6.728
 7721SOL     OW24061   5.649   5.871   2.416
 7721SOL    HW124062   5.673   5.862   2.512
 7721SOL    HW224063   5.721   5.831   2.359
 7722SOL     OW24064   0.778   5.973   3.978
 7722SOL    HW124065   0.865   5.925   3.964
 7722SOL    HW224066   0.797   6.069   3.997
 7723SOL     OW24067   4.576   4.217   0.249
 7723SOL    HW124068   4.505   4.195   0.316
 7723SOL    HW224069   4.570   4.154   0.172
 7724SOL     OW24070   1.521   3.733   0.118
 7724SOL    HW124071   1.570   3.797   0.178
 7724SOL    HW224072   1.550   3.747   0.024
 7725SOL     OW24073   5.526   3.459   4.434
 7725SOL    HW124074   5.499   3.428   4.343
 7725SOL    HW224075   5.593   3.396   4.472
 7726SOL     OW24076   2.001   3.432   6.836
 7726SOL    HW124077   2.079   3.415   6.897
 7726SOL    HW224078   1.934   3.359   6.848
 7727SOL     OW24079   4.911   0.450   2.407
 7727SOL    HW124080   4.815   0.429   2.422
 7727SOL    HW224081   4.921   0.503   2.322
 7728SOL     OW24082   1.918   3.434   4.545
 7728SOL    HW124083   2.003   3.478   4.515
 7728SOL    HW224084   1.925   3.411   4.642
 7729SOL     OW24085   6.930   0.573   2.424
 7729SOL    HW124086   6.830   0.587   2.422
 7729SOL    HW224087   6.962   0.580   2.519
 7730SOL     OW24088   5.873   4.720   5.518
 7730SOL    HW124089   5.943   4.761   5.577
 7730SOL    HW224090   5.849   4.629   5.553
 7731SOL     OW24091   6.675   0.041   5.926
 7731SOL    HW124092   6.610   0.117   5.920
 7731SOL    HW224093   6.766   0.076   5.948
 7732SOL     OW24094   4.608   1.045   0.091
 7732SOL    HW124095   4.626   0.954   0.054
 7732SOL    HW224096   4.644   1.114   0.028
 7733SOL     OW24097   6.765   5.379   1.170
 7733SOL    HW124098   6.804   5.427   1.249
 7733SOL    HW224099   6.693   5.317   1.200
 7734SOL     OW24100   4.077   3.725   3.492
 7734SOL    HW124101   4.114   3.634   3.472
 7734SOL    HW224102   4.077   3.739   3.591
 7735SOL     OW24103   0.757   5.755   1.170
 7735SOL    HW124104   0.834   5.776   1.110
 7735SOL    HW224105   0.684   5.713   1.116
 7736SOL     OW24106   1.873   1.968   0.258
 7736SOL    HW124107   1.929   1.900   0.210
 7736SOL    HW224108   1.913   2.059   0.245
 7737SOL     OW24109   4.260   4.159   6.974
 7737SOL    HW124110   4.249   4.090   6.903
 7737SOL    HW224111   4.309   4.119   0.028
 7738SOL     OW24112   1.367   0.757   5.330
 7738SOL    HW124113   1.450   0.747   5.274
 7738SOL    HW224114   1.374   0.840   5.385
 7739SOL     OW24115   1.397   2.623   0.481
 7739SOL    HW124116   1.451   2.674   0.548
 7739SOL    HW224117   1.310   2.671   0.465
 7740SOL     OW24118   2.604   1.031   4.261
 7740SOL    HW124119   2.692   1.011   4.217
 7740SOL    HW224120   2.537   0.962   4.236
 7741SOL     OW24121   7.012   4.457   5.941
 7741SOL    HW124122   0.060   4.388   5.941
 7741SOL    HW224123   0.027   4.545   5.972
 7742SOL     OW24124   4.434   2.085   4.447
 7742SOL    HW124125   4.341   2.077   4.410
 7742SOL    HW224126   4.432   2.070   4.545
 7743SOL     OW24127   3.789   1.268   5.958
 7743SOL    HW124128   3.724   1.259   6.033
 7743SOL    HW224129   3.866   1.205   5.972
 7744SOL     OW24130   0.614   0.029   4.646
 7744SOL    HW124131   0.538   7.019   4.703
 7744SOL    HW224132   0.692   6.991   4.655
 7745SOL     OW24133   2.782   6.959   0.963
 7745SOL    HW124134   2.765   6.917   0.873
 7745SOL    HW224135   2.781   6.888   1.033
 7746SOL     OW24136   0.484   6.240   1.240
 7746SOL    HW124137   0.414   6.291   1.291
 7746SOL    HW224138   0.522   6.299   1.169
 7747SOL     OW24139   0.225   5.340   1.089
 7747SOL    HW124140   0.315   5.382   1.099
 7747SOL    HW224141   0.188   5.317   1.179
 7748SOL     OW24142   4.212   0.926   6.382
 7748SOL    HW124143   4.243   1.019   6.367
 7748SOL    HW224144   4.266   0.863   6.325
 7749SOL     OW24145   3.767   2.884   3.018
 7749SOL    HW124146   3.788   2.896   3.115
 7749SOL    HW224147   3.762   2.786   2.997
 7750SOL     OW24148   5.123   4.800   6.245
 7750SOL    HW124149   5.033   4.806   6.200
 7750SOL    HW224150   5.148   4.704   6.256
 7751SOL     OW24151   6.883   1.239   4.425
 7751SOL    HW124152   6.854   1.269   4.517
 7751SOL    HW224153   6.931   1.152   4.433
 7752SOL     OW24154   6.257   4.737   5.152
 7752SOL    HW124155   6.207   4.689   5.224
 7752SOL    HW224156   6.280   4.829   5.183
 7753SOL     OW24157   2.613   0.729   4.880
 7753SOL    HW124158   2.702   0.705   4.841
 7753SOL    HW224159   2.569   0.646   4.915
 7754SOL     OW24160   5.852   0.332   1.206
 7754SOL    HW124161   5.930   0.368   1.156
 7754SOL    HW224162   5.877   0.319   1.302
 7755SOL     OW24163   1.612   6.219   5.532
 7755SOL    HW124164   1.540   6.196   5.597
 7755SOL    HW224165   1.699   6.183   5.564
 7756SOL     OW24166   4.100   5.710   3.352
 7756SOL    HW124167   4.151   5.693   3.436
 7756SOL    HW224168   4.145   5.665   3.275
 7757SOL     OW24169   3.606   0.189   5.998
 7757SOL    HW124170   3.602   0.266   6.062
 7757SOL    HW224171   3.614   0.224   5.904
 7758SOL     OW24172   3.035   2.744   6.267
 7758SOL    HW124173   3.025   2.796   6.183
 7758SOL    HW224174   3.115   2.776   6.318
 7759SOL     OW24175   1.504   0.615   4.897
 7759SOL    HW124176   1.439   0.652   4.831
 7759SOL    HW224177   1.500   0.515   4.894
 7760SOL     OW24178   5.196   2.367   3.418
 7760SOL    HW124179   5.158   2.282   3.456
 7760SOL    HW224180   5.271   2.345   3.356
 7761SOL     OW24181   4.646   1.011   6.776
 7761SOL    HW124182   4.693   0.929   6.744
 7761SOL    HW224183   4.714   1.080   6.804
 7762SOL     OW24184   1.755   2.775   0.355
 7762SOL    HW124185   1.671   2.763   0.408
 7762SOL    HW224186   1.731   2.803   0.262
 7763SOL     OW24187   2.205   2.243   1.458
 7763SOL    HW124188   2.209   2.161   1.515
 7763SOL    HW224189   2.298   2.269   1.431
 7764SOL     OW24190   3.780   3.486   2.174
 7764SOL    HW124191   3.688   3.525   2.182
 7764SOL    HW224192   3.842   3.556   2.140
 7765SOL     OW24193   6.900   1.527   2.109
 7765SOL    HW124194   6.847   1.607   2.082
 7765SOL    HW224195   6.859   1.487   2.191
 7766SOL     OW24196   6.789   3.572   6.830
 7766SOL    HW124197   6.699   3.606   6.802
 7766SOL    HW224198   6.858   3.602   6.764
 7767SOL     OW24199   5.593   4.011   5.538
 7767SOL    HW124200   5.651   4.065   5.477
 7767SOL    HW224201   5.506   3.992   5.493
 7768SOL     OW24202   4.108   5.664   1.956
 7768SOL    HW124203   4.013   5.662   1.987
 7768SOL    HW224204   4.148   5.753   1.980
 7769SOL     OW24205   6.089   1.962   2.856
 7769SOL    HW124206   5.991   1.981   2.865
 7769SOL    HW224207   6.116   1.894   2.925
 7770SOL     OW24208   3.161   6.435   1.105
 7770SOL    HW124209   3.086   6.373   1.128
 7770SOL    HW224210   3.244   6.382   1.089
 7771SOL     OW24211   1.830   1.463   4.604
 7771SOL    HW124212   1.843   1.476   4.702
 7771SOL    HW224213   1.914   1.485   4.555
 7772SOL     OW24214   5.652   0.746   5.207
 7772SOL    HW124215   5.577   0.737   5.141
 7772SOL    HW224216   5.691   0.656   5.226
 7773SOL     OW24217   3.813   4.582   6.057
 7773SOL    HW124218   3.812   4.542   5.965
 7773SOL    HW224219   3.761   4.667   6.057
 7774SOL     OW24220   4.790   1.695   0.080
 7774SOL    HW124221   4.868   1.683   0.142
 7774SOL    HW224222   4.773   1.792   0.067
 7775SOL     OW24223   1.865   0.075   2.011
 7775SOL    HW124224   1.942   0.041   2.064
 7775SOL    HW224225   1.779   0.050   2.056
 7776SOL     OW24226   3.315   3.581   0.948
 7776SOL    HW124227   3.366   3.518   1.005
 7776SOL    HW224228   3.254   3.530   0.887
 7777SOL     OW24229   0.990   0.137   6.267
 7777SOL    HW124230   1.038   0.066   6.319
 7777SOL    HW224231   1.044   0.221   6.268
 7778SOL     OW24232   5.002   1.508   1.633
 7778SOL    HW124233   4.973   1.441   1.565
 7778SOL    HW224234   4.922   1.548   1.677
 7779SOL     OW24235   4.183   2.755   0.514
 7779SOL    HW124236   4.175   2.707   0.427
 7779SOL    HW224237   4.228   2.844   0.500
 7780SOL     OW24238   0.918   0.440   5.156
 7780SOL    HW124239   0.832   0.448   5.207
 7780SOL    HW224240   0.917   0.504   5.079
 7781SOL     OW24241   1.884   4.935   5.482
 7781SOL    HW124242   1.871   5.018   5.427
 7781SOL    HW224243   1.807   4.924   5.544
 7782SOL     OW24244   4.588   4.628   0.357
 7782SOL    HW124245   4.494   4.662   0.370
 7782SOL    HW224246   4.643   4.698   0.311
 7783SOL     OW24247   2.145   5.813   0.123
 7783SOL    HW124248   2.191   5.780   0.041
 7783SOL    HW224249   2.073   5.747   0.148
 7784SOL     OW24250   6.666   3.515   0.580
 7784SOL    HW124251   6.701   3.436   0.630
 7784SOL    HW224252   6.742   3.565   0.539
 7785SOL     OW24253   2.049   5.552   6.097
 7785SOL    HW124254   2.132   5.559   6.041
 7785SOL    HW224255   1.985   5.489   6.053
 7786SOL     OW24256   3.627   4.137   4.635
 7786SOL    HW124257   3.649   4.165   4.728
 7786SOL    HW224258   3.712   4.122   4.584
 7787SOL     OW24259   2.689   2.474   5.221
 7787SOL    HW124260   2.769   2.417   5.242
 7787SOL    HW224261   2.624   2.421   5.166
 7788SOL     OW24262   0.719   2.202   0.767
 7788SOL    HW124263   0.637   2.224   0.713
 7788SOL    HW224264   0.755   2.286   0.808
 7789SOL     OW24265   2.440   0.477   1.517
 7789SOL    HW124266   2.438   0.527   1.430
 7789SOL    HW224267   2.375   0.519   1.581
 7790SOL     OW24268   6.439   3.779   3.126
 7790SOL    HW124269   6.444   3.874   3.156
 7790SOL    HW224270   6.521   3.757   3.072
 7791SOL     OW24271   0.593   4.834   5.438
 7791SOL    HW124272   0.676   4.790   5.404
 7791SOL    HW224273   0.594   4.931   5.411
 7792SOL     OW24274   1.757   5.344   6.875
 7792SOL    HW124275   1.802   5.417   6.823
 7792SOL    HW224276   1.669   5.377   6.910
 7793SOL     OW24277   1.831   0.798   6.462
 7793SOL    HW124278   1.748   0.801   6.406
 7793SOL    HW224279   1.891   0.874   6.437
 7794SOL     OW24280   5.401   5.397   2.590
 7794SOL    HW124281   5.394   5.325   2.659
 7794SOL    HW224282   5.454   5.473   2.627
 7795SOL     OW24283   1.145   4.268   6.070
 7795SOL    HW124284   1.240   4.242   6.089
 7795SOL    HW224285   1.117   4.227   5.983
 7796SOL     OW24286   4.007   3.883   4.781
 7796SOL    HW124287   3.930   3.822   4.799
 7796SOL    HW224288   4.018   3.946   4.858
 7797SOL     OW24289   0.844   6.885   3.123
 7797SOL    HW124290   0.902   6.906   3.202
 7797SOL    HW224291   0.894   6.825   3.061
 7798SOL     OW24292   4.121   6.080   5.978
 7798SOL    HW124293   4.218   6.101   5.966
 7798SOL    HW224294   4.066   6.142   5.923
 7799SOL     OW24295   6.375   5.063   1.248
 7799SOL    HW124296   6.394   4.969   1.219
 7799SOL    HW224297   6.278   5.082   1.236
 7800SOL     OW24298   0.675   6.183   2.177
 7800SOL    HW124299   0.629   6.271   2.168
 7800SOL    HW224300   0.749   6.192   2.244
 7801SOL     OW24301   4.041   2.113   5.135
 7801SOL    HW124302   4.007   2.127   5.042
 7801SOL    HW224303   3.985   2.043   5.180
 7802SOL     OW24304   5.427   2.156   0.187
 7802SOL    HW124305   5.427   2.059   0.212
 7802SOL    HW224306   5.406   2.211   0.268
 7803SOL     OW24307   2.951   3.800   5.335
 7803SOL    HW124308   2.901   3.842   5.258
 7803SOL    HW224309   2.960   3.867   5.408
 7804SOL     OW24310   4.860   0.911   6.275
 7804SOL    HW124311   4.778   0.878   6.322
 7804SOL    HW224312   4.836   0.984   6.211
 7805SOL     OW24313   5.151   3.072   1.860
 7805SOL    HW124314   5.126   3.037   1.950
 7805SOL    HW224315   5.072   3.068   1.800
 7806SOL     OW24316   4.836   3.338   6.431
 7806SOL    HW124317   4.772   3.415   6.437
 7806SOL    HW224318   4.886   3.344   6.344
 7807SOL     OW24319   0.377   3.178   6.785
 7807SOL    HW124320   0.372   3.080   6.803
 7807SOL    HW224321   0.379   3.228   6.871
 7808SOL     OW24322   0.874   0.881   5.041
 7808SOL    HW124323   0.918   0.792   5.031
 7808SOL    HW224324   0.792   0.871   5.098
 7809SOL     OW24325   1.275   5.457   5.689
 7809SOL    HW124326   1.332   5.378   5.715
 7809SOL    HW224327   1.299   5.487   5.597
 7810SOL     OW24328   2.434   0.982   6.983
 7810SOL    HW124329   2.435   0.970   0.059
 7810SOL    HW224330   2.377   1.060   6.959
 7811SOL     OW24331   0.384   4.527   4.749
 7811SOL    HW124332   0.304   4.488   4.794
 7811SOL    HW224333   0.411   4.611   4.796
 7812SOL     OW24334   0.524   2.184   3.611
 7812SOL    HW124335   0.438   2.140   3.585
 7812SOL    HW224336   0.538   2.264   3.553
 7813SOL     OW24337   6.285   2.386   1.198
 7813SOL    HW124338   6.296   2.418   1.292
 7813SOL    HW224339   6.231   2.453   1.147
 7814SOL     OW24340   2.207   3.912   4.266
 7814SOL    HW124341   2.243   3.955   4.183
 7814SOL    HW224342   2.215   3.812   4.259
 7815SOL     OW24343   0.289   1.905   5.639
 7815SOL    HW124344   0.215   1.858   5.687
 7815SOL    HW224345   0.258   1.933   5.549
 7816SOL     OW24346   1.444   4.526   5.171
 7816SOL    HW124347   1.485   4.543   5.260
 7816SOL    HW224348   1.398   4.437   5.172
 7817SOL     OW24349   5.450   3.392   5.405
 7817SOL    HW124350   5.446   3.479   5.455
 7817SOL    HW224351   5.411   3.320   5.463
 7818SOL     OW24352   4.846   4.112   2.654
 7818SOL    HW124353   4.840   4.062   2.740
 7818SOL    HW224354   4.778   4.185   2.653
 7819SOL     OW24355   0.563   1.315   0.862
 7819SOL    HW124356   0.480   1.358   0.898
 7819SOL    HW224357   0.643   1.367   0.892
 7820SOL     OW24358   2.800   0.029   6.607
 7820SOL    HW124359   2.794   6.965   6.558
 7820SOL    HW224360   2.722   0.038   6.668
 7821SOL     OW24361   3.146   5.119   1.153
 7821SOL    HW124362   3.226   5.099   1.096
 7821SOL    HW224363   3.092   5.036   1.163
 7822SOL     OW24364   1.968   6.809   5.699
 7822SOL    HW124365   1.965   6.894   5.750
 7822SOL    HW224366   2.044   6.811   5.634
 7823SOL     OW24367   1.896   3.998   4.844
 7823SOL    HW124368   1.949   3.978   4.926
 7823SOL    HW224369   1.882   3.914   4.792
 7824SOL     OW24370   0.526   3.486   5.492
 7824SOL    HW124371   0.620   3.497   5.460
 7824SOL    HW224372   0.479   3.419   5.434
 7825SOL     OW24373   3.329   0.923   6.876
 7825SOL    HW124374   3.236   0.885   6.880
 7825SOL    HW224375   3.361   0.923   6.782
 7826SOL     OW24376   0.430   3.268   5.308
 7826SOL    HW124377   0.469   3.243   5.219
 7826SOL    HW224378   0.336   3.299   5.295
 7827SOL     OW24379   5.947   5.126   4.433
 7827SOL    HW124380   5.932   5.207   4.490
 7827SOL    HW224381   6.021   5.071   4.471
 7828SOL     OW24382   0.690   5.032   6.780
 7828SOL    HW124383   0.773   5.079   6.807
 7828SOL    HW224384   0.619   5.048   6.849
 7829SOL     OW24385   4.020   4.763   0.940
 7829SOL    HW124386   4.044   4.666   0.941
 7829SOL    HW224387   4.001   4.794   1.033
 7830SOL     OW24388   2.395   5.952   3.606
 7830SOL    HW124389   2.296   5.940   3.612
 7830SOL    HW224390   2.439   5.903   3.681
 7831SOL     OW24391   1.471   0.113   5.881
 7831SOL    HW124392   1.468   0.025   5.929
 7831SOL    HW224393   1.495   0.185   5.945
 7832SOL     OW24394   6.308   1.147   5.301
 7832SOL    HW124395   6.290   1.130   5.398
 7832SOL    HW224396   6.244   1.096   5.245
 7833SOL     OW24397   0.912   0.747   2.603
 7833SOL    HW124398   0.990   0.709   2.554
 7833SOL    HW224399   0.941   0.830   2.652
 7834SOL     OW24400   6.502   3.220   4.835
 7834SOL    HW124401   6.492   3.266   4.924
 7834SOL    HW224402   6.594   3.182   4.828
 7835SOL     OW24403   4.199   2.349   5.975
 7835SOL    HW124404   4.216   2.440   5.937
 7835SOL    HW224405   4.134   2.301   5.918
 7836SOL     OW24406   3.143   4.130   5.155
 7836SOL    HW124407   3.077   4.185   5.206
 7836SOL    HW224408   3.104   4.105   5.066
 7837SOL     OW24409   0.988   5.521   6.925
 7837SOL    HW124410   0.926   5.532   7.003
 7837SOL    HW224411   1.081   5.507   6.958
 7838SOL     OW24412   4.443   5.453   2.023
 7838SOL    HW124413   4.384   5.484   2.097
 7838SOL    HW224414   4.435   5.516   1.946
 7839SOL     OW24415   6.306   3.720   4.338
 7839SOL    HW124416   6.332   3.750   4.430
 7839SOL    HW224417   6.361   3.641   4.312
 7840SOL     OW24418   2.285   2.851   3.728
 7840SOL    HW124419   2.300   2.769   3.783
 7840SOL    HW224420   2.270   2.929   3.789
 7841SOL     OW24421   4.309   1.878   6.073
 7841SOL    HW124422   4.211   1.889   6.087
 7841SOL    HW224423   4.359   1.916   6.151
 7842SOL     OW24424   0.937   0.808   1.510
 7842SOL    HW124425   1.014   0.872   1.506
 7842SOL    HW224426   0.851   0.859   1.507
 7843SOL     OW24427   6.738   6.512   2.345
 7843SOL    HW124428   6.836   6.532   2.357
 7843SOL    HW224429   6.713   6.432   2.399
 7844SOL     OW24430   3.832   0.307   2.759
 7844SOL    HW124431   3.771   0.350   2.826
 7844SOL    HW224432   3.783   0.234   2.711
 7845SOL     OW24433   6.163   3.114   1.596
 7845SOL    HW124434   6.106   3.033   1.610
 7845SOL    HW224435   6.157   3.142   1.500
 7846SOL     OW24436   1.235   1.011   0.941
 7846SOL    HW124437   1.309   1.054   0.993
 7846SOL    HW224438   1.244   1.033   0.844
 7847SOL     OW24439   5.336   4.392   6.048
 7847SOL    HW124440   5.399   4.451   5.998
 7847SOL    HW224441   5.370   4.298   6.046
 7848SOL     OW24442   4.041   4.345   0.460
 7848SOL    HW124443   3.986   4.263   0.448
 7848SOL    HW224444   4.119   4.325   0.521
 7849SOL     OW24445   4.085   5.288   7.012
 7849SOL    HW124446   4.006   5.260   0.043
 7849SOL    HW224447   4.130   5.366   0.031
 7850SOL     OW24448   0.170   0.526   3.621
 7850SOL    HW124449   0.154   0.509   3.718
 7850SOL    HW224450   0.263   0.499   3.598
 7851SOL     OW24451   6.875   5.004   0.902
 7851SOL    HW124452   6.964   4.999   0.947
 7851SOL    HW224453   6.806   4.962   0.961
 7852SOL     OW24454   1.227   3.060   5.810
 7852SOL    HW124455   1.198   2.973   5.772
 7852SOL    HW224456   1.322   3.079   5.782
 7853SOL     OW24457   4.091   2.962   1.657
 7853SOL    HW124458   4.045   2.895   1.715
 7853SOL    HW224459   4.026   3.030   1.624
 7854SOL     OW24460   4.477   1.149   1.056
 7854SOL    HW124461   4.571   1.116   1.044
 7854SOL    HW224462   4.427   1.136   0.970
 7855SOL     OW24463   5.778   6.742   3.837
 7855SOL    HW124464   5.719   6.800   3.781
 7855SOL    HW224465   5.726   6.704   3.913
 7856SOL     OW24466   2.142   6.578   5.529
 7856SOL    HW124467   2.157   6.479   5.531
 7856SOL    HW224468   2.222   6.623   5.490
 7857SOL     OW24469   6.197   4.758   0.786
 7857SOL    HW124470   6.241   4.830   0.733
 7857SOL    HW224471   6.103   4.747   0.755
 7858SOL     OW24472   0.136   3.654   6.066
 7858SOL    HW124473   0.130   3.626   5.970
 7858SOL    HW224474   0.105   3.579   6.124
 7859SOL     OW24475   4.647   2.184   1.030
 7859SOL    HW124476   4.656   2.283   1.042
 7859SOL    HW224477   4.638   2.141   1.120
 7860SOL     OW24478   2.398   1.289   4.051
 7860SOL    HW124479   2.322   1.309   3.988
 7860SOL    HW224480   2.397   1.354   4.127
 7861SOL     OW24481   1.667   5.926   0.933
 7861SOL    HW124482   1.719   6.011   0.940
 7861SOL    HW224483   1.652   5.888   1.024
 7862SOL     OW24484   1.718   6.720   0.017
 7862SOL    HW124485   1.809   6.694   7.010
 7862SOL    HW224486   1.666   6.757   6.964
 7863SOL     OW24487   1.250   4.388   4.108
 7863SOL    HW124488   1.236   4.385   4.207
 7863SOL    HW224489   1.175   4.438   4.065
 7864SOL     OW24490   2.807   5.937   4.717
 7864SOL    HW124491   2.734   5.905   4.777
 7864SOL    HW224492   2.834   6.029   4.745
 7865SOL     OW24493   5.839   4.324   3.467
 7865SOL    HW124494   5.778   4.313   3.545
 7865SOL    HW224495   5.794   4.291   3.384
 7866SOL     OW24496   1.100   0.850   5.818
 7866SOL    HW124497   1.029   0.779   5.815
 7866SOL    HW224498   1.071   0.924   5.879
 7867SOL     OW24499   4.306   4.967   3.962
 7867SOL    HW124500   4.214   4.929   3.955
 7867SOL    HW224501   4.373   4.898   3.938
 7868SOL     OW24502   3.197   6.569   1.492
 7868SOL    HW124503   3.266   6.546   1.424
 7868SOL    HW224504   3.113   6.518   1.472
 7869SOL     OW24505   6.067   4.757   0.114
 7869SOL    HW124506   6.031   4.753   0.207
 7869SOL    HW224507   6.067   4.851   0.081
 7870SOL     OW24508   6.412   6.559   3.530
 7870SOL    HW124509   6.426   6.491   3.601
 7870SOL    HW224510   6.314   6.576   3.519
 7871SOL     OW24511   4.341   1.280   0.622
 7871SOL    HW124512   4.257   1.284   0.567
 7871SOL    HW224513   4.340   1.354   0.690
 7872SOL     OW24514   0.203   5.368   3.210
 7872SOL    HW124515   0.264   5.354   3.132
 7872SOL    HW224516   0.226   5.455   3.255
 7873SOL     OW24517   4.778   2.105   6.879
 7873SOL    HW124518   4.679   2.096   6.890
 7873SOL    HW224519   4.801   2.202   6.871
 7874SOL     OW24520   5.828   2.390   0.348
 7874SOL    HW124521   5.789   2.481   0.367
 7874SOL    HW224522   5.768   2.342   0.284
 7875SOL     OW24523   6.663   4.495   6.329
 7875SOL    HW124524   6.724   4.562   6.287
 7875SOL    HW224525   6.592   4.469   6.264
 7876SOL     OW24526   1.394   6.836   3.187
 7876SOL    HW124527   1.387   6.926   3.143
 7876SOL    HW224528   1.423   6.848   3.282
 7877SOL     OW24529   6.953   2.826   2.564
 7877SOL    HW124530   6.906   2.913   2.578
 7877SOL    HW224531   6.944   2.798   2.468
 7878SOL     OW24532   3.895   6.916   2.530
 7878SOL    HW124533   3.871   6.836   2.476
 7878SOL    HW224534   3.850   6.911   2.619
 7879SOL     OW24535   3.498   6.017   2.988
 7879SOL    HW124536   3.399   6.035   2.986
 7879SOL    HW224537   3.531   6.030   3.082
 7880SOL     OW24538   1.137   4.524   2.227
 7880SOL    HW124539   1.099   4.433   2.241
 7880SOL    HW224540   1.064   4.586   2.196
 7881SOL     OW24541   4.896   3.494   3.683
 7881SOL    HW124542   4.912   3.439   3.601
 7881SOL    HW224543   4.934   3.446   3.762
 7882SOL     OW24544   0.170   2.956   6.859
 7882SOL    HW124545   0.179   3.039   6.914
 7882SOL    HW224546   0.107   2.893   6.903
 7883SOL     OW24547   0.675   0.195   4.911
 7883SOL    HW124548   0.610   0.249   4.964
 7883SOL    HW224549   0.625   0.138   4.845
 7884SOL     OW24550   1.160   3.036   4.043
 7884SOL    HW124551   1.202   2.986   4.119
 7884SOL    HW224552   1.214   3.117   4.023
 7885SOL     OW24553   0.357   5.907   6.776
 7885SOL    HW124554   0.359   5.866   6.685
 7885SOL    HW224555   0.450   5.928   6.805
 7886SOL     OW24556   4.960   3.818   1.091
 7886SOL    HW124557   5.000   3.900   1.050
 7886SOL    HW224558   4.882   3.788   1.035
 7887SOL     OW24559   4.761   3.150   6.024
 7887SOL    HW124560   4.710   3.198   6.095
 7887SOL    HW224561   4.823   3.214   5.978
 7888SOL     OW24562   4.416   6.082   4.880
 7888SOL    HW124563   4.337   6.035   4.841
 7888SOL    HW224564   4.425   6.057   4.977
 7889SOL     OW24565   6.502   4.968   3.062
 7889SOL    HW124566   6.588   4.963   3.113
 7889SOL    HW224567   6.450   4.884   3.077
 7890SOL     OW24568   1.847   3.367   2.378
 7890SOL    HW124569   1.856   3.270   2.359
 7890SOL    HW224570   1.782   3.408   2.315
 7891SOL     OW24571   0.821   4.712   3.094
 7891SOL    HW124572   0.814   4.641   3.023
 7891SOL    HW224573   0.912   4.754   3.090
 7892SOL     OW24574   2.009   2.100   4.837
 7892SOL    HW124575   2.107   2.109   4.854
 7892SOL    HW224576   1.986   2.145   4.750
 7893SOL     OW24577   5.860   6.624   1.229
 7893SOL    HW124578   5.948   6.653   1.190
 7893SOL    HW224579   5.852   6.525   1.222
 7894SOL     OW24580   3.016   0.379   1.915
 7894SOL    HW124581   2.960   0.298   1.933
 7894SOL    HW224582   2.969   0.461   1.946
 7895SOL     OW24583   0.523   1.216   3.702
 7895SOL    HW124584   0.477   1.128   3.713
 7895SOL    HW224585   0.509   1.249   3.609
 7896SOL     OW24586   3.957   1.606   6.112
 7896SOL    HW124587   3.967   1.515   6.153
 7896SOL    HW224588   3.865   1.641   6.131
 7897SOL     OW24589   3.136   2.971   6.682
 7897SOL    HW124590   3.116   2.923   6.767
 7897SOL    HW224591   3.058   3.029   6.658
 7898SOL     OW24592   4.998   1.293   4.193
 7898SOL    HW124593   5.019   1.390   4.200
 7898SOL    HW224594   4.902   1.277   4.220
 7899SOL     OW24595   4.420   1.220   2.044
 7899SOL    HW124596   4.324   1.215   2.017
 7899SOL    HW224597   4.427   1.268   2.131
 7900SOL     OW24598   1.065   5.695   1.294
 7900SOL    HW124599   1.039   5.627   1.226
 7900SOL    HW224600   1.137   5.754   1.256
 7901SOL     OW24601   6.258   5.247   0.820
 7901SOL    HW124602   6.230   5.230   0.914
 7901SOL    HW224603   6.182   5.225   0.758
 7902SOL     OW24604   4.788   4.661   5.745
 7902SOL    HW124605   4.751   4.747   5.781
 7902SOL    HW224606   4.852   4.680   5.671
 7903SOL     OW24607   0.063   3.031   0.782
 7903SOL    HW124608   0.084   2.987   0.870
 7903SOL    HW224609   6.999   2.997   0.748
 7904SOL     OW24610   6.139   2.439   2.674
 7904SOL    HW124611   6.150   2.450   2.575
 7904SOL    HW224612   6.062   2.377   2.692
 7905SOL     OW24613   1.822   1.858   1.734
 7905SOL    HW124614   1.874   1.943   1.728
 7905SOL    HW224615   1.882   1.781   1.714
 7906SOL     OW24616   0.604   4.195   6.746
 7906SOL    HW124617   0.681   4.237   6.699
 7906SOL    HW224618   0.519   4.215   6.697
 7907SOL     OW24619   6.982   2.627   2.773
 7907SOL    HW124620   0.056   2.631   2.792
 7907SOL    HW224621   6.963   2.672   2.686
 7908SOL     OW24622   6.721   1.538   2.956
 7908SOL    HW124623   6.634   1.567   2.915
 7908SOL    HW224624   6.749   1.452   2.915
 7909SOL     OW24625   3.966   6.507   4.777
 7909SOL    HW124626   3.886   6.470   4.824
 7909SOL    HW224627   4.012   6.434   4.727
 7910SOL     OW24628   6.693   2.697   5.909
 7910SOL    HW124629   6.677   2.676   6.005
 7910SOL    HW224630   6.641   2.633   5.851
 7911SOL     OW24631   6.925   5.500   6.783
 7911SOL    HW124632   6.943   5.439   6.706
 7911SOL    HW224633   6.985   5.580   6.777
 7912SOL     OW24634   0.100   5.023   5.448
 7912SOL    HW124635   0.160   5.047   5.525
 7912SOL    HW224636   0.155   5.015   5.365
 7913SOL     OW24637   1.641   6.041   6.442
 7913SOL    HW124638   1.542   6.037   6.429
 7913SOL    HW224639   1.663   6.104   6.517
 7914SOL     OW24640   6.135   4.138   1.137
 7914SOL    HW124641   6.197   4.144   1.215
 7914SOL    HW224642   6.173   4.191   1.061
 7915SOL     OW24643   2.934   0.994   2.412
 7915SOL    HW124644   2.996   1.058   2.366
 7915SOL    HW224645   2.957   0.901   2.385
 7916SOL     OW24646   4.238   3.809   5.538
 7916SOL    HW124647   4.153   3.815   5.591
 7916SOL    HW224648   4.218   3.774   5.447
 7917SOL     OW24649   4.151   3.491   3.726
 7917SOL    HW124650   4.192   3.489   3.635
 7917SOL    HW224651   4.128   3.398   3.755
 7918SOL     OW24652   6.225   2.245   3.067
 7918SOL    HW124653   6.143   2.299   3.044
 7918SOL    HW224654   6.287   2.301   3.122
 7919SOL     OW24655   5.403   4.071   1.946
 7919SOL    HW124656   5.367   4.004   1.880
 7919SOL    HW224657   5.327   4.118   1.990
 7920SOL     OW24658   0.106   0.144   1.863
 7920SOL    HW124659   0.105   0.231   1.911
 7920SOL    HW224660   0.197   0.104   1.867
 7921SOL     OW24661   2.466   6.213   1.900
 7921SOL    HW124662   2.521   6.188   1.979
 7921SOL    HW224663   2.480   6.309   1.878
 7922SOL     OW24664   0.935   5.142   5.661
 7922SOL    HW124665   0.984   5.206   5.720
 7922SOL    HW224666   0.991   5.120   5.581
 7923SOL     OW24667   0.597   1.782   2.848
 7923SOL    HW124668   0.654   1.766   2.768
 7923SOL    HW224669   0.566   1.877   2.848
 7924SOL     OW24670   1.987   0.988   3.437
 7924SOL    HW124671   1.984   0.900   3.389
 7924SOL    HW224672   2.083   1.014   3.451
 7925SOL     OW24673   0.378   1.355   6.920
 7925SOL    HW124674   0.464   1.306   6.933
 7925SOL    HW224675   0.329   1.316   6.842
 7926SOL     OW24676   3.035   0.007   1.928
 7926SOL    HW124677   3.021   6.935   1.951
 7926SOL    HW224678   3.048   0.060   2.012
 7927SOL     OW24679   4.473   4.574   4.488
 7927SOL    HW124680   4.430   4.529   4.410
 7927SOL    HW224681   4.568   4.595   4.466
 7928SOL     OW24682   0.818   4.340   6.627
 7928SOL    HW124683   0.758   4.417   6.602
 7928SOL    HW224684   0.835   4.284   6.547
 7929SOL     OW24685   3.865   4.018   4.559
 7929SOL    HW124686   3.932   4.025   4.485
 7929SOL    HW224687   3.911   3.987   4.642
 7930SOL     OW24688   4.975   6.611   2.980
 7930SOL    HW124689   4.911   6.588   2.908
 7930SOL    HW224690   4.972   6.710   2.997
 7931SOL     OW24691   3.157   3.735   6.237
 7931SOL    HW124692   3.158   3.684   6.151
 7931SOL    HW224693   3.228   3.698   6.297
 7932SOL     OW24694   3.129   0.510   0.358
 7932SOL    HW124695   3.099   0.581   0.422
 7932SOL    HW224696   3.145   0.551   0.268
 7933SOL     OW24697   1.655   0.841   6.221
 7933SOL    HW124698   1.593   0.905   6.268
 7933SOL    HW224699   1.605   0.759   6.195
 7934SOL     OW24700   3.837   2.128   5.469
 7934SOL    HW124701   3.859   2.216   5.429
 7934SOL    HW224702   3.914   2.065   5.458
 7935SOL     OW24703   4.396   5.812   2.095
 7935SOL    HW124704   4.366   5.717   2.102
 7935SOL    HW224705   4.321   5.868   2.060
 7936SOL     OW24706   4.478   6.252   2.396
 7936SOL    HW124707   4.476   6.334   2.454
 7936SOL    HW224708   4.531   6.180   2.440
 7937SOL     OW24709   5.864   0.993   5.730
 7937SOL    HW124710   5.814   0.968   5.813
 7937SOL    HW224711   5.820   0.954   5.650
 7938SOL     OW24712   6.156   4.732   4.234
 7938SOL    HW124713   6.216   4.724   4.313
 7938SOL    HW224714   6.210   4.758   4.153
 7939SOL     OW24715   0.348   6.743   4.129
 7939SOL    HW124716   0.251   6.722   4.142
 7939SOL    HW224717   0.403   6.666   4.163
 7940SOL     OW24718   1.412   5.616   0.605
 7940SOL    HW124719   1.370   5.637   0.693
 7940SOL    HW224720   1.358   5.658   0.532
 7941SOL     OW24721   0.528   0.533   1.016
 7941SOL    HW124722   0.511   0.614   0.958
 7941SOL    HW224723   0.536   0.452   0.958
 7942SOL     OW24724   1.563   1.137   1.707
 7942SOL    HW124725   1.649   1.188   1.701
 7942SOL    HW224726   1.576   1.045   1.670
 7943SOL     OW24727   6.613   2.229   0.336
 7943SOL    HW124728   6.668   2.152   0.370
 7943SOL    HW224729   6.517   2.215   0.360
 7944SOL     OW24730   0.117   3.650   2.092
 7944SOL    HW124731   0.207   3.608   2.101
 7944SOL    HW224732   0.049   3.580   2.073
 7945SOL     OW24733   5.502   0.164   0.725
 7945SOL    HW124734   5.530   0.252   0.763
 7945SOL    HW224735   5.420   0.175   0.670
 7946SOL     OW24736   1.956   1.465   5.748
 7946SOL    HW124737   1.961   1.563   5.733
 7946SOL    HW224738   1.864   1.440   5.779
 7947SOL     OW24739   4.471   5.559   6.242
 7947SOL    HW124740   4.547   5.494   6.242
 7947SOL    HW224741   4.506   5.652   6.235
 7948SOL     OW24742   0.497   5.133   6.218
 7948SOL    HW124743   0.444   5.181   6.288
 7948SOL    HW224744   0.507   5.037   6.243
 7949SOL     OW24745   0.024   4.135   3.745
 7949SOL    HW124746   6.975   4.073   3.717
 7949SOL    HW224747   0.004   4.171   3.836
 7950SOL     OW24748   3.722   4.940   3.934
 7950SOL    HW124749   3.751   4.880   4.009
 7950SOL    HW224750   3.800   4.993   3.902
 7951SOL     OW24751   2.433   3.412   0.496
 7951SOL    HW124752   2.352   3.383   0.547
 7951SOL    HW224753   2.510   3.420   0.559
 7952SOL     OW24754   5.321   5.126   0.791
 7952SOL    HW124755   5.244   5.092   0.846
 7952SOL    HW224756   5.363   5.050   0.741
 7953SOL     OW24757   1.907   3.231   2.863
 7953SOL    HW124758   1.913   3.140   2.822
 7953SOL    HW224759   1.818   3.271   2.841
 7954SOL     OW24760   4.871   5.067   4.261
 7954SOL    HW124761   4.940   5.135   4.236
 7954SOL    HW224762   4.914   4.978   4.273
 7955SOL     OW24763   2.355   6.173   6.131
 7955SOL    HW124764   2.389   6.233   6.059
 7955SOL    HW224765   2.278   6.120   6.096
 7956SOL     OW24766   6.304   6.584   2.816
 7956SOL    HW124767   6.261   6.608   2.730
 7956SOL    HW224768   6.387   6.638   2.829
 7957SOL     OW24769   1.040   2.102   1.071
 7957SOL    HW124770   1.007   2.196   1.064
 7957SOL    HW224771   0.997   2.046   1.000
 7958SOL     OW24772   2.344   6.228   3.385
 7958SOL    HW124773   2.322   6.320   3.417
 7958SOL    HW224774   2.317   6.160   3.454
 7959SOL     OW24775   5.018   5.274   1.521
 7959SOL    HW124776   4.939   5.328   1.493
 7959SOL    HW224777   4.987   5.182   1.547
 7960SOL     OW24778   1.564   2.193   1.091
 7960SOL    HW124779   1.640   2.241   1.136
 7960SOL    HW224780   1.537   2.115   1.147
 7961SOL     OW24781   0.774   6.200   0.150
 7961SOL    HW124782   0.795   6.112   0.107
 7961SOL    HW224783   0.859   6.242   0.181
 7962SOL     OW24784   1.985   6.891   2.380
 7962SOL    HW124785   2.024   6.830   2.311
 7962SOL    HW224786   1.890   6.866   2.397
 7963SOL     OW24787   0.631   6.529   4.843
 7963SOL    HW124788   0.726   6.499   4.849
 7963SOL    HW224789   0.572   6.450   4.826
 7964SOL     OW24790   6.088   5.548   3.797
 7964SOL    HW124791   6.155   5.552   3.872
 7964SOL    HW224792   6.036   5.633   3.794
 7965SOL     OW24793   4.453   1.792   0.613
 7965SOL    HW124794   4.389   1.865   0.640
 7965SOL    HW224795   4.527   1.832   0.559
 7966SOL     OW24796   0.305   0.294   3.368
 7966SOL    HW124797   0.259   0.242   3.440
 7966SOL    HW224798   0.403   0.293   3.385
 7967SOL     OW24799   3.238   0.398   3.456
 7967SOL    HW124800   3.229   0.473   3.521
 7967SOL    HW224801   3.333   0.392   3.425
 7968SOL     OW24802   2.566   0.985   1.635
 7968SOL    HW124803   2.597   0.928   1.559
 7968SOL    HW224804   2.642   1.041   1.668
 7969SOL     OW24805   3.255   1.603   3.474
 7969SOL    HW124806   3.244   1.504   3.477
 7969SOL    HW224807   3.332   1.626   3.414
 7970SOL     OW24808   6.788   5.166   3.908
 7970SOL    HW124809   6.713   5.113   3.869
 7970SOL    HW224810   6.852   5.104   3.953
 7971SOL     OW24811   3.438   1.664   2.417
 7971SOL    HW124812   3.512   1.608   2.379
 7971SOL    HW224813   3.375   1.606   2.468
 7972SOL     OW24814   6.145   5.007   1.524
 7972SOL    HW124815   6.177   5.063   1.601
 7972SOL    HW224816   6.075   5.058   1.474
 7973SOL     OW24817   4.650   1.995   3.124
 7973SOL    HW124818   4.576   2.057   3.152
 7973SOL    HW224819   4.641   1.976   3.026
 7974SOL     OW24820   5.608   6.288   3.924
 7974SOL    HW124821   5.523   6.340   3.917
 7974SOL    HW224822   5.683   6.339   3.882
 7975SOL     OW24823   1.696   1.569   2.412
 7975SOL    HW124824   1.682   1.537   2.506
 7975SOL    HW224825   1.780   1.622   2.406
 7976SOL     OW24826   1.054   6.548   6.007
 7976SOL    HW124827   1.120   6.574   6.077
 7976SOL    HW224828   1.095   6.558   5.917
 7977SOL     OW24829   5.079   6.653   1.250
 7977SOL    HW124830   5.029   6.570   1.225
 7977SOL    HW224831   5.065   6.673   1.347
 7978SOL     OW24832   3.568   2.098   5.610
 7978SOL    HW124833   3.668   2.091   5.602
 7978SOL    HW224834   3.526   2.023   5.560
 7979SOL     OW24835   5.121   6.378   4.053
 7979SOL    HW124836   5.209   6.393   4.009
 7979SOL    HW224837   5.120   6.288   4.098
 7980SOL     OW24838   2.912   0.662   2.904
 7980SOL    HW124839   2.899   0.658   3.003
 7980SOL    HW224840   2.861   0.587   2.860
 7981SOL     OW24841   0.869   6.207   2.386
 7981SOL    HW124842   0.856   6.270   2.463
 7981SOL    HW224843   0.870   6.113   2.421
 7982SOL     OW24844   6.957   2.390   0.500
 7982SOL    HW124845   0.005   2.328   0.532
 7982SOL    HW224846   6.922   2.357   0.412
 7983SOL     OW24847   5.030   2.577   1.876
 7983SOL    HW124848   5.121   2.572   1.919
 7983SOL    HW224849   4.980   2.493   1.896
 7984SOL     OW24850   0.029   0.188   0.321
 7984SOL    HW124851   0.019   0.168   0.419
 7984SOL    HW224852   6.973   0.240   0.290
 7985SOL     OW24853   1.227   1.042   0.678
 7985SOL    HW124854   1.217   1.137   0.646
 7985SOL    HW224855   1.167   0.983   0.624
 7986SOL     OW24856   4.853   3.251   6.918
 7986SOL    HW124857   4.805   3.166   6.940
 7986SOL    HW224858   4.816   3.288   6.833
 7987SOL     OW24859   1.117   2.827   4.961
 7987SOL    HW124860   1.133   2.773   4.878
 7987SOL    HW224861   1.047   2.783   5.016
 7988SOL     OW24862   2.893   1.459   5.354
 7988SOL    HW124863   2.794   1.455   5.368
 7988SOL    HW224864   2.928   1.546   5.389
 7989SOL     OW24865   3.846   3.044   6.191
 7989SOL    HW124866   3.859   2.990   6.107
 7989SOL    HW224867   3.928   3.097   6.210
 7990SOL     OW24868   2.247   2.921   4.807
 7990SOL    HW124869   2.285   2.941   4.898
 7990SOL    HW224870   2.256   3.001   4.749
 7991SOL     OW24871   1.772   2.698   5.878
 7991SOL    HW124872   1.861   2.744   5.869
 7991SOL    HW224873   1.786   2.599   5.888
 7992SOL     OW24874   2.921   1.506   0.941
 7992SOL    HW124875   2.848   1.534   0.878
 7992SOL    HW224876   3.010   1.521   0.897
 7993SOL     OW24877   2.634   6.381   6.376
 7993SOL    HW124878   2.689   6.337   6.305
 7993SOL    HW224879   2.537   6.372   6.354
 7994SOL     OW24880   5.539   0.608   4.445
 7994SOL    HW124881   5.620   0.551   4.430
 7994SOL    HW224882   5.520   0.662   4.364
 7995SOL     OW24883   4.286   5.536   3.201
 7995SOL    HW124884   4.372   5.486   3.210
 7995SOL    HW224885   4.275   5.568   3.107
 7996SOL     OW24886   4.399   1.310   4.916
 7996SOL    HW124887   4.313   1.265   4.892
 7996SOL    HW224888   4.475   1.247   4.903
 7997SOL     OW24889   5.213   2.316   1.624
 7997SOL    HW124890   5.122   2.343   1.592
 7997SOL    HW224891   5.204   2.245   1.693
 7998SOL     OW24892   6.445   4.843   6.154
 7998SOL    HW124893   6.429   4.778   6.079
 7998SOL    HW224894   6.364   4.846   6.213
 7999SOL     OW24895   2.076   1.282   5.571
 7999SOL    HW124896   2.134   1.203   5.592
 7999SOL    HW224897   2.084   1.350   5.643
 8000SOL     OW24898   5.239   0.469   5.551
 8000SOL    HW124899   5.162   0.409   5.533
 8000SOL    HW224900   5.205   0.559   5.579
 8001SOL     OW24901   2.596   5.344   1.153
 8001SOL    HW124902   2.619   5.340   1.055
 8001SOL    HW224903   2.596   5.440   1.182
 8002SOL     OW24904   5.455   2.230   5.659
 8002SOL    HW124905   5.471   2.189   5.570
 8002SOL    HW224906   5.364   2.205   5.692
 8003SOL     OW24907   4.032   5.877   3.726
 8003SOL    HW124908   3.974   5.819   3.669
 8003SOL    HW224909   4.087   5.820   3.787
 8004SOL     OW24910   1.107   4.355   2.924
 8004SOL    HW124911   1.155   4.421   2.983
 8004SOL    HW224912   1.151   4.266   2.931
 8005SOL     OW24913   2.015   0.734   2.551
 8005SOL    HW124914   1.974   0.807   2.495
 8005SOL    HW224915   2.103   0.765   2.585
 8006SOL     OW24916   3.706   6.262   1.822
 8006SOL    HW124917   3.649   6.195   1.870
 8006SOL    HW224918   3.659   6.350   1.820
 8007SOL     OW24919   0.311   0.991   4.001
 8007SOL    HW124920   0.339   1.086   4.016
 8007SOL    HW224921   0.237   0.968   4.065
 8008SOL     OW24922   5.746   5.113   0.861
 8008SOL    HW124923   5.694   5.177   0.917
 8008SOL    HW224924   5.743   5.022   0.903
 8009SOL     OW24925   6.768   0.143   3.679
 8009SOL    HW124926   6.865   0.164   3.690
 8009SOL    HW224927   6.738   0.085   3.755
 8010SOL     OW24928   2.117   2.745   6.800
 8010SOL    HW124929   2.049   2.699   6.743
 8010SOL    HW224930   2.209   2.722   6.769
 8011SOL     OW24931   2.206   2.848   0.491
 8011SOL    HW124932   2.173   2.850   0.586
 8011SOL    HW224933   2.291   2.797   0.486
 8012SOL     OW24934   3.059   0.419   3.249
 8012SOL    HW124935   3.132   0.413   3.317
 8012SOL    HW224936   3.099   0.447   3.161
 8013SOL     OW24937   5.924   5.321   4.621
 8013SOL    HW124938   5.988   5.388   4.585
 8013SOL    HW224939   5.852   5.367   4.672
 8014SOL     OW24940   2.133   6.746   6.790
 8014SOL    HW124941   2.186   6.672   6.831
 8014SOL    HW224942   2.089   6.800   6.862
 8015SOL     OW24943   1.638   2.085   6.132
 8015SOL    HW124944   1.597   2.157   6.075
 8015SOL    HW224945   1.710   2.125   6.189
 8016SOL     OW24946   4.628   5.916   2.178
 8016SOL    HW124947   4.676   5.953   2.099
 8016SOL    HW224948   4.536   5.887   2.151
 8017SOL     OW24949   6.521   3.462   5.695
 8017SOL    HW124950   6.443   3.405   5.722
 8017SOL    HW224951   6.521   3.546   5.749
 8018SOL     OW24952   5.719   2.870   4.473
 8018SOL    HW124953   5.805   2.888   4.521
 8018SOL    HW224954   5.735   2.802   4.401
 8019SOL     OW24955   2.653   5.021   1.443
 8019SOL    HW124956   2.555   5.033   1.459
 8019SOL    HW224957   2.679   5.066   1.358
 8020SOL     OW24958   5.767   6.404   6.598
 8020SOL    HW124959   5.720   6.488   6.626
 8020SOL    HW224960   5.731   6.374   6.509
 8021SOL     OW24961   6.619   0.919   0.627
 8021SOL    HW124962   6.702   0.863   0.632
 8021SOL    HW224963   6.643   1.009   0.590
 8022SOL     OW24964   4.503   5.032   3.597
 8022SOL    HW124965   4.422   5.079   3.562
 8022SOL    HW224966   4.530   4.961   3.533
 8023SOL     OW24967   6.854   6.113   3.185
 8023SOL    HW124968   6.804   6.069   3.260
 8023SOL    HW224969   6.909   6.044   3.137
 8024SOL     OW24970   4.506   5.751   5.264
 8024SOL    HW124971   4.596   5.793   5.274
 8024SOL    HW224972   4.474   5.719   5.353
 8025SOL     OW24973   3.357   5.656   0.732
 8025SOL    HW124974   3.331   5.611   0.817
 8025SOL    HW224975   3.329   5.599   0.654
 8026SOL     OW24976   2.609   3.070   6.739
 8026SOL    HW124977   2.653   2.988   6.773
 8026SOL    HW224978   2.512   3.052   6.723
 8027SOL     OW24979   4.627   3.612   5.641
 8027SOL    HW124980   4.580   3.532   5.604
 8027SOL    HW224981   4.597   3.694   5.591
 8028SOL     OW24982   5.094   5.467   0.389
 8028SOL    HW124983   5.140   5.422   0.466
 8028SOL    HW224984   5.141   5.551   0.366
 8029SOL     OW24985   2.870   4.468   0.122
 8029SOL    HW124986   2.887   4.564   0.143
 8029SOL    HW224987   2.957   4.418   0.124
 8030SOL     OW24988   6.206   3.443   0.889
 8030SOL    HW124989   6.301   3.463   0.864
 8030SOL    HW224990   6.151   3.526   0.882
 8031SOL     OW24991   3.705   6.503   1.004
 8031SOL    HW124992   3.735   6.413   1.038
 8031SOL    HW224993   3.710   6.570   1.078
 8032SOL     OW24994   4.627   4.854   5.847
 8032SOL    HW124995   4.535   4.850   5.886
 8032SOL    HW224996   4.682   4.919   5.900
 8033SOL     OW24997   5.986   1.741   1.114
 8033SOL    HW124998   6.073   1.727   1.161
 8033SOL    HW224999   5.994   1.819   1.051
 8034SOL     OW25000   6.169   1.626   5.184
 8034SOL    HW125001   6.175   1.551   5.249
 8034SOL    HW225002   6.093   1.610   5.121
 8035SOL     OW25003   5.395   5.565   6.369
 8035SOL    HW125004   5.482   5.579   6.417
 8035SOL    HW225005   5.331   5.638   6.394
 8036SOL     OW25006   1.357   4.319   1.284
 8036SOL    HW125007   1.291   4.252   1.318
 8036SOL    HW225008   1.332   4.346   1.191
 8037SOL     OW25009   2.203   3.179   1.793
 8037SOL    HW125010   2.272   3.249   1.811
 8037SOL    HW225011   2.229   3.126   1.712
 8038SOL     OW25012   5.679   1.494   4.231
 8038SOL    HW125013   5.651   1.453   4.144
 8038SOL    HW225014   5.732   1.428   4.283
 8039SOL     OW25015   2.537   6.039   4.313
 8039SOL    HW125016   2.623   6.082   4.286
 8039SOL    HW225017   2.472   6.042   4.237
 8040SOL     OW25018   5.749   5.773   0.290
 8040SOL    HW125019   5.779   5.704   0.224
 8040SOL    HW225020   5.767   5.864   0.254
 8041SOL     OW25021   3.681   1.907   1.021
 8041SOL    HW125022   3.643   1.977   0.960
 8041SOL    HW225023   3.619   1.828   1.024
 8042SOL     OW25024   2.517   4.810   0.456
 8042SOL    HW125025   2.581   4.873   0.411
 8042SOL    HW225026   2.549   4.716   0.445
 8043SOL     OW25027   2.940   0.567   1.284
 8043SOL    HW125028   2.854   0.564   1.233
 8043SOL    HW225029   3.014   0.598   1.223
 8044SOL     OW25030   3.060   3.443   1.874
 8044SOL    HW125031   2.972   3.396   1.867
 8044SOL    HW225032   3.045   3.536   1.908
 8045SOL     OW25033   6.244   2.963   3.612
 8045SOL    HW125034   6.283   2.935   3.524
 8045SOL    HW225035   6.210   2.883   3.660
 8046SOL     OW25036   0.186   5.294   5.186
 8046SOL    HW125037   0.099   5.296   5.235
 8046SOL    HW225038   0.191   5.372   5.124
 8047SOL     OW25039   2.854   0.100   4.487
 8047SOL    HW125040   2.885   0.065   4.399
 8047SOL    HW225041   2.807   0.187   4.473
 8048SOL     OW25042   6.253   1.003   5.810
 8048SOL    HW125043   6.230   0.928   5.873
 8048SOL    HW225044   6.169   1.049   5.782
 8049SOL     OW25045   1.289   7.019   0.428
 8049SOL    HW125046   1.325   0.073   0.480
 8049SOL    HW225047   1.348   7.001   0.350
 8050SOL     OW25048   0.207   3.037   1.443
 8050SOL    HW125049   0.176   3.095   1.518
 8050SOL    HW225050   0.183   2.942   1.463
 8051SOL     OW25051   3.069   1.399   3.838
 8051SOL    HW125052   3.025   1.330   3.781
 8051SOL    HW225053   3.115   1.355   3.915
 8052SOL     OW25054   3.427   2.045   3.188
 8052SOL    HW125055   3.349   2.092   3.148
 8052SOL    HW225056   3.478   1.998   3.116
 8053SOL     OW25057   4.302   3.379   1.698
 8053SOL    HW125058   4.243   3.425   1.765
 8053SOL    HW225059   4.303   3.281   1.717
 8054SOL     OW25060   4.699   6.296   4.283
 8054SOL    HW125061   4.603   6.267   4.274
 8054SOL    HW225062   4.714   6.378   4.227
 8055SOL     OW25063   0.376   0.177   5.613
 8055SOL    HW125064   0.452   0.196   5.676
 8055SOL    HW225065   0.389   0.087   5.571
 8056SOL     OW25066   4.427   1.395   2.276
 8056SOL    HW125067   4.500   1.458   2.303
 8056SOL    HW225068   4.420   1.321   2.343
 8057SOL     OW25069   3.057   0.239   3.584
 8057SOL    HW125070   3.117   0.292   3.523
 8057SOL    HW225071   3.109   0.209   3.663
 8058SOL     OW25072   2.011   6.966   3.249
 8058SOL    HW125073   2.004   0.042   3.240
 8058SOL    HW225074   2.066   6.944   3.330
 8059SOL     OW25075   2.660   0.856   3.493
 8059SOL    HW125076   2.616   0.801   3.421
 8059SOL    HW225077   2.731   0.914   3.453
 8060SOL     OW25078   0.840   2.749   4.846
 8060SOL    HW125079   0.798   2.834   4.879
 8060SOL    HW225080   0.863   2.691   4.924
 8061SOL     OW25081   6.420   5.965   2.238
 8061SOL    HW125082   6.419   6.004   2.145
 8061SOL    HW225083   6.372   5.878   2.238
 8062SOL     OW25084   1.648   3.550   2.292
 8062SOL    HW125085   1.614   3.621   2.353
 8062SOL    HW225086   1.662   3.588   2.200
 8063SOL     OW25087   2.436   2.918   6.240
 8063SOL    HW125088   2.529   2.941   6.269
 8063SOL    HW225089   2.423   2.819   6.245
 8064SOL     OW25090   6.750   2.502   6.531
 8064SOL    HW125091   6.775   2.561   6.455
 8064SOL    HW225092   6.760   2.406   6.503
 8065SOL     OW25093   4.685   6.854   6.379
 8065SOL    HW125094   4.591   6.885   6.395
 8065SOL    HW225095   4.693   6.757   6.403
 8066SOL     OW25096   1.824   0.043   1.745
 8066SOL    HW125097   1.814   0.056   1.844
 8066SOL    HW225098   1.921   0.049   1.720
 8067SOL     OW25099   4.805   2.322   2.405
 8067SOL    HW125100   4.748   2.241   2.421
 8067SOL    HW225101   4.748   2.398   2.376
 8068SOL     OW25102   6.261   4.601   4.490
 8068SOL    HW125103   6.218   4.570   4.575
 8068SOL    HW225104   6.272   4.700   4.492
 8069SOL     OW25105   1.379   6.428   2.257
 8069SOL    HW125106   1.307   6.449   2.190
 8069SOL    HW225107   1.356   6.471   2.344
 8070SOL     OW25108   3.702   0.101   2.604
 8070SOL    HW125109   3.604   0.113   2.594
 8070SOL    HW225110   3.748   0.119   2.517
 8071SOL     OW25111   4.582   5.956   0.037
 8071SOL    HW125112   4.563   6.046   0.074
 8071SOL    HW225113   4.628   5.900   0.107
 8072SOL     OW25114   4.351   0.407   2.671
 8072SOL    HW125115   4.417   0.474   2.637
 8072SOL    HW225116   4.392   0.356   2.746
 8073SOL     OW25117   5.243   0.196   5.837
 8073SOL    HW125118   5.191   0.265   5.888
 8073SOL    HW225119   5.233   0.107   5.881
 8074SOL     OW25120   3.167   4.199   6.661
 8074SOL    HW125121   3.197   4.183   6.568
 8074SOL    HW225122   3.193   4.292   6.689
 8075SOL     OW25123   5.990   2.367   3.585
 8075SOL    HW125124   5.929   2.361   3.506
 8075SOL    HW225125   6.084   2.350   3.555
 8076SOL     OW25126   4.598   2.776   6.502
 8076SOL    HW125127   4.600   2.696   6.442
 8076SOL    HW225128   4.509   2.782   6.546
 8077SOL     OW25129   1.298   0.014   0.113
 8077SOL    HW125130   1.391   0.037   0.142
 8077SOL    HW225131   1.239   0.095   0.124
 8078SOL     OW25132   5.766   2.687   0.930
 8078SOL    HW125133   5.753   2.782   0.903
 8078SOL    HW225134   5.806   2.635   0.854
 8079SOL     OW25135   1.030   2.461   1.431
 8079SOL    HW125136   1.058   2.373   1.469
 8079SOL    HW225137   1.058   2.466   1.335
 8080SOL     OW25138   4.030   5.090   0.551
 8080SOL    HW125139   4.006   5.187   0.556
 8080SOL    HW225140   4.061   5.068   0.458
 8081SOL     OW25141   5.817   2.001   4.742
 8081SOL    HW125142   5.914   1.976   4.738
 8081SOL    HW225143   5.781   2.010   4.650
 8082SOL     OW25144   6.427   3.500   4.282
 8082SOL    HW125145   6.422   3.401   4.275
 8082SOL    HW225146   6.518   3.527   4.314
 8083SOL     OW25147   6.080   2.239   4.857
 8083SOL    HW125148   6.077   2.139   4.856
 8083SOL    HW225149   5.988   2.276   4.865
 8084SOL     OW25150   6.424   0.279   0.469
 8084SOL    HW125151   6.515   0.239   0.457
 8084SOL    HW225152   6.433   0.366   0.519
 8085SOL     OW25153   5.378   2.291   0.865
 8085SOL    HW125154   5.283   2.267   0.887
 8085SOL    HW225155   5.416   2.346   0.940
 8086SOL     OW25156   2.165   5.983   6.068
 8086SOL    HW125157   2.123   5.988   5.977
 8086SOL    HW225158   2.122   5.909   6.120
 8087SOL     OW25159   2.899   4.268   0.516
 8087SOL    HW125160   2.891   4.277   0.417
 8087SOL    HW225161   2.986   4.225   0.539
 8088SOL     OW25162   4.496   0.888   2.775
 8088SOL    HW125163   4.469   0.861   2.867
 8088SOL    HW225164   4.445   0.835   2.708
 8089SOL     OW25165   6.369   2.816   0.681
 8089SOL    HW125166   6.449   2.776   0.636
 8089SOL    HW225167   6.291   2.814   0.619
 8090SOL     OW25168   4.387   1.908   5.354
 8090SOL    HW125169   4.377   1.824   5.408
 8090SOL    HW225170   4.480   1.942   5.361
 8091SOL     OW25171   2.154   4.345   5.031
 8091SOL    HW125172   2.061   4.327   4.998
 8091SOL    HW225173   2.215   4.272   5.000
 8092SOL     OW25174   6.682   1.761   4.610
 8092SOL    HW125175   6.681   1.857   4.639
 8092SOL    HW225176   6.606   1.744   4.548
 8093SOL     OW25177   5.829   5.382   0.809
 8093SOL    HW125178   5.832   5.288   0.845
 8093SOL    HW225179   5.822   5.379   0.709
 8094SOL     OW25180   0.436   3.983   4.368
 8094SOL    HW125181   0.348   3.953   4.331
 8094SOL    HW225182   0.441   4.083   4.365
 8095SOL     OW25183   6.524   3.609   4.863
 8095SOL    HW125184   6.535   3.589   4.766
 8095SOL    HW225185   6.552   3.704   4.882
 8096SOL     OW25186   4.480   0.259   0.622
 8096SOL    HW125187   4.477   0.308   0.535
 8096SOL    HW225188   4.391   0.265   0.666
 8097SOL     OW25189   4.938   1.645   4.495
 8097SOL    HW125190   4.965   1.643   4.399
 8097SOL    HW225191   4.943   1.552   4.533
 8098SOL     OW25192   2.067   1.461   4.445
 8098SOL    HW125193   2.028   1.524   4.378
 8098SOL    HW225194   2.147   1.503   4.487
 8099SOL     OW25195   3.539   6.314   5.280
 8099SOL    HW125196   3.604   6.319   5.356
 8099SOL    HW225197   3.576   6.364   5.202
 8100SOL     OW25198   6.565   6.206   0.703
 8100SOL    HW125199   6.633   6.145   0.744
 8100SOL    HW225200   6.482   6.153   0.681
 8101SOL     OW25201   0.344   4.637   2.300
 8101SOL    HW125202   0.271   4.591   2.249
 8101SOL    HW225203   0.393   4.699   2.239
 8102SOL     OW25204   6.589   0.217   5.612
 8102SOL    HW125205   6.527   0.262   5.675
 8102SOL    HW225206   6.608   0.277   5.535
 8103SOL     OW25207   2.019   2.469   2.344
 8103SOL    HW125208   2.113   2.480   2.378
 8103SOL    HW225209   2.014   2.503   2.250
 8104SOL     OW25210   3.202   0.087   6.159
 8104SOL    HW125211   3.137   0.077   6.235
 8104SOL    HW225212   3.296   0.078   6.194
 8105SOL     OW25213   2.263   2.901   3.107
 8105SOL    HW125214   2.255   2.840   3.186
 8105SOL    HW225215   2.255   2.996   3.137
 8106SOL     OW25216   0.407   3.690   5.163
 8106SOL    HW125217   0.408   3.768   5.101
 8106SOL    HW225218   0.501   3.656   5.175
 8107SOL     OW25219   1.280   5.621   6.747
 8107SOL    HW125220   1.302   5.698   6.686
 8107SOL    HW225221   1.218   5.559   6.700
 8108SOL     OW25222   2.201   3.407   5.163
 8108SOL    HW125223   2.285   3.385   5.212
 8108SOL    HW225224   2.123   3.366   5.211
 8109SOL     OW25225   1.185   5.358   5.232
 8109SOL    HW125226   1.193   5.268   5.275
 8109SOL    HW225227   1.221   5.354   5.139
 8110SOL     OW25228   1.557   4.603   0.704
 8110SOL    HW125229   1.596   4.551   0.628
 8110SOL    HW225230   1.619   4.677   0.728
 8111SOL     OW25231   3.131   6.024   4.255
 8111SOL    HW125232   3.050   6.078   4.278
 8111SOL    HW225233   3.142   6.020   4.156
 8112SOL     OW25234   4.278   1.042   4.008
 8112SOL    HW125235   4.196   1.088   4.040
 8112SOL    HW225236   4.260   0.944   3.997
 8113SOL     OW25237   3.033   2.826   5.663
 8113SOL    HW125238   3.107   2.842   5.728
 8113SOL    HW225239   3.066   2.842   5.570
 8114SOL     OW25240   2.802   3.341   1.866
 8114SOL    HW125241   2.729   3.377   1.809
 8114SOL    HW225242   2.808   3.394   1.951
 8115SOL     OW25243   3.231   2.851   0.962
 8115SOL    HW125244   3.274   2.761   0.970
 8115SOL    HW225245   3.227   2.894   1.051
 8116SOL     OW25246   4.983   1.550   5.411
 8116SOL    HW125247   4.999   1.465   5.460
 8116SOL    HW225248   4.916   1.535   5.338
 8117SOL     OW25249   2.951   1.861   5.689
 8117SOL    HW125250   3.033   1.901   5.730
 8117SOL    HW225251   2.885   1.840   5.761
 8118SOL     OW25252   1.860   2.413   4.028
 8118SOL    HW125253   1.768   2.429   3.992
 8118SOL    HW225254   1.922   2.483   3.994
 8119SOL     OW25255   1.043   6.309   2.057
 8119SOL    HW125256   1.006   6.337   2.146
 8119SOL    HW225257   1.047   6.210   2.053
 8120SOL     OW25258   4.716   4.394   2.386
 8120SOL    HW125259   4.789   4.331   2.360
 8120SOL    HW225260   4.661   4.417   2.305
 8121SOL     OW25261   6.520   6.366   2.855
 8121SOL    HW125262   6.476   6.408   2.776
 8121SOL    HW225263   6.614   6.399   2.863
 8122SOL     OW25264   6.760   5.608   1.368
 8122SOL    HW125265   6.786   5.567   1.455
 8122SOL    HW225266   6.810   5.694   1.355
 8123SOL     OW25267   1.300   5.188   0.161
 8123SOL    HW125268   1.366   5.125   0.200
 8123SOL    HW225269   1.224   5.201   0.225
 8124SOL     OW25270   1.118   6.715   3.501
 8124SOL    HW125271   1.116   6.618   3.476
 8124SOL    HW225272   1.063   6.729   3.583
 8125SOL     OW25273   5.620   4.780   2.926
 8125SOL    HW125274   5.533   4.758   2.970
 8125SOL    HW225275   5.694   4.769   2.993
 8126SOL     OW25276   6.768   4.597   2.402
 8126SOL    HW125277   6.806   4.506   2.412
 8126SOL    HW225278   6.795   4.635   2.313
 8127SOL     OW25279   4.320   5.571   1.482
 8127SOL    HW125280   4.333   5.492   1.423
 8127SOL    HW225281   4.230   5.568   1.525
 8128SOL     OW25282   3.644   1.825   5.453
 8128SOL    HW125283   3.577   1.848   5.383
 8128SOL    HW225284   3.638   1.727   5.475
 8129SOL     OW25285   4.768   6.033   6.329
 8129SOL    HW125286   4.729   5.995   6.246
 8129SOL    HW225287   4.701   6.026   6.403
 8130SOL     OW25288   0.299   0.153   6.794
 8130SOL    HW125289   0.331   0.201   6.712
 8130SOL    HW225290   0.211   0.192   6.822
 8131SOL     OW25291   2.451   1.287   1.017
 8131SOL    HW125292   2.471   1.349   1.092
 8131SOL    HW225293   2.355   1.258   1.021
 8132SOL     OW25294   5.355   4.454   3.251
 8132SOL    HW125295   5.377   4.412   3.163
 8132SOL    HW225296   5.264   4.494   3.247
 8133SOL     OW25297   0.423   5.819   1.716
 8133SOL    HW125298   0.465   5.909   1.727
 8133SOL    HW225299   0.446   5.762   1.795
 8134SOL     OW25300   1.995   2.575   2.088
 8134SOL    HW125301   2.012   2.524   2.004
 8134SOL    HW225302   2.025   2.670   2.076
 8135SOL     OW25303   4.056   6.297   2.671
 8135SOL    HW125304   3.994   6.249   2.609
 8135SOL    HW225305   4.005   6.365   2.724
 8136SOL     OW25306   2.188   6.022   1.545
 8136SOL    HW125307   2.214   6.111   1.506
 8136SOL    HW225308   2.233   6.011   1.633
 8137SOL     OW25309   2.995   3.528   4.993
 8137SOL    HW125310   3.032   3.600   4.935
 8137SOL    HW225311   2.941   3.465   4.938
 8138SOL     OW25312   4.769   1.466   3.431
 8138SOL    HW125313   4.824   1.549   3.416
 8138SOL    HW225314   4.695   1.463   3.364
 8139SOL     OW25315   1.703   3.248   5.399
 8139SOL    HW125316   1.734   3.153   5.397
 8139SOL    HW225317   1.772   3.305   5.443
 8140SOL     OW25318   4.372   1.001   0.806
 8140SOL    HW125319   4.304   0.933   0.833
 8140SOL    HW225320   4.383   0.999   0.707
 8141SOL     OW25321   6.006   0.991   5.414
 8141SOL    HW125322   5.993   0.951   5.323
 8141SOL    HW225323   6.005   0.919   5.483
 8142SOL     OW25324   2.679   5.798   0.685
 8142SOL    HW125325   2.652   5.857   0.609
 8142SOL    HW225326   2.624   5.822   0.766
 8143SOL     OW25327   6.191   4.531   0.392
 8143SOL    HW125328   6.177   4.496   0.299
 8143SOL    HW225329   6.113   4.587   0.419
 8144SOL     OW25330   1.414   5.435   6.898
 8144SOL    HW125331   1.382   5.510   6.840
 8144SOL    HW225332   1.360   5.433   6.982
 8145SOL     OW25333   5.275   5.380   6.194
 8145SOL    HW125334   5.323   5.455   6.239
 8145SOL    HW225335   5.256   5.308   6.261
 8146SOL     OW25336   0.057   6.227   4.591
 8146SOL    HW125337   6.997   6.280   4.600
 8146SOL    HW225338   0.052   6.169   4.509
 8147SOL     OW25339   2.587   0.526   5.188
 8147SOL    HW125340   2.589   0.494   5.283
 8147SOL    HW225341   2.615   0.622   5.184
 8148SOL     OW25342   5.229   4.865   0.079
 8148SOL    HW125343   5.282   4.784   0.107
 8148SOL    HW225344   5.220   4.866   7.003
 8149SOL     OW25345   1.380   6.788   5.538
 8149SOL    HW125346   1.364   6.886   5.549
 8149SOL    HW225347   1.476   6.768   5.560
 8150SOL     OW25348   0.442   3.893   0.455
 8150SOL    HW125349   0.392   3.968   0.411
 8150SOL    HW225350   0.475   3.923   0.545
 8151SOL     OW25351   6.214   4.842   2.670
 8151SOL    HW125352   6.165   4.788   2.739
 8151SOL    HW225353   6.187   4.938   2.678
 8152SOL     OW25354   5.758   1.836   3.267
 8152SOL    HW125355   5.786   1.928   3.292
 8152SOL    HW225356   5.660   1.833   3.251
 8153SOL     OW25357   0.051   1.664   1.632
 8153SOL    HW125358   0.056   1.672   1.533
 8153SOL    HW225359   0.028   1.570   1.658
 8154SOL     OW25360   1.246   0.624   3.306
 8154SOL    HW125361   1.157   0.596   3.270
 8154SOL    HW225362   1.247   0.723   3.320
 8155SOL     OW25363   1.755   5.152   4.510
 8155SOL    HW125364   1.687   5.081   4.495
 8155SOL    HW225365   1.805   5.133   4.595
 8156SOL     OW25366   1.385   3.787   0.780
 8156SOL    HW125367   1.344   3.857   0.840
 8156SOL    HW225368   1.442   3.726   0.835
 8157SOL     OW25369   6.210   4.886   4.762
 8157SOL    HW125370   6.221   4.983   4.784
 8157SOL    HW225371   6.124   4.852   4.800
 8158SOL     OW25372   6.118   4.953   6.133
 8158SOL    HW125373   6.056   5.024   6.100
 8158SOL    HW225374   6.144   4.973   6.227
 8159SOL     OW25375   2.753   0.146   4.837
 8159SOL    HW125376   2.732   0.071   4.899
 8159SOL    HW225377   2.824   0.203   4.877
 8160SOL     OW25378   5.607   2.237   2.795
 8160SOL    HW125379   5.611   2.198   2.887
 8160SOL    HW225380   5.624   2.335   2.799
 8161SOL     OW25381   6.778   2.824   1.926
 8161SOL    HW125382   6.743   2.742   1.972
 8161SOL    HW225383   6.853   2.799   1.865
 8162SOL     OW25384   1.268   5.745   5.506
 8162SOL    HW125385   1.289   5.823   5.446
 8162SOL    HW225386   1.300   5.661   5.463
 8163SOL     OW25387   3.957   4.565   5.323
 8163SOL    HW125388   3.875   4.511   5.307
 8163SOL    HW225389   3.932   4.654   5.361
 8164SOL     OW25390   5.323   1.746   0.731
 8164SOL    HW125391   5.271   1.832   0.729
 8164SOL    HW225392   5.290   1.686   0.657
 8165SOL     OW25393   0.750   1.774   6.153
 8165SOL    HW125394   0.660   1.805   6.181
 8165SOL    HW225395   0.817   1.848   6.165
 8166SOL     OW25396   2.567   1.878   4.705
 8166SOL    HW125397   2.492   1.928   4.660
 8166SOL    HW225398   2.654   1.919   4.678
 8167SOL     OW25399   1.755   2.614   3.261
 8167SOL    HW125400   1.838   2.584   3.214
 8167SOL    HW225401   1.780   2.658   3.347
 8168SOL     OW25402   1.644   6.411   3.031
 8168SOL    HW125403   1.635   6.324   2.982
 8168SOL    HW225404   1.692   6.477   2.972
 8169SOL     OW25405   4.888   4.170   0.736
 8169SOL    HW125406   4.850   4.236   0.801
 8169SOL    HW225407   4.937   4.219   0.663
 8170SOL     OW25408   0.223   4.566   2.819
 8170SOL    HW125409   0.266   4.555   2.909
 8170SOL    HW225410   0.276   4.517   2.750
 8171SOL     OW25411   2.532   2.012   1.621
 8171SOL    HW125412   2.505   2.077   1.692
 8171SOL    HW225413   2.623   2.036   1.587
 8172SOL     OW25414   1.417   4.274   0.701
 8172SOL    HW125415   1.511   4.246   0.683
 8172SOL    HW225416   1.416   4.361   0.750
 8173SOL     OW25417   6.133   0.304   1.748
 8173SOL    HW125418   6.098   0.377   1.689
 8173SOL    HW225419   6.231   0.291   1.729
 8174SOL     OW25420   1.967   6.709   3.849
 8174SOL    HW125421   2.024   6.649   3.793
 8174SOL    HW225422   1.909   6.654   3.910
 8175SOL     OW25423   0.579   2.080   5.510
 8175SOL    HW125424   0.529   2.117   5.588
 8175SOL    HW225425   0.598   2.153   5.444
 8176SOL     OW25426   2.814   5.024   0.197
 8176SOL    HW125427   2.783   4.955   0.132
 8176SOL    HW225428   2.785   5.000   0.289
 8177SOL     OW25429   2.872   1.072   2.689
 8177SOL    HW125430   2.786   1.118   2.710
 8177SOL    HW225431   2.865   1.028   2.599
 8178SOL     OW25432   2.064   6.743   0.891
 8178SOL    HW125433   2.109   6.794   0.965
 8178SOL    HW225434   2.007   6.671   0.931
 8179SOL     OW25435   5.953   0.256   3.429
 8179SOL    HW125436   5.908   0.171   3.401
 8179SOL    HW225437   5.901   0.299   3.502
 8180SOL     OW25438   4.558   5.573   0.432
 8180SOL    HW125439   4.536   5.494   0.374
 8180SOL    HW225440   4.657   5.584   0.438
 8181SOL     OW25441   6.221   0.522   6.158
 8181SOL    HW125442   6.273   0.469   6.225
 8181SOL    HW225443   6.196   0.610   6.198
 8182SOL     OW25444   3.568   3.900   2.957
 8182SOL    HW125445   3.473   3.872   2.941
 8182SOL    HW225446   3.622   3.820   2.983
 8183SOL     OW25447   6.848   0.170   5.614
 8183SOL    HW125448   6.902   0.173   5.699
 8183SOL    HW225449   6.752   0.185   5.636
 8184SOL     OW25450   0.538   6.026   5.481
 8184SOL    HW125451   0.447   6.006   5.520
 8184SOL    HW225452   0.595   5.944   5.488
 8185SOL     OW25453   0.461   5.846   5.240
 8185SOL    HW125454   0.499   5.845   5.333
 8185SOL    HW225455   0.499   5.924   5.189
 8186SOL     OW25456   1.510   5.345   0.794
 8186SOL    HW125457   1.436   5.359   0.859
 8186SOL    HW225458   1.579   5.283   0.833
 8187SOL     OW25459   1.935   6.616   4.915
 8187SOL    HW125460   1.931   6.580   4.822
 8187SOL    HW225461   2.030   6.618   4.946
 8188SOL     OW25462   1.908   3.104   2.326
 8188SOL    HW125463   1.971   3.085   2.402
 8188SOL    HW225464   1.860   3.020   2.301
 8189SOL     OW25465   5.810   4.568   4.054
 8189SOL    HW125466   5.800   4.576   3.955
 8189SOL    HW225467   5.903   4.538   4.076
 8190SOL     OW25468   6.649   3.739   2.957
 8190SOL    HW125469   6.701   3.684   2.892
 8190SOL    HW225470   6.609   3.818   2.910
 8191SOL     OW25471   3.988   4.809   1.244
 8191SOL    HW125472   4.083   4.781   1.239
 8191SOL    HW225473   3.978   4.902   1.207
 8192SOL     OW25474   0.972   6.133   3.783
 8192SOL    HW125475   1.018   6.062   3.729
 8192SOL    HW225476   0.894   6.168   3.732
 8193SOL     OW25477   0.498   5.073   3.906
 8193SOL    HW125478   0.561   5.001   3.935
 8193SOL    HW225479   0.423   5.032   3.854
 8194SOL     OW25480   5.107   0.437   1.740
 8194SOL    HW125481   5.084   0.375   1.815
 8194SOL    HW225482   5.206   0.441   1.730
 8195SOL     OW25483   6.387   0.032   3.722
 8195SOL    HW125484   6.429   0.108   3.673
 8195SOL    HW225485   6.418   6.969   3.682
 8196SOL     OW25486   4.892   0.556   2.110
 8196SOL    HW125487   4.829   0.490   2.068
 8196SOL    HW225488   4.839   0.629   2.154
 8197SOL     OW25489   4.235   1.579   3.385
 8197SOL    HW125490   4.284   1.663   3.406
 8197SOL    HW225491   4.300   1.503   3.380
 8198SOL     OW25492   1.682   5.787   1.165
 8198SOL    HW125493   1.708   5.796   1.261
 8198SOL    HW225494   1.585   5.762   1.159
 8199SOL     OW25495   5.430   2.179   0.500
 8199SOL    HW125496   5.461   2.247   0.567
 8199SOL    HW225497   5.495   2.103   0.498
 8200SOL     OW25498   5.363   4.299   0.848
 8200SOL    HW125499   5.434   4.307   0.917
 8200SOL    HW225500   5.273   4.317   0.889
 8201SOL     OW25501   5.774   6.995   5.488
 8201SOL    HW125502   5.855   0.011   5.446
 8201SOL    HW225503   5.692   0.012   5.446
 8202SOL     OW25504   1.481   5.953   1.876
 8202SOL    HW125505   1.465   5.894   1.956
 8202SOL    HW225506   1.575   5.942   1.844
 8203SOL     OW25507   1.693   3.184   1.231
 8203SOL    HW125508   1.728   3.091   1.236
 8203SOL    HW225509   1.688   3.222   1.324
 8204SOL     OW25510   1.850   3.355   1.085
 8204SOL    HW125511   1.858   3.341   0.986
 8204SOL    HW225512   1.786   3.289   1.123
 8205SOL     OW25513   0.358   3.724   6.780
 8205SOL    HW125514   0.351   3.659   6.856
 8205SOL    HW225515   0.444   3.775   6.787
 8206SOL     OW25516   3.372   1.291   1.308
 8206SOL    HW125517   3.471   1.296   1.299
 8206SOL    HW225518   3.348   1.234   1.387
 8207SOL     OW25519   3.995   3.948   4.309
 8207SOL    HW125520   4.018   3.876   4.374
 8207SOL    HW225521   4.058   3.945   4.232
 8208SOL     OW25522   1.979   0.418   7.003
 8208SOL    HW125523   1.983   0.503   0.031
 8208SOL    HW225524   2.017   0.343   0.034
 8209SOL     OW25525   5.788   2.297   4.593
 8209SOL    HW125526   5.710   2.277   4.653
 8209SOL    HW225527   5.832   2.381   4.624
 8210SOL     OW25528   2.160   2.532   6.222
 8210SOL    HW125529   2.256   2.509   6.204
 8210SOL    HW225530   2.144   2.628   6.198
 8211SOL     OW25531   4.673   4.408   1.492
 8211SOL    HW125532   4.729   4.439   1.415
 8211SOL    HW225533   4.577   4.427   1.474
 8212SOL     OW25534   2.458   2.510   2.763
 8212SOL    HW125535   2.439   2.549   2.853
 8212SOL    HW225536   2.427   2.415   2.760
 8213SOL     OW25537   6.051   4.511   0.892
 8213SOL    HW125538   6.022   4.602   0.863
 8213SOL    HW225539   5.979   4.468   0.945
 8214SOL     OW25540   5.241   3.442   2.771
 8214SOL    HW125541   5.262   3.534   2.739
 8214SOL    HW225542   5.315   3.408   2.829
 8215SOL     OW25543   3.220   5.238   2.286
 8215SOL    HW125544   3.297   5.202   2.234
 8215SOL    HW225545   3.242   5.235   2.384
 8216SOL     OW25546   5.387   3.427   3.257
 8216SOL    HW125547   5.398   3.429   3.356
 8216SOL    HW225548   5.322   3.355   3.231
 8217SOL     OW25549   1.876   5.798   0.780
 8217SOL    HW125550   1.830   5.730   0.723
 8217SOL    HW225551   1.807   5.856   0.825
 8218SOL     OW25552   5.145   2.158   0.532
 8218SOL    HW125553   5.242   2.151   0.510
 8218SOL    HW225554   5.091   2.153   0.447
 8219SOL     OW25555   5.498   1.645   0.196
 8219SOL    HW125556   5.536   1.625   0.105
 8219SOL    HW225557   5.569   1.633   0.265
 8220SOL     OW25558   4.326   3.481   1.423
 8220SOL    HW125559   4.318   3.448   1.517
 8220SOL    HW225560   4.370   3.571   1.423
 8221SOL     OW25561   5.305   4.205   2.726
 8221SOL    HW125562   5.396   4.240   2.703
 8221SOL    HW225563   5.243   4.221   2.649
 8222SOL     OW25564   6.224   1.147   2.896
 8222SOL    HW125565   6.272   1.124   2.981
 8222SOL    HW225566   6.136   1.188   2.917
 8223SOL     OW25567   0.143   5.410   6.333
 8223SOL    HW125568   0.167   5.325   6.286
 8223SOL    HW225569   0.113   5.478   6.265
 8224SOL     OW25570   1.041   3.421   2.989
 8224SOL    HW125571   0.961   3.441   2.931
 8224SOL    HW225572   1.050   3.492   3.059
 8225SOL     OW25573   4.623   0.928   0.591
 8225SOL    HW125574   4.691   1.001   0.582
 8225SOL    HW225575   4.670   0.840   0.596
 8226SOL     OW25576   4.026   0.203   0.292
 8226SOL    HW125577   3.949   0.221   0.352
 8226SOL    HW225578   3.999   0.220   0.197
 8227SOL     OW25579   5.986   3.910   3.218
 8227SOL    HW125580   5.920   3.870   3.154
 8227SOL    HW225581   5.965   3.878   3.311
 8228SOL     OW25582   6.942   1.605   4.247
 8228SOL    HW125583   6.937   1.703   4.228
 8228SOL    HW225584   6.931   1.589   4.345
 8229SOL     OW25585   4.450   5.815   1.095
 8229SOL    HW125586   4.475   5.719   1.082
 8229SOL    HW225587   4.532   5.869   1.113
 8230SOL     OW25588   5.105   0.044   3.862
 8230SOL    HW125589   5.088   0.143   3.861
 8230SOL    HW225590   5.139   0.016   3.951
 8231SOL     OW25591   3.926   6.078   1.505
 8231SOL    HW125592   3.918   5.980   1.489
 8231SOL    HW225593   4.023   6.104   1.504
 8232SOL     OW25594   2.397   1.859   6.965
 8232SOL    HW125595   2.337   1.924   6.920
 8232SOL    HW225596   2.392   1.871   0.041
 8233SOL     OW25597   0.175   5.435   5.885
 8233SOL    HW125598   0.177   5.420   5.786
 8233SOL    HW225599   0.087   5.405   5.921
 8234SOL     OW25600   3.022   3.288   0.122
 8234SOL    HW125601   3.069   3.275   0.209
 8234SOL    HW225602   3.084   3.266   0.047
 8235SOL     OW25603   4.439   2.469   6.814
 8235SOL    HW125604   4.354   2.435   6.854
 8235SOL    HW225605   4.455   2.563   6.843
 8236SOL     OW25606   5.464   2.484   1.049
 8236SOL    HW125607   5.561   2.507   1.057
 8236SOL    HW225608   5.422   2.478   1.140
 8237SOL     OW25609   3.908   6.712   5.703
 8237SOL    HW125610   3.947   6.622   5.724
 8237SOL    HW225611   3.833   6.731   5.767
 8238SOL     OW25612   2.034   0.909   0.130
 8238SOL    HW125613   2.105   0.975   0.156
 8238SOL    HW225614   1.986   0.942   0.049
 8239SOL     OW25615   5.982   0.864   6.905
 8239SOL    HW125616   6.005   0.889   6.811
 8239SOL    HW225617   5.974   0.765   6.912
 8240SOL     OW25618   4.153   3.472   3.447
 8240SOL    HW125619   4.098   3.395   3.479
 8240SOL    HW225620   4.143   3.482   3.348
 8241SOL     OW25621   4.589   6.617   1.749
 8241SOL    HW125622   4.561   6.536   1.801
 8241SOL    HW225623   4.511   6.679   1.739
 8242SOL     OW25624   0.809   3.481   5.561
 8242SOL    HW125625   0.784   3.515   5.652
 8242SOL    HW225626   0.837   3.386   5.568
 8243SOL     OW25627   0.754   3.360   5.117
 8243SOL    HW125628   0.809   3.302   5.177
 8243SOL    HW225629   0.670   3.312   5.092
 8244SOL     OW25630   2.264   5.444   4.663
 8244SOL    HW125631   2.215   5.530   4.678
 8244SOL    HW225632   2.242   5.380   4.736
 8245SOL     OW25633   3.927   3.493   0.603
 8245SOL    HW125634   3.832   3.462   0.603
 8245SOL    HW225635   3.946   3.547   0.685
 8246SOL     OW25636   4.814   3.942   5.223
 8246SOL    HW125637   4.875   3.935   5.145
 8246SOL    HW225638   4.783   3.851   5.249
 8247SOL     OW25639   1.115   6.644   0.703
 8247SOL    HW125640   1.076   6.680   0.618
 8247SOL    HW225641   1.054   6.666   0.779
 8248SOL     OW25642   0.373   4.737   3.546
 8248SOL    HW125643   0.349   4.643   3.572
 8248SOL    HW225644   0.337   4.756   3.455
 8249SOL     OW25645   1.276   5.450   3.092
 8249SOL    HW125646   1.360   5.435   3.144
 8249SOL    HW225647   1.214   5.373   3.105
 8250SOL     OW25648   3.452   3.906   1.920
 8250SOL    HW125649   3.376   3.866   1.971
 8250SOL    HW225650   3.472   3.997   1.956
 8251SOL     OW25651   5.851   1.704   4.856
 8251SOL    HW125652   5.912   1.651   4.798
 8251SOL    HW225653   5.815   1.782   4.805
 8252SOL     OW25654   1.253   3.500   4.366
 8252SOL    HW125655   1.187   3.484   4.440
 8252SOL    HW225656   1.206   3.541   4.288
 8253SOL     OW25657   2.224   2.971   5.524
 8253SOL    HW125658   2.284   2.895   5.549
 8253SOL    HW225659   2.266   3.057   5.551
 8254SOL     OW25660   4.303   5.707   3.580
 8254SOL    HW125661   4.278   5.793   3.536
 8254SOL    HW225662   4.401   5.691   3.567
 8255SOL     OW25663   4.003   4.941   3.745
 8255SOL    HW125664   3.960   4.926   3.656
 8255SOL    HW225665   3.971   5.027   3.784
 8256SOL     OW25666   5.964   2.914   4.126
 8256SOL    HW125667   6.029   2.976   4.082
 8256SOL    HW225668   6.008   2.826   4.145
 8257SOL     OW25669   5.907   4.773   4.447
 8257SOL    HW125670   5.981   4.830   4.411
 8257SOL    HW225671   5.846   4.829   4.504
 8258SOL     OW25672   4.907   1.652   0.323
 8258SOL    HW125673   4.853   1.627   0.403
 8258SOL    HW225674   4.983   1.711   0.351
 8259SOL     OW25675   4.329   1.207   1.380
 8259SOL    HW125676   4.347   1.127   1.438
 8259SOL    HW225677   4.393   1.280   1.404
 8260SOL     OW25678   2.907   5.568   0.135
 8260SOL    HW125679   2.854   5.501   0.188
 8260SOL    HW225680   2.906   5.656   0.182
 8261SOL     OW25681   5.236   1.040   1.400
 8261SOL    HW125682   5.321   1.035   1.349
 8261SOL    HW225683   5.234   0.969   1.470
 8262SOL     OW25684   0.520   2.373   0.706
 8262SOL    HW125685   0.567   2.461   0.700
 8262SOL    HW225686   0.449   2.378   0.776
 8263SOL     OW25687   5.607   1.127   1.202
 8263SOL    HW125688   5.587   1.053   1.138
 8263SOL    HW225689   5.694   1.170   1.177
 8264SOL     OW25690   1.404   4.561   2.261
 8264SOL    HW125691   1.451   4.491   2.207
 8264SOL    HW225692   1.306   4.555   2.244
 8265SOL     OW25693   1.928   0.911   2.364
 8265SOL    HW125694   1.884   0.962   2.290
 8265SOL    HW225695   2.009   0.865   2.329
 8266SOL     OW25696   2.830   0.668   3.188
 8266SOL    HW125697   2.737   0.670   3.152
 8266SOL    HW225698   2.833   0.607   3.268
 8267SOL     OW25699   0.210   3.677   0.782
 8267SOL    HW125700   0.232   3.666   0.685
 8267SOL    HW225701   0.214   3.588   0.827
 8268SOL     OW25702   3.586   5.850   6.460
 8268SOL    HW125703   3.680   5.864   6.430
 8268SOL    HW225704   3.550   5.936   6.498
 8269SOL     OW25705   6.155   1.939   0.958
 8269SOL    HW125706   6.233   1.923   0.897
 8269SOL    HW225707   6.163   2.030   0.999
 8270SOL     OW25708   3.220   6.444   4.434
 8270SOL    HW125709   3.219   6.352   4.394
 8270SOL    HW225710   3.287   6.501   4.386
 8271SOL     OW25711   6.390   2.432   2.781
 8271SOL    HW125712   6.414   2.346   2.827
 8271SOL    HW225713   6.297   2.426   2.746
 8272SOL     OW25714   3.835   1.233   4.338
 8272SOL    HW125715   3.900   1.296   4.296
 8272SOL    HW225716   3.801   1.271   4.424
 8273SOL     OW25717   2.023   6.788   1.439
 8273SOL    HW125718   1.989   6.695   1.445
 8273SOL    HW225719   2.053   6.818   1.530
 8274SOL     OW25720   5.151   4.245   3.387
 8274SOL    HW125721   5.090   4.324   3.380
 8274SOL    HW225722   5.145   4.192   3.302
 8275SOL     OW25723   5.082   2.164   6.558
 8275SOL    HW125724   5.061   2.088   6.620
 8275SOL    HW225725   5.147   2.134   6.488
 8276SOL     OW25726   0.309   1.758   2.868
 8276SOL    HW125727   0.378   1.728   2.802
 8276SOL    HW225728   0.347   1.830   2.926
 8277SOL     OW25729   6.407   0.773   6.906
 8277SOL    HW125730   6.396   0.716   6.825
 8277SOL    HW225731   6.494   0.752   6.950
 8278SOL     OW25732   1.700   2.661   6.480
 8278SOL    HW125733   1.636   2.607   6.535
 8278SOL    HW225734   1.666   2.665   6.386
 8279SOL     OW25735   0.129   5.925   3.804
 8279SOL    HW125736   0.105   6.008   3.754
 8279SOL    HW225737   0.227   5.908   3.794
 8280SOL     OW25738   3.253   2.227   5.741
 8280SOL    HW125739   3.340   2.263   5.775
 8280SOL    HW225740   3.196   2.303   5.709
 8281SOL     OW25741   5.007   5.643   2.692
 8281SOL    HW125742   5.089   5.699   2.681
 8281SOL    HW225743   4.965   5.661   2.781
 8282SOL     OW25744   5.633   2.684   6.347
 8282SOL    HW125745   5.658   2.740   6.269
 8282SOL    HW225746   5.546   2.716   6.386
 8283SOL     OW25747   2.021   2.289   5.824
 8283SOL    HW125748   2.009   2.332   5.735
 8283SOL    HW225749   2.068   2.202   5.814
 8284SOL     OW25750   6.416   3.941   1.750
 8284SOL    HW125751   6.451   3.848   1.764
 8284SOL    HW225752   6.488   4.007   1.772
 8285SOL     OW25753   4.063   3.292   4.420
 8285SOL    HW125754   3.984   3.342   4.385
 8285SOL    HW225755   4.042   3.194   4.420
 8286SOL     OW25756   0.147   1.719   6.162
 8286SOL    HW125757   0.237   1.750   6.133
 8286SOL    HW225758   0.103   1.790   6.216
 8287SOL     OW25759   1.612   6.028   4.248
 8287SOL    HW125760   1.664   5.942   4.249
 8287SOL    HW225761   1.515   6.008   4.235
 8288SOL     OW25762   3.077   1.932   3.206
 8288SOL    HW125763   2.983   1.961   3.225
 8288SOL    HW225764   3.116   1.990   3.135
 8289SOL     OW25765   0.061   5.718   6.790
 8289SOL    HW125766   7.012   5.783   6.812
 8289SOL    HW225767   0.105   5.745   6.704
 8290SOL     OW25768   6.704   2.460   0.636
 8290SOL    HW125769   6.689   2.415   0.724
 8290SOL    HW225770   6.797   2.441   0.604
 8291SOL     OW25771   4.113   0.194   1.170
 8291SOL    HW125772   4.174   0.219   1.095
 8291SOL    HW225773   4.030   0.154   1.133
 8292SOL     OW25774   2.905   6.891   6.176
 8292SOL    HW125775   2.884   6.865   6.271
 8292SOL    HW225776   2.886   6.989   6.164
 8293SOL     OW25777   5.655   5.427   4.707
 8293SOL    HW125778   5.638   5.416   4.805
 8293SOL    HW225779   5.595   5.498   4.670
 8294SOL     OW25780   5.549   2.956   0.083
 8294SOL    HW125781   5.543   2.944   7.008
 8294SOL    HW225782   5.476   2.903   0.127
 8295SOL     OW25783   4.361   3.436   6.911
 8295SOL    HW125784   4.370   3.533   6.934
 8295SOL    HW225785   4.277   3.401   6.951
 8296SOL     OW25786   1.224   5.033   6.236
 8296SOL    HW125787   1.231   5.122   6.280
 8296SOL    HW225788   1.153   5.037   6.165
 8297SOL     OW25789   1.100   2.714   3.852
 8297SOL    HW125790   1.051   2.790   3.895
 8297SOL    HW225791   1.045   2.631   3.858
 8298SOL     OW25792   5.228   1.522   2.352
 8298SOL    HW125793   5.258   1.617   2.352
 8298SOL    HW225794   5.243   1.481   2.262
 8299SOL     OW25795   6.327   2.525   1.444
 8299SOL    HW125796   6.264   2.507   1.519
 8299SOL    HW225797   6.415   2.556   1.480
 8300SOL     OW25798   0.736   5.316   3.304
 8300SOL    HW125799   0.786   5.400   3.280
 8300SOL    HW225800   0.702   5.324   3.398
 8301SOL     OW25801   3.389   2.687   6.532
 8301SOL    HW125802   3.337   2.768   6.505
 8301SOL    HW225803   3.357   2.608   6.478
 8302SOL     OW25804   6.021   5.725   5.636
 8302SOL    HW125805   6.007   5.652   5.568
 8302SOL    HW225806   5.991   5.812   5.597
 8303SOL     OW25807   6.815   0.218   6.306
 8303SOL    HW125808   6.886   0.148   6.297
 8303SOL    HW225809   6.852   0.296   6.357
 8304SOL     OW25810   6.749   3.007   0.676
 8304SOL    HW125811   6.657   3.007   0.717
 8304SOL    HW225812   6.743   2.974   0.582
 8305SOL     OW25813   3.469   5.333   3.358
 8305SOL    HW125814   3.383   5.331   3.408
 8305SOL    HW225815   3.545   5.320   3.422
 8306SOL     OW25816   0.980   3.251   4.115
 8306SOL    HW125817   1.054   3.201   4.070
 8306SOL    HW225818   1.012   3.341   4.143
 8307SOL     OW25819   3.454   5.177   0.800
 8307SOL    HW125820   3.417   5.092   0.837
 8307SOL    HW225821   3.549   5.163   0.770
 8308SOL     OW25822   3.672   0.652   2.959
 8308SOL    HW125823   3.598   0.704   3.003
 8308SOL    HW225824   3.760   0.695   2.983
 8309SOL     OW25825   5.612   6.282   2.221
 8309SOL    HW125826   5.533   6.312   2.275
 8309SOL    HW225827   5.666   6.361   2.195
 8310SOL     OW25828   6.161   4.185   6.871
 8310SOL    HW125829   6.174   4.114   6.940
 8310SOL    HW225830   6.231   4.175   6.800
 8311SOL     OW25831   6.386   0.860   6.491
 8311SOL    HW125832   6.386   0.926   6.565
 8311SOL    HW225833   6.322   0.785   6.512
 8312SOL     OW25834   5.366   6.631   1.155
 8312SOL    HW125835   5.269   6.656   1.158
 8312SOL    HW225836   5.403   6.659   1.066
 8313SOL     OW25837   3.520   1.289   2.467
 8313SOL    HW125838   3.436   1.343   2.469
 8313SOL    HW225839   3.501   1.198   2.505
 8314SOL     OW25840   0.121   6.053   3.327
 8314SOL    HW125841   0.067   5.991   3.270
 8314SOL    HW225842   0.093   6.147   3.310
 8315SOL     OW25843   4.792   4.634   6.601
 8315SOL    HW125844   4.748   4.561   6.653
 8315SOL    HW225845   4.726   4.706   6.581
 8316SOL     OW25846   2.662   5.576   6.988
 8316SOL    HW125847   2.594   5.648   7.000
 8316SOL    HW225848   2.735   5.588   0.032
 8317SOL     OW25849   2.120   4.172   2.225
 8317SOL    HW125850   2.077   4.122   2.300
 8317SOL    HW225851   2.150   4.107   2.155
 8318SOL     OW25852   3.598   1.017   5.678
 8318SOL    HW125853   3.556   1.094   5.726
 8318SOL    HW225854   3.607   1.039   5.580
 8319SOL     OW25855   3.283   0.601   4.856
 8319SOL    HW125856   3.313   0.686   4.812
 8319SOL    HW225857   3.360   0.559   4.904
 8320SOL     OW25858   4.136   4.822   1.718
 8320SOL    HW125859   4.048   4.774   1.713
 8320SOL    HW225860   4.151   4.875   1.635
 8321SOL     OW25861   0.241   0.764   1.384
 8321SOL    HW125862   0.146   0.765   1.413
 8321SOL    HW225863   0.265   0.673   1.349
 8322SOL     OW25864   5.495   6.618   6.916
 8322SOL    HW125865   5.568   6.591   6.853
 8322SOL    HW225866   5.526   6.695   6.971
 8323SOL     OW25867   1.358   1.836   1.540
 8323SOL    HW125868   1.326   1.752   1.582
 8323SOL    HW225869   1.280   1.894   1.517
 8324SOL     OW25870   6.432   1.216   1.963
 8324SOL    HW125871   6.408   1.148   2.032
 8324SOL    HW225872   6.410   1.308   1.997
 8325SOL     OW25873   3.055   3.769   4.251
 8325SOL    HW125874   3.143   3.818   4.247
 8325SOL    HW225875   3.025   3.748   4.158
 8326SOL     OW25876   3.698   3.282   6.200
 8326SOL    HW125877   3.642   3.269   6.118
 8326SOL    HW225878   3.761   3.206   6.210
 8327SOL     OW25879   5.105   2.179   6.192
 8327SOL    HW125880   5.180   2.239   6.221
 8327SOL    HW225881   5.024   2.235   6.172
 8328SOL     OW25882   2.363   2.015   4.531
 8328SOL    HW125883   2.307   1.973   4.460
 8328SOL    HW225884   2.458   2.020   4.500
 8329SOL     OW25885   0.166   2.306   4.848
 8329SOL    HW125886   0.112   2.370   4.794
 8329SOL    HW225887   0.108   2.230   4.877
 8330SOL     OW25888   2.741   6.789   0.701
 8330SOL    HW125889   2.643   6.810   0.704
 8330SOL    HW225890   2.755   6.692   0.721
 8331SOL     OW25891   2.782   0.069   0.568
 8331SOL    HW125892   2.813   7.023   0.633
 8331SOL    HW225893   2.808   0.043   0.475
 8332SOL     OW25894   4.917   5.592   3.107
 8332SOL    HW125895   4.921   5.584   3.207
 8332SOL    HW225896   4.822   5.581   3.077
 8333SOL     OW25897   1.308   5.576   6.120
 8333SOL    HW125898   1.223   5.551   6.167
 8333SOL    HW225899   1.380   5.511   6.144
 8334SOL     OW25900   5.842   0.562   3.969
 8334SOL    HW125901   5.874   0.657   3.974
 8334SOL    HW225902   5.880   0.519   3.887
 8335SOL     OW25903   5.819   6.777   5.650
 8335SOL    HW125904   5.915   6.757   5.631
 8335SOL    HW225905   5.792   6.859   5.599
 8336SOL     OW25906   0.925   2.056   2.296
 8336SOL    HW125907   0.832   2.019   2.295
 8336SOL    HW225908   0.976   2.014   2.372
 8337SOL     OW25909   0.506   6.153   1.948
 8337SOL    HW125910   0.574   6.167   2.020
 8337SOL    HW225911   0.552   6.149   1.859
 8338SOL     OW25912   2.119   5.022   0.910
 8338SOL    HW125913   2.053   5.089   0.944
 8338SOL    HW225914   2.110   5.013   0.811
 8339SOL     OW25915   5.590   0.608   3.203
 8339SOL    HW125916   5.522   0.676   3.231
 8339SOL    HW225917   5.545   0.535   3.151
 8340SOL     OW25918   4.781   3.403   0.983
 8340SOL    HW125919   4.800   3.461   0.904
 8340SOL    HW225920   4.777   3.308   0.954
 8341SOL     OW25921   1.862   6.926   1.076
 8341SOL    HW125922   1.885   7.006   1.022
 8341SOL    HW225923   1.771   6.939   1.117
 8342SOL     OW25924   4.863   0.130   1.242
 8342SOL    HW125925   4.878   0.157   1.337
 8342SOL    HW225926   4.823   0.206   1.192
 8343SOL     OW25927   1.382   5.234   6.027
 8343SOL    HW125928   1.418   5.288   6.103
 8343SOL    HW225929   1.399   5.137   6.044
 8344SOL     OW25930   3.626   0.210   5.370
 8344SOL    HW125931   3.621   0.110   5.368
 8344SOL    HW225932   3.721   0.238   5.360
 8345SOL     OW25933   6.145   1.611   2.672
 8345SOL    HW125934   6.148   1.526   2.620
 8345SOL    HW225935   6.196   1.682   2.622
 8346SOL     OW25936   3.149   5.462   1.789
 8346SOL    HW125937   3.197   5.472   1.876
 8346SOL    HW225938   3.201   5.507   1.716
 8347SOL     OW25939   3.479   5.219   3.675
 8347SOL    HW125940   3.427   5.134   3.685
 8347SOL    HW225941   3.421   5.297   3.694
 8348SOL     OW25942   1.646   0.617   0.644
 8348SOL    HW125943   1.571   0.640   0.706
 8348SOL    HW225944   1.623   0.647   0.551
 8349SOL     OW25945   5.620   5.546   1.398
 8349SOL    HW125946   5.685   5.616   1.369
 8349SOL    HW225947   5.669   5.470   1.440
 8350SOL     OW25948   6.395   0.282   4.890
 8350SOL    HW125949   6.353   0.194   4.867
 8350SOL    HW225950   6.424   0.328   4.806
 8351SOL     OW25951   2.757   6.400   2.282
 8351SOL    HW125952   2.825   6.431   2.214
 8351SOL    HW225953   2.784   6.311   2.318
 8352SOL     OW25954   6.613   6.233   1.599
 8352SOL    HW125955   6.660   6.148   1.624
 8352SOL    HW225956   6.679   6.306   1.584
 8353SOL     OW25957   0.525   4.117   2.219
 8353SOL    HW125958   0.442   4.163   2.189
 8353SOL    HW225959   0.502   4.053   2.293
 8354SOL     OW25960   2.315   0.297   0.525
 8354SOL    HW125961   2.294   0.231   0.597
 8354SOL    HW225962   2.386   0.359   0.557
 8355SOL     OW25963   3.209   1.502   0.424
 8355SOL    HW125964   3.145   1.432   0.455
 8355SOL    HW225965   3.160   1.589   0.412
 8356SOL     OW25966   2.389   5.512   0.717
 8356SOL    HW125967   2.488   5.503   0.704
 8356SOL    HW225968   2.349   5.561   0.639
 8357SOL     OW25969   5.065   6.012   3.900
 8357SOL    HW125970   5.081   5.929   3.953
 8357SOL    HW225971   5.151   6.046   3.864
 8358SOL     OW25972   2.784   2.226   4.889
 8358SOL    HW125973   2.758   2.312   4.932
 8358SOL    HW225974   2.712   2.158   4.903
 8359SOL     OW25975   4.565   5.264   3.806
 8359SOL    HW125976   4.599   5.174   3.832
 8359SOL    HW225977   4.470   5.257   3.777
 8360SOL     OW25978   4.722   0.735   3.255
 8360SOL    HW125979   4.786   0.684   3.312
 8360SOL    HW225980   4.772   0.799   3.197
 8361SOL     OW25981   1.887   0.933   2.829
 8361SOL    HW125982   1.887   0.991   2.748
 8361SOL    HW225983   1.808   0.872   2.827
 8362SOL     OW25984   2.463   3.064   0.606
 8362SOL    HW125985   2.390   3.080   0.540
 8362SOL    HW225986   2.551   3.090   0.565
 8363SOL     OW25987   0.092   3.497   1.004
 8363SOL    HW125988   0.057   3.430   1.070
 8363SOL    HW225989   0.107   3.585   1.051
 8364SOL     OW25990   6.392   4.823   4.433
 8364SOL    HW125991   6.400   4.846   4.336
 8364SOL    HW225992   6.483   4.816   4.474
 8365SOL     OW25993   1.077   3.654   5.819
 8365SOL    HW125994   1.146   3.629   5.888
 8365SOL    HW225995   0.988   3.618   5.847
 8366SOL     OW25996   2.839   0.059   3.481
 8366SOL    HW125997   2.901   0.116   3.535
 8366SOL    HW225998   2.747   0.064   3.519
 8367SOL     OW25999   5.200   5.800   4.003
 8367SOL    HW126000   5.262   5.814   4.080
 8367SOL    HW226001   5.250   5.755   3.928
 8368SOL     OW26002   3.152   5.677   6.380
 8368SOL    HW126003   3.107   5.600   6.335
 8368SOL    HW226004   3.096   5.709   6.456
 8369SOL     OW26005   2.896   1.467   1.228
 8369SOL    HW126006   2.889   1.480   1.129
 8369SOL    HW226007   2.831   1.527   1.274
 8370SOL     OW26008   1.537   1.575   0.174
 8370SOL    HW126009   1.494   1.493   0.135
 8370SOL    HW226010   1.630   1.552   0.203
 8371SOL     OW26011   2.216   2.543   0.165
 8371SOL    HW126012   2.172   2.623   0.124
 8371SOL    HW226013   2.154   2.501   0.231
 8372SOL     OW26014   6.899   0.608   1.119
 8372SOL    HW126015   6.884   0.582   1.215
 8372SOL    HW226016   6.850   0.694   1.100
 8373SOL     OW26017   1.757   6.672   5.117
 8373SOL    HW126018   1.817   6.663   5.038
 8373SOL    HW226019   1.724   6.582   5.145
 8374SOL     OW26020   6.669   0.586   6.292
 8374SOL    HW126021   6.742   0.653   6.297
 8374SOL    HW226022   6.580   0.632   6.301
 8375SOL     OW26023   3.938   1.056   6.010
 8375SOL    HW126024   4.007   1.024   5.944
 8375SOL    HW226025   3.985   1.088   6.093
 8376SOL     OW26026   4.427   0.381   4.320
 8376SOL    HW126027   4.349   0.340   4.272
 8376SOL    HW226028   4.510   0.365   4.268
 8377SOL     OW26029   5.724   4.897   1.049
 8377SOL    HW126030   5.710   4.911   1.147
 8377SOL    HW226031   5.644   4.854   1.009
 8378SOL     OW26032   5.082   3.062   3.906
 8378SOL    HW126033   5.113   3.145   3.953
 8378SOL    HW226034   5.143   2.986   3.926
 8379SOL     OW26035   5.066   2.362   2.353
 8379SOL    HW126036   4.968   2.357   2.367
 8379SOL    HW226037   5.113   2.363   2.441
 8380SOL     OW26038   5.820   1.904   3.910
 8380SOL    HW126039   5.787   1.971   3.976
 8380SOL    HW226040   5.913   1.876   3.935
 8381SOL     OW26041   2.508   5.328   4.263
 8381SOL    HW126042   2.518   5.244   4.210
 8381SOL    HW226043   2.596   5.355   4.301
 8382SOL     OW26044   0.690   4.448   2.514
 8382SOL    HW126045   0.653   4.354   2.514
 8382SOL    HW226046   0.663   4.493   2.429
 8383SOL     OW26047   3.295   1.258   6.366
 8383SOL    HW126048   3.289   1.208   6.279
 8383SOL    HW226049   3.364   1.329   6.358
 8384SOL     OW26050   0.698   6.731   1.855
 8384SOL    HW126051   0.614   6.750   1.905
 8384SOL    HW226052   0.697   6.637   1.821
 8385SOL     OW26053   4.756   2.593   0.868
 8385SOL    HW126054   4.824   2.602   0.940
 8385SOL    HW226055   4.708   2.680   0.857
 8386SOL     OW26056   0.750   4.162   2.816
 8386SOL    HW126057   0.691   4.140   2.739
 8386SOL    HW226058   0.786   4.078   2.857
 8387SOL     OW26059   0.954   1.970   0.856
 8387SOL    HW126060   1.004   1.981   0.771
 8387SOL    HW226061   0.944   1.872   0.877
 8388SOL     OW26062   0.642   6.512   3.257
 8388SOL    HW126063   0.729   6.468   3.236
 8388SOL    HW226064   0.641   6.604   3.217
 8389SOL     OW26065   5.782   2.510   3.156
 8389SOL    HW126066   5.811   2.605   3.166
 8389SOL    HW226067   5.849   2.460   3.101
 8390SOL     OW26068   5.635   1.361   6.152
 8390SOL    HW126069   5.623   1.303   6.071
 8390SOL    HW226070   5.732   1.370   6.172
 8391SOL     OW26071   6.888   6.612   1.530
 8391SOL    HW126072   6.821   6.551   1.570
 8391SOL    HW226073   6.843   6.671   1.462
 8392SOL     OW26074   4.186   2.946   5.826
 8392SOL    HW126075   4.211   2.880   5.897
 8392SOL    HW226076   4.190   2.903   5.736
 8393SOL     OW26077   5.413   0.017   1.132
 8393SOL    HW126078   5.492   0.006   1.073
 8393SOL    HW226079   5.332   7.004   1.087
 8394SOL     OW26080   5.804   2.806   2.439
 8394SOL    HW126081   5.896   2.838   2.465
 8394SOL    HW226082   5.800   2.796   2.339
 8395SOL     OW26083   2.156   1.158   4.976
 8395SOL    HW126084   2.091   1.082   4.977
 8395SOL    HW226085   2.145   1.212   5.060
 8396SOL     OW26086   4.749   5.336   4.794
 8396SOL    HW126087   4.777   5.371   4.884
 8396SOL    HW226088   4.743   5.411   4.729
 8397SOL     OW26089   6.317   0.298   3.123
 8397SOL    HW126090   6.376   0.218   3.121
 8397SOL    HW226091   6.261   0.301   3.041
 8398SOL     OW26092   5.667   1.973   6.223
 8398SOL    HW126093   5.640   2.069   6.222
 8398SOL    HW226094   5.618   1.924   6.151
 8399SOL     OW26095   0.235   4.429   1.391
 8399SOL    HW126096   0.281   4.469   1.311
 8399SOL    HW226097   0.136   4.437   1.380
 8400SOL     OW26098   1.513   1.550   4.581
 8400SOL    HW126099   1.537   1.571   4.675
 8400SOL    HW226100   1.580   1.589   4.519
 8401SOL     OW26101   2.121   0.347   5.542
 8401SOL    HW126102   2.099   0.416   5.473
 8401SOL    HW226103   2.040   0.290   5.558
 8402SOL     OW26104   3.532   0.656   6.482
 8402SOL    HW126105   3.613   0.668   6.540
 8402SOL    HW226106   3.512   0.558   6.473
 8403SOL     OW26107   5.815   4.774   5.231
 8403SOL    HW126108   5.804   4.699   5.166
 8403SOL    HW226109   5.826   4.737   5.324
 8404SOL     OW26110   0.845   1.507   6.602
 8404SOL    HW126111   0.755   1.541   6.577
 8404SOL    HW226112   0.901   1.497   6.520
 8405SOL     OW26113   4.410   0.323   5.342
 8405SOL    HW126114   4.409   0.231   5.382
 8405SOL    HW226115   4.493   0.334   5.287
 8406SOL     OW26116   5.771   0.459   6.054
 8406SOL    HW126117   5.816   0.371   6.038
 8406SOL    HW226118   5.672   0.447   6.045
 8407SOL     OW26119   3.850   0.009   4.395
 8407SOL    HW126120   3.768   0.036   4.444
 8407SOL    HW226121   3.920   0.080   4.405
 8408SOL     OW26122   4.218   1.444   1.321
 8408SOL    HW126123   4.263   1.354   1.324
 8408SOL    HW226124   4.199   1.469   1.226
 8409SOL     OW26125   4.299   2.064   2.216
 8409SOL    HW126126   4.298   1.977   2.168
 8409SOL    HW226127   4.239   2.059   2.296
 8410SOL     OW26128   0.061   1.755   1.912
 8410SOL    HW126129   0.093   1.665   1.942
 8410SOL    HW226130   0.057   1.757   1.812
 8411SOL     OW26131   0.944   6.599   1.179
 8411SOL    HW126132   0.921   6.511   1.137
 8411SOL    HW226133   0.962   6.586   1.277
 8412SOL     OW26134   2.630   2.358   0.157
 8412SOL    HW126135   2.559   2.383   0.223
 8412SOL    HW226136   2.593   2.363   0.064
 8413SOL     OW26137   3.847   5.088   4.597
 8413SOL    HW126138   3.935   5.103   4.641
 8413SOL    HW226139   3.795   5.173   4.596
 8414SOL     OW26140   1.231   0.511   1.228
 8414SOL    HW126141   1.301   0.497   1.158
 8414SOL    HW226142   1.237   0.438   1.296
 8415SOL     OW26143   2.969   1.479   6.102
 8415SOL    HW126144   3.001   1.549   6.038
 8415SOL    HW226145   3.034   1.403   6.103
 8416SOL     OW26146   6.663   2.527   5.349
 8416SOL    HW126147   6.713   2.582   5.417
 8416SOL    HW226148   6.677   2.566   5.258
 8417SOL     OW26149   2.347   3.514   6.047
 8417SOL    HW126150   2.385   3.425   6.019
 8417SOL    HW226151   2.415   3.562   6.103
 8418SOL     OW26152   0.715   5.909   2.157
 8418SOL    HW126153   0.708   6.002   2.194
 8418SOL    HW226154   0.733   5.914   2.058
 8419SOL     OW26155   4.056   1.672   4.136
 8419SOL    HW126156   4.042   1.656   4.038
 8419SOL    HW226157   4.143   1.719   4.150
 8420SOL     OW26158   3.411   0.811   1.758
 8420SOL    HW126159   3.433   0.732   1.815
 8420SOL    HW226160   3.451   0.893   1.798
 8421SOL     OW26161   4.423   6.720   6.227
 8421SOL    HW126162   4.396   6.801   6.174
 8421SOL    HW226163   4.509   6.684   6.192
 8422SOL     OW26164   5.407   2.728   3.714
 8422SOL    HW126165   5.348   2.771   3.783
 8422SOL    HW226166   5.358   2.651   3.672
 8423SOL     OW26167   6.673   5.270   0.199
 8423SOL    HW126168   6.702   5.257   0.105
 8423SOL    HW226169   6.736   5.331   0.246
 8424SOL     OW26170   3.262   0.329   4.831
 8424SOL    HW126171   3.278   0.426   4.815
 8424SOL    HW226172   3.166   0.307   4.814
 8425SOL     OW26173   3.683   4.051   2.219
 8425SOL    HW126174   3.589   4.083   2.208
 8425SOL    HW226175   3.696   4.017   2.312
 8426SOL     OW26176   3.989   2.970   1.944
 8426SOL    HW126177   3.910   2.973   2.005
 8426SOL    HW226178   4.049   3.048   1.963
 8427SOL     OW26179   3.757   3.547   3.237
 8427SOL    HW126180   3.758   3.447   3.241
 8427SOL    HW226181   3.849   3.582   3.256
 8428SOL     OW26182   5.813   6.969   2.202
 8428SOL    HW126183   5.829   6.871   2.191
 8428SOL    HW226184   5.845   7.017   2.120
 8429SOL     OW26185   2.785   5.731   5.328
 8429SOL    HW126186   2.833   5.805   5.376
 8429SOL    HW226187   2.687   5.749   5.330
 8430SOL     OW26188   4.856   6.990   4.971
 8430SOL    HW126189   4.905   0.012   4.897
 8430SOL    HW226190   4.760   6.976   4.944
 8431SOL     OW26191   2.024   4.111   5.604
 8431SOL    HW126192   1.968   4.040   5.560
 8431SOL    HW226193   2.029   4.191   5.545
 8432SOL     OW26194   6.355   5.164   6.245
 8432SOL    HW126195   6.346   5.264   6.253
 8432SOL    HW226196   6.449   5.142   6.218
 8433SOL     OW26197   5.543   1.853   1.198
 8433SOL    HW126198   5.518   1.855   1.101
 8433SOL    HW226199   5.635   1.815   1.208
 8434SOL     OW26200   2.617   5.933   4.937
 8434SOL    HW126201   2.701   5.895   4.976
 8434SOL    HW226202   2.542   5.921   5.002
 8435SOL     OW26203   5.844   1.881   3.644
 8435SOL    HW126204   5.830   1.892   3.742
 8435SOL    HW226205   5.825   1.968   3.598
 8436SOL     OW26206   2.346   5.889   2.182
 8436SOL    HW126207   2.372   5.820   2.114
 8436SOL    HW226208   2.428   5.939   2.212
 8437SOL     OW26209   0.855   5.360   1.219
 8437SOL    HW126210   0.860   5.397   1.126
 8437SOL    HW226211   0.763   5.376   1.256
 8438SOL     OW26212   0.489   3.807   2.116
 8438SOL    HW126213   0.560   3.745   2.081
 8438SOL    HW226214   0.516   3.901   2.097
 8439SOL     OW26215   6.281   4.357   2.662
 8439SOL    HW126216   6.276   4.258   2.679
 8439SOL    HW226217   6.243   4.377   2.572
 8440SOL     OW26218   1.589   2.020   2.691
 8440SOL    HW126219   1.577   1.936   2.743
 8440SOL    HW226220   1.653   2.004   2.616
 8441SOL     OW26221   0.054   1.774   5.889
 8441SOL    HW126222   6.985   1.741   5.873
 8441SOL    HW226223   0.098   1.718   5.959
 8442SOL     OW26224   4.105   2.143   6.975
 8442SOL    HW126225   4.010   2.149   6.944
 8442SOL    HW226226   4.151   2.231   6.960
 8443SOL     OW26227   1.728   4.502   2.609
 8443SOL    HW126228   1.659   4.441   2.569
 8443SOL    HW226229   1.701   4.526   2.702
 8444SOL     OW26230   5.562   5.333   4.965
 8444SOL    HW126231   5.640   5.341   5.028
 8444SOL    HW226232   5.553   5.238   4.936
 8445SOL     OW26233   4.402   6.700   6.519
 8445SOL    HW126234   4.418   6.706   6.421
 8445SOL    HW226235   4.485   6.668   6.565
 8446SOL     OW26236   6.454   5.283   4.985
 8446SOL    HW126237   6.420   5.375   5.002
 8446SOL    HW226238   6.440   5.227   5.067
 8447SOL     OW26239   3.764   1.025   3.879
 8447SOL    HW126240   3.846   1.078   3.858
 8447SOL    HW226241   3.684   1.084   3.873
 8448SOL     OW26242   3.532   6.119   3.277
 8448SOL    HW126243   3.618   6.070   3.291
 8448SOL    HW226244   3.551   6.213   3.249
 8449SOL     OW26245   1.699   2.122   3.555
 8449SOL    HW126246   1.710   2.222   3.558
 8449SOL    HW226247   1.684   2.087   3.648
 8450SOL     OW26248   6.820   0.927   6.967
 8450SOL    HW126249   6.866   0.987   6.901
 8450SOL    HW226250   6.880   0.851   6.991
 8451SOL     OW26251   3.950   2.486   1.237
 8451SOL    HW126252   3.918   2.410   1.294
 8451SOL    HW226253   3.875   2.549   1.219
 8452SOL     OW26254   5.028   1.154   5.765
 8452SOL    HW126255   5.060   1.059   5.774
 8452SOL    HW226256   4.935   1.161   5.799
 8453SOL     OW26257   6.993   6.726   0.083
 8453SOL    HW126258   6.915   6.679   0.126
 8453SOL    HW226259   7.009   6.813   0.130
 8454SOL     OW26260   5.944   4.510   6.215
 8454SOL    HW126261   5.914   4.419   6.246
 8454SOL    HW226262   6.044   4.513   6.214
 8455SOL     OW26263   6.619   1.170   2.691
 8455SOL    HW126264   6.536   1.221   2.668
 8455SOL    HW226265   6.630   1.094   2.627
 8456SOL     OW26266   0.068   0.235   2.667
 8456SOL    HW126267   0.031   0.209   2.756
 8456SOL    HW226268   0.114   0.156   2.626
 8457SOL     OW26269   6.768   6.632   4.939
 8457SOL    HW126270   6.731   6.704   4.881
 8457SOL    HW226271   6.756   6.657   5.035
 8458SOL     OW26272   0.913   6.652   6.423
 8458SOL    HW126273   0.840   6.662   6.491
 8458SOL    HW226274   0.902   6.564   6.376
 8459SOL     OW26275   1.339   6.075   3.718
 8459SOL    HW126276   1.412   6.037   3.661
 8459SOL    HW226277   1.314   6.166   3.684
 8460SOL     OW26278   4.038   3.694   3.244
 8460SOL    HW126279   4.003   3.763   3.181
 8460SOL    HW226280   4.063   3.738   3.331
 8461SOL     OW26281   6.207   3.230   3.707
 8461SOL    HW126282   6.279   3.278   3.658
 8461SOL    HW226283   6.222   3.131   3.701
 8462SOL     OW26284   2.524   2.646   1.649
 8462SOL    HW126285   2.621   2.649   1.624
 8462SOL    HW226286   2.470   2.685   1.574
 8463SOL     OW26287   5.784   0.422   1.908
 8463SOL    HW126288   5.858   0.369   1.949
 8463SOL    HW226289   5.702   0.365   1.899
 8464SOL     OW26290   6.872   1.741   4.815
 8464SOL    HW126291   6.794   1.734   4.752
 8464SOL    HW226292   6.922   1.825   4.798
 8465SOL     OW26293   1.155   1.463   0.182
 8465SOL    HW126294   1.218   1.388   0.162
 8465SOL    HW226295   1.207   1.544   0.212
 8466SOL     OW26296   0.256   0.136   4.178
 8466SOL    HW126297   0.263   0.037   4.193
 8466SOL    HW226298   0.346   0.178   4.191
 8467SOL     OW26299   3.756   5.232   1.100
 8467SOL    HW126300   3.692   5.192   1.166
 8467SOL    HW226301   3.775   5.327   1.125
 8468SOL     OW26302   4.189   2.400   0.243
 8468SOL    HW126303   4.281   2.363   0.257
 8468SOL    HW226304   4.122   2.337   0.280
 8469SOL     OW26305   3.938   2.289   6.253
 8469SOL    HW126306   4.022   2.238   6.271
 8469SOL    HW226307   3.914   2.343   6.335
 8470SOL     OW26308   1.884   2.878   6.826
 8470SOL    HW126309   1.975   2.841   6.803
 8470SOL    HW226310   1.819   2.854   6.755
 8471SOL     OW26311   4.089   1.766   3.823
 8471SOL    HW126312   4.135   1.824   3.891
 8471SOL    HW226313   4.064   1.822   3.744
 8472SOL     OW26314   1.472   6.794   2.813
 8472SOL    HW126315   1.482   6.791   2.913
 8472SOL    HW226316   1.551   6.751   2.770
 8473SOL     OW26317   6.705   5.771   6.089
 8473SOL    HW126318   6.607   5.755   6.072
 8473SOL    HW226319   6.716   5.805   6.182
 8474SOL     OW26320   3.635   5.374   0.330
 8474SOL    HW126321   3.550   5.426   0.334
 8474SOL    HW226322   3.665   5.353   0.423
 8475SOL     OW26323   4.879   1.667   3.053
 8475SOL    HW126324   4.872   1.759   3.015
 8475SOL    HW226325   4.894   1.601   2.980
 8476SOL     OW26326   4.492   0.582   2.346
 8476SOL    HW126327   4.474   0.494   2.303
 8476SOL    HW226328   4.441   0.654   2.299
 8477SOL     OW26329   2.667   0.377   2.229
 8477SOL    HW126330   2.618   0.459   2.198
 8477SOL    HW226331   2.602   0.304   2.248
 8478SOL     OW26332   1.821   0.477   5.960
 8478SOL    HW126333   1.830   0.548   6.030
 8478SOL    HW226334   1.880   0.499   5.882
 8479SOL     OW26335   5.205   1.242   2.403
 8479SOL    HW126336   5.223   1.192   2.319
 8479SOL    HW226337   5.199   1.340   2.383
 8480SOL     OW26338   1.818   1.478   1.489
 8480SOL    HW126339   1.785   1.396   1.442
 8480SOL    HW226340   1.741   1.540   1.505
 8481SOL     OW26341   4.400   0.041   5.385
 8481SOL    HW126342   4.447   6.985   5.422
 8481SOL    HW226343   4.401   0.038   5.285
 8482SOL     OW26344   0.678   0.335   2.322
 8482SOL    HW126345   0.760   0.349   2.265
 8482SOL    HW226346   0.658   0.420   2.372
 8483SOL     OW26347   5.533   6.483   1.739
 8483SOL    HW126348   5.488   6.512   1.823
 8483SOL    HW226349   5.548   6.384   1.742
 8484SOL     OW26350   0.197   4.541   4.541
 8484SOL    HW126351   0.204   4.579   4.448
 8484SOL    HW226352   0.279   4.565   4.593
 8485SOL     OW26353   2.315   3.243   5.591
 8485SOL    HW126354   2.350   3.250   5.498
 8485SOL    HW226355   2.309   3.334   5.632
 8486SOL     OW26356   4.350   0.738   2.593
 8486SOL    HW126357   4.361   0.748   2.494
 8486SOL    HW226358   4.255   0.758   2.618
 8487SOL     OW26359   4.172   1.222   0.860
 8487SOL    HW126360   4.245   1.179   0.807
 8487SOL    HW226361   4.104   1.260   0.798
 8488SOL     OW26362   5.675   3.430   4.848
 8488SOL    HW126363   5.666   3.336   4.815
 8488SOL    HW226364   5.609   3.489   4.802
 8489SOL     OW26365   3.630   5.932   2.785
 8489SOL    HW126366   3.565   5.861   2.759
 8489SOL    HW226367   3.599   5.977   2.868
 8490SOL     OW26368   4.010   5.549   2.734
 8490SOL    HW126369   4.047   5.640   2.713
 8490SOL    HW226370   3.994   5.499   2.649
 8491SOL     OW26371   0.900   1.146   1.825
 8491SOL    HW126372   0.895   1.167   1.727
 8491SOL    HW226373   0.975   1.197   1.867
 8492SOL     OW26374   5.676   4.006   4.680
 8492SOL    HW126375   5.765   3.981   4.717
 8492SOL    HW226376   5.687   4.073   4.607
 8493SOL     OW26377   3.870   2.368   0.759
 8493SOL    HW126378   3.931   2.441   0.731
 8493SOL    HW226379   3.902   2.329   0.845
 8494SOL     OW26380   3.926   6.087   6.621
 8494SOL    HW126381   4.003   6.073   6.683
 8494SOL    HW226382   3.840   6.074   6.671
 8495SOL     OW26383   0.699   2.385   6.986
 8495SOL    HW126384   0.652   2.315   0.017
 8495SOL    HW226385   0.705   2.354   6.892
 8496SOL     OW26386   0.013   2.178   3.055
 8496SOL    HW126387   0.007   2.134   3.144
 8496SOL    HW226388   7.000   2.115   2.985
 8497SOL     OW26389   5.714   4.461   2.910
 8497SOL    HW126390   5.706   4.497   3.002
 8497SOL    HW226391   5.801   4.412   2.900
 8498SOL     OW26392   6.501   0.916   1.206
 8498SOL    HW126393   6.511   0.830   1.256
 8498SOL    HW226394   6.407   0.924   1.171
 8499SOL     OW26395   1.359   3.894   6.565
 8499SOL    HW126396   1.423   3.936   6.500
 8499SOL    HW226397   1.407   3.875   6.651
 8500SOL     OW26398   3.441   0.814   6.078
 8500SOL    HW126399   3.444   0.793   5.980
 8500SOL    HW226400   3.517   0.768   6.124
 8501SOL     OW26401   3.042   4.332   6.060
 8501SOL    HW126402   3.026   4.361   5.966
 8501SOL    HW226403   3.030   4.410   6.122
 8502SOL     OW26404   0.955   6.703   1.955
 8502SOL    HW126405   0.858   6.697   1.932
 8502SOL    HW226406   1.007   6.642   1.895
 8503SOL     OW26407   3.297   5.964   3.425
 8503SOL    HW126408   3.333   6.018   3.349
 8503SOL    HW226409   3.373   5.921   3.474
 8504SOL     OW26410   1.370   5.502   3.537
 8504SOL    HW126411   1.439   5.502   3.609
 8504SOL    HW226412   1.306   5.578   3.552
 8505SOL     OW26413   4.539   2.579   4.007
 8505SOL    HW126414   4.610   2.509   4.013
 8505SOL    HW226415   4.576   2.666   4.039
 8506SOL     OW26416   1.123   6.662   0.239
 8506SOL    HW126417   1.046   6.655   0.176
 8506SOL    HW226418   1.182   6.738   0.211
 8507SOL     OW26419   1.492   0.088   5.395
 8507SOL    HW126420   1.490   0.108   5.493
 8507SOL    HW226421   1.587   0.082   5.364
 8508SOL     OW26422   0.562   2.845   5.250
 8508SOL    HW126423   0.552   2.755   5.294
 8508SOL    HW226424   0.600   2.832   5.158
 8509SOL     OW26425   5.838   2.333   4.910
 8509SOL    HW126426   5.795   2.251   4.948
 8509SOL    HW226427   5.773   2.408   4.909
 8510SOL     OW26428   5.214   6.927   2.047
 8510SOL    HW126429   5.304   6.893   2.075
 8510SOL    HW226430   5.150   6.918   2.123
 8511SOL     OW26431   6.423   5.248   1.537
 8511SOL    HW126432   6.446   5.233   1.441
 8511SOL    HW226433   6.356   5.321   1.545
 8512SOL     OW26434   3.304   3.290   0.749
 8512SOL    HW126435   3.320   3.193   0.764
 8512SOL    HW226436   3.322   3.341   0.833
 8513SOL     OW26437   1.085   3.699   1.052
 8513SOL    HW126438   1.015   3.705   1.123
 8513SOL    HW226439   1.048   3.732   0.966
 8514SOL     OW26440   2.226   2.369   5.153
 8514SOL    HW126441   2.230   2.372   5.053
 8514SOL    HW226442   2.294   2.431   5.191
 8515SOL     OW26443   2.299   0.326   0.904
 8515SOL    HW126444   2.360   0.262   0.858
 8515SOL    HW226445   2.326   0.334   1.000
 8516SOL     OW26446   5.635   3.106   4.345
 8516SOL    HW126447   5.633   3.172   4.420
 8516SOL    HW226448   5.661   3.016   4.380
 8517SOL     OW26449   2.073   1.625   6.376
 8517SOL    HW126450   2.157   1.619   6.321
 8517SOL    HW226451   2.082   1.698   6.443
 8518SOL     OW26452   5.254   5.323   6.527
 8518SOL    HW126453   5.238   5.422   6.532
 8518SOL    HW226454   5.293   5.292   6.614
 8519SOL     OW26455   0.623   3.240   0.326
 8519SOL    HW126456   0.696   3.306   0.313
 8519SOL    HW226457   0.559   3.273   0.395
 8520SOL     OW26458   3.528   4.054   5.932
 8520SOL    HW126459   3.472   4.005   5.999
 8520SOL    HW226460   3.474   4.128   5.892
 8521SOL     OW26461   1.896   6.511   5.407
 8521SOL    HW126462   1.987   6.543   5.432
 8521SOL    HW226463   1.830   6.540   5.476
 8522SOL     OW26464   0.760   6.767   6.953
 8522SOL    HW126465   0.675   6.770   7.005
 8522SOL    HW226466   0.794   6.860   6.939
 8523SOL     OW26467   3.731   2.116   0.670
 8523SOL    HW126468   3.771   2.184   0.732
 8523SOL    HW226469   3.662   2.159   0.613
 8524SOL     OW26470   2.283   5.538   5.431
 8524SOL    HW126471   2.226   5.587   5.364
 8524SOL    HW226472   2.230   5.462   5.469
 8525SOL     OW26473   6.378   3.455   2.044
 8525SOL    HW126474   6.298   3.474   2.100
 8525SOL    HW226475   6.454   3.427   2.103
 8526SOL     OW26476   0.441   4.615   0.160
 8526SOL    HW126477   0.439   4.687   0.090
 8526SOL    HW226478   0.425   4.527   0.117
 8527SOL     OW26479   2.596   1.153   5.951
 8527SOL    HW126480   2.622   1.245   5.981
 8527SOL    HW226481   2.661   1.086   5.988
 8528SOL     OW26482   5.637   0.657   0.769
 8528SOL    HW126483   5.676   0.728   0.829
 8528SOL    HW226484   5.538   0.669   0.765
 8529SOL     OW26485   1.095   6.391   6.721
 8529SOL    HW126486   1.049   6.382   6.632
 8529SOL    HW226487   1.087   6.486   6.752
 8530SOL     OW26488   3.953   3.845   3.039
 8530SOL    HW126489   3.891   3.767   3.048
 8530SOL    HW226490   3.998   3.841   2.950
 8531SOL     OW26491   6.239   5.154   3.914
 8531SOL    HW126492   6.221   5.055   3.912
 8531SOL    HW226493   6.310   5.176   3.848
 8532SOL     OW26494   3.026   5.698   6.629
 8532SOL    HW126495   2.958   5.688   6.702
 8532SOL    HW226496   3.118   5.704   6.669
 8533SOL     OW26497   2.460   6.612   5.077
 8533SOL    HW126498   2.446   6.671   4.998
 8533SOL    HW226499   2.558   6.600   5.093
 8534SOL     OW26500   2.164   2.392   2.764
 8534SOL    HW126501   2.250   2.340   2.757
 8534SOL    HW226502   2.139   2.401   2.860
 8535SOL     OW26503   6.019   0.614   1.983
 8535SOL    HW126504   6.029   0.515   1.983
 8535SOL    HW226505   5.928   0.638   1.949
 8536SOL     OW26506   1.257   1.146   4.295
 8536SOL    HW126507   1.172   1.150   4.243
 8536SOL    HW226508   1.334   1.164   4.233
 8537SOL     OW26509   6.351   1.099   3.138
 8537SOL    HW126510   6.410   1.047   3.200
 8537SOL    HW226511   6.365   1.197   3.153
 8538SOL     OW26512   0.943   2.456   0.146
 8538SOL    HW126513   0.862   2.409   0.112
 8538SOL    HW226514   0.996   2.393   0.204
 8539SOL     OW26515   5.354   2.765   2.155
 8539SOL    HW126516   5.266   2.737   2.193
 8539SOL    HW226517   5.346   2.774   2.056
 8540SOL     OW26518   3.686   0.833   1.179
 8540SOL    HW126519   3.673   0.735   1.197
 8540SOL    HW226520   3.600   0.881   1.195
 8541SOL     OW26521   1.981   2.664   3.968
 8541SOL    HW126522   2.076   2.694   3.954
 8541SOL    HW226523   1.941   2.718   4.042
 8542SOL     OW26524   3.517   4.390   0.574
 8542SOL    HW126525   3.580   4.416   0.500
 8542SOL    HW226526   3.511   4.291   0.578
 8543SOL     OW26527   2.866   2.079   6.567
 8543SOL    HW126528   2.861   2.152   6.498
 8543SOL    HW226529   2.932   2.105   6.638
 8544SOL     OW26530   6.218   2.131   4.421
 8544SOL    HW126531   6.237   2.212   4.477
 8544SOL    HW226532   6.132   2.090   4.450
 8545SOL     OW26533   4.491   6.696   5.129
 8545SOL    HW126534   4.406   6.680   5.180
 8545SOL    HW226535   4.501   6.626   5.058
 8546SOL     OW26536   4.701   2.372   6.923
 8546SOL    HW126537   4.704   2.423   7.009
 8546SOL    HW226538   4.618   2.397   6.873
 8547SOL     OW26539   1.255   4.626   1.904
 8547SOL    HW126540   1.159   4.638   1.880
 8547SOL    HW226541   1.277   4.528   1.903
 8548SOL     OW26542   6.033   2.073   5.504
 8548SOL    HW126543   6.043   2.083   5.405
 8548SOL    HW226544   6.007   1.978   5.525
 8549SOL     OW26545   5.369   3.228   5.592
 8549SOL    HW126546   5.379   3.243   5.690
 8549SOL    HW226547   5.276   3.252   5.564
 8550SOL     OW26548   0.915   4.395   6.089
 8550SOL    HW126549   0.955   4.422   6.002
 8550SOL    HW226550   0.972   4.324   6.131
 8551SOL     OW26551   2.455   4.449   0.938
 8551SOL    HW126552   2.542   4.496   0.953
 8551SOL    HW226553   2.437   4.387   1.014
 8552SOL     OW26554   2.984   6.741   4.593
 8552SOL    HW126555   3.077   6.759   4.561
 8552SOL    HW226556   2.983   6.661   4.652
 8553SOL     OW26557   5.916   5.167   6.851
 8553SOL    HW126558   5.873   5.257   6.860
 8553SOL    HW226559   5.986   5.170   6.780
 8554SOL     OW26560   5.846   3.809   6.823
 8554SOL    HW126561   5.883   3.722   6.790
 8554SOL    HW226562   5.763   3.791   6.875
 8555SOL     OW26563   1.728   6.887   4.464
 8555SOL    HW126564   1.741   6.815   4.396
 8555SOL    HW226565   1.766   6.857   4.551
 8556SOL     OW26566   6.117   6.844   4.115
 8556SOL    HW126567   6.076   6.866   4.026
 8556SOL    HW226568   6.048   6.803   4.174
 8557SOL     OW26569   6.949   0.906   0.364
 8557SOL    HW126570   6.972   0.996   0.402
 8557SOL    HW226571   6.925   0.844   0.438
 8558SOL     OW26572   0.665   5.027   2.236
 8558SOL    HW126573   0.757   4.988   2.239
 8558SOL    HW226574   0.624   5.024   2.328
 8559SOL     OW26575   0.761   1.416   5.613
 8559SOL    HW126576   0.685   1.459   5.662
 8559SOL    HW226577   0.751   1.316   5.617
 8560SOL     OW26578   6.515   2.106   6.688
 8560SOL    HW126579   6.492   2.032   6.750
 8560SOL    HW226580   6.440   2.172   6.684
 8561SOL     OW26581   4.720   5.961   5.345
 8561SOL    HW126582   4.714   6.041   5.285
 8561SOL    HW226583   4.765   5.886   5.297
 8562SOL     OW26584   3.626   0.095   4.611
 8562SOL    HW126585   3.624   0.160   4.535
 8562SOL    HW226586   3.540   0.101   4.662
 8563SOL     OW26587   2.955   3.205   6.726
 8563SOL    HW126588   2.893   3.237   6.797
 8563SOL    HW226589   2.948   3.265   6.646
 8564SOL     OW26590   0.579   6.139   3.079
 8564SOL    HW126591   0.623   6.156   3.166
 8564SOL    HW226592   0.484   6.171   3.082
 8565SOL     OW26593   3.389   0.547   1.341
 8565SOL    HW126594   3.397   0.523   1.244
 8565SOL    HW226595   3.383   0.464   1.396
 8566SOL     OW26596   1.688   4.104   3.525
 8566SOL    HW126597   1.635   4.157   3.591
 8566SOL    HW226598   1.784   4.128   3.532
 8567SOL     OW26599   4.862   5.608   6.921
 8567SOL    HW126600   4.962   5.620   6.922
 8567SOL    HW226601   4.828   5.620   6.829
 8568SOL     OW26602   5.449   0.711   0.197
 8568SOL    HW126603   5.495   0.727   0.110
 8568SOL    HW226604   5.486   0.772   0.267
 8569SOL     OW26605   4.190   1.198   5.269
 8569SOL    HW126606   4.123   1.191   5.195
 8569SOL    HW226607   4.158   1.146   5.348
 8570SOL     OW26608   0.106   3.084   6.216
 8570SOL    HW126609   0.135   3.035   6.299
 8570SOL    HW226610   0.184   3.135   6.180
 8571SOL     OW26611   0.179   4.434   4.918
 8571SOL    HW126612   0.081   4.445   4.905
 8571SOL    HW226613   0.207   4.482   5.001
 8572SOL     OW26614   3.115   4.996   5.419
 8572SOL    HW126615   3.088   5.027   5.510
 8572SOL    HW226616   3.034   4.986   5.362
 8573SOL     OW26617   3.584   6.377   4.098
 8573SOL    HW126618   3.587   6.414   4.191
 8573SOL    HW226619   3.562   6.451   4.034
 8574SOL     OW26620   0.430   4.211   4.190
 8574SOL    HW126621   0.506   4.179   4.134
 8574SOL    HW226622   0.464   4.255   4.273
 8575SOL     OW26623   3.073   3.556   6.614
 8575SOL    HW126624   3.028   3.508   6.539
 8575SOL    HW226625   3.152   3.503   6.645
 8576SOL     OW26626   1.790   0.364   0.730
 8576SOL    HW126627   1.879   0.386   0.769
 8576SOL    HW226628   1.726   0.439   0.750
 8577SOL     OW26629   6.467   5.832   4.512
 8577SOL    HW126630   6.533   5.876   4.452
 8577SOL    HW226631   6.381   5.883   4.511
 8578SOL     OW26632   5.083   0.516   2.806
 8578SOL    HW126633   5.018   0.556   2.741
 8578SOL    HW226634   5.032   0.466   2.877
 8579SOL     OW26635   0.192   5.081   3.011
 8579SOL    HW126636   0.097   5.073   3.041
 8579SOL    HW226637   0.235   4.990   3.011
 8580SOL     OW26638   2.556   5.005   6.267
 8580SOL    HW126639   2.558   5.087   6.210
 8580SOL    HW226640   2.644   4.958   6.261
 8581SOL     OW26641   3.404   3.150   0.241
 8581SOL    HW126642   3.483   3.211   0.239
 8581SOL    HW226643   3.433   3.060   0.272
 8582SOL     OW26644   4.397   4.620   0.888
 8582SOL    HW126645   4.380   4.530   0.846
 8582SOL    HW226646   4.430   4.607   0.981
 8583SOL     OW26647   5.758   6.562   5.506
 8583SOL    HW126648   5.808   6.567   5.420
 8583SOL    HW226649   5.772   6.646   5.558
 8584SOL     OW26650   0.524   5.407   6.829
 8584SOL    HW126651   0.453   5.469   6.862
 8584SOL    HW226652   0.607   5.459   6.807
 8585SOL     OW26653   0.927   1.682   0.890
 8585SOL    HW126654   0.992   1.649   0.821
 8585SOL    HW226655   0.940   1.630   0.975
 8586SOL     OW26656   4.113   5.127   4.643
 8586SOL    HW126657   4.128   5.090   4.551
 8586SOL    HW226658   4.185   5.093   4.704
 8587SOL     OW26659   6.647   2.000   1.867
 8587SOL    HW126660   6.618   1.992   1.963
 8587SOL    HW226661   6.647   1.909   1.825
 8588SOL     OW26662   3.561   1.885   6.830
 8588SOL    HW126663   3.484   1.938   6.796
 8588SOL    HW226664   3.565   1.797   6.782
 8589SOL     OW26665   2.801   1.582   5.049
 8589SOL    HW126666   2.773   1.582   5.145
 8589SOL    HW226667   2.802   1.488   5.015
 8590SOL     OW26668   6.164   5.317   5.104
 8590SOL    HW126669   6.179   5.301   5.201
 8590SOL    HW226670   6.224   5.391   5.073
 8591SOL     OW26671   0.753   2.552   0.721
 8591SOL    HW126672   0.843   2.525   0.686
 8591SOL    HW226673   0.733   2.645   0.691
 8592SOL     OW26674   6.654   5.894   6.335
 8592SOL    HW126675   6.561   5.873   6.364
 8592SOL    HW226676   6.671   5.992   6.343
 8593SOL     OW26677   0.532   5.861   3.029
 8593SOL    HW126678   0.554   5.956   3.050
 8593SOL    HW226679   0.528   5.808   3.114
 8594SOL     OW26680   3.502   4.100   3.395
 8594SOL    HW126681   3.402   4.099   3.398
 8594SOL    HW226682   3.532   4.168   3.327
 8595SOL     OW26683   1.480   3.086   1.637
 8595SOL    HW126684   1.466   3.126   1.727
 8595SOL    HW226685   1.548   3.140   1.587
 8596SOL     OW26686   6.642   4.242   2.256
 8596SOL    HW126687   6.590   4.324   2.229
 8596SOL    HW226688   6.698   4.212   2.179
 8597SOL     OW26689   2.676   2.056   0.157
 8597SOL    HW126690   2.676   2.039   0.058
 8597SOL    HW226691   2.649   2.151   0.175
 8598SOL     OW26692   5.593   3.684   2.027
 8598SOL    HW126693   5.687   3.685   1.995
 8598SOL    HW226694   5.572   3.593   2.065
 8599SOL     OW26695   0.625   3.512   0.854
 8599SOL    HW126696   0.606   3.414   0.856
 8599SOL    HW226697   0.606   3.547   0.762
 8600SOL     OW26698   6.374   2.853   6.179
 8600SOL    HW126699   6.460   2.897   6.204
 8600SOL    HW226700   6.388   2.754   6.175
 8601SOL     OW26701   0.127   0.693   5.357
 8601SOL    HW126702   0.120   0.786   5.321
 8601SOL    HW226703   0.061   0.681   5.432
 8602SOL     OW26704   1.828   6.529   1.755
 8602SOL    HW126705   1.792   6.612   1.712
 8602SOL    HW226706   1.817   6.536   1.854
 8603SOL     OW26707   4.950   3.299   1.495
 8603SOL    HW126708   5.030   3.283   1.554
 8603SOL    HW226709   4.947   3.228   1.424
 8604SOL     OW26710   6.021   2.392   3.003
 8604SOL    HW126711   5.983   2.341   2.926
 8604SOL    HW226712   6.036   2.487   2.976
 8605SOL     OW26713   2.926   5.943   1.838
 8605SOL    HW126714   2.977   6.000   1.773
 8605SOL    HW226715   2.956   5.848   1.829
 8606SOL     OW26716   3.783   5.763   5.311
 8606SOL    HW126717   3.850   5.702   5.268
 8606SOL    HW226718   3.829   5.817   5.382
 8607SOL     OW26719   3.190   5.831   1.207
 8607SOL    HW126720   3.193   5.733   1.227
 8607SOL    HW226721   3.096   5.857   1.182
 8608SOL     OW26722   5.906   6.612   1.952
 8608SOL    HW126723   6.004   6.622   1.965
 8608SOL    HW226724   5.857   6.660   2.025
 8609SOL     OW26725   4.681   0.543   6.289
 8609SOL    HW126726   4.747   0.595   6.235
 8609SOL    HW226727   4.702   0.446   6.282
 8610SOL     OW26728   0.314   6.485   5.647
 8610SOL    HW126729   0.353   6.564   5.600
 8610SOL    HW226730   0.388   6.427   5.682
 8611SOL     OW26731   1.519   1.715   3.228
 8611SOL    HW126732   1.595   1.777   3.249
 8611SOL    HW226733   1.519   1.639   3.293
 8612SOL     OW26734   5.164   2.983   4.867
 8612SOL    HW126735   5.149   2.959   4.771
 8612SOL    HW226736   5.089   2.947   4.923
 8613SOL     OW26737   1.338   0.730   0.184
 8613SOL    HW126738   1.361   0.781   0.101
 8613SOL    HW226739   1.254   0.765   0.224
 8614SOL     OW26740   1.523   1.858   3.527
 8614SOL    HW126741   1.465   1.926   3.482
 8614SOL    HW226742   1.614   1.898   3.545
 8615SOL     OW26743   4.366   2.231   5.276
 8615SOL    HW126744   4.464   2.247   5.263
 8615SOL    HW226745   4.353   2.145   5.325
 8616SOL     OW26746   1.133   3.084   0.136
 8616SOL    HW126747   1.062   3.038   0.083
 8616SOL    HW226748   1.119   3.066   0.233
 8617SOL     OW26749   5.663   2.539   0.530
 8617SOL    HW126750   5.579   2.501   0.570
 8617SOL    HW226751   5.742   2.487   0.563
 8618SOL     OW26752   3.966   0.998   2.836
 8618SOL    HW126753   3.920   0.922   2.882
 8618SOL    HW226754   3.918   1.083   2.855
 8619SOL     OW26755   4.083   6.049   0.974
 8619SOL    HW126756   4.066   5.966   0.921
 8619SOL    HW226757   4.166   6.037   1.029
 8620SOL     OW26758   6.390   5.793   3.514
 8620SOL    HW126759   6.380   5.739   3.431
 8620SOL    HW226760   6.337   5.878   3.506
 8621SOL     OW26761   5.264   0.656   3.822
 8621SOL    HW126762   5.332   0.583   3.821
 8621SOL    HW226763   5.230   0.672   3.729
 8622SOL     OW26764   4.975   5.037   6.912
 8622SOL    HW126765   5.058   4.992   6.944
 8622SOL    HW226766   4.905   4.968   6.892
 8623SOL     OW26767   6.460   2.319   3.983
 8623SOL    HW126768   6.416   2.295   4.069
 8623SOL    HW226769   6.555   2.342   3.999
 8624SOL     OW26770   6.739   3.682   3.496
 8624SOL    HW126771   6.679   3.732   3.558
 8624SOL    HW226772   6.703   3.589   3.483
 8625SOL     OW26773   3.764   1.154   6.451
 8625SOL    HW126774   3.673   1.129   6.483
 8625SOL    HW226775   3.811   1.072   6.417
 8626SOL     OW26776   2.968   3.156   2.373
 8626SOL    HW126777   2.973   3.160   2.274
 8626SOL    HW226778   2.948   3.062   2.402
 8627SOL     OW26779   2.585   0.497   6.887
 8627SOL    HW126780   2.607   0.594   6.896
 8627SOL    HW226781   2.660   0.449   6.842
 8628SOL     OW26782   6.069   1.300   0.692
 8628SOL    HW126783   6.073   1.327   0.595
 8628SOL    HW226784   6.077   1.382   0.749
 8629SOL     OW26785   1.231   5.293   3.691
 8629SOL    HW126786   1.279   5.206   3.696
 8629SOL    HW226787   1.284   5.358   3.636
 8630SOL     OW26788   5.525   4.894   3.878
 8630SOL    HW126789   5.433   4.930   3.870
 8630SOL    HW226790   5.543   4.869   3.973
 8631SOL     OW26791   4.443   6.223   4.264
 8631SOL    HW126792   4.402   6.298   4.213
 8631SOL    HW226793   4.444   6.140   4.207
 8632SOL     OW26794   3.811   0.330   3.265
 8632SOL    HW126795   3.749   0.252   3.255
 8632SOL    HW226796   3.849   0.331   3.357
 8633SOL     OW26797   6.699   6.853   3.069
 8633SOL    HW126798   6.717   6.946   3.101
 8633SOL    HW226799   6.612   6.821   3.107
 8634SOL     OW26800   6.320   5.992   1.699
 8634SOL    HW126801   6.378   5.911   1.690
 8634SOL    HW226802   6.355   6.065   1.640
 8635SOL     OW26803   6.552   3.488   5.415
 8635SOL    HW126804   6.559   3.588   5.414
 8635SOL    HW226805   6.547   3.456   5.509
 8636SOL     OW26806   5.481   5.434   0.755
 8636SOL    HW126807   5.536   5.466   0.832
 8636SOL    HW226808   5.541   5.391   0.686
 8637SOL     OW26809   1.813   0.943   1.615
 8637SOL    HW126810   1.896   0.911   1.661
 8637SOL    HW226811   1.800   1.040   1.634
 8638SOL     OW26812   5.046   5.043   0.773
 8638SOL    HW126813   5.050   5.035   0.673
 8638SOL    HW226814   5.005   5.131   0.797
 8639SOL     OW26815   6.188   2.670   2.032
 8639SOL    HW126816   6.227   2.745   1.979
 8639SOL    HW226817   6.220   2.675   2.126
 8640SOL     OW26818   4.646   6.310   1.484
 8640SOL    HW126819   4.731   6.260   1.469
 8640SOL    HW226820   4.634   6.326   1.582
 8641SOL     OW26821   5.293   4.890   3.171
 8641SOL    HW126822   5.280   4.792   3.162
 8641SOL    HW226823   5.272   4.935   3.084
 8642SOL     OW26824   4.310   1.533   1.757
 8642SOL    HW126825   4.256   1.537   1.673
 8642SOL    HW226826   4.253   1.563   1.834
 8643SOL     OW26827   4.608   0.411   6.984
 8643SOL    HW126828   4.549   0.368   6.915
 8643SOL    HW226829   4.687   0.352   7.001
 8644SOL     OW26830   6.912   3.605   5.348
 8644SOL    HW126831   6.841   3.634   5.284
 8644SOL    HW226832   7.002   3.633   5.314
 8645SOL     OW26833   6.117   3.949   1.646
 8645SOL    HW126834   6.206   3.949   1.693
 8645SOL    HW226835   6.066   4.031   1.671
 8646SOL     OW26836   5.142   6.547   0.946
 8646SOL    HW126837   5.110   6.525   1.038
 8646SOL    HW226838   5.068   6.529   0.880
 8647SOL     OW26839   4.419   4.691   2.151
 8647SOL    HW126840   4.513   4.725   2.152
 8647SOL    HW226841   4.404   4.636   2.069
 8648SOL     OW26842   5.792   1.549   4.549
 8648SOL    HW126843   5.833   1.495   4.476
 8648SOL    HW226844   5.822   1.644   4.541
 8649SOL     OW26845   6.761   4.689   5.972
 8649SOL    HW126846   6.828   4.736   5.914
 8649SOL    HW226847   6.795   4.687   6.066
 8650SOL     OW26848   0.278   5.104   1.860
 8650SOL    HW126849   0.351   5.108   1.928
 8650SOL    HW226850   0.294   5.026   1.799
 8651SOL     OW26851   3.992   3.122   1.094
 8651SOL    HW126852   4.070   3.163   1.047
 8651SOL    HW226853   3.988   3.156   1.188
 8652SOL     OW26854   0.985   3.412   3.790
 8652SOL    HW126855   1.041   3.367   3.860
 8652SOL    HW226856   1.031   3.407   3.702
 8653SOL     OW26857   5.231   3.001   6.591
 8653SOL    HW126858   5.163   3.059   6.635
 8653SOL    HW226859   5.207   2.905   6.605
 8654SOL     OW26860   0.693   5.299   1.945
 8654SOL    HW126861   0.727   5.208   1.921
 8654SOL    HW226862   0.669   5.349   1.861
 8655SOL     OW26863   6.427   6.428   2.521
 8655SOL    HW126864   6.450   6.524   2.537
 8655SOL    HW226865   6.339   6.423   2.475
 8656SOL     OW26866   6.445   2.061   1.319
 8656SOL    HW126867   6.349   2.083   1.336
 8656SOL    HW226868   6.494   2.060   1.407
 8657SOL     OW26869   2.473   4.518   0.404
 8657SOL    HW126870   2.496   4.510   0.501
 8657SOL    HW226871   2.388   4.469   0.385
 8658SOL     OW26872   0.732   5.607   6.228
 8658SOL    HW126873   0.633   5.595   6.237
 8658SOL    HW226874   0.751   5.699   6.194
 8659SOL     OW26875   4.023   7.022   3.736
 8659SOL    HW126876   4.026   0.090   3.775
 8659SOL    HW226877   3.991   6.957   3.806
 8660SOL     OW26878   5.822   4.985   0.355
 8660SOL    HW126879   5.789   4.957   0.265
 8660SOL    HW226880   5.921   4.999   0.351
 8661SOL     OW26881   6.653   3.194   1.769
 8661SOL    HW126882   6.618   3.283   1.799
 8661SOL    HW226883   6.583   3.147   1.715
 8662SOL     OW26884   0.731   0.213   0.458
 8662SOL    HW126885   0.646   0.160   0.456
 8662SOL    HW226886   0.792   0.175   0.527
 8663SOL     OW26887   2.176   5.760   0.888
 8663SOL    HW126888   2.081   5.776   0.862
 8663SOL    HW226889   2.180   5.686   0.956
 8664SOL     OW26890   4.594   5.234   1.893
 8664SOL    HW126891   4.553   5.296   1.959
 8664SOL    HW226892   4.564   5.257   1.801
 8665SOL     OW26893   5.191   5.588   4.729
 8665SOL    HW126894   5.242   5.519   4.781
 8665SOL    HW226895   5.207   5.573   4.631
 8666SOL     OW26896   6.088   4.138   4.208
 8666SOL    HW126897   6.134   4.216   4.250
 8666SOL    HW226898   6.151   4.060   4.205
 8667SOL     OW26899   5.789   2.788   3.214
 8667SOL    HW126900   5.713   2.780   3.150
 8667SOL    HW226901   5.762   2.842   3.293
 8668SOL     OW26902   3.421   0.976   4.258
 8668SOL    HW126903   3.353   1.049   4.259
 8668SOL    HW226904   3.510   1.014   4.233
 8669SOL     OW26905   4.149   6.775   5.535
 8669SOL    HW126906   4.139   6.873   5.549
 8669SOL    HW226907   4.061   6.730   5.546
 8670SOL     OW26908   4.125   4.788   2.769
 8670SOL    HW126909   4.201   4.726   2.788
 8670SOL    HW226910   4.160   4.870   2.724
 8671SOL     OW26911   6.180   6.479   2.367
 8671SOL    HW126912   6.133   6.423   2.299
 8671SOL    HW226913   6.198   6.570   2.329
 8672SOL     OW26914   3.646   5.111   5.555
 8672SOL    HW126915   3.589   5.038   5.520
 8672SOL    HW226916   3.740   5.099   5.522
 8673SOL     OW26917   4.956   2.173   0.290
 8673SOL    HW126918   4.980   2.112   0.214
 8673SOL    HW226919   4.856   2.185   0.292
 8674SOL     OW26920   0.677   0.007   2.961
 8674SOL    HW126921   0.607   0.064   3.005
 8674SOL    HW226922   0.746   7.005   3.029
 8675SOL     OW26923   2.268   2.439   2.423
 8675SOL    HW126924   2.321   2.442   2.338
 8675SOL    HW226925   2.299   2.512   2.484
 8676SOL     OW26926   4.091   0.775   4.125
 8676SOL    HW126927   4.182   0.754   4.090
 8676SOL    HW226928   4.099   0.818   4.215
 8677SOL     OW26929   2.145   4.595   5.220
 8677SOL    HW126930   2.052   4.623   5.198
 8677SOL    HW226931   2.170   4.514   5.166
 8678SOL     OW26932   1.303   0.735   6.496
 8678SOL    HW126933   1.284   0.653   6.551
 8678SOL    HW226934   1.379   0.716   6.434
 8679SOL     OW26935   6.320   1.739   4.680
 8679SOL    HW126936   6.228   1.731   4.641
 8679SOL    HW226937   6.369   1.814   4.636
 8680SOL     OW26938   0.982   3.796   0.776
 8680SOL    HW126939   1.019   3.865   0.713
 8680SOL    HW226940   0.882   3.806   0.780
 8681SOL     OW26941   4.149   3.500   1.211
 8681SOL    HW126942   4.222   3.480   1.276
 8681SOL    HW226943   4.085   3.424   1.209
 8682SOL     OW26944   1.631   5.458   2.814
 8682SOL    HW126945   1.597   5.367   2.789
 8682SOL    HW226946   1.577   5.528   2.767
 8683SOL     OW26947   5.186   3.011   6.234
 8683SOL    HW126948   5.192   3.023   6.135
 8683SOL    HW226949   5.276   3.026   6.275
 8684SOL     OW26950   6.920   2.683   4.266
 8684SOL    HW126951   6.998   2.621   4.275
 8684SOL    HW226952   6.879   2.671   4.176
 8685SOL     OW26953   0.443   1.378   5.353
 8685SOL    HW126954   0.418   1.471   5.376
 8685SOL    HW226955   0.535   1.377   5.314
 8686SOL     OW26956   6.515   1.777   3.851
 8686SOL    HW126957   6.537   1.691   3.804
 8686SOL    HW226958   6.512   1.852   3.785
 8687SOL     OW26959   3.734   0.832   2.714
 8687SOL    HW126960   3.818   0.824   2.768
 8687SOL    HW226961   3.655   0.813   2.772
 8688SOL     OW26962   1.365   0.238   2.176
 8688SOL    HW126963   1.341   0.155   2.126
 8688SOL    HW226964   1.377   0.216   2.273
 8689SOL     OW26965   4.519   5.451   0.830
 8689SOL    HW126966   4.459   5.508   0.774
 8689SOL    HW226967   4.548   5.371   0.776
 8690SOL     OW26968   1.397   0.905   3.018
 8690SOL    HW126969   1.321   0.900   2.953
 8690SOL    HW226970   1.423   0.813   3.046
 8691SOL     OW26971   5.641   1.408   0.720
 8691SOL    HW126972   5.700   1.489   0.725
 8691SOL    HW226973   5.568   1.415   0.788
 8692SOL     OW26974   1.581   1.576   3.865
 8692SOL    HW126975   1.538   1.665   3.848
 8692SOL    HW226976   1.608   1.570   3.961
 8693SOL     OW26977   5.194   1.952   6.899
 8693SOL    HW126978   5.260   2.007   6.950
 8693SOL    HW226979   5.227   1.938   6.806
 8694SOL     OW26980   3.787   6.732   0.032
 8694SOL    HW126981   3.699   6.760   0.071
 8694SOL    HW226982   3.858   6.797   0.060
 8695SOL     OW26983   4.552   4.367   5.223
 8695SOL    HW126984   4.577   4.291   5.164
 8695SOL    HW226985   4.455   4.389   5.209
 8696SOL     OW26986   2.019   5.258   0.980
 8696SOL    HW126987   1.933   5.277   1.029
 8696SOL    HW226988   2.049   5.339   0.931
 8697SOL     OW26989   4.874   4.998   6.608
 8697SOL    HW126990   4.792   5.040   6.647
 8697SOL    HW226991   4.903   4.922   6.665
 8698SOL     OW26992   5.820   6.270   4.437
 8698SOL    HW126993   5.739   6.255   4.381
 8698SOL    HW226994   5.797   6.326   4.516
 8699SOL     OW26995   1.170   1.783   5.150
 8699SOL    HW126996   1.128   1.761   5.238
 8699SOL    HW226997   1.163   1.881   5.133
 8700SOL     OW26998   2.825   2.130   5.715
 8700SOL    HW126999   2.804   2.085   5.628
 8700SOL    HW227000   2.745   2.182   5.745
 8701SOL     OW27001   1.233   2.185   3.678
 8701SOL    HW127002   1.275   2.137   3.601
 8701SOL    HW227003   1.292   2.261   3.705
 8702SOL     OW27004   5.109   5.699   6.926
 8702SOL    HW127005   5.181   5.629   6.926
 8702SOL    HW227006   5.151   5.790   6.919
 8703SOL     OW27007   1.072   5.610   1.030
 8703SOL    HW127008   1.109   5.631   0.939
 8703SOL    HW227009   0.999   5.542   1.021
 8704SOL     OW27010   0.353   4.292   2.072
 8704SOL    HW127011   0.286   4.365   2.087
 8704SOL    HW227012   0.318   4.229   2.002
 8705SOL     OW27013   4.840   6.618   4.605
 8705SOL    HW127014   4.776   6.643   4.532
 8705SOL    HW227015   4.837   6.687   4.677
 8706SOL     OW27016   5.267   1.664   6.107
 8706SOL    HW127017   5.256   1.722   6.188
 8706SOL    HW227018   5.179   1.652   6.062
 8707SOL     OW27019   5.024   2.075   5.934
 8707SOL    HW127020   4.939   2.029   5.958
 8707SOL    HW227021   5.064   2.117   6.017
 8708SOL     OW27022   3.999   1.921   0.675
 8708SOL    HW127023   4.066   1.855   0.642
 8708SOL    HW227024   3.996   1.919   0.775
 8709SOL     OW27025   5.997   3.599   0.601
 8709SOL    HW127026   6.035   3.507   0.597
 8709SOL    HW227027   5.998   3.630   0.696
 8710SOL     OW27028   6.704   3.491   3.883
 8710SOL    HW127029   6.751   3.438   3.812
 8710SOL    HW227030   6.625   3.440   3.916
 8711SOL     OW27031   0.888   1.955   3.860
 8711SOL    HW127032   0.804   1.907   3.885
 8711SOL    HW227033   0.868   2.051   3.843
 8712SOL     OW27034   3.750   0.929   6.162
 8712SOL    HW127035   3.679   0.999   6.166
 8712SOL    HW227036   3.835   0.970   6.128
 8713SOL     OW27037   5.686   4.767   2.640
 8713SOL    HW127038   5.731   4.699   2.581
 8713SOL    HW227039   5.668   4.727   2.729
 8714SOL     OW27040   1.707   1.718   4.482
 8714SOL    HW127041   1.738   1.810   4.505
 8714SOL    HW227042   1.723   1.658   4.560
 8715SOL     OW27043   6.036   1.247   2.248
 8715SOL    HW127044   6.084   1.295   2.174
 8715SOL    HW227045   5.940   1.273   2.248
 8716SOL     OW27046   0.635   1.313   1.818
 8716SOL    HW127047   0.659   1.407   1.842
 8716SOL    HW227048   0.714   1.254   1.833
 8717SOL     OW27049   4.366   3.540   0.319
 8717SOL    HW127050   4.410   3.486   0.247
 8717SOL    HW227051   4.276   3.500   0.340
 8718SOL     OW27052   0.109   2.786   5.719
 8718SOL    HW127053   0.049   2.801   5.797
 8718SOL    HW227054   0.126   2.873   5.673
 8719SOL     OW27055   6.448   0.888   5.624
 8719SOL    HW127056   6.379   0.835   5.574
 8719SOL    HW227057   6.415   0.906   5.716
 8720SOL     OW27058   4.491   3.726   5.869
 8720SOL    HW127059   4.535   3.664   5.804
 8720SOL    HW227060   4.417   3.679   5.916
 8721SOL     OW27061   6.988   0.965   4.753
 8721SOL    HW127062   6.904   0.933   4.709
 8721SOL    HW227063   7.001   0.915   4.839
 8722SOL     OW27064   2.963   2.906   0.891
 8722SOL    HW127065   2.917   2.882   0.976
 8722SOL    HW227066   3.060   2.886   0.899
 8723SOL     OW27067   0.223   5.174   0.293
 8723SOL    HW127068   0.126   5.195   0.305
 8723SOL    HW227069   0.242   5.083   0.329
 8724SOL     OW27070   5.514   5.873   6.186
 8724SOL    HW127071   5.440   5.809   6.209
 8724SOL    HW227072   5.541   5.924   6.268
 8725SOL     OW27073   1.916   6.090   1.495
 8725SOL    HW127074   1.934   6.092   1.397
 8725SOL    HW227075   2.003   6.090   1.545
 8726SOL     OW27076   6.627   0.088   1.168
 8726SOL    HW127077   6.698   0.092   1.097
 8726SOL    HW227078   6.599   7.017   1.181
 8727SOL     OW27079   6.256   6.334   1.385
 8727SOL    HW127080   6.181   6.276   1.354
 8727SOL    HW227081   6.221   6.425   1.407
 8728SOL     OW27082   2.377   6.610   5.329
 8728SOL    HW127083   2.443   6.548   5.371
 8728SOL    HW227084   2.392   6.613   5.230
 8729SOL     OW27085   5.406   6.311   4.639
 8729SOL    HW127086   5.353   6.308   4.554
 8729SOL    HW227087   5.433   6.219   4.665
 8730SOL     OW27088   6.848   6.446   0.958
 8730SOL    HW127089   6.914   6.481   1.024
 8730SOL    HW227090   6.848   6.346   0.960
 8731SOL     OW27091   0.643   1.869   2.322
 8731SOL    HW127092   0.559   1.816   2.313
 8731SOL    HW227093   0.634   1.934   2.397
 8732SOL     OW27094   6.072   5.615   1.829
 8732SOL    HW127095   5.979   5.610   1.794
 8732SOL    HW227096   6.111   5.705   1.809
 8733SOL     OW27097   0.019   6.811   1.655
 8733SOL    HW127098   0.060   6.747   1.721
 8733SOL    HW227099   6.989   6.759   1.589
 8734SOL     OW27100   0.117   5.770   0.232
 8734SOL    HW127101   0.127   5.807   0.324
 8734SOL    HW227102   0.195   5.798   0.176
 8735SOL     OW27103   6.833   2.691   6.335
 8735SOL    HW127104   6.818   2.788   6.314
 8735SOL    HW227105   6.931   2.672   6.338
 8736SOL     OW27106   0.130   4.716   6.040
 8736SOL    HW127107   0.201   4.658   6.081
 8736SOL    HW227108   0.167   4.760   5.958
 8737SOL     OW27109   3.769   6.446   6.730
 8737SOL    HW127110   3.734   6.378   6.666
 8737SOL    HW227111   3.799   6.527   6.679
 8738SOL     OW27112   0.874   3.605   5.350
 8738SOL    HW127113   0.849   3.550   5.430
 8738SOL    HW227114   0.937   3.553   5.292
 8739SOL     OW27115   1.284   3.402   5.442
 8739SOL    HW127116   1.333   3.330   5.490
 8739SOL    HW227117   1.314   3.491   5.476
 8740SOL     OW27118   1.326   6.503   1.386
 8740SOL    HW127119   1.237   6.540   1.412
 8740SOL    HW227120   1.349   6.425   1.445
 8741SOL     OW27121   1.651   3.660   2.029
 8741SOL    HW127122   1.571   3.663   1.969
 8741SOL    HW227123   1.709   3.583   2.003
 8742SOL     OW27124   4.891   6.438   2.108
 8742SOL    HW127125   4.811   6.472   2.158
 8742SOL    HW227126   4.863   6.405   2.018
 8743SOL     OW27127   2.188   4.885   3.296
 8743SOL    HW127128   2.207   4.790   3.272
 8743SOL    HW227129   2.160   4.935   3.214
 8744SOL     OW27130   3.375   3.350   5.654
 8744SOL    HW127131   3.457   3.337   5.599
 8744SOL    HW227132   3.298   3.373   5.594
 8745SOL     OW27133   6.187   1.571   0.022
 8745SOL    HW127134   6.192   1.565   6.946
 8745SOL    HW227135   6.092   1.562   0.051
 8746SOL     OW27136   5.059   4.378   5.219
 8746SOL    HW127137   5.140   4.434   5.203
 8746SOL    HW227138   4.982   4.414   5.166
 8747SOL     OW27139   0.889   2.410   4.123
 8747SOL    HW127140   0.932   2.320   4.135
 8747SOL    HW227141   0.924   2.473   4.192
 8748SOL     OW27142   2.993   0.014   0.317
 8748SOL    HW127143   3.070   0.058   0.270
 8748SOL    HW227144   2.954   6.967   0.257
 8749SOL     OW27145   3.879   1.562   3.884
 8749SOL    HW127146   3.976   1.546   3.866
 8749SOL    HW227147   3.860   1.660   3.880
 8750SOL     OW27148   2.008   0.465   5.308
 8750SOL    HW127149   1.913   0.485   5.332
 8750SOL    HW227150   2.012   0.418   5.220
 8751SOL     OW27151   2.001   0.207   3.217
 8751SOL    HW127152   1.979   0.253   3.131
 8751SOL    HW227153   2.065   0.264   3.270
 8752SOL     OW27154   2.178   1.677   5.961
 8752SOL    HW127155   2.089   1.634   5.949
 8752SOL    HW227156   2.220   1.643   6.046
 8753SOL     OW27157   6.379   1.472   4.630
 8753SOL    HW127158   6.370   1.571   4.643
 8753SOL    HW227159   6.312   1.425   4.687
 8754SOL     OW27160   1.982   0.919   4.962
 8754SOL    HW127161   1.894   0.951   4.924
 8754SOL    HW227162   2.025   0.857   4.897
 8755SOL     OW27163   2.308   1.886   1.149
 8755SOL    HW127164   2.222   1.920   1.187
 8755SOL    HW227165   2.294   1.860   1.053
 8756SOL     OW27166   2.212   4.080   3.985
 8756SOL    HW127167   2.245   4.118   3.898
 8756SOL    HW227168   2.168   4.153   4.038
 8757SOL     OW27169   4.077   6.088   4.156
 8757SOL    HW127170   4.013   6.165   4.165
 8757SOL    HW227171   4.071   6.030   4.237
 8758SOL     OW27172   5.272   6.613   2.190
 8758SOL    HW127173   5.222   6.690   2.229
 8758SOL    HW227174   5.293   6.547   2.262
 8759SOL     OW27175   5.281   1.453   5.613
 8759SOL    HW127176   5.329   1.430   5.529
 8759SOL    HW227177   5.196   1.400   5.619
 8760SOL     OW27178   1.537   3.244   3.680
 8760SOL    HW127179   1.556   3.341   3.673
 8760SOL    HW227180   1.623   3.192   3.679
 8761SOL     OW27181   5.249   6.137   1.154
 8761SOL    HW127182   5.230   6.046   1.190
 8761SOL    HW227183   5.279   6.130   1.059
 8762SOL     OW27184   0.534   3.732   0.225
 8762SOL    HW127185   0.468   3.679   0.171
 8762SOL    HW227186   0.490   3.766   0.308
 8763SOL     OW27187   6.999   6.023   6.292
 8763SOL    HW127188   7.008   5.988   6.385
 8763SOL    HW227189   6.928   6.093   6.290
 8764SOL     OW27190   3.941   1.779   5.543
 8764SOL    HW127191   3.902   1.695   5.504
 8764SOL    HW227192   3.982   1.759   5.632
 8765SOL     OW27193   6.635   0.301   5.054
 8765SOL    HW127194   6.541   0.293   5.022
 8765SOL    HW227195   6.650   0.238   5.130
 8766SOL     OW27196   2.132   4.382   2.386
 8766SOL    HW127197   2.141   4.314   2.313
 8766SOL    HW227198   2.173   4.468   2.357
 8767SOL     OW27199   4.822   1.531   4.961
 8767SOL    HW127200   4.848   1.627   4.964
 8767SOL    HW227201   4.731   1.522   4.920
 8768SOL     OW27202   0.849   3.926   6.992
 8768SOL    HW127203   0.889   3.963   6.908
 8768SOL    HW227204   0.867   3.989   0.044
 8769SOL     OW27205   1.706   0.834   5.534
 8769SOL    HW127206   1.710   0.734   5.540
 8769SOL    HW227207   1.782   0.868   5.478
 8770SOL     OW27208   5.440   1.452   3.127
 8770SOL    HW127209   5.443   1.395   3.209
 8770SOL    HW227210   5.529   1.496   3.114
 8771SOL     OW27211   2.424   2.507   5.285
 8771SOL    HW127212   2.404   2.567   5.363
 8771SOL    HW227213   2.518   2.522   5.254
 8772SOL     OW27214   5.811   5.924   6.574
 8772SOL    HW127215   5.808   5.829   6.605
 8772SOL    HW227216   5.864   5.978   6.639
 8773SOL     OW27217   3.132   1.842   2.916
 8773SOL    HW127218   3.196   1.892   2.859
 8773SOL    HW227219   3.153   1.745   2.914
 8774SOL     OW27220   1.528   0.756   0.423
 8774SOL    HW127221   1.615   0.802   0.401
 8774SOL    HW227222   1.487   0.721   0.339
 8775SOL     OW27223   6.627   6.281   3.703
 8775SOL    HW127224   6.531   6.300   3.684
 8775SOL    HW227225   6.638   6.259   3.800
 8776SOL     OW27226   3.204   3.949   4.519
 8776SOL    HW127227   3.225   3.905   4.431
 8776SOL    HW227228   3.256   4.034   4.526
 8777SOL     OW27229   6.494   5.592   2.319
 8777SOL    HW127230   6.556   5.529   2.366
 8777SOL    HW227231   6.517   5.686   2.345
 8778SOL     OW27232   1.100   2.413   3.006
 8778SOL    HW127233   1.153   2.348   3.060
 8778SOL    HW227234   1.010   2.425   3.047
 8779SOL     OW27235   1.575   4.789   1.023
 8779SOL    HW127236   1.582   4.857   1.095
 8779SOL    HW227237   1.483   4.749   1.024
 8780SOL     OW27238   2.101   6.313   4.602
 8780SOL    HW127239   2.117   6.278   4.509
 8780SOL    HW227240   2.186   6.311   4.653
 8781SOL     OW27241   0.656   2.323   2.815
 8781SOL    HW127242   0.725   2.293   2.750
 8781SOL    HW227243   0.681   2.413   2.851
 8782SOL     OW27244   5.015   1.566   3.269
 8782SOL    HW127245   5.096   1.623   3.254
 8782SOL    HW227246   4.949   1.583   3.195
 8783SOL     OW27247   6.014   2.562   6.308
 8783SOL    HW127248   6.005   2.601   6.217
 8783SOL    HW227249   5.923   2.537   6.343
 8784SOL     OW27250   5.197   4.100   5.973
 8784SOL    HW127251   5.122   4.160   5.948
 8784SOL    HW227252   5.242   4.135   6.056
 8785SOL     OW27253   5.113   4.201   6.393
 8785SOL    HW127254   5.202   4.243   6.371
 8785SOL    HW227255   5.056   4.201   6.311
 8786SOL     OW27256   1.268   6.432   0.296
 8786SOL    HW127257   1.361   6.433   0.260
 8786SOL    HW227258   1.221   6.516   0.270
 8787SOL     OW27259   1.119   2.477   6.936
 8787SOL    HW127260   1.114   2.398   6.876
 8787SOL    HW227261   1.041   2.476   6.999
 8788SOL     OW27262   1.463   1.896   5.297
 8788SOL    HW127263   1.416   1.975   5.337
 8788SOL    HW227264   1.500   1.922   5.207
 8789SOL     OW27265   0.702   0.781   0.216
 8789SOL    HW127266   0.646   0.852   0.259
 8789SOL    HW227267   0.766   0.743   0.284
 8790SOL     OW27268   4.311   1.517   6.842
 8790SOL    HW127269   4.364   1.436   6.867
 8790SOL    HW227270   4.366   1.577   6.784
 8791SOL     OW27271   5.034   6.111   5.441
 8791SOL    HW127272   5.079   6.068   5.362
 8791SOL    HW227273   5.078   6.199   5.460
 8792SOL     OW27274   5.484   6.790   3.025
 8792SOL    HW127275   5.385   6.803   3.026
 8792SOL    HW227276   5.516   6.783   2.931
 8793SOL     OW27277   1.213   4.535   3.093
 8793SOL    HW127278   1.283   4.594   3.052
 8793SOL    HW227279   1.155   4.590   3.154
 8794SOL     OW27280   2.747   5.877   2.955
 8794SOL    HW127281   2.673   5.837   2.900
 8794SOL    HW227282   2.832   5.826   2.939
 8795SOL     OW27283   2.467   5.749   5.283
 8795SOL    HW127284   2.404   5.672   5.273
 8795SOL    HW227285   2.463   5.806   5.202
 8796SOL     OW27286   6.024   2.672   5.593
 8796SOL    HW127287   6.079   2.730   5.652
 8796SOL    HW227288   6.027   2.708   5.499
 8797SOL     OW27289   1.241   6.132   6.680
 8797SOL    HW127290   1.337   6.119   6.705
 8797SOL    HW227291   1.214   6.227   6.697
 8798SOL     OW27292   3.595   3.252   5.921
 8798SOL    HW127293   3.517   3.189   5.916
 8798SOL    HW227294   3.677   3.205   5.889
 8799SOL     OW27295   3.498   0.421   3.346
 8799SOL    HW127296   3.545   0.506   3.320
 8799SOL    HW227297   3.472   0.371   3.264
 8800SOL     OW27298   4.566   5.201   0.725
 8800SOL    HW127299   4.645   5.200   0.663
 8800SOL    HW227300   4.484   5.175   0.674
 8801SOL     OW27301   3.255   6.802   5.785
 8801SOL    HW127302   3.183   6.778   5.720
 8801SOL    HW227303   3.339   6.823   5.735
 8802SOL     OW27304   2.090   6.462   1.732
 8802SOL    HW127305   2.118   6.434   1.640
 8802SOL    HW227306   1.991   6.455   1.741
 8803SOL     OW27307   4.318   6.081   1.213
 8803SOL    HW127308   4.314   5.986   1.246
 8803SOL    HW227309   4.242   6.133   1.252
 8804SOL     OW27310   2.996   1.126   1.107
 8804SOL    HW127311   3.073   1.184   1.081
 8804SOL    HW227312   2.921   1.139   1.042
 8805SOL     OW27313   0.356   0.517   3.198
 8805SOL    HW127314   0.428   0.507   3.129
 8805SOL    HW227315   0.318   0.427   3.220
 8806SOL     OW27316   1.836   5.064   0.494
 8806SOL    HW127317   1.934   5.082   0.485
 8806SOL    HW227318   1.801   5.112   0.574
 8807SOL     OW27319   2.059   6.053   6.638
 8807SOL    HW127320   1.967   6.044   6.674
 8807SOL    HW227321   2.063   6.131   6.575
 8808SOL     OW27322   5.468   1.830   0.933
 8808SOL    HW127323   5.408   1.794   0.861
 8808SOL    HW227324   5.537   1.889   0.892
 8809SOL     OW27325   6.177   4.226   0.851
 8809SOL    HW127326   6.079   4.227   0.872
 8809SOL    HW227327   6.199   4.304   0.792
 8810SOL     OW27328   5.119   1.723   3.871
 8810SOL    HW127329   5.130   1.631   3.832
 8810SOL    HW227330   5.199   1.745   3.926
 8811SOL     OW27331   1.539   1.534   3.486
 8811SOL    HW127332   1.547   1.491   3.576
 8811SOL    HW227333   1.594   1.618   3.484
 8812SOL     OW27334   2.397   0.982   0.267
 8812SOL    HW127335   2.418   0.914   0.337
 8812SOL    HW227336   2.380   1.070   0.311
 8813SOL     OW27337   1.083   6.116   0.833
 8813SOL    HW127338   1.041   6.197   0.793
 8813SOL    HW227339   1.172   6.101   0.790
 8814SOL     OW27340   5.032   6.369   6.440
 8814SOL    HW127341   5.066   6.302   6.375
 8814SOL    HW227342   5.108   6.422   6.477
 8815SOL     OW27343   6.034   5.848   3.178
 8815SOL    HW127344   6.128   5.880   3.170
 8815SOL    HW227345   6.008   5.842   3.274
 8816SOL     OW27346   0.950   5.478   1.974
 8816SOL    HW127347   0.966   5.441   2.066
 8816SOL    HW227348   0.921   5.404   1.913
 8817SOL     OW27349   2.297   4.619   5.451
 8817SOL    HW127350   2.371   4.674   5.412
 8817SOL    HW227351   2.226   4.605   5.381
 8818SOL     OW27352   6.960   4.577   4.929
 8818SOL    HW127353   6.891   4.507   4.948
 8818SOL    HW227354   6.957   4.602   4.832
 8819SOL     OW27355   6.222   0.065   4.196
 8819SOL    HW127356   6.321   0.071   4.213
 8819SOL    HW227357   6.196   6.992   4.191
 8820SOL     OW27358   0.857   2.974   3.743
 8820SOL    HW127359   0.917   2.992   3.665
 8820SOL    HW227360   0.911   2.937   3.818
 8821SOL     OW27361   1.719   6.805   6.283
 8821SOL    HW127362   1.719   6.706   6.295
 8821SOL    HW227363   1.752   6.849   6.366
 8822SOL     OW27364   0.745   2.095   3.189
 8822SOL    HW127365   0.706   2.003   3.194
 8822SOL    HW227366   0.805   2.101   3.110
 8823SOL     OW27367   2.506   4.851   1.780
 8823SOL    HW127368   2.562   4.933   1.778
 8823SOL    HW227369   2.514   4.802   1.693
 8824SOL     OW27370   4.519   4.176   1.091
 8824SOL    HW127371   4.441   4.118   1.110
 8824SOL    HW227372   4.569   4.194   1.175
 8825SOL     OW27373   1.776   2.515   0.897
 8825SOL    HW127374   1.807   2.575   0.971
 8825SOL    HW227375   1.832   2.530   0.816
 8826SOL     OW27376   5.607   0.626   0.513
 8826SOL    HW127377   5.610   0.596   0.609
 8826SOL    HW227378   5.700   0.623   0.475
 8827SOL     OW27379   6.955   1.488   3.244
 8827SOL    HW127380   6.958   1.578   3.202
 8827SOL    HW227381   6.962   1.417   3.173
 8828SOL     OW27382   1.721   6.365   3.389
 8828SOL    HW127383   1.774   6.437   3.344
 8828SOL    HW227384   1.631   6.400   3.414
 8829SOL     OW27385   1.572   1.355   0.849
 8829SOL    HW127386   1.549   1.287   0.919
 8829SOL    HW227387   1.633   1.423   0.888
 8830SOL     OW27388   1.459   1.351   0.027
 8830SOL    HW127389   1.454   1.320   6.956
 8830SOL    HW227390   1.448   1.273   0.089
 8831SOL     OW27391   6.966   1.324   1.949
 8831SOL    HW127392   6.960   1.400   2.014
 8831SOL    HW227393   6.877   1.280   1.942
 8832SOL     OW27394   6.714   0.836   2.000
 8832SOL    HW127395   6.727   0.925   2.042
 8832SOL    HW227396   6.775   0.827   1.920
 8833SOL     OW27397   1.307   4.949   2.670
 8833SOL    HW127398   1.286   4.921   2.764
 8833SOL    HW227399   1.258   5.034   2.648
 8834SOL     OW27400   5.951   4.071   3.745
 8834SOL    HW127401   5.979   4.125   3.824
 8834SOL    HW227402   6.019   4.081   3.672
 8835SOL     OW27403   0.652   0.901   6.998
 8835SOL    HW127404   0.731   0.909   6.938
 8835SOL    HW227405   0.674   0.840   0.051
 8836SOL     OW27406   4.846   1.971   1.689
 8836SOL    HW127407   4.904   2.016   1.621
 8836SOL    HW227408   4.875   2.000   1.781
 8837SOL     OW27409   0.793   2.413   1.992
 8837SOL    HW127410   0.866   2.464   1.947
 8837SOL    HW227411   0.715   2.405   1.930
 8838SOL     OW27412   2.013   6.024   3.744
 8838SOL    HW127413   2.081   6.082   3.699
 8838SOL    HW227414   1.975   5.960   3.678
 8839SOL     OW27415   5.531   6.028   3.872
 8839SOL    HW127416   5.562   6.118   3.902
 8839SOL    HW227417   5.499   5.975   3.951
 8840SOL     OW27418   4.609   0.697   2.032
 8840SOL    HW127419   4.640   0.612   1.989
 8840SOL    HW227420   4.661   0.713   2.116
 8841SOL     OW27421   2.961   7.008   4.243
 8841SOL    HW127422   2.880   0.018   4.196
 8841SOL    HW227423   2.996   6.928   4.195
 8842SOL     OW27424   1.551   2.722   1.946
 8842SOL    HW127425   1.512   2.649   1.890
 8842SOL    HW227426   1.613   2.682   2.014
 8843SOL     OW27427   0.230   3.229   4.432
 8843SOL    HW127428   0.260   3.323   4.416
 8843SOL    HW227429   0.246   3.175   4.350
 8844SOL     OW27430   5.920   1.411   6.167
 8844SOL    HW127431   5.938   1.330   6.112
 8844SOL    HW227432   5.987   1.482   6.146
 8845SOL     OW27433   5.299   3.351   6.559
 8845SOL    HW127434   5.209   3.307   6.565
 8845SOL    HW227435   5.361   3.308   6.624
 8846SOL     OW27436   3.302   4.922   3.257
 8846SOL    HW127437   3.212   4.881   3.273
 8846SOL    HW227438   3.346   4.941   3.344
 8847SOL     OW27439   1.163   0.946   2.864
 8847SOL    HW127440   1.151   0.954   2.765
 8847SOL    HW227441   1.074   0.952   2.909
 8848SOL     OW27442   1.020   1.076   3.438
 8848SOL    HW127443   1.117   1.094   3.453
 8848SOL    HW227444   0.987   1.012   3.507
 8849SOL     OW27445   2.693   6.781   1.581
 8849SOL    HW127446   2.660   6.864   1.535
 8849SOL    HW227447   2.781   6.801   1.624
 8850SOL     OW27448   2.943   2.649   0.232
 8850SOL    HW127449   2.845   2.660   0.249
 8850SOL    HW227450   2.963   2.553   0.214
 8851SOL     OW27451   1.857   3.896   2.059
 8851SOL    HW127452   1.794   3.820   2.077
 8851SOL    HW227453   1.937   3.887   2.118
 8852SOL     OW27454   0.651   2.090   5.021
 8852SOL    HW127455   0.719   2.140   4.967
 8852SOL    HW227456   0.559   2.118   4.994
 8853SOL     OW27457   4.901   0.770   1.792
 8853SOL    HW127458   4.817   0.727   1.761
 8853SOL    HW227459   4.980   0.717   1.759
 8854SOL     OW27460   0.876   2.658   4.578
 8854SOL    HW127461   0.871   2.737   4.517
 8854SOL    HW227462   0.867   2.688   4.673
 8855SOL     OW27463   5.338   4.835   1.729
 8855SOL    HW127464   5.405   4.895   1.686
 8855SOL    HW227465   5.379   4.745   1.744
 8856SOL     OW27466   6.256   0.354   5.929
 8856SOL    HW127467   6.175   0.300   5.905
 8856SOL    HW227468   6.243   0.396   6.019
 8857SOL     OW27469   0.225   1.753   6.497
 8857SOL    HW127470   0.234   1.727   6.593
 8857SOL    HW227471   0.128   1.762   6.474
 8858SOL     OW27472   6.668   5.891   5.029
 8858SOL    HW127473   6.654   5.926   4.936
 8858SOL    HW227474   6.708   5.964   5.086
 8859SOL     OW27475   0.985   5.718   3.029
 8859SOL    HW127476   1.051   5.757   2.965
 8859SOL    HW227477   0.902   5.692   2.981
 8860SOL     OW27478   0.074   3.463   2.484
 8860SOL    HW127479   0.079   3.563   2.485
 8860SOL    HW227480   0.111   3.428   2.570
 8861SOL     OW27481   3.884   2.809   1.741
 8861SOL    HW127482   3.819   2.866   1.690
 8861SOL    HW227483   3.909   2.856   1.826
 8862SOL     OW27484   4.350   4.723   4.730
 8862SOL    HW127485   4.366   4.665   4.809
 8862SOL    HW227486   4.371   4.672   4.646
 8863SOL     OW27487   1.212   3.975   2.467
 8863SOL    HW127488   1.209   4.072   2.442
 8863SOL    HW227489   1.307   3.946   2.479
 8864SOL     OW27490   6.599   1.830   5.281
 8864SOL    HW127491   6.538   1.902   5.314
 8864SOL    HW227492   6.636   1.779   5.359
 8865SOL     OW27493   3.039   2.263   0.731
 8865SOL    HW127494   2.947   2.225   0.727
 8865SOL    HW227495   3.047   2.323   0.810
 8866SOL     OW27496   5.671   6.545   2.095
 8866SOL    HW127497   5.729   6.527   2.016
 8866SOL    HW227498   5.575   6.548   2.065
 8867SOL     OW27499   6.347   3.105   2.998
 8867SOL    HW127500   6.350   3.205   2.995
 8867SOL    HW227501   6.414   3.072   3.064
 8868SOL     OW27502   0.067   3.191   3.889
 8868SOL    HW127503   0.148   3.147   3.850
 8868SOL    HW227504   7.011   3.170   3.832
 8869SOL     OW27505   4.897   0.509   3.626
 8869SOL    HW127506   4.876   0.600   3.662
 8869SOL    HW227507   4.813   0.456   3.618
 8870SOL     OW27508   1.267   1.091   1.697
 8870SOL    HW127509   1.353   1.059   1.737
 8870SOL    HW227510   1.206   1.013   1.682
 8871SOL     OW27511   0.522   0.122   1.355
 8871SOL    HW127512   0.487   0.164   1.272
 8871SOL    HW227513   0.578   0.042   1.331
 8872SOL     OW27514   0.096   4.292   3.439
 8872SOL    HW127515   0.150   4.337   3.510
 8872SOL    HW227516   0.011   4.257   3.478
 8873SOL     OW27517   2.589   1.519   2.818
 8873SOL    HW127518   2.534   1.442   2.849
 8873SOL    HW227519   2.610   1.579   2.895
 8874SOL     OW27520   2.774   6.348   0.886
 8874SOL    HW127521   2.806   6.409   0.959
 8874SOL    HW227522   2.706   6.284   0.924
 8875SOL     OW27523   6.148   3.316   4.824
 8875SOL    HW127524   6.166   3.223   4.792
 8875SOL    HW227525   6.228   3.350   4.874
 8876SOL     OW27526   3.973   0.614   0.782
 8876SOL    HW127527   3.968   0.684   0.854
 8876SOL    HW227528   4.055   0.559   0.795
 8877SOL     OW27529   0.477   5.296   1.249
 8877SOL    HW127530   0.450   5.262   1.339
 8877SOL    HW227531   0.488   5.219   1.185
 8878SOL     OW27532   5.140   3.332   1.815
 8878SOL    HW127533   5.161   3.241   1.850
 8878SOL    HW227534   5.041   3.346   1.813
 8879SOL     OW27535   6.994   4.621   3.584
 8879SOL    HW127536   6.959   4.548   3.641
 8879SOL    HW227537   0.030   4.582   3.513
 8880SOL     OW27538   4.054   2.195   2.999
 8880SOL    HW127539   4.013   2.205   2.909
 8880SOL    HW227540   4.138   2.250   3.004
 8881SOL     OW27541   3.304   5.060   2.517
 8881SOL    HW127542   3.268   5.003   2.590
 8881SOL    HW227543   3.306   5.008   2.432
 8882SOL     OW27544   4.186   0.591   0.294
 8882SOL    HW127545   4.184   0.688   0.270
 8882SOL    HW227546   4.229   0.539   0.220
 8883SOL     OW27547   6.773   6.370   2.995
 8883SOL    HW127548   6.837   6.318   2.938
 8883SOL    HW227549   6.762   6.324   3.083
 8884SOL     OW27550   4.142   2.863   5.558
 8884SOL    HW127551   4.090   2.805   5.495
 8884SOL    HW227552   4.235   2.876   5.522
 8885SOL     OW27553   5.492   5.857   0.768
 8885SOL    HW127554   5.395   5.865   0.743
 8885SOL    HW227555   5.544   5.826   0.689
 8886SOL     OW27556   4.706   6.659   6.895
 8886SOL    HW127557   4.746   6.727   6.956
 8886SOL    HW227558   4.768   6.582   6.885
 8887SOL     OW27559   3.634   0.273   1.440
 8887SOL    HW127560   3.535   0.261   1.438
 8887SOL    HW227561   3.655   0.363   1.479
 8888SOL     OW27562   3.561   1.934   2.438
 8888SOL    HW127563   3.545   1.835   2.431
 8888SOL    HW227564   3.548   1.977   2.349
 8889SOL     OW27565   1.484   4.860   0.557
 8889SOL    HW127566   1.573   4.832   0.522
 8889SOL    HW227567   1.423   4.781   0.560
 8890SOL     OW27568   1.244   5.758   7.011
 8890SOL    HW127569   1.208   5.711   0.068
 8890SOL    HW227570   1.268   5.691   6.941
 8891SOL     OW27571   6.689   3.744   5.243
 8891SOL    HW127572   6.723   3.831   5.208
 8891SOL    HW227573   6.589   3.744   5.241
 8892SOL     OW27574   3.009   5.162   4.955
 8892SOL    HW127575   3.078   5.191   4.889
 8892SOL    HW227576   3.030   5.199   5.045
 8893SOL     OW27577   1.102   4.555   5.617
 8893SOL    HW127578   1.187   4.605   5.634
 8893SOL    HW227579   1.095   4.533   5.520
 8894SOL     OW27580   5.214   2.116   1.805
 8894SOL    HW127581   5.259   2.028   1.794
 8894SOL    HW227582   5.127   2.103   1.854
 8895SOL     OW27583   6.644   3.300   1.013
 8895SOL    HW127584   6.603   3.377   1.063
 8895SOL    HW227585   6.572   3.235   0.988
 8896SOL     OW27586   1.195   1.669   3.375
 8896SOL    HW127587   1.286   1.679   3.334
 8896SOL    HW227588   1.201   1.609   3.455
 8897SOL     OW27589   1.660   5.459   4.223
 8897SOL    HW127590   1.587   5.397   4.195
 8897SOL    HW227591   1.747   5.410   4.225
 8898SOL     OW27592   5.046   3.985   2.494
 8898SOL    HW127593   5.080   4.065   2.447
 8898SOL    HW227594   4.984   4.013   2.567
 8899SOL     OW27595   2.127   3.592   2.662
 8899SOL    HW127596   2.120   3.505   2.710
 8899SOL    HW227597   2.216   3.599   2.618
 8900SOL     OW27598   4.305   1.550   4.353
 8900SOL    HW127599   4.301   1.638   4.399
 8900SOL    HW227600   4.378   1.494   4.393
 8901SOL     OW27601   1.673   5.789   4.950
 8901SOL    HW127602   1.629   5.797   5.039
 8901SOL    HW227603   1.679   5.693   4.924
 8902SOL     OW27604   0.549   4.869   0.037
 8902SOL    HW127605   0.548   4.963   0.004
 8902SOL    HW227606   0.643   4.838   0.047
 8903SOL     OW27607   1.547   0.385   5.131
 8903SOL    HW127608   1.535   0.397   5.230
 8903SOL    HW227609   1.458   0.365   5.089
 8904SOL     OW27610   0.570   1.003   3.428
 8904SOL    HW127611   0.532   0.954   3.350
 8904SOL    HW227612   0.559   0.948   3.511
 8905SOL     OW27613   1.977   4.663   1.692
 8905SOL    HW127614   1.894   4.720   1.688
 8905SOL    HW227615   1.972   4.603   1.772
 8906SOL     OW27616   6.035   0.365   6.395
 8906SOL    HW127617   6.030   0.328   6.488
 8906SOL    HW227618   6.112   0.324   6.346
 8907SOL     OW27619   3.004   3.308   5.340
 8907SOL    HW127620   3.024   3.283   5.245
 8907SOL    HW227621   2.910   3.340   5.346
 8908SOL     OW27622   1.627   4.850   6.303
 8908SOL    HW127623   1.560   4.776   6.306
 8908SOL    HW227624   1.719   4.812   6.318
 8909SOL     OW27625   2.245   5.611   1.628
 8909SOL    HW127626   2.316   5.569   1.571
 8909SOL    HW227627   2.277   5.615   1.723
 8910SOL     OW27628   0.970   1.239   3.735
 8910SOL    HW127629   1.032   1.299   3.786
 8910SOL    HW227630   0.987   1.249   3.637
 8911SOL     OW27631   5.281   2.750   4.986
 8911SOL    HW127632   5.219   2.828   4.973
 8911SOL    HW227633   5.375   2.779   4.969
 8912SOL     OW27634   3.546   3.171   3.761
 8912SOL    HW127635   3.559   3.086   3.812
 8912SOL    HW227636   3.626   3.231   3.774
 8913SOL     OW27637   5.144   5.861   1.263
 8913SOL    HW127638   5.198   5.780   1.242
 8913SOL    HW227639   5.080   5.879   1.188
 8914SOL     OW27640   4.789   5.722   5.189
 8914SOL    HW127641   4.806   5.631   5.226
 8914SOL    HW227642   4.863   5.747   5.126
 8915SOL     OW27643   1.782   1.159   3.944
 8915SOL    HW127644   1.732   1.235   3.902
 8915SOL    HW227645   1.802   1.180   4.039
 8916SOL     OW27646   5.338   1.208   1.963
 8916SOL    HW127647   5.256   1.163   1.998
 8916SOL    HW227648   5.322   1.238   1.868
 8917SOL     OW27649   5.616   1.970   0.443
 8917SOL    HW127650   5.539   1.913   0.414
 8917SOL    HW227651   5.678   1.983   0.366
 8918SOL     OW27652   0.959   3.563   2.336
 8918SOL    HW127653   0.979   3.660   2.317
 8918SOL    HW227654   0.949   3.550   2.434
 8919SOL     OW27655   6.268   3.001   2.421
 8919SOL    HW127656   6.325   3.018   2.501
 8919SOL    HW227657   6.320   3.020   2.338
 8920SOL     OW27658   0.907   1.335   0.115
 8920SOL    HW127659   1.002   1.364   0.119
 8920SOL    HW227660   0.857   1.373   0.193
 8921SOL     OW27661   0.769   3.452   1.797
 8921SOL    HW127662   0.845   3.517   1.794
 8921SOL    HW227663   0.803   3.361   1.821
 8922SOL     OW27664   3.470   4.971   3.459
 8922SOL    HW127665   3.513   4.938   3.542
 8922SOL    HW227666   3.540   4.983   3.388
 8923SOL     OW27667   2.476   0.989   3.701
 8923SOL    HW127668   2.503   1.055   3.771
 8923SOL    HW227669   2.556   0.959   3.649
 8924SOL     OW27670   6.109   5.171   4.765
 8924SOL    HW127671   6.056   5.231   4.705
 8924SOL    HW227672   6.053   5.147   4.845
 8925SOL     OW27673   0.817   6.946   3.588
 8925SOL    HW127674   0.886   6.967   3.657
 8925SOL    HW227675   0.822   7.014   3.514
 8926SOL     OW27676   5.700   1.317   0.063
 8926SOL    HW127677   5.604   1.297   0.080
 8926SOL    HW227678   5.754   1.233   0.073
 8927SOL     OW27679   1.624   0.728   6.636
 8927SOL    HW127680   1.698   0.696   6.578
 8927SOL    HW227681   1.647   0.818   6.674
 8928SOL     OW27682   1.619   6.735   5.720
 8928SOL    HW127683   1.714   6.743   5.688
 8928SOL    HW227684   1.615   6.752   5.818
 8929SOL     OW27685   0.189   1.873   3.823
 8929SOL    HW127686   0.270   1.816   3.809
 8929SOL    HW227687   0.107   1.816   3.812
 8930SOL     OW27688   2.347   5.060   3.730
 8930SOL    HW127689   2.288   4.997   3.781
 8930SOL    HW227690   2.374   5.136   3.788
 8931SOL     OW27691   4.380   3.808   0.363
 8931SOL    HW127692   4.452   3.847   0.421
 8931SOL    HW227693   4.375   3.710   0.377
 8932SOL     OW27694   0.932   3.928   3.338
 8932SOL    HW127695   0.841   3.923   3.296
 8932SOL    HW227696   0.927   3.981   3.422
 8933SOL     OW27697   4.700   1.733   6.222
 8933SOL    HW127698   4.642   1.749   6.301
 8933SOL    HW227699   4.796   1.749   6.247
 8934SOL     OW27700   2.339   5.779   2.742
 8934SOL    HW127701   2.246   5.767   2.778
 8934SOL    HW227702   2.334   5.796   2.643
 8935SOL     OW27703   6.636   4.925   6.928
 8935SOL    HW127704   6.716   4.866   6.938
 8935SOL    HW227705   6.663   5.020   6.941
 8936SOL     OW27706   3.826   2.676   0.792
 8936SOL    HW127707   3.819   2.770   0.823
 8936SOL    HW227708   3.915   2.662   0.749
 8937SOL     OW27709   0.806   0.577   5.813
 8937SOL    HW127710   0.836   0.542   5.901
 8937SOL    HW227711   0.720   0.627   5.824
 8938SOL     OW27712   4.767   6.123   1.670
 8938SOL    HW127713   4.787   6.034   1.709
 8938SOL    HW227714   4.694   6.168   1.722
 8939SOL     OW27715   5.472   2.281   4.961
 8939SOL    HW127716   5.520   2.194   4.970
 8939SOL    HW227717   5.440   2.311   5.051
 8940SOL     OW27718   5.975   6.842   2.529
 8940SOL    HW127719   5.923   6.915   2.573
 8940SOL    HW227720   5.952   6.840   2.431
 8941SOL     OW27721   3.914   1.366   6.312
 8941SOL    HW127722   3.936   1.412   6.398
 8941SOL    HW227723   3.853   1.289   6.330
 8942SOL     OW27724   1.077   2.375   5.186
 8942SOL    HW127725   1.095   2.406   5.092
 8942SOL    HW227726   1.088   2.452   5.249
 8943SOL     OW27727   5.191   3.706   1.088
 8943SOL    HW127728   5.097   3.733   1.069
 8943SOL    HW227729   5.237   3.778   1.139
 8944SOL     OW27730   4.077   5.808   1.509
 8944SOL    HW127731   4.171   5.818   1.477
 8944SOL    HW227732   4.074   5.738   1.581
 8945SOL     OW27733   2.230   1.567   4.142
 8945SOL    HW127734   2.142   1.535   4.108
 8945SOL    HW227735   2.258   1.511   4.220
 8946SOL     OW27736   4.160   0.779   4.623
 8946SOL    HW127737   4.250   0.770   4.667
 8946SOL    HW227738   4.095   0.816   4.688
 8947SOL     OW27739   3.840   3.566   5.164
 8947SOL    HW127740   3.895   3.486   5.137
 8947SOL    HW227741   3.891   3.620   5.231
 8948SOL     OW27742   5.855   4.894   3.094
 8948SOL    HW127743   5.883   4.898   3.189
 8948SOL    HW227744   5.899   4.816   3.049
 8949SOL     OW27745   1.785   5.353   6.154
 8949SOL    HW127746   1.799   5.451   6.169
 8949SOL    HW227747   1.874   5.310   6.135
 8950SOL     OW27748   4.594   2.687   4.899
 8950SOL    HW127749   4.570   2.713   4.805
 8950SOL    HW227750   4.532   2.616   4.931
 8951SOL     OW27751   2.460   2.118   5.679
 8951SOL    HW127752   2.469   2.178   5.759
 8951SOL    HW227753   2.458   2.023   5.709
 8952SOL     OW27754   6.501   6.829   3.592
 8952SOL    HW127755   6.461   6.867   3.509
 8952SOL    HW227756   6.466   6.736   3.606
 8953SOL     OW27757   1.928   5.185   6.396
 8953SOL    HW127758   1.994   5.110   6.382
 8953SOL    HW227759   1.847   5.149   6.443
 8954SOL     OW27760   2.585   6.520   5.452
 8954SOL    HW127761   2.602   6.591   5.521
 8954SOL    HW227762   2.602   6.430   5.491
 8955SOL     OW27763   6.687   3.897   4.248
 8955SOL    HW127764   6.618   3.832   4.217
 8955SOL    HW227765   6.668   3.925   4.342
 8956SOL     OW27766   1.293   0.336   5.021
 8956SOL    HW127767   1.246   0.369   4.939
 8956SOL    HW227768   1.263   0.242   5.041
 8957SOL     OW27769   2.680   6.126   2.065
 8957SOL    HW127770   2.770   6.082   2.069
 8957SOL    HW227771   2.634   6.116   2.153
 8958SOL     OW27772   2.727   0.090   4.116
 8958SOL    HW127773   2.711   0.189   4.108
 8958SOL    HW227774   2.655   0.049   4.171
 8959SOL     OW27775   3.297   5.511   0.527
 8959SOL    HW127776   3.291   5.426   0.579
 8959SOL    HW227777   3.336   5.492   0.437
 8960SOL     OW27778   3.610   5.655   0.959
 8960SOL    HW127779   3.559   5.734   0.994
 8960SOL    HW227780   3.548   5.577   0.948
 8961SOL     OW27781   1.346   2.589   3.831
 8961SOL    HW127782   1.327   2.492   3.847
 8961SOL    HW227783   1.263   2.642   3.850
 8962SOL     OW27784   5.142   0.431   3.547
 8962SOL    HW127785   5.053   0.464   3.579
 8962SOL    HW227786   5.147   0.439   3.448
 8963SOL     OW27787   7.017   1.129   3.716
 8963SOL    HW127788   0.032   1.222   3.717
 8963SOL    HW227789   7.021   1.090   3.807
 8964SOL     OW27790   0.168   3.856   3.135
 8964SOL    HW127791   0.179   3.929   3.203
 8964SOL    HW227792   0.124   3.777   3.179
 8965SOL     OW27793   1.755   5.219   1.672
 8965SOL    HW127794   1.790   5.131   1.704
 8965SOL    HW227795   1.727   5.210   1.576
 8966SOL     OW27796   3.677   2.082   5.227
 8966SOL    HW127797   3.707   2.094   5.322
 8966SOL    HW227798   3.582   2.112   5.218
 8967SOL     OW27799   4.926   6.560   0.779
 8967SOL    HW127800   4.881   6.649   0.773
 8967SOL    HW227801   4.895   6.502   0.703
 8968SOL     OW27802   5.057   4.336   2.911
 8968SOL    HW127803   5.152   4.334   2.880
 8968SOL    HW227804   5.025   4.243   2.927
 8969SOL     OW27805   6.501   0.381   4.637
 8969SOL    HW127806   6.462   0.388   4.545
 8969SOL    HW227807   6.595   0.414   4.636
 8970SOL     OW27808   3.418   2.141   1.265
 8970SOL    HW127809   3.409   2.215   1.198
 8970SOL    HW227810   3.485   2.074   1.233
 8971SOL     OW27811   4.559   6.461   2.551
 8971SOL    HW127812   4.520   6.550   2.576
 8971SOL    HW227813   4.576   6.409   2.635
 8972SOL     OW27814   5.364   6.900   4.782
 8972SOL    HW127815   5.295   6.827   4.787
 8972SOL    HW227816   5.454   6.859   4.769
 8973SOL     OW27817   2.082   5.138   7.016
 8973SOL    HW127818   2.078   5.046   0.032
 8973SOL    HW227819   2.137   5.136   6.933
 8974SOL     OW27820   0.631   3.137   3.648
 8974SOL    HW127821   0.705   3.073   3.671
 8974SOL    HW227822   0.644   3.223   3.698
 8975SOL     OW27823   3.794   0.374   6.407
 8975SOL    HW127824   3.844   0.305   6.356
 8975SOL    HW227825   3.848   0.458   6.411
 8976SOL     OW27826   1.369   5.290   4.267
 8976SOL    HW127827   1.431   5.309   4.343
 8976SOL    HW227828   1.310   5.213   4.290
 8977SOL     OW27829   5.484   1.267   6.381
 8977SOL    HW127830   5.522   1.310   6.463
 8977SOL    HW227831   5.494   1.328   6.303
 8978SOL     OW27832   5.272   4.647   1.242
 8978SOL    HW127833   5.342   4.710   1.276
 8978SOL    HW227834   5.303   4.553   1.253
 8979SOL     OW27835   1.274   4.497   4.824
 8979SOL    HW127836   1.356   4.521   4.876
 8979SOL    HW227837   1.209   4.450   4.885
 8980SOL     OW27838   3.866   2.971   4.754
 8980SOL    HW127839   3.797   2.960   4.683
 8980SOL    HW227840   3.900   2.880   4.782
 8981SOL     OW27841   2.643   1.717   5.632
 8981SOL    HW127842   2.661   1.635   5.578
 8981SOL    HW227843   2.703   1.719   5.711
 8982SOL     OW27844   3.777   4.092   1.019
 8982SOL    HW127845   3.729   4.054   0.939
 8982SOL    HW227846   3.714   4.099   1.096
 8983SOL     OW27847   4.773   4.893   0.769
 8983SOL    HW127848   4.726   4.815   0.728
 8983SOL    HW227849   4.870   4.891   0.743
 8984SOL     OW27850   1.426   6.739   3.675
 8984SOL    HW127851   1.407   6.828   3.717
 8984SOL    HW227852   1.381   6.667   3.728
 8985SOL     OW27853   2.879   3.343   6.038
 8985SOL    HW127854   2.963   3.329   5.985
 8985SOL    HW227855   2.877   3.437   6.073
 8986SOL     OW27856   3.481   6.277   2.715
 8986SOL    HW127857   3.415   6.202   2.713
 8986SOL    HW227858   3.454   6.347   2.650
 8987SOL     OW27859   5.273   6.281   1.743
 8987SOL    HW127860   5.364   6.256   1.776
 8987SOL    HW227861   5.226   6.337   1.811
 8988SOL     OW27862   0.677   4.904   5.129
 8988SOL    HW127863   0.581   4.883   5.148
 8988SOL    HW227864   0.705   4.858   5.045
 8989SOL     OW27865   2.769   2.804   6.803
 8989SOL    HW127866   2.761   2.783   6.706
 8989SOL    HW227867   2.701   2.752   6.855
 8990SOL     OW27868   6.968   5.284   3.265
 8990SOL    HW127869   6.898   5.335   3.215
 8990SOL    HW227870   0.034   5.318   3.240
 8991SOL     OW27871   1.447   2.206   5.017
 8991SOL    HW127872   1.473   2.300   4.995
 8991SOL    HW227873   1.528   2.155   5.047
 8992SOL     OW27874   6.859   2.216   1.305
 8992SOL    HW127875   6.811   2.236   1.391
 8992SOL    HW227876   6.876   2.118   1.299
 8993SOL     OW27877   4.282   2.551   0.876
 8993SOL    HW127878   4.272   2.590   0.968
 8993SOL    HW227879   4.274   2.451   0.881
 8994SOL     OW27880   1.635   5.768   3.000
 8994SOL    HW127881   1.710   5.771   2.934
 8994SOL    HW227882   1.613   5.861   3.031
 8995SOL     OW27883   0.651   0.308   1.513
 8995SOL    HW127884   0.596   0.242   1.462
 8995SOL    HW227885   0.606   0.397   1.512
 8996SOL     OW27886   4.020   6.436   5.766
 8996SOL    HW127887   3.951   6.369   5.790
 8996SOL    HW227888   4.070   6.465   5.848
 8997SOL     OW27889   6.142   0.656   4.598
 8997SOL    HW127890   6.184   0.703   4.521
 8997SOL    HW227891   6.209   0.643   4.670
 8998SOL     OW27892   6.989   3.457   4.572
 8998SOL    HW127893   6.988   3.511   4.487
 8998SOL    HW227894   6.965   3.362   4.552
 8999SOL     OW27895   4.009   6.738   6.082
 8999SOL    HW127896   4.061   6.785   6.012
 8999SOL    HW227897   3.985   6.802   6.155
 9000SOL     OW27898   1.757   4.006   1.104
 9000SOL    HW127899   1.683   4.041   1.162
 9000SOL    HW227900   1.838   4.064   1.114
 9001SOL     OW27901   0.915   5.449   1.479
 9001SOL    HW127902   0.831   5.473   1.527
 9001SOL    HW227903   0.894   5.423   1.385
 9002SOL     OW27904   0.489   4.743   5.892
 9002SOL    HW127905   0.493   4.707   5.799
 9002SOL    HW227906   0.511   4.841   5.891
 9003SOL     OW27907   5.566   7.010   0.923
 9003SOL    HW127908   5.551   0.050   0.848
 9003SOL    HW227909   5.659   6.973   0.918
 9004SOL     OW27910   5.419   4.881   1.300
 9004SOL    HW127911   5.512   4.915   1.317
 9004SOL    HW227912   5.353   4.951   1.324
 9005SOL     OW27913   5.267   0.685   5.252
 9005SOL    HW127914   5.313   0.625   5.318
 9005SOL    HW227915   5.326   0.699   5.173
 9006SOL     OW27916   3.852   5.768   0.221
 9006SOL    HW127917   3.822   5.784   0.315
 9006SOL    HW227918   3.838   5.671   0.198
 9007SOL     OW27919   1.530   1.169   2.789
 9007SOL    HW127920   1.621   1.166   2.829
 9007SOL    HW227921   1.506   1.079   2.753
 9008SOL     OW27922   0.462   5.679   1.933
 9008SOL    HW127923   0.425   5.707   2.022
 9008SOL    HW227924   0.553   5.639   1.946
 9009SOL     OW27925   3.541   6.509   1.804
 9009SOL    HW127926   3.518   6.558   1.720
 9009SOL    HW227927   3.469   6.444   1.826
 9010SOL     OW27928   1.992   6.093   4.739
 9010SOL    HW127929   1.936   6.126   4.815
 9010SOL    HW227930   1.994   6.162   4.667
 9011SOL     OW27931   2.182   2.213   2.027
 9011SOL    HW127932   2.230   2.138   1.981
 9011SOL    HW227933   2.242   2.252   2.097
 9012SOL     OW27934   2.092   6.325   6.832
 9012SOL    HW127935   2.152   6.267   6.778
 9012SOL    HW227936   2.010   6.346   6.780
 9013SOL     OW27937   1.978   0.203   4.522
 9013SOL    HW127938   2.054   0.139   4.528
 9013SOL    HW227939   1.907   0.166   4.462
 9014SOL     OW27940   5.490   3.175   3.981
 9014SOL    HW127941   5.424   3.198   3.910
 9014SOL    HW227942   5.446   3.117   4.050
 9015SOL     OW27943   4.406   0.675   6.288
 9015SOL    HW127944   4.494   0.628   6.298
 9015SOL    HW227945   4.409   0.735   6.209
 9016SOL     OW27946   4.933   5.304   5.634
 9016SOL    HW127947   4.970   5.225   5.682
 9016SOL    HW227948   4.953   5.387   5.686
 9017SOL     OW27949   3.666   6.962   5.283
 9017SOL    HW127950   3.747   7.005   5.244
 9017SOL    HW227951   3.692   6.903   5.359
 9018SOL     OW27952   3.404   4.443   0.172
 9018SOL    HW127953   3.335   4.379   0.204
 9018SOL    HW227954   3.444   4.409   0.087
 9019SOL     OW27955   0.309   3.316   3.951
 9019SOL    HW127956   0.284   3.348   3.860
 9019SOL    HW227957   0.324   3.217   3.947
 9020SOL     OW27958   4.864   4.463   2.771
 9020SOL    HW127959   4.922   4.401   2.824
 9020SOL    HW227960   4.807   4.517   2.834
 9021SOL     OW27961   0.588   1.220   4.446
 9021SOL    HW127962   0.619   1.171   4.527
 9021SOL    HW227963   0.496   1.256   4.462
 9022SOL     OW27964   4.189   4.007   6.491
 9022SOL    HW127965   4.219   4.076   6.426
 9022SOL    HW227966   4.189   3.917   6.447
 9023SOL     OW27967   6.837   4.500   0.465
 9023SOL    HW127968   6.785   4.579   0.431
 9023SOL    HW227969   6.797   4.416   0.429
 9024SOL     OW27970   2.295   5.819   6.443
 9024SOL    HW127971   2.261   5.778   6.358
 9024SOL    HW227972   2.218   5.842   6.502
 9025SOL     OW27973   1.221   5.892   1.214
 9025SOL    HW127974   1.180   5.943   1.290
 9025SOL    HW227975   1.196   5.935   1.127
 9026SOL     OW27976   4.737   1.272   0.769
 9026SOL    HW127977   4.725   1.368   0.795
 9026SOL    HW227978   4.742   1.265   0.669
 9027SOL     OW27979   1.031   4.282   3.220
 9027SOL    HW127980   1.025   4.349   3.146
 9027SOL    HW227981   1.064   4.327   3.303
 9028SOL     OW27982   3.661   4.740   6.644
 9028SOL    HW127983   3.757   4.725   6.617
 9028SOL    HW227984   3.605   4.751   6.562
 9029SOL     OW27985   4.447   6.994   4.038
 9029SOL    HW127986   4.425   0.064   4.011
 9029SOL    HW227987   4.487   6.946   3.960
 9030SOL     OW27988   3.211   1.750   1.914
 9030SOL    HW127989   3.265   1.823   1.956
 9030SOL    HW227990   3.151   1.790   1.845
 9031SOL     OW27991   4.801   6.651   4.902
 9031SOL    HW127992   4.781   6.671   4.998
 9031SOL    HW227993   4.718   6.665   4.848
 9032SOL     OW27994   5.327   2.548   1.724
 9032SOL    HW127995   5.281   2.465   1.692
 9032SOL    HW227996   5.417   2.554   1.682
 9033SOL     OW27997   0.419   6.605   2.977
 9033SOL    HW127998   0.386   6.599   3.072
 9033SOL    HW227999   0.341   6.600   2.915
 9034SOL     OW28000   4.631   6.909   4.239
 9034SOL    HW128001   4.575   6.962   4.175
 9034SOL    HW228002   4.694   6.970   4.287
 9035SOL     OW28003   2.752   5.860   6.604
 9035SOL    HW128004   2.684   5.910   6.656
 9035SOL    HW228005   2.767   5.770   6.646
 9036SOL     OW28006   1.122   4.366   4.988
 9036SOL    HW128007   1.178   4.344   5.068
 9036SOL    HW228008   1.030   4.330   5.001
 9037SOL     OW28009   6.721   0.581   2.141
 9037SOL    HW128010   6.646   0.614   2.198
 9037SOL    HW228011   6.755   0.655   2.083
 9038SOL     OW28012   4.466   3.293   5.307
 9038SOL    HW128013   4.559   3.328   5.297
 9038SOL    HW228014   4.461   3.234   5.387
 9039SOL     OW28015   4.381   6.464   6.120
 9039SOL    HW128016   4.330   6.475   6.205
 9039SOL    HW228017   4.476   6.493   6.134
 9040SOL     OW28018   2.112   1.963   1.311
 9040SOL    HW128019   2.021   1.996   1.334
 9040SOL    HW228020   2.176   1.985   1.385
 9041SOL     OW28021   6.306   2.145   2.834
 9041SOL    HW128022   6.288   2.182   2.925
 9041SOL    HW228023   6.229   2.089   2.805
 9042SOL     OW28024   3.783   5.867   0.484
 9042SOL    HW128025   3.845   5.930   0.532
 9042SOL    HW228026   3.695   5.864   0.533
 9043SOL     OW28027   2.635   2.531   1.265
 9043SOL    HW128028   2.567   2.592   1.304
 9043SOL    HW228029   2.710   2.518   1.331
 9044SOL     OW28030   1.221   0.699   0.760
 9044SOL    HW128031   1.141   0.755   0.781
 9044SOL    HW228032   1.206   0.605   0.793
 9045SOL     OW28033   4.590   1.155   3.424
 9045SOL    HW128034   4.531   1.131   3.501
 9045SOL    HW228035   4.685   1.143   3.450
 9046SOL     OW28036   3.434   2.936   2.049
 9046SOL    HW128037   3.487   3.005   1.999
 9046SOL    HW228038   3.491   2.896   2.121
 9047SOL     OW28039   1.473   4.623   6.246
 9047SOL    HW128040   1.390   4.567   6.254
 9047SOL    HW228041   1.470   4.675   6.161
 9048SOL     OW28042   7.014   1.457   5.681
 9048SOL    HW128043   6.945   1.530   5.687
 9048SOL    HW228044   6.969   1.368   5.689
 9049SOL     OW28045   2.340   6.840   5.485
 9049SOL    HW128046   2.342   6.764   5.420
 9049SOL    HW228047   2.246   6.870   5.498
 9050SOL     OW28048   1.130   4.467   0.703
 9050SOL    HW128049   1.151   4.375   0.735
 9050SOL    HW228050   1.031   4.481   0.703
 9051SOL     OW28051   2.708   1.041   1.999
 9051SOL    HW128052   2.622   1.086   1.975
 9051SOL    HW228053   2.751   1.090   2.076
 9052SOL     OW28054   2.005   3.099   5.859
 9052SOL    HW128055   1.959   3.114   5.772
 9052SOL    HW228056   1.983   3.174   5.922
 9053SOL     OW28057   1.083   0.553   6.709
 9053SOL    HW128058   0.998   0.530   6.756
 9053SOL    HW228059   1.106   0.479   6.645
 9054SOL     OW28060   1.543   5.908   2.742
 9054SOL    HW128061   1.517   5.814   2.723
 9054SOL    HW228062   1.638   5.923   2.717
 9055SOL     OW28063   0.318   2.635   5.275
 9055SOL    HW128064   0.388   2.591   5.331
 9055SOL    HW228065   0.339   2.619   5.178
 9056SOL     OW28066   6.143   2.730   3.753
 9056SOL    HW128067   6.167   2.633   3.750
 9056SOL    HW228068   6.049   2.740   3.784
 9057SOL     OW28069   4.250   1.883   4.004
 9057SOL    HW128070   4.254   1.979   4.030
 9057SOL    HW228071   4.319   1.831   4.055
 9058SOL     OW28072   2.604   0.722   5.633
 9058SOL    HW128073   2.563   0.633   5.609
 9058SOL    HW228074   2.539   0.795   5.613
 9059SOL     OW28075   1.245   2.418   3.354
 9059SOL    HW128076   1.187   2.460   3.423
 9059SOL    HW228077   1.336   2.403   3.391
 9060SOL     OW28078   4.928   3.047   5.507
 9060SOL    HW128079   4.975   3.081   5.425
 9060SOL    HW228080   4.888   3.124   5.557
 9061SOL     OW28081   2.220   5.191   2.739
 9061SOL    HW128082   2.255   5.188   2.833
 9061SOL    HW228083   2.124   5.217   2.740
 9062SOL     OW28084   1.715   6.211   1.648
 9062SOL    HW128085   1.748   6.185   1.739
 9062SOL    HW228086   1.775   6.172   1.578
 9063SOL     OW28087   2.619   2.050   1.997
 9063SOL    HW128088   2.663   2.116   2.058
 9063SOL    HW228089   2.689   2.002   1.944
 9064SOL     OW28090   5.359   3.972   0.118
 9064SOL    HW128091   5.345   3.963   0.217
 9064SOL    HW228092   5.302   3.906   0.070
 9065SOL     OW28093   3.231   1.090   0.665
 9065SOL    HW128094   3.223   1.004   0.716
 9065SOL    HW228095   3.310   1.086   0.605
 9066SOL     OW28096   5.205   6.793   0.018
 9066SOL    HW128097   5.225   6.784   0.115
 9066SOL    HW228098   5.127   6.853   0.005
 9067SOL     OW28099   1.206   0.699   1.933
 9067SOL    HW128100   1.142   0.642   1.984
 9067SOL    HW228101   1.160   0.738   1.853
 9068SOL     OW28102   1.347   6.034   6.436
 9068SOL    HW128103   1.299   6.080   6.511
 9068SOL    HW228104   1.297   5.951   6.412
 9069SOL     OW28105   1.149   1.689   6.555
 9069SOL    HW128106   1.068   1.629   6.557
 9069SOL    HW228107   1.229   1.636   6.527
 9070SOL     OW28108   1.445   4.639   3.711
 9070SOL    HW128109   1.427   4.634   3.612
 9070SOL    HW228110   1.421   4.730   3.745
 9071SOL     OW28111   4.757   6.315   0.290
 9071SOL    HW128112   4.701   6.394   0.262
 9071SOL    HW228113   4.790   6.267   0.209
 9072SOL     OW28114   5.536   4.857   0.349
 9072SOL    HW128115   5.616   4.800   0.330
 9072SOL    HW228116   5.475   4.808   0.412
 9073SOL     OW28117   2.380   0.597   0.814
 9073SOL    HW128118   2.305   0.532   0.817
 9073SOL    HW228119   2.437   0.588   0.895
 9074SOL     OW28120   0.473   0.536   2.420
 9074SOL    HW128121   0.387   0.587   2.424
 9074SOL    HW228122   0.458   0.443   2.453
 9075SOL     OW28123   0.552   0.529   1.736
 9075SOL    HW128124   0.497   0.449   1.713
 9075SOL    HW228125   0.547   0.595   1.661
 9076SOL     OW28126   1.032   1.806   4.876
 9076SOL    HW128127   1.041   1.752   4.959
 9076SOL    HW228128   1.058   1.750   4.797
 9077SOL     OW28129   5.897   5.974   1.958
 9077SOL    HW128130   5.811   5.924   1.964
 9077SOL    HW228131   5.959   5.926   1.896
 9078SOL     OW28132   4.382   2.834   5.421
 9078SOL    HW128133   4.447   2.878   5.358
 9078SOL    HW228134   4.384   2.735   5.407
 9079SOL     OW28135   3.466   0.483   5.043
 9079SOL    HW128136   3.529   0.417   5.001
 9079SOL    HW228137   3.502   0.511   5.132
 9080SOL     OW28138   4.729   1.277   6.460
 9080SOL    HW128139   4.758   1.372   6.465
 9080SOL    HW228140   4.809   1.217   6.459
 9081SOL     OW28141   5.599   6.880   3.676
 9081SOL    HW128142   5.609   6.886   3.576
 9081SOL    HW228143   5.505   6.855   3.699
 9082SOL     OW28144   2.746   0.512   2.482
 9082SOL    HW128145   2.840   0.547   2.488
 9082SOL    HW228146   2.728   0.482   2.388
 9083SOL     OW28147   4.821   4.309   4.387
 9083SOL    HW128148   4.902   4.259   4.418
 9083SOL    HW228149   4.849   4.397   4.349
 9084SOL     OW28150   4.029   3.802   2.782
 9084SOL    HW128151   4.080   3.813   2.697
 9084SOL    HW228152   4.056   3.715   2.825
 9085SOL     OW28153   0.917   2.975   0.608
 9085SOL    HW128154   0.971   3.009   0.531
 9085SOL    HW228155   0.894   3.051   0.668
 9086SOL     OW28156   6.960   4.086   0.029
 9086SOL    HW128157   0.031   4.103   0.001
 9086SOL    HW228158   6.915   4.027   6.986
 9087SOL     OW28159   5.184   3.021   2.353
 9087SOL    HW128160   5.252   2.999   2.423
 9087SOL    HW228161   5.103   3.060   2.397
 9088SOL     OW28162   5.429   5.741   1.470
 9088SOL    HW128163   5.456   5.652   1.435
 9088SOL    HW228164   5.341   5.733   1.517
 9089SOL     OW28165   4.129   0.909   5.430
 9089SOL    HW128166   4.201   0.907   5.499
 9089SOL    HW228167   4.045   0.945   5.471
 9090SOL     OW28168   5.944   1.665   3.169
 9090SOL    HW128169   6.024   1.649   3.227
 9090SOL    HW228170   5.885   1.733   3.212
 9091SOL     OW28171   3.851   2.924   5.917
 9091SOL    HW128172   3.906   2.979   5.854
 9091SOL    HW228173   3.764   2.901   5.873
 9092SOL     OW28174   6.968   3.324   6.284
 9092SOL    HW128175   6.993   3.230   6.261
 9092SOL    HW228176   0.022   3.384   6.266
 9093SOL     OW28177   2.143   6.839   4.866
 9093SOL    HW128178   2.073   6.885   4.920
 9093SOL    HW228179   2.223   6.822   4.923
 9094SOL     OW28180   1.713   3.774   1.005
 9094SOL    HW128181   1.748   3.867   1.019
 9094SOL    HW228182   1.715   3.753   0.908
 9095SOL     OW28183   6.846   6.796   6.343
 9095SOL    HW128184   6.804   6.885   6.327
 9095SOL    HW228185   6.812   6.758   6.429
 9096SOL     OW28186   5.742   5.046   4.273
 9096SOL    HW128187   5.799   5.078   4.349
 9096SOL    HW228188   5.793   4.981   4.218
 9097SOL     OW28189   1.164   2.304   5.840
 9097SOL    HW128190   1.120   2.260   5.918
 9097SOL    HW228191   1.263   2.304   5.852
 9098SOL     OW28192   2.491   4.790   4.050
 9098SOL    HW128193   2.399   4.782   4.090
 9098SOL    HW228194   2.551   4.721   4.090
 9099SOL     OW28195   2.519   1.418   0.004
 9099SOL    HW128196   2.505   1.346   0.073
 9099SOL    HW228197   2.434   1.435   6.980
 9100SOL     OW28198   1.881   5.014   3.871
 9100SOL    HW128199   1.911   5.089   3.930
 9100SOL    HW228200   1.960   4.959   3.844
 9101SOL     OW28201   0.304   2.453   0.350
 9101SOL    HW128202   0.326   2.515   0.274
 9101SOL    HW228203   0.302   2.505   0.436
 9102SOL     OW28204   3.911   0.774   2.967
 9102SOL    HW128205   3.910   0.791   3.066
 9102SOL    HW228206   3.999   0.735   2.941
 9103SOL     OW28207   6.550   0.657   1.341
 9103SOL    HW128208   6.484   0.628   1.411
 9103SOL    HW228209   6.619   0.715   1.384
 9104SOL     OW28210   6.333   2.003   6.083
 9104SOL    HW128211   6.262   2.049   6.136
 9104SOL    HW228212   6.292   1.926   6.034
 9105SOL     OW28213   3.357   0.912   6.593
 9105SOL    HW128214   3.295   0.944   6.521
 9105SOL    HW228215   3.381   0.817   6.575
 9106SOL     OW28216   2.257   3.020   6.456
 9106SOL    HW128217   2.193   2.943   6.451
 9106SOL    HW228218   2.308   3.027   6.371
 9107SOL     OW28219   3.277   1.374   0.690
 9107SOL    HW128220   3.264   1.275   0.698
 9107SOL    HW228221   3.290   1.398   0.593
 9108SOL     OW28222   0.193   5.971   5.899
 9108SOL    HW128223   0.267   5.925   5.850
 9108SOL    HW228224   0.139   5.903   5.948
 9109SOL     OW28225   6.015   4.135   2.639
 9109SOL    HW128226   6.108   4.100   2.645
 9109SOL    HW228227   5.989   4.143   2.542
 9110SOL     OW28228   1.093   6.565   3.153
 9110SOL    HW128229   1.190   6.541   3.155
 9110SOL    HW228230   1.079   6.644   3.094
 9111SOL     OW28231   3.606   2.466   5.671
 9111SOL    HW128232   3.677   2.488   5.604
 9111SOL    HW228233   3.540   2.404   5.630
 9112SOL     OW28234   0.502   5.304   2.542
 9112SOL    HW128235   0.564   5.320   2.466
 9112SOL    HW228236   0.412   5.344   2.521
 9113SOL     OW28237   6.446   0.400   4.370
 9113SOL    HW128238   6.377   0.437   4.308
 9113SOL    HW228239   6.526   0.372   4.317
 9114SOL     OW28240   1.100   0.444   5.967
 9114SOL    HW128241   1.015   0.483   6.001
 9114SOL    HW228242   1.140   0.504   5.898
 9115SOL     OW28243   4.952   4.183   5.377
 9115SOL    HW128244   4.865   4.155   5.337
 9115SOL    HW228245   4.991   4.258   5.323
 9116SOL     OW28246   1.375   6.973   3.798
 9116SOL    HW128247   1.440   0.015   3.838
 9116SOL    HW228248   1.310   7.021   3.740
 9117SOL     OW28249   1.960   6.580   6.985
 9117SOL    HW128250   2.007   6.512   6.929
 9117SOL    HW228251   2.012   6.595   0.045
 9118SOL     OW28252   6.844   4.345   1.670
 9118SOL    HW128253   6.856   4.293   1.585
 9118SOL    HW228254   6.852   4.284   1.748
 9119SOL     OW28255   3.263   1.190   1.078
 9119SOL    HW128256   3.289   1.225   1.169
 9119SOL    HW228257   3.337   1.134   1.041
 9120SOL     OW28258   6.559   3.883   4.498
 9120SOL    HW128259   6.475   3.876   4.552
 9120SOL    HW228260   6.628   3.821   4.536
 9121SOL     OW28261   4.075   0.867   4.376
 9121SOL    HW128262   3.984   0.889   4.411
 9121SOL    HW228263   4.141   0.867   4.451
 9122SOL     OW28264   0.391   2.159   1.826
 9122SOL    HW128265   0.452   2.183   1.751
 9122SOL    HW228266   0.330   2.237   1.845
 9123SOL     OW28267   0.788   6.510   4.403
 9123SOL    HW128268   0.714   6.555   4.452
 9123SOL    HW228269   0.866   6.572   4.395
 9124SOL     OW28270   3.961   6.287   0.952
 9124SOL    HW128271   4.019   6.206   0.953
 9124SOL    HW228272   3.882   6.271   0.894
 9125SOL     OW28273   5.319   6.530   1.547
 9125SOL    HW128274   5.236   6.505   1.597
 9125SOL    HW228275   5.397   6.480   1.585
 9126SOL     OW28276   4.453   4.569   1.169
 9126SOL    HW128277   4.461   4.498   1.239
 9126SOL    HW228278   4.528   4.634   1.179
 9127SOL     OW28279   6.078   4.307   5.328
 9127SOL    HW128280   6.142   4.240   5.292
 9127SOL    HW228281   6.048   4.279   5.419
 9128SOL     OW28282   6.035   3.586   6.338
 9128SOL    HW128283   5.975   3.654   6.380
 9128SOL    HW228284   6.012   3.576   6.242
 9129SOL     OW28285   0.390   2.972   0.836
 9129SOL    HW128286   0.391   3.071   0.823
 9129SOL    HW228287   0.344   2.950   0.921
 9130SOL     OW28288   3.146   3.480   5.502
 9130SOL    HW128289   3.110   3.409   5.442
 9130SOL    HW228290   3.167   3.561   5.448
 9131SOL     OW28291   5.830   2.749   0.197
 9131SOL    HW128292   5.842   2.723   0.101
 9131SOL    HW228293   5.739   2.721   0.228
 9132SOL     OW28294   1.277   4.166   3.516
 9132SOL    HW128295   1.286   4.246   3.456
 9132SOL    HW228296   1.319   4.087   3.471
 9133SOL     OW28297   5.171   0.150   1.539
 9133SOL    HW128298   5.260   0.120   1.573
 9133SOL    HW228299   5.126   0.074   1.492
 9134SOL     OW28300   4.554   4.598   0.065
 9134SOL    HW128301   4.503   4.524   0.021
 9134SOL    HW228302   4.555   4.583   0.164
 9135SOL     OW28303   6.593   5.344   2.184
 9135SOL    HW128304   6.629   5.276   2.120
 9135SOL    HW228305   6.541   5.414   2.135
 9136SOL     OW28306   1.186   5.124   6.930
 9136SOL    HW128307   1.225   5.032   6.926
 9136SOL    HW228308   1.226   5.174   7.007
 9137SOL     OW28309   5.530   5.431   5.677
 9137SOL    HW128310   5.445   5.382   5.664
 9137SOL    HW228311   5.516   5.529   5.658
 9138SOL     OW28312   1.826   4.356   6.357
 9138SOL    HW128313   1.828   4.446   6.399
 9138SOL    HW228314   1.754   4.354   6.287
 9139SOL     OW28315   0.376   0.332   1.711
 9139SOL    HW128316   0.371   0.246   1.760
 9139SOL    HW228317   0.325   0.325   1.625
 9140SOL     OW28318   1.864   4.180   2.071
 9140SOL    HW128319   1.843   4.082   2.064
 9140SOL    HW228320   1.938   4.194   2.136
 9141SOL     OW28321   0.634   5.652   4.653
 9141SOL    HW128322   0.711   5.671   4.592
 9141SOL    HW228323   0.564   5.723   4.641
 9142SOL     OW28324   1.348   4.614   3.424
 9142SOL    HW128325   1.331   4.515   3.421
 9142SOL    HW228326   1.421   4.637   3.361
 9143SOL     OW28327   6.529   3.556   2.737
 9143SOL    HW128328   6.582   3.596   2.662
 9143SOL    HW228329   6.465   3.488   2.700
 9144SOL     OW28330   2.930   4.328   5.540
 9144SOL    HW128331   2.840   4.297   5.568
 9144SOL    HW228332   2.993   4.325   5.618
 9145SOL     OW28333   2.151   6.545   6.141
 9145SOL    HW128334   2.178   6.469   6.083
 9145SOL    HW228335   2.078   6.598   6.096
 9146SOL     OW28336   6.285   2.215   4.187
 9146SOL    HW128337   6.245   2.148   4.124
 9146SOL    HW228338   6.266   2.188   4.281
 9147SOL     OW28339   4.362   0.906   6.113
 9147SOL    HW128340   4.353   1.002   6.088
 9147SOL    HW228341   4.452   0.872   6.088
 9148SOL     OW28342   4.006   5.898   2.283
 9148SOL    HW128343   3.986   5.936   2.192
 9148SOL    HW228344   4.101   5.917   2.307
 9149SOL     OW28345   0.739   4.260   1.379
 9149SOL    HW128346   0.684   4.338   1.410
 9149SOL    HW228347   0.718   4.180   1.435
 9150SOL     OW28348   2.931   4.027   6.981
 9150SOL    HW128349   2.927   3.933   6.947
 9150SOL    HW228350   3.022   4.065   6.965
 9151SOL     OW28351   2.056   2.974   3.633
 9151SOL    HW128352   2.081   3.048   3.571
 9151SOL    HW228353   2.139   2.928   3.665
 9152SOL     OW28354   2.065   4.838   2.000
 9152SOL    HW128355   2.063   4.938   2.004
 9152SOL    HW228356   2.021   4.800   2.081
 9153SOL     OW28357   0.162   3.427   0.424
 9153SOL    HW128358   0.165   3.480   0.340
 9153SOL    HW228359   0.097   3.468   0.488
 9154SOL     OW28360   4.688   5.218   3.562
 9154SOL    HW128361   4.625   5.143   3.581
 9154SOL    HW228362   4.638   5.304   3.558
 9155SOL     OW28363   1.157   6.208   2.648
 9155SOL    HW128364   1.166   6.178   2.553
 9155SOL    HW228365   1.220   6.157   2.706
 9156SOL     OW28366   0.269   3.959   5.528
 9156SOL    HW128367   0.204   4.027   5.561
 9156SOL    HW228368   0.330   4.001   5.460
 9157SOL     OW28369   1.854   4.687   5.172
 9157SOL    HW128370   1.921   4.751   5.134
 9157SOL    HW228371   1.796   4.652   5.100
 9158SOL     OW28372   0.167   3.078   4.844
 9158SOL    HW128373   0.188   3.107   4.938
 9158SOL    HW228374   0.184   2.980   4.836
 9159SOL     OW28375   2.007   1.458   4.028
 9159SOL    HW128376   1.930   1.465   4.092
 9159SOL    HW228377   1.976   1.483   3.936
 9160SOL     OW28378   0.795   2.999   6.506
 9160SOL    HW128379   0.722   3.005   6.574
 9160SOL    HW228380   0.783   3.071   6.438
 9161SOL     OW28381   5.611   3.140   3.054
 9161SOL    HW128382   5.524   3.102   3.086
 9161SOL    HW228383   5.647   3.083   2.981
 9162SOL     OW28384   4.086   2.026   1.911
 9162SOL    HW128385   4.006   1.978   1.948
 9162SOL    HW228386   4.142   1.962   1.858
 9163SOL     OW28387   1.775   3.135   3.692
 9163SOL    HW128388   1.833   3.116   3.613
 9163SOL    HW228389   1.820   3.100   3.775
 9164SOL     OW28390   3.333   6.704   0.332
 9164SOL    HW128391   3.240   6.670   0.322
 9164SOL    HW228392   3.395   6.628   0.350
 9165SOL     OW28393   5.855   0.957   6.528
 9165SOL    HW128394   5.938   0.969   6.582
 9165SOL    HW228395   5.873   0.979   6.433
 9166SOL     OW28396   4.256   6.544   1.616
 9166SOL    HW128397   4.269   6.624   1.558
 9166SOL    HW228398   4.288   6.462   1.567
 9167SOL     OW28399   1.292   2.097   4.325
 9167SOL    HW128400   1.226   2.032   4.364
 9167SOL    HW228401   1.281   2.186   4.369
 9168SOL     OW28402   6.649   6.178   5.118
 9168SOL    HW128403   6.666   6.263   5.168
 9168SOL    HW228404   6.633   6.198   5.022
 9169SOL     OW28405   6.592   5.879   6.820
 9169SOL    HW128406   6.540   5.894   6.735
 9169SOL    HW228407   6.541   5.918   6.897
 9170SOL     OW28408   2.123   1.158   6.151
 9170SOL    HW128409   2.220   1.133   6.151
 9170SOL    HW228410   2.111   1.247   6.108
 9171SOL     OW28411   4.320   5.341   0.403
 9171SOL    HW128412   4.238   5.305   0.358
 9171SOL    HW228413   4.293   5.411   0.469
 9172SOL     OW28414   4.623   1.635   5.283
 9172SOL    HW128415   4.535   1.598   5.314
 9172SOL    HW228416   4.685   1.559   5.261
 9173SOL     OW28417   6.236   4.109   5.229
 9173SOL    HW128418   6.231   4.009   5.240
 9173SOL    HW228419   6.314   4.132   5.171
 9174SOL     OW28420   5.988   4.704   0.408
 9174SOL    HW128421   5.993   4.744   0.500
 9174SOL    HW228422   5.899   4.661   0.395
 9175SOL     OW28423   2.631   1.261   1.678
 9175SOL    HW128424   2.597   1.232   1.588
 9175SOL    HW228425   2.648   1.359   1.677
 9176SOL     OW28426   1.819   1.064   2.610
 9176SOL    HW128427   1.883   1.012   2.553
 9176SOL    HW228428   1.832   1.162   2.592
 9177SOL     OW28429   1.107   5.925   3.626
 9177SOL    HW128430   1.125   5.832   3.593
 9177SOL    HW228431   1.194   5.969   3.650
 9178SOL     OW28432   1.472   3.529   1.068
 9178SOL    HW128433   1.393   3.502   1.013
 9178SOL    HW228434   1.482   3.628   1.066
 9179SOL     OW28435   4.230   5.232   3.132
 9179SOL    HW128436   4.142   5.266   3.166
 9179SOL    HW228437   4.249   5.143   3.173
 9180SOL     OW28438   0.705   0.819   4.760
 9180SOL    HW128439   0.791   0.863   4.732
 9180SOL    HW228440   0.670   0.865   4.841
 9181SOL     OW28441   2.491   2.000   3.614
 9181SOL    HW128442   2.531   1.968   3.700
 9181SOL    HW228443   2.403   2.044   3.633
 9182SOL     OW28444   6.711   1.652   2.630
 9182SOL    HW128445   6.805   1.685   2.620
 9182SOL    HW228446   6.647   1.725   2.609
 9183SOL     OW28447   2.261   1.544   5.675
 9183SOL    HW128448   2.265   1.525   5.577
 9183SOL    HW228449   2.187   1.608   5.695
 9184SOL     OW28450   2.747   4.781   1.514
 9184SOL    HW128451   2.706   4.860   1.469
 9184SOL    HW228452   2.784   4.807   1.602
 9185SOL     OW28453   1.127   1.073   5.165
 9185SOL    HW128454   1.138   1.123   5.079
 9185SOL    HW228455   1.137   1.136   5.242
 9186SOL     OW28456   5.630   6.321   6.359
 9186SOL    HW128457   5.709   6.336   6.300
 9186SOL    HW228458   5.548   6.311   6.302
 9187SOL     OW28459   4.975   2.717   1.248
 9187SOL    HW128460   4.999   2.687   1.340
 9187SOL    HW228461   4.882   2.754   1.248
 9188SOL     OW28462   1.429   0.784   2.073
 9188SOL    HW128463   1.469   0.702   2.114
 9188SOL    HW228464   1.347   0.760   2.022
 9189SOL     OW28465   2.899   0.425   6.222
 9189SOL    HW128466   2.998   0.434   6.225
 9189SOL    HW228467   2.858   0.488   6.287
 9190SOL     OW28468   3.661   0.990   5.400
 9190SOL    HW128469   3.651   0.894   5.428
 9190SOL    HW228470   3.705   0.993   5.310
 9191SOL     OW28471   5.880   0.031   1.424
 9191SOL    HW128472   5.780   0.036   1.415
 9191SOL    HW228473   5.904   0.027   1.521
 9192SOL     OW28474   5.199   4.270   4.970
 9192SOL    HW128475   5.138   4.300   5.043
 9192SOL    HW228476   5.157   4.288   4.881
 9193SOL     OW28477   4.116   3.555   2.842
 9193SOL    HW128478   4.128   3.496   2.921
 9193SOL    HW228479   4.122   3.501   2.758
 9194SOL     OW28480   3.443   4.962   2.806
 9194SOL    HW128481   3.534   4.969   2.848
 9194SOL    HW228482   3.450   4.985   2.709
 9195SOL     OW28483   0.691   3.373   3.788
 9195SOL    HW128484   0.782   3.392   3.753
 9195SOL    HW228485   0.649   3.458   3.822
 9196SOL     OW28486   5.153   5.501   3.281
 9196SOL    HW128487   5.059   5.481   3.308
 9196SOL    HW228488   5.204   5.415   3.274
 9197SOL     OW28489   4.683   2.172   0.299
 9197SOL    HW128490   4.662   2.144   0.393
 9197SOL    HW228491   4.601   2.208   0.256
 9198SOL     OW28492   6.316   2.872   5.339
 9198SOL    HW128493   6.283   2.960   5.372
 9198SOL    HW228494   6.305   2.867   5.240
 9199SOL     OW28495   0.897   3.787   6.629
 9199SOL    HW128496   0.823   3.727   6.659
 9199SOL    HW228497   0.957   3.808   6.706
 9200SOL     OW28498   4.975   6.306   1.654
 9200SOL    HW128499   4.901   6.242   1.635
 9200SOL    HW228500   5.051   6.287   1.592
 9201SOL     OW28501   0.171   2.865   2.350
 9201SOL    HW128502   0.175   2.958   2.387
 9201SOL    HW228503   0.190   2.867   2.252
 9202SOL     OW28504   2.141   6.129   4.330
 9202SOL    HW128505   2.076   6.062   4.366
 9202SOL    HW228506   2.215   6.082   4.282
 9203SOL     OW28507   4.929   1.857   1.029
 9203SOL    HW128508   4.933   1.760   1.008
 9203SOL    HW228509   4.853   1.899   0.978
 9204SOL     OW28510   4.980   4.574   2.506
 9204SOL    HW128511   4.950   4.531   2.590
 9204SOL    HW228512   4.973   4.509   2.430
 9205SOL     OW28513   4.059   2.356   1.470
 9205SOL    HW128514   4.036   2.450   1.492
 9205SOL    HW228515   4.126   2.354   1.397
 9206SOL     OW28516   6.845   6.270   5.292
 9206SOL    HW128517   6.855   6.333   5.215
 9206SOL    HW228518   6.903   6.190   5.278
 9207SOL     OW28519   4.894   6.228   0.056
 9207SOL    HW128520   4.980   6.269   0.085
 9207SOL    HW228521   4.908   6.131   0.035
 9208SOL     OW28522   5.009   4.596   1.872
 9208SOL    HW128523   4.929   4.626   1.820
 9208SOL    HW228524   4.987   4.514   1.924
 9209SOL     OW28525   4.303   0.491   3.862
 9209SOL    HW128526   4.303   0.563   3.932
 9209SOL    HW228527   4.380   0.505   3.800
 9210SOL     OW28528   1.113   7.002   6.749
 9210SOL    HW128529   1.184   6.975   6.813
 9210SOL    HW228530   1.128   6.955   6.661
 9211SOL     OW28531   5.003   1.485   6.539
 9211SOL    HW128532   5.063   1.410   6.511
 9211SOL    HW228533   5.025   1.566   6.486
 9212SOL     OW28534   6.123   3.344   6.203
 9212SOL    HW128535   6.067   3.264   6.182
 9212SOL    HW228536   6.074   3.403   6.267
 9213SOL     OW28537   6.562   5.842   1.907
 9213SOL    HW128538   6.509   5.927   1.913
 9213SOL    HW228539   6.511   5.768   1.950
 9214SOL     OW28540   2.221   1.432   6.562
 9214SOL    HW128541   2.192   1.379   6.483
 9214SOL    HW228542   2.141   1.461   6.615
 9215SOL     OW28543   0.278   4.263   3.777
 9215SOL    HW128544   0.345   4.190   3.791
 9215SOL    HW228545   0.186   4.224   3.782
 9216SOL     OW28546   2.187   0.114   3.888
 9216SOL    HW128547   2.130   0.066   3.954
 9216SOL    HW228548   2.215   0.050   3.816
 9217SOL     OW28549   3.242   2.364   6.718
 9217SOL    HW128550   3.268   2.457   6.742
 9217SOL    HW228551   3.168   2.365   6.651
 9218SOL     OW28552   4.600   5.925   5.591
 9218SOL    HW128553   4.658   5.942   5.511
 9218SOL    HW228554   4.524   5.866   5.566
 9219SOL     OW28555   3.283   2.746   5.831
 9219SOL    HW128556   3.248   2.804   5.904
 9219SOL    HW228557   3.374   2.712   5.855
 9220SOL     OW28558   0.549   6.709   3.738
 9220SOL    HW128559   0.580   6.621   3.774
 9220SOL    HW228560   0.595   6.727   3.651
 9221SOL     OW28561   2.877   1.489   1.613
 9221SOL    HW128562   2.780   1.513   1.603
 9221SOL    HW228563   2.933   1.562   1.574
 9222SOL     OW28564   1.912   5.966   3.110
 9222SOL    HW128565   1.965   6.048   3.089
 9222SOL    HW228566   1.949   5.923   3.192
 9223SOL     OW28567   6.089   2.481   4.701
 9223SOL    HW128568   6.001   2.525   4.681
 9223SOL    HW228569   6.078   2.416   4.775
 9224SOL     OW28570   1.896   5.034   2.642
 9224SOL    HW128571   1.828   5.072   2.580
 9224SOL    HW228572   1.912   5.098   2.717
 9225SOL     OW28573   0.577   5.348   6.052
 9225SOL    HW128574   0.580   5.283   6.128
 9225SOL    HW228575   0.631   5.313   5.976
 9226SOL     OW28576   0.839   0.326   4.737
 9226SOL    HW128577   0.802   0.409   4.778
 9226SOL    HW228578   0.802   0.246   4.786
 9227SOL     OW28579   3.890   3.584   0.331
 9227SOL    HW128580   3.892   3.567   0.429
 9227SOL    HW228581   3.795   3.593   0.301
 9228SOL     OW28582   3.706   3.684   4.966
 9228SOL    HW128583   3.765   3.640   5.034
 9228SOL    HW228584   3.612   3.684   4.998
 9229SOL     OW28585   0.173   5.146   0.751
 9229SOL    HW128586   0.117   5.227   0.735
 9229SOL    HW228587   0.141   5.100   0.835
 9230SOL     OW28588   3.881   0.181   6.245
 9230SOL    HW128589   3.937   0.105   6.279
 9230SOL    HW228590   3.840   0.155   6.158
 9231SOL     OW28591   6.010   6.684   1.679
 9231SOL    HW128592   6.003   6.686   1.779
 9231SOL    HW228593   5.918   6.687   1.640
 9232SOL     OW28594   1.186   5.187   2.301
 9232SOL    HW128595   1.264   5.249   2.295
 9232SOL    HW228596   1.219   5.093   2.311
 9233SOL     OW28597   0.959   0.039   5.699
 9233SOL    HW128598   1.057   0.038   5.677
 9233SOL    HW228599   0.942   0.102   5.774
 9234SOL     OW28600   3.690   4.336   6.564
 9234SOL    HW128601   3.610   4.397   6.564
 9234SOL    HW228602   3.772   4.390   6.581
 9235SOL     OW28603   2.393   2.617   3.010
 9235SOL    HW128604   2.412   2.607   3.108
 9235SOL    HW228605   2.348   2.704   2.993
 9236SOL     OW28606   1.900   3.671   6.196
 9236SOL    HW128607   1.936   3.723   6.274
 9236SOL    HW228608   1.801   3.675   6.195
 9237SOL     OW28609   6.419   5.298   3.746
 9237SOL    HW128610   6.511   5.310   3.782
 9237SOL    HW228611   6.400   5.370   3.679
 9238SOL     OW28612   1.392   2.511   5.105
 9238SOL    HW128613   1.432   2.432   5.152
 9238SOL    HW228614   1.306   2.484   5.062
 9239SOL     OW28615   1.551   5.792   5.909
 9239SOL    HW128616   1.521   5.797   5.814
 9239SOL    HW228617   1.513   5.710   5.952
 9240SOL     OW28618   3.462   1.385   4.475
 9240SOL    HW128619   3.393   1.456   4.466
 9240SOL    HW228620   3.424   1.307   4.525
 9241SOL     OW28621   5.113   6.370   0.227
 9241SOL    HW128622   5.187   6.420   0.182
 9241SOL    HW228623   5.133   6.361   0.324
 9242SOL     OW28624   2.729   2.596   0.452
 9242SOL    HW128625   2.782   2.671   0.492
 9242SOL    HW228626   2.706   2.530   0.524
 9243SOL     OW28627   2.311   0.325   0.263
 9243SOL    HW128628   2.308   0.300   0.360
 9243SOL    HW228629   2.251   0.265   0.211
 9244SOL     OW28630   3.169   6.205   0.120
 9244SOL    HW128631   3.083   6.247   0.090
 9244SOL    HW228632   3.218   6.269   0.180
 9245SOL     OW28633   0.504   4.902   3.066
 9245SOL    HW128634   0.555   4.859   2.993
 9245SOL    HW228635   0.406   4.887   3.052
 9246SOL     OW28636   5.001   6.968   6.929
 9246SOL    HW128637   4.914   6.993   6.886
 9246SOL    HW228638   5.077   6.999   6.873
 9247SOL     OW28639   3.463   6.624   2.753
 9247SOL    HW128640   3.368   6.594   2.759
 9247SOL    HW228641   3.490   6.630   2.657
 9248SOL     OW28642   2.803   0.186   0.242
 9248SOL    HW128643   2.889   0.138   0.263
 9248SOL    HW228644   2.806   0.278   0.280
 9249SOL     OW28645   3.580   0.599   0.526
 9249SOL    HW128646   3.539   0.517   0.487
 9249SOL    HW228647   3.680   0.590   0.523
 9250SOL     OW28648   0.497   4.066   2.964
 9250SOL    HW128649   0.507   3.992   2.896
 9250SOL    HW228650   0.551   4.145   2.935
 9251SOL     OW28651   3.987   1.692   1.169
 9251SOL    HW128652   3.999   1.610   1.224
 9251SOL    HW228653   3.935   1.670   1.086
 9252SOL     OW28654   5.610   1.565   4.889
 9252SOL    HW128655   5.692   1.619   4.870
 9252SOL    HW228656   5.584   1.576   4.985
 9253SOL     OW28657   2.583   4.958   3.876
 9253SOL    HW128658   2.560   4.898   3.952
 9253SOL    HW228659   2.499   4.988   3.830
 9254SOL     OW28660   0.156   6.246   2.443
 9254SOL    HW128661   0.109   6.235   2.356
 9254SOL    HW228662   0.190   6.157   2.474
 9255SOL     OW28663   6.442   3.464   0.779
 9255SOL    HW128664   6.472   3.389   0.720
 9255SOL    HW228665   6.498   3.545   0.761
 9256SOL     OW28666   2.476   6.417   0.861
 9256SOL    HW128667   2.387   6.455   0.886
 9256SOL    HW228668   2.527   6.483   0.806
 9257SOL     OW28669   6.609   6.153   4.800
 9257SOL    HW128670   6.622   6.214   4.721
 9257SOL    HW228671   6.628   6.059   4.773
 9258SOL     OW28672   5.251   4.633   2.485
 9258SOL    HW128673   5.266   4.731   2.497
 9258SOL    HW228674   5.154   4.616   2.469
 9259SOL     OW28675   0.910   2.564   6.701
 9259SOL    HW128676   0.991   2.512   6.673
 9259SOL    HW228677   0.871   2.608   6.621
 9260SOL     OW28678   5.445   4.245   4.745
 9260SOL    HW128679   5.464   4.177   4.675
 9260SOL    HW228680   5.368   4.215   4.801
 9261SOL     OW28681   1.460   3.560   1.580
 9261SOL    HW128682   1.403   3.500   1.637
 9261SOL    HW228683   1.466   3.522   1.488
 9262SOL     OW28684   0.538   6.960   6.440
 9262SOL    HW128685   0.614   0.000   6.427
 9262SOL    HW228686   0.539   6.893   6.366
 9263SOL     OW28687   2.541   4.676   2.837
 9263SOL    HW128688   2.467   4.664   2.771
 9263SOL    HW228689   2.628   4.684   2.788
 9264SOL     OW28690   5.154   3.376   5.842
 9264SOL    HW128691   5.156   3.473   5.867
 9264SOL    HW228692   5.248   3.344   5.828
 9265SOL     OW28693   4.861   0.123   2.095
 9265SOL    HW128694   4.766   0.111   2.124
 9265SOL    HW228695   4.871   0.097   1.999
 9266SOL     OW28696   0.568   4.836   1.096
 9266SOL    HW128697   0.504   4.912   1.088
 9266SOL    HW228698   0.617   4.825   1.009
 9267SOL     OW28699   6.755   1.321   3.824
 9267SOL    HW128700   6.821   1.248   3.844
 9267SOL    HW228701   6.694   1.291   3.751
 9268SOL     OW28702   0.508   0.876   1.277
 9268SOL    HW128703   0.561   0.791   1.283
 9268SOL    HW228704   0.411   0.855   1.275
 9269SOL     OW28705   3.549   0.149   0.878
 9269SOL    HW128706   3.556   0.055   0.845
 9269SOL    HW228707   3.480   0.154   0.951
 9270SOL     OW28708   2.345   0.761   5.131
 9270SOL    HW128709   2.251   0.794   5.139
 9270SOL    HW228710   2.353   0.701   5.051
 9271SOL     OW28711   1.983   4.636   5.756
 9271SOL    HW128712   1.991   4.545   5.716
 9271SOL    HW228713   2.072   4.681   5.756
 9272SOL     OW28714   6.778   6.710   5.226
 9272SOL    HW128715   6.717   6.710   5.305
 9272SOL    HW228716   6.866   6.668   5.252
 9273SOL     OW28717   6.401   3.590   3.795
 9273SOL    HW128718   6.425   3.494   3.810
 9273SOL    HW228719   6.347   3.624   3.872
 9274SOL     OW28720   6.586   3.124   0.389
 9274SOL    HW128721   6.500   3.112   0.339
 9274SOL    HW228722   6.636   3.202   0.351
 9275SOL     OW28723   5.043   1.982   0.109
 9275SOL    HW128724   4.947   1.955   0.103
 9275SOL    HW228725   5.090   1.956   0.024
 9276SOL     OW28726   1.943   3.383   0.117
 9276SOL    HW128727   2.013   3.454   0.109
 9276SOL    HW228728   1.855   3.425   0.141
 9277SOL     OW28729   3.813   5.839   2.486
 9277SOL    HW128730   3.781   5.902   2.556
 9277SOL    HW228731   3.882   5.884   2.429
 9278SOL     OW28732   0.767   0.414   5.599
 9278SOL    HW128733   0.838   0.436   5.532
 9278SOL    HW228734   0.746   0.495   5.654
 9279SOL     OW28735   3.468   6.061   1.718
 9279SOL    HW128736   3.494   5.965   1.713
 9279SOL    HW228737   3.494   6.098   1.807
 9280SOL     OW28738   1.280   5.122   1.539
 9280SOL    HW128739   1.335   5.041   1.556
 9280SOL    HW228740   1.239   5.115   1.448
 9281SOL     OW28741   1.284   5.714   0.816
 9281SOL    HW128742   1.305   5.655   0.894
 9281SOL    HW228743   1.340   5.797   0.821
 9282SOL     OW28744   1.947   0.312   4.781
 9282SOL    HW128745   1.971   0.289   4.686
 9282SOL    HW228746   1.852   0.341   4.785
 9283SOL     OW28747   4.615   5.415   6.968
 9283SOL    HW128748   4.631   5.510   6.938
 9283SOL    HW228749   4.537   5.412   0.006
 9284SOL     OW28750   4.506   6.516   1.126
 9284SOL    HW128751   4.427   6.463   1.155
 9284SOL    HW228752   4.493   6.545   1.031
 9285SOL     OW28753   6.679   5.814   3.600
 9285SOL    HW128754   6.581   5.829   3.591
 9285SOL    HW228755   6.707   5.741   3.537
 9286SOL     OW28756   5.028   6.711   1.517
 9286SOL    HW128757   4.928   6.701   1.519
 9286SOL    HW228758   5.069   6.646   1.580
 9287SOL     OW28759   4.675   4.681   0.653
 9287SOL    HW128760   4.581   4.649   0.666
 9287SOL    HW228761   4.699   4.675   0.556
 9288SOL     OW28762   3.867   1.603   2.489
 9288SOL    HW128763   3.888   1.509   2.516
 9288SOL    HW228764   3.784   1.634   2.534
 9289SOL     OW28765   4.413   5.870   2.538
 9289SOL    HW128766   4.406   5.782   2.491
 9289SOL    HW228767   4.490   5.922   2.500
 9290SOL     OW28768   5.276   1.302   3.730
 9290SOL    HW128769   5.305   1.364   3.803
 9290SOL    HW228770   5.356   1.274   3.676
 9291SOL     OW28771   0.727   4.144   5.584
 9291SOL    HW128772   0.681   4.158   5.496
 9291SOL    HW228773   0.729   4.046   5.605
 9292SOL     OW28774   1.153   1.836   6.951
 9292SOL    HW128775   1.202   1.799   0.006
 9292SOL    HW228776   1.219   1.875   6.886
 9293SOL     OW28777   4.887   1.110   5.048
 9293SOL    HW128778   4.918   1.176   4.980
 9293SOL    HW228779   4.945   1.117   5.129
 9294SOL     OW28780   5.046   6.142   6.107
 9294SOL    HW128781   5.050   6.069   6.039
 9294SOL    HW228782   5.074   6.106   6.196
 9295SOL     OW28783   6.411   0.655   2.975
 9295SOL    HW128784   6.316   0.626   2.987
 9295SOL    HW228785   6.443   0.701   3.058
 9296SOL     OW28786   1.570   4.136   5.460
 9296SOL    HW128787   1.598   4.141   5.365
 9296SOL    HW228788   1.487   4.190   5.474
 9297SOL     OW28789   6.678   5.162   1.976
 9297SOL    HW128790   6.769   5.144   2.013
 9297SOL    HW228791   6.680   5.155   1.877
 9298SOL     OW28792   0.395   4.585   6.120
 9298SOL    HW128793   0.445   4.637   6.051
 9298SOL    HW228794   0.423   4.489   6.116
 9299SOL     OW28795   3.015   1.791   3.855
 9299SOL    HW128796   2.943   1.745   3.802
 9299SOL    HW228797   3.103   1.747   3.839
 9300SOL     OW28798   2.297   5.525   5.966
 9300SOL    HW128799   2.361   5.531   6.043
 9300SOL    HW228800   2.298   5.432   5.929
 9301SOL     OW28801   0.839   3.695   4.556
 9301SOL    HW128802   0.755   3.748   4.564
 9301SOL    HW228803   0.870   3.668   4.647
 9302SOL     OW28804   3.353   5.554   3.975
 9302SOL    HW128805   3.284   5.601   4.030
 9302SOL    HW228806   3.430   5.530   4.034
 9303SOL     OW28807   2.566   4.489   6.949
 9303SOL    HW128808   2.666   4.492   6.947
 9303SOL    HW228809   2.535   4.394   6.953
 9304SOL     OW28810   5.831   5.814   6.219
 9304SOL    HW128811   5.835   5.911   6.240
 9304SOL    HW228812   5.811   5.802   6.121
 9305SOL     OW28813   1.659   1.590   1.040
 9305SOL    HW128814   1.642   1.588   1.139
 9305SOL    HW228815   1.623   1.675   1.002
 9306SOL     OW28816   6.843   6.211   4.306
 9306SOL    HW128817   6.811   6.149   4.234
 9306SOL    HW228818   6.895   6.159   4.374
 9307SOL     OW28819   2.194   4.100   1.258
 9307SOL    HW128820   2.233   4.020   1.212
 9307SOL    HW228821   2.207   4.091   1.357
 9308SOL     OW28822   2.336   3.821   1.464
 9308SOL    HW128823   2.351   3.858   1.372
 9308SOL    HW228824   2.281   3.738   1.459
 9309SOL     OW28825   4.426   5.283   5.758
 9309SOL    HW128826   4.471   5.275   5.847
 9309SOL    HW228827   4.464   5.214   5.696
 9310SOL     OW28828   6.665   6.124   6.011
 9310SOL    HW128829   6.645   6.035   5.971
 9310SOL    HW228830   6.706   6.183   5.941
 9311SOL     OW28831   5.635   4.591   0.657
 9311SOL    HW128832   5.582   4.519   0.612
 9311SOL    HW228833   5.578   4.671   0.672
 9312SOL     OW28834   5.858   3.246   4.269
 9312SOL    HW128835   5.784   3.179   4.272
 9312SOL    HW228836   5.820   3.336   4.248
 9313SOL     OW28837   0.498   0.580   2.085
 9313SOL    HW128838   0.522   0.640   2.162
 9313SOL    HW228839   0.579   0.564   2.029
 9314SOL     OW28840   4.693   4.738   1.330
 9314SOL    HW128841   4.742   4.654   1.350
 9314SOL    HW228842   4.744   4.793   1.264
 9315SOL     OW28843   6.075   5.124   5.800
 9315SOL    HW128844   6.152   5.070   5.833
 9315SOL    HW228845   6.108   5.208   5.758
 9316SOL     OW28846   5.640   6.650   0.670
 9316SOL    HW128847   5.653   6.579   0.601
 9316SOL    HW228848   5.693   6.731   0.645
 9317SOL     OW28849   2.513   6.303   3.000
 9317SOL    HW128850   2.561   6.315   2.913
 9317SOL    HW228851   2.417   6.331   2.989
 9318SOL     OW28852   3.485   7.003   3.500
 9318SOL    HW128853   3.511   6.951   3.582
 9318SOL    HW228854   3.511   6.951   3.418
 9319SOL     OW28855   3.536   2.003   0.101
 9319SOL    HW128856   3.575   1.941   0.033
 9319SOL    HW228857   3.515   2.091   0.059
 9320SOL     OW28858   6.617   6.572   6.958
 9320SOL    HW128859   6.613   6.473   6.947
 9320SOL    HW228860   6.657   6.595   0.023
 9321SOL     OW28861   0.806   2.700   3.727
 9321SOL    HW128862   0.854   2.636   3.787
 9321SOL    HW228863   0.834   2.793   3.747
 9322SOL     OW28864   5.203   2.906   6.922
 9322SOL    HW128865   5.217   2.824   6.979
 9322SOL    HW228866   5.289   2.928   6.875
 9323SOL     OW28867   0.649   1.823   5.399
 9323SOL    HW128868   0.677   1.815   5.304
 9323SOL    HW228869   0.604   1.910   5.414
 9324SOL     OW28870   0.476   4.615   0.718
 9324SOL    HW128871   0.534   4.683   0.764
 9324SOL    HW228872   0.381   4.645   0.720
 9325SOL     OW28873   1.024   4.644   3.296
 9325SOL    HW128874   0.939   4.689   3.268
 9325SOL    HW228875   1.086   4.711   3.336
 9326SOL     OW28876   5.070   4.858   1.580
 9326SOL    HW128877   4.984   4.816   1.608
 9326SOL    HW228878   5.144   4.825   1.638
 9327SOL     OW28879   2.541   1.314   3.272
 9327SOL    HW128880   2.619   1.329   3.332
 9327SOL    HW228881   2.466   1.375   3.297
 9328SOL     OW28882   1.035   6.919   3.309
 9328SOL    HW128883   1.065   6.848   3.372
 9328SOL    HW228884   1.110   6.945   3.248
 9329SOL     OW28885   2.091   4.971   6.377
 9329SOL    HW128886   2.122   4.909   6.305
 9329SOL    HW228887   2.170   5.004   6.429
 9330SOL     OW28888   0.375   6.204   0.811
 9330SOL    HW128889   0.432   6.224   0.731
 9330SOL    HW228890   0.336   6.289   0.846
 9331SOL     OW28891   1.994   4.919   4.400
 9331SOL    HW128892   2.082   4.893   4.439
 9331SOL    HW228893   1.920   4.897   4.464
 9332SOL     OW28894   6.418   5.133   0.175
 9332SOL    HW128895   6.355   5.168   0.106
 9332SOL    HW228896   6.497   5.195   0.183
 9333SOL     OW28897   1.859   4.991   1.037
 9333SOL    HW128898   1.853   4.991   1.137
 9333SOL    HW228899   1.939   4.939   1.008
 9334SOL     OW28900   6.753   5.191   6.964
 9334SOL    HW128901   6.826   5.147   6.911
 9334SOL    HW228902   6.765   5.290   6.962
 9335SOL     OW28903   0.233   3.283   0.851
 9335SOL    HW128904   0.203   3.188   0.840
 9335SOL    HW228905   0.179   3.327   0.922
 9336SOL     OW28906   4.127   6.037   5.462
 9336SOL    HW128907   4.188   6.055   5.539
 9336SOL    HW228908   4.150   6.098   5.386
 9337SOL     OW28909   3.039   1.580   4.812
 9337SOL    HW128910   3.046   1.608   4.908
 9337SOL    HW228911   2.993   1.651   4.759
 9338SOL     OW28912   4.763   6.303   0.857
 9338SOL    HW128913   4.742   6.380   0.797
 9338SOL    HW228914   4.686   6.286   0.918
 9339SOL     OW28915   6.782   3.549   5.067
 9339SOL    HW128916   6.741   3.620   5.124
 9339SOL    HW228917   6.741   3.551   4.976
 9340SOL     OW28918   2.461   4.831   2.373
 9340SOL    HW128919   2.484   4.925   2.348
 9340SOL    HW228920   2.457   4.774   2.291
 9341SOL     OW28921   5.832   5.616   0.089
 9341SOL    HW128922   5.929   5.631   0.075
 9341SOL    HW228923   5.813   5.517   0.090
 9342SOL     OW28924   2.795   0.184   5.203
 9342SOL    HW128925   2.791   0.183   5.303
 9342SOL    HW228926   2.741   0.108   5.167
 9343SOL     OW28927   5.086   3.558   1.453
 9343SOL    HW128928   5.154   3.555   1.526
 9343SOL    HW228929   5.031   3.474   1.456
 9344SOL     OW28930   5.576   0.095   5.096
 9344SOL    HW128931   5.635   0.021   5.126
 9344SOL    HW228932   5.585   0.106   4.997
 9345SOL     OW28933   0.036   4.781   6.601
 9345SOL    HW128934   0.061   4.873   6.571
 9345SOL    HW228935   0.107   4.745   6.661
 9346SOL     OW28936   5.073   0.293   1.980
 9346SOL    HW128937   5.115   0.336   2.060
 9346SOL    HW228938   4.979   0.265   2.002
 9347SOL     OW28939   4.749   6.774   1.927
 9347SOL    HW128940   4.689   6.716   1.873
 9347SOL    HW228941   4.747   6.868   1.891
 9348SOL     OW28942   2.439   5.174   2.055
 9348SOL    HW128943   2.535   5.151   2.070
 9348SOL    HW228944   2.382   5.123   2.119
 9349SOL     OW28945   6.355   6.031   0.657
 9349SOL    HW128946   6.330   6.028   0.753
 9349SOL    HW228947   6.345   5.940   0.616
 9350SOL     OW28948   6.421   0.315   0.191
 9350SOL    HW128949   6.331   0.277   0.170
 9350SOL    HW228950   6.427   0.332   0.290
 9351SOL     OW28951   4.795   3.890   6.270
 9351SOL    HW128952   4.785   3.970   6.210
 9351SOL    HW228953   4.711   3.836   6.268
 9352SOL     OW28954   2.206   2.039   0.177
 9352SOL    HW128955   2.119   2.059   0.133
 9352SOL    HW228956   2.271   2.112   0.159
 9353SOL     OW28957   1.161   3.259   1.961
 9353SOL    HW128958   1.111   3.296   2.039
 9353SOL    HW228959   1.099   3.206   1.904
 9354SOL     OW28960   5.528   2.169   2.545
 9354SOL    HW128961   5.583   2.182   2.462
 9354SOL    HW228962   5.588   2.162   2.624
 9355SOL     OW28963   0.080   1.583   2.327
 9355SOL    HW128964   0.099   1.595   2.230
 9355SOL    HW228965   0.007   1.515   2.339
 9356SOL     OW28966   4.955   2.764   2.449
 9356SOL    HW128967   4.879   2.810   2.402
 9356SOL    HW228968   4.921   2.682   2.495
 9357SOL     OW28969   2.353   4.896   0.195
 9357SOL    HW128970   2.398   4.807   0.190
 9357SOL    HW228971   2.256   4.886   0.171
 9358SOL     OW28972   5.229   3.309   2.135
 9358SOL    HW128973   5.299   3.238   2.132
 9358SOL    HW228974   5.141   3.270   2.109
 9359SOL     OW28975   4.814   5.655   6.199
 9359SOL    HW128976   4.887   5.599   6.238
 9359SOL    HW228977   4.798   5.734   6.258
 9360SOL     OW28978   1.524   1.339   4.985
 9360SOL    HW128979   1.517   1.300   5.076
 9360SOL    HW228980   1.573   1.276   4.925
 9361SOL     OW28981   2.196   1.343   2.664
 9361SOL    HW128982   2.151   1.290   2.592
 9361SOL    HW228983   2.152   1.432   2.672
 9362SOL     OW28984   2.166   1.572   3.108
 9362SOL    HW128985   2.265   1.588   3.115
 9362SOL    HW228986   2.128   1.626   3.033
 9363SOL     OW28987   1.213   6.556   2.024
 9363SOL    HW128988   1.171   6.466   2.014
 9363SOL    HW228989   1.285   6.567   1.956
 9364SOL     OW28990   5.365   4.006   0.947
 9364SOL    HW128991   5.435   3.939   0.923
 9364SOL    HW228992   5.394   4.097   0.916
 9365SOL     OW28993   1.837   1.489   3.797
 9365SOL    HW128994   1.828   1.440   3.710
 9365SOL    HW228995   1.756   1.545   3.812
 9366SOL     OW28996   3.119   1.549   2.081
 9366SOL    HW128997   3.167   1.604   2.013
 9366SOL    HW228998   3.030   1.521   2.045
 9367SOL     OW28999   6.200   6.697   3.816
 9367SOL    HW129000   6.157   6.766   3.873
 9367SOL    HW229001   6.219   6.736   3.725
 9368SOL     OW29002   5.168   2.872   0.739
 9368SOL    HW129003   5.250   2.832   0.782
 9368SOL    HW229004   5.159   2.967   0.768
 9369SOL     OW29005   0.382   1.920   5.176
 9369SOL    HW129006   0.326   1.957   5.102
 9369SOL    HW229007   0.449   1.855   5.139
 9370SOL     OW29008   5.524   5.443   3.189
 9370SOL    HW129009   5.610   5.494   3.196
 9370SOL    HW229010   5.473   5.474   3.109
 9371SOL     OW29011   0.987   0.014   0.418
 9371SOL    HW129012   1.086   0.027   0.420
 9371SOL    HW229013   0.958   7.013   0.326
 9372SOL     OW29014   5.729   6.012   6.925
 9372SOL    HW129015   5.690   6.093   6.881
 9372SOL    HW229016   5.670   5.933   6.909
 9373SOL     OW29017   5.396   2.496   4.301
 9373SOL    HW129018   5.445   2.562   4.245
 9373SOL    HW229019   5.397   2.526   4.396
 9374SOL     OW29020   5.075   4.180   0.008
 9374SOL    HW129021   5.001   4.161   6.968
 9374SOL    HW229022   5.158   4.203   6.981
 9375SOL     OW29023   6.472   0.855   4.614
 9375SOL    HW129024   6.422   0.940   4.627
 9375SOL    HW229025   6.424   0.780   4.660
 9376SOL     OW29026   2.185   3.018   1.520
 9376SOL    HW129027   2.139   2.936   1.556
 9376SOL    HW229028   2.219   3.000   1.428
 9377SOL     OW29029   6.134   5.058   3.074
 9377SOL    HW129030   6.206   5.069   3.006
 9377SOL    HW229031   6.045   5.070   3.031
 9378SOL     OW29032   3.442   6.359   1.074
 9378SOL    HW129033   3.541   6.367   1.061
 9378SOL    HW229034   3.411   6.270   1.040
 9379SOL     OW29035   5.292   4.950   5.080
 9379SOL    HW129036   5.361   4.884   5.050
 9379SOL    HW229037   5.205   4.932   5.033
 9380SOL     OW29038   6.264   6.005   6.007
 9380SOL    HW129039   6.238   6.053   5.924
 9380SOL    HW229040   6.266   6.069   6.084
 9381SOL     OW29041   1.452   0.417   7.013
 9381SOL    HW129042   1.529   0.378   0.040
 9381SOL    HW229043   1.480   0.503   6.971
 9382SOL     OW29044   5.490   1.872   3.172
 9382SOL    HW129045   5.395   1.900   3.159
 9382SOL    HW229046   5.520   1.819   3.092
 9383SOL     OW29047   6.515   5.499   6.003
 9383SOL    HW129048   6.473   5.430   5.944
 9383SOL    HW229049   6.477   5.589   5.980
 9384SOL     OW29050   4.068   6.378   3.259
 9384SOL    HW129051   3.992   6.357   3.320
 9384SOL    HW229052   4.105   6.468   3.283
 9385SOL     OW29053   3.731   0.894   4.453
 9385SOL    HW129054   3.796   0.924   4.523
 9385SOL    HW229055   3.659   0.962   4.444
 9386SOL     OW29056   4.170   0.429   5.466
 9386SOL    HW129057   4.227   0.382   5.398
 9386SOL    HW229058   4.226   0.495   5.516
 9387SOL     OW29059   4.295   5.723   0.850
 9387SOL    HW129060   4.363   5.748   0.781
 9387SOL    HW229061   4.326   5.753   0.940
 9388SOL     OW29062   6.788   6.886   2.316
 9388SOL    HW129063   6.712   6.937   2.357
 9388SOL    HW229064   6.752   6.814   2.258
 9389SOL     OW29065   3.151   1.728   6.466
 9389SOL    HW129066   3.084   1.767   6.403
 9389SOL    HW229067   3.131   1.631   6.480
 9390SOL     OW29068   3.148   5.575   1.325
 9390SOL    HW129069   3.127   5.478   1.333
 9390SOL    HW229070   3.078   5.629   1.373
 9391SOL     OW29071   6.460   1.550   4.990
 9391SOL    HW129072   6.490   1.546   5.085
 9391SOL    HW229073   6.446   1.646   4.963
 9392SOL     OW29074   0.860   6.872   4.609
 9392SOL    HW129075   0.855   6.839   4.703
 9392SOL    HW229076   0.936   6.936   4.599
 9393SOL     OW29077   3.973   1.869   4.585
 9393SOL    HW129078   3.949   1.799   4.652
 9393SOL    HW229079   3.960   1.832   4.493
 9394SOL     OW29080   6.087   2.328   1.682
 9394SOL    HW129081   6.130   2.269   1.614
 9394SOL    HW229082   6.022   2.389   1.637
 9395SOL     OW29083   1.677   3.096   5.967
 9395SOL    HW129084   1.597   3.099   5.907
 9395SOL    HW229085   1.671   3.017   6.028
 9396SOL     OW29086   0.182   1.148   6.160
 9396SOL    HW129087   0.119   1.226   6.157
 9396SOL    HW229088   0.275   1.180   6.146
 9397SOL     OW29089   2.255   2.401   0.584
 9397SOL    HW129090   2.319   2.351   0.642
 9397SOL    HW229091   2.226   2.485   0.630
 9398SOL     OW29092   2.430   1.648   1.004
 9398SOL    HW129093   2.488   1.582   1.052
 9398SOL    HW229094   2.467   1.740   1.017
 9399SOL     OW29095   0.314   0.326   5.866
 9399SOL    HW129096   0.407   0.289   5.874
 9399SOL    HW229097   0.260   0.296   5.944
 9400SOL     OW29098   4.191   1.693   3.085
 9400SOL    HW129099   4.095   1.666   3.079
 9400SOL    HW229100   4.216   1.703   3.182
 9401SOL     OW29101   4.752   6.516   4.124
 9401SOL    HW129102   4.845   6.553   4.123
 9401SOL    HW229103   4.690   6.581   4.080
 9402SOL     OW29104   2.521   5.324   6.948
 9402SOL    HW129105   2.603   5.371   6.979
 9402SOL    HW229106   2.472   5.382   6.883
 9403SOL     OW29107   5.638   0.016   4.384
 9403SOL    HW129108   5.670   0.032   4.291
 9403SOL    HW229109   5.539   0.016   4.385
 9404SOL     OW29110   1.235   3.954   5.658
 9404SOL    HW129111   1.176   3.912   5.589
 9404SOL    HW229112   1.293   3.884   5.700
 9405SOL     OW29113   0.622   0.259   0.894
 9405SOL    HW129114   0.650   0.173   0.938
 9405SOL    HW229115   0.703   0.308   0.864
 9406SOL     OW29116   6.526   1.127   5.140
 9406SOL    HW129117   6.450   1.128   5.205
 9406SOL    HW229118   6.494   1.094   5.051
 9407SOL     OW29119   3.981   5.372   3.234
 9407SOL    HW129120   3.969   5.325   3.321
 9407SOL    HW229121   4.028   5.459   3.250
 9408SOL     OW29122   4.078   1.883   7.004
 9408SOL    HW129123   4.103   1.974   6.971
 9408SOL    HW229124   4.161   1.836   0.012
 9409SOL     OW29125   6.073   3.472   3.665
 9409SOL    HW129126   5.996   3.410   3.646
 9409SOL    HW229127   6.158   3.428   3.635
 9410SOL     OW29128   4.209   6.811   1.524
 9410SOL    HW129129   4.116   6.804   1.561
 9410SOL    HW229130   4.216   6.892   1.465
 9411SOL     OW29131   4.868   5.568   1.712
 9411SOL    HW129132   4.842   5.599   1.621
 9411SOL    HW229133   4.797   5.592   1.777
 9412SOL     OW29134   6.132   3.194   3.216
 9412SOL    HW129135   6.034   3.211   3.229
 9412SOL    HW229136   6.145   3.135   3.137
 9413SOL     OW29137   3.620   5.196   3.913
 9413SOL    HW129138   3.584   5.193   3.820
 9413SOL    HW229139   3.650   5.104   3.940
 9414SOL     OW29140   2.249   0.496   2.285
 9414SOL    HW129141   2.230   0.594   2.282
 9414SOL    HW229142   2.297   0.468   2.202
 9415SOL     OW29143   2.362   1.277   2.356
 9415SOL    HW129144   2.439   1.266   2.294
 9415SOL    HW229145   2.393   1.319   2.441
 9416SOL     OW29146   1.370   2.559   1.718
 9416SOL    HW129147   1.297   2.617   1.680
 9416SOL    HW229148   1.410   2.504   1.644
 9417SOL     OW29149   1.667   0.073   5.030
 9417SOL    HW129150   1.649   7.010   5.078
 9417SOL    HW229151   1.622   0.072   4.941
 9418SOL     OW29152   4.716   4.008   1.245
 9418SOL    HW129153   4.707   3.918   1.202
 9418SOL    HW229154   4.780   4.003   1.321
 9419SOL     OW29155   2.897   5.353   4.213
 9419SOL    HW129156   2.841   5.384   4.289
 9419SOL    HW229157   2.889   5.417   4.137
 9420SOL     OW29158   1.811   1.196   4.234
 9420SOL    HW129159   1.736   1.132   4.251
 9420SOL    HW229160   1.888   1.174   4.294
 9421SOL     OW29161   1.900   5.324   4.378
 9421SOL    HW129162   1.857   5.267   4.449
 9421SOL    HW229163   1.972   5.272   4.332
 9422SOL     OW29164   4.201   1.149   2.524
 9422SOL    HW129165   4.234   1.082   2.456
 9422SOL    HW229166   4.221   1.116   2.616
 9423SOL     OW29167   4.768   0.204   4.366
 9423SOL    HW129168   4.846   0.168   4.315
 9423SOL    HW229169   4.698   0.237   4.303
 9424SOL     OW29170   3.279   6.136   3.950
 9424SOL    HW129171   3.276   6.185   4.038
 9424SOL    HW229172   3.224   6.185   3.883
 9425SOL     OW29173   0.988   5.219   3.432
 9425SOL    HW129174   0.893   5.190   3.420
 9425SOL    HW229175   0.993   5.286   3.506
 9426SOL     OW29176   3.474   5.392   0.969
 9426SOL    HW129177   3.472   5.320   0.900
 9426SOL    HW229178   3.380   5.417   0.994
 9427SOL     OW29179   2.844   5.130   4.067
 9427SOL    HW129180   2.932   5.131   4.019
 9427SOL    HW229181   2.850   5.189   4.148
 9428SOL     OW29182   4.987   6.335   2.348
 9428SOL    HW129183   5.054   6.406   2.369
 9428SOL    HW229184   4.939   6.358   2.263
 9429SOL     OW29185   0.238   3.278   3.106
 9429SOL    HW129186   0.337   3.281   3.118
 9429SOL    HW229187   0.194   3.317   3.187
 9430SOL     OW29188   5.873   0.093   1.911
 9430SOL    HW129189   5.922   0.165   1.961
 9430SOL    HW229190   5.895   0.099   1.813
 9431SOL     OW29191   6.496   4.310   6.994
 9431SOL    HW129192   6.431   4.283   0.041
 9431SOL    HW229193   6.588   4.279   7.020
 9432SOL     OW29194   6.693   6.637   4.033
 9432SOL    HW129195   6.604   6.592   4.021
 9432SOL    HW229196   6.727   6.669   3.945
 9433SOL     OW29197   2.713   5.456   4.386
 9433SOL    HW129198   2.625   5.460   4.433
 9433SOL    HW229199   2.766   5.538   4.408
 9434SOL     OW29200   5.239   4.066   2.935
 9434SOL    HW129201   5.338   4.054   2.947
 9434SOL    HW229202   5.222   4.124   2.856
 9435SOL     OW29203   1.840   2.367   5.098
 9435SOL    HW129204   1.761   2.427   5.105
 9435SOL    HW229205   1.810   2.272   5.091
 9436SOL     OW29206   3.034   1.704   5.449
 9436SOL    HW129207   3.010   1.780   5.389
 9436SOL    HW229208   3.031   1.734   5.545
 9437SOL     OW29209   0.444   5.252   4.106
 9437SOL    HW129210   0.457   5.180   4.039
 9437SOL    HW229211   0.346   5.267   4.121
 9438SOL     OW29212   0.516   6.336   2.456
 9438SOL    HW129213   0.528   6.361   2.359
 9438SOL    HW229214   0.510   6.419   2.511
 9439SOL     OW29215   1.161   3.807   1.329
 9439SOL    HW129216   1.256   3.785   1.352
 9439SOL    HW229217   1.143   3.778   1.235
 9440SOL     OW29218   3.801   5.720   4.834
 9440SOL    HW129219   3.885   5.696   4.884
 9440SOL    HW229220   3.793   5.660   4.754
 9441SOL     OW29221   1.652   5.946   5.247
 9441SOL    HW129222   1.642   6.040   5.281
 9441SOL    HW229223   1.744   5.933   5.209
 9442SOL     OW29224   0.644   3.854   1.282
 9442SOL    HW129225   0.600   3.773   1.323
 9442SOL    HW229226   0.573   3.915   1.246
 9443SOL     OW29227   1.332   3.242   1.372
 9443SOL    HW129228   1.289   3.299   1.442
 9443SOL    HW229229   1.412   3.289   1.335
 9444SOL     OW29230   1.530   4.438   5.705
 9444SOL    HW129231   1.597   4.365   5.717
 9444SOL    HW229232   1.441   4.408   5.740
 9445SOL     OW29233   6.443   3.119   1.624
 9445SOL    HW129234   6.473   3.024   1.634
 9445SOL    HW229235   6.344   3.124   1.636
 9446SOL     OW29236   5.732   4.628   0.356
 9446SOL    HW129237   5.697   4.607   0.264
 9446SOL    HW229238   5.682   4.574   0.423
 9447SOL     OW29239   5.888   1.613   1.977
 9447SOL    HW129240   5.841   1.686   1.927
 9447SOL    HW229241   5.980   1.644   2.001
 9448SOL     OW29242   5.766   6.204   0.475
 9448SOL    HW129243   5.686   6.190   0.534
 9448SOL    HW229244   5.849   6.186   0.527
 9449SOL     OW29245   6.294   4.925   5.353
 9449SOL    HW129246   6.342   4.929   5.440
 9449SOL    HW229247   6.195   4.917   5.370
 9450SOL     OW29248   2.803   6.154   4.199
 9450SOL    HW129249   2.833   6.126   4.107
 9450SOL    HW229250   2.808   6.253   4.206
 9451SOL     OW29251   4.271   3.885   5.832
 9451SOL    HW129252   4.365   3.864   5.857
 9451SOL    HW229253   4.269   3.928   5.742
 9452SOL     OW29254   3.073   3.973   1.188
 9452SOL    HW129255   3.053   3.937   1.279
 9452SOL    HW229256   3.001   4.038   1.162
 9453SOL     OW29257   3.088   5.313   1.331
 9453SOL    HW129258   3.115   5.235   1.273
 9453SOL    HW229259   3.085   5.284   1.426
 9454SOL     OW29260   2.150   1.908   5.510
 9454SOL    HW129261   2.154   1.998   5.467
 9454SOL    HW229262   2.242   1.868   5.512
 9455SOL     OW29263   1.966   1.928   2.708
 9455SOL    HW129264   2.038   1.956   2.645
 9455SOL    HW229265   1.930   2.008   2.756
 9456SOL     OW29266   0.944   3.446   0.744
 9456SOL    HW129267   0.900   3.533   0.724
 9456SOL    HW229268   0.976   3.404   0.659
 9457SOL     OW29269   6.598   3.413   6.995
 9457SOL    HW129270   6.538   3.416   6.915
 9457SOL    HW229271   6.655   3.495   6.997
 9458SOL     OW29272   1.015   6.143   4.464
 9458SOL    HW129273   1.087   6.209   4.489
 9458SOL    HW229274   1.057   6.063   4.421
 9459SOL     OW29275   4.187   5.954   1.970
 9459SOL    HW129276   4.093   5.971   2.000
 9459SOL    HW229277   4.240   6.038   1.979
 9460SOL     OW29278   1.145   2.824   5.725
 9460SOL    HW129279   1.050   2.854   5.727
 9460SOL    HW229280   1.148   2.725   5.716
 9461SOL     OW29281   1.763   0.613   2.436
 9461SOL    HW129282   1.755   0.542   2.505
 9461SOL    HW229283   1.821   0.687   2.470
 9462SOL     OW29284   0.419   2.979   2.898
 9462SOL    HW129285   0.354   2.978   2.974
 9462SOL    HW229286   0.497   3.037   2.921
 9463SOL     OW29287   5.797   1.851   6.724
 9463SOL    HW129288   5.849   1.904   6.657
 9463SOL    HW229289   5.853   1.776   6.759
 9464SOL     OW29290   4.301   6.661   5.751
 9464SOL    HW129291   4.253   6.677   5.664
 9464SOL    HW229292   4.253   6.592   5.804
 9465SOL     OW29293   5.330   6.482   4.273
 9465SOL    HW129294   5.296   6.570   4.305
 9465SOL    HW229295   5.337   6.483   4.173
 9466SOL     OW29296   2.654   1.644   0.044
 9466SOL    HW129297   2.698   1.688   6.990
 9466SOL    HW229298   2.592   1.572   0.012
 9467SOL     OW29299   2.030   3.362   2.056
 9467SOL    HW129300   2.103   3.428   2.040
 9467SOL    HW229301   1.943   3.399   2.021
 9468SOL     OW29302   0.541   2.746   6.275
 9468SOL    HW129303   0.511   2.725   6.368
 9468SOL    HW229304   0.490   2.824   6.240
 9469SOL     OW29305   7.013   4.429   2.881
 9469SOL    HW129306   6.940   4.443   2.814
 9469SOL    HW229307   0.074   4.469   2.846
 9470SOL     OW29308   6.239   3.425   1.640
 9470SOL    HW129309   6.186   3.470   1.568
 9470SOL    HW229310   6.276   3.338   1.605
 9471SOL     OW29311   0.346   2.898   6.148
 9471SOL    HW129312   0.383   2.934   6.062
 9471SOL    HW229313   0.252   2.867   6.134
 9472SOL     OW29314   6.649   2.334   4.565
 9472SOL    HW129315   6.593   2.398   4.512
 9472SOL    HW229316   6.718   2.386   4.616
 9473SOL     OW29317   3.322   5.621   5.368
 9473SOL    HW129318   3.335   5.563   5.288
 9473SOL    HW229319   3.302   5.715   5.338
 9474SOL     OW29320   3.200   5.289   3.503
 9474SOL    HW129321   3.201   5.339   3.589
 9474SOL    HW229322   3.120   5.317   3.449
 9475SOL     OW29323   1.673   3.237   1.490
 9475SOL    HW129324   1.697   3.334   1.483
 9475SOL    HW229325   1.729   3.194   1.561
 9476SOL     OW29326   2.911   3.990   5.550
 9476SOL    HW129327   2.861   4.047   5.484
 9476SOL    HW229328   2.942   4.047   5.626
 9477SOL     OW29329   0.493   2.319   1.099
 9477SOL    HW129330   0.554   2.389   1.061
 9477SOL    HW229331   0.429   2.289   1.028
 9478SOL     OW29332   5.329   3.980   5.440
 9478SOL    HW129333   5.247   3.999   5.386
 9478SOL    HW229334   5.304   3.971   5.537
 9479SOL     OW29335   5.842   5.803   5.155
 9479SOL    HW129336   5.913   5.823   5.087
 9479SOL    HW229337   5.775   5.740   5.116
 9480SOL     OW29338   5.746   3.848   6.172
 9480SOL    HW129339   5.658   3.811   6.142
 9480SOL    HW229340   5.764   3.817   6.266
 9481SOL     OW29341   6.886   3.511   2.747
 9481SOL    HW129342   6.980   3.529   2.776
 9481SOL    HW229343   6.838   3.598   2.735
 9482SOL     OW29344   4.253   0.224   2.478
 9482SOL    HW129345   4.186   0.172   2.530
 9482SOL    HW229346   4.302   0.286   2.539
 9483SOL     OW29347   1.686   1.793   0.528
 9483SOL    HW129348   1.734   1.780   0.615
 9483SOL    HW229349   1.700   1.887   0.496
 9484SOL     OW29350   5.725   0.674   2.866
 9484SOL    HW129351   5.672   0.609   2.921
 9484SOL    HW229352   5.799   0.626   2.820
 9485SOL     OW29353   1.033   6.846   2.734
 9485SOL    HW129354   1.089   6.911   2.786
 9485SOL    HW229355   0.944   6.887   2.713
 9486SOL     OW29356   2.905   6.168   2.508
 9486SOL    HW129357   2.909   6.081   2.459
 9486SOL    HW229358   2.846   6.159   2.588
 9487SOL     OW29359   2.923   3.718   3.667
 9487SOL    HW129360   3.016   3.748   3.689
 9487SOL    HW229361   2.864   3.797   3.652
 9488SOL     OW29362   1.091   1.459   1.421
 9488SOL    HW129363   1.126   1.464   1.328
 9488SOL    HW229364   0.991   1.456   1.418
 9489SOL     OW29365   2.809   4.160   0.765
 9489SOL    HW129366   2.713   4.159   0.790
 9489SOL    HW229367   2.819   4.196   0.672
 9490SOL     OW29368   5.078   1.484   6.996
 9490SOL    HW129369   4.996   1.440   0.008
 9490SOL    HW229370   5.137   1.512   0.048
 9491SOL     OW29371   6.824   5.225   5.604
 9491SOL    HW129372   6.878   5.308   5.589
 9491SOL    HW229373   6.773   5.233   5.690
 9492SOL     OW29374   2.610   4.292   1.433
 9492SOL    HW129375   2.688   4.309   1.373
 9492SOL    HW229376   2.538   4.359   1.414
 9493SOL     OW29377   5.759   6.333   2.684
 9493SOL    HW129378   5.753   6.265   2.611
 9493SOL    HW229379   5.702   6.412   2.661
 9494SOL     OW29380   3.111   2.915   6.042
 9494SOL    HW129381   3.207   2.908   6.069
 9494SOL    HW229382   3.100   2.988   5.974
 9495SOL     OW29383   5.536   2.327   4.684
 9495SOL    HW129384   5.494   2.294   4.769
 9495SOL    HW229385   5.480   2.297   4.606
 9496SOL     OW29386   6.202   3.997   0.413
 9496SOL    HW129387   6.194   4.091   0.446
 9496SOL    HW229388   6.133   3.980   0.342
 9497SOL     OW29389   0.801   5.874   6.149
 9497SOL    HW129390   0.886   5.892   6.200
 9497SOL    HW229391   0.778   5.954   6.094
 9498SOL     OW29392   3.738   0.678   6.670
 9498SOL    HW129393   3.810   0.747   6.679
 9498SOL    HW229394   3.737   0.620   6.751
 9499SOL     OW29395   4.226   4.455   6.072
 9499SOL    HW129396   4.317   4.418   6.054
 9499SOL    HW229397   4.194   4.506   5.992
 9500SOL     OW29398   5.406   6.005   1.695
 9500SOL    HW129399   5.307   5.992   1.704
 9500SOL    HW229400   5.453   5.919   1.715
 9501SOL     OW29401   3.074   1.878   4.959
 9501SOL    HW129402   2.984   1.903   4.922
 9501SOL    HW229403   3.134   1.852   4.883
 9502SOL     OW29404   4.139   3.193   5.940
 9502SOL    HW129405   4.086   3.249   5.877
 9502SOL    HW229406   4.180   3.116   5.890
 9503SOL     OW29407   1.451   6.981   1.440
 9503SOL    HW129408   1.446   6.895   1.491
 9503SOL    HW229409   1.496   0.027   1.497
 9504SOL     OW29410   0.878   2.976   0.070
 9504SOL    HW129411   0.783   2.978   0.040
 9504SOL    HW229412   0.931   2.917   0.009
 9505SOL     OW29413   4.806   2.925   3.230
 9505SOL    HW129414   4.802   2.857   3.304
 9505SOL    HW229415   4.852   3.007   3.263
 9506SOL     OW29416   0.075   2.292   0.915
 9506SOL    HW129417   7.005   2.306   0.946
 9506SOL    HW229418   0.093   2.194   0.907
 9507SOL     OW29419   1.283   2.255   4.769
 9507SOL    HW129420   1.258   2.276   4.674
 9507SOL    HW229421   1.375   2.219   4.772
 9508SOL     OW29422   4.793   1.494   6.056
 9508SOL    HW129423   4.745   1.574   6.092
 9508SOL    HW229424   4.850   1.454   6.128
 9509SOL     OW29425   3.212   6.706   6.244
 9509SOL    HW129426   3.147   6.635   6.218
 9509SOL    HW229427   3.204   6.783   6.181
 9510SOL     OW29428   6.807   4.526   2.744
 9510SOL    HW129429   6.745   4.513   2.667
 9510SOL    HW229430   6.836   4.622   2.747
 9511SOL     OW29431   2.558   1.182   1.396
 9511SOL    HW129432   2.493   1.108   1.415
 9511SOL    HW229433   2.641   1.144   1.356
 9512SOL     OW29434   1.455   3.157   4.980
 9512SOL    HW129435   1.545   3.134   5.017
 9512SOL    HW229436   1.466   3.213   4.898
 9513SOL     OW29437   2.293   4.513   4.181
 9513SOL    HW129438   2.196   4.510   4.203
 9513SOL    HW229439   2.346   4.474   4.256
 9514SOL     OW29440   2.844   2.861   6.037
 9514SOL    HW129441   2.942   2.879   6.029
 9514SOL    HW229442   2.796   2.902   5.960
 9515SOL     OW29443   2.611   5.230   5.865
 9515SOL    HW129444   2.658   5.191   5.785
 9515SOL    HW229445   2.513   5.213   5.858
 9516SOL     OW29446   5.344   4.279   5.595
 9516SOL    HW129447   5.342   4.204   5.529
 9516SOL    HW229448   5.250   4.309   5.615
 9517SOL     OW29449   0.727   5.628   2.008
 9517SOL    HW129450   0.820   5.592   2.002
 9517SOL    HW229451   0.689   5.607   2.098
 9518SOL     OW29452   0.742   2.986   5.437
 9518SOL    HW129453   0.657   2.971   5.386
 9518SOL    HW229454   0.720   3.020   5.528
 9519SOL     OW29455   3.776   2.905   3.291
 9519SOL    HW129456   3.762   2.889   3.389
 9519SOL    HW229457   3.854   2.965   3.279
 9520SOL     OW29458   5.124   0.493   6.183
 9520SOL    HW129459   5.063   0.433   6.236
 9520SOL    HW229460   5.214   0.494   6.225
 9521SOL     OW29461   3.643   1.322   1.233
 9521SOL    HW129462   3.675   1.365   1.148
 9521SOL    HW229463   3.701   1.244   1.256
 9522SOL     OW29464   3.388   6.453   1.343
 9522SOL    HW129465   3.423   6.377   1.398
 9522SOL    HW229466   3.399   6.433   1.246
 9523SOL     OW29467   2.825   4.893   4.352
 9523SOL    HW129468   2.779   4.968   4.303
 9523SOL    HW229469   2.855   4.824   4.286
 9524SOL     OW29470   2.099   4.093   0.262
 9524SOL    HW129471   2.169   4.025   0.283
 9524SOL    HW229472   2.142   4.173   0.220
 9525SOL     OW29473   2.246   3.193   5.854
 9525SOL    HW129474   2.268   3.194   5.756
 9525SOL    HW229475   2.176   3.123   5.871
 9526SOL     OW29476   5.335   5.552   6.860
 9526SOL    HW129477   5.426   5.549   6.900
 9526SOL    HW229478   5.341   5.567   6.762
 9527SOL     OW29479   4.031   6.795   4.888
 9527SOL    HW129480   4.021   6.700   4.860
 9527SOL    HW229481   4.091   6.800   4.968
 9528SOL     OW29482   4.825   2.582   0.448
 9528SOL    HW129483   4.878   2.563   0.365
 9528SOL    HW229484   4.886   2.615   0.520
 9529SOL     OW29485   5.452   0.970   1.794
 9529SOL    HW129486   5.550   0.974   1.772
 9529SOL    HW229487   5.425   1.056   1.839
 9530SOL     OW29488   1.058   5.535   3.759
 9530SOL    HW129489   1.137   5.476   3.742
 9530SOL    HW229490   1.009   5.551   3.674
 9531SOL     OW29491   3.460   5.572   2.176
 9531SOL    HW129492   3.477   5.478   2.208
 9531SOL    HW229493   3.535   5.631   2.207
 9532SOL     OW29494   6.157   4.905   3.679
 9532SOL    HW129495   6.166   4.990   3.628
 9532SOL    HW229496   6.068   4.900   3.722
 9533SOL     OW29497   1.708   3.855   3.036
 9533SOL    HW129498   1.693   3.914   2.956
 9533SOL    HW229499   1.620   3.837   3.080
 9534SOL     OW29500   5.080   5.248   4.229
 9534SOL    HW129501   5.126   5.331   4.196
 9534SOL    HW229502   5.064   5.256   4.327
 9535SOL     OW29503   0.215   1.495   4.153
 9535SOL    HW129504   0.144   1.531   4.093
 9535SOL    HW229505   0.179   1.485   4.245
 9536SOL     OW29506   3.023   4.026   4.924
 9536SOL    HW129507   2.987   4.099   4.865
 9536SOL    HW229508   3.088   3.971   4.873
 9537SOL     OW29509   6.544   1.175   4.315
 9537SOL    HW129510   6.540   1.076   4.305
 9537SOL    HW229511   6.548   1.218   4.225
 9538SOL     OW29512   5.373   6.788   5.104
 9538SOL    HW129513   5.282   6.775   5.065
 9538SOL    HW229514   5.384   6.884   5.132
 9539SOL     OW29515   3.292   4.143   2.726
 9539SOL    HW129516   3.339   4.119   2.812
 9539SOL    HW229517   3.343   4.215   2.679
 9540SOL     OW29518   4.308   4.680   3.368
 9540SOL    HW129519   4.374   4.659   3.439
 9540SOL    HW229520   4.222   4.709   3.410
 9541SOL     OW29521   1.953   5.635   5.510
 9541SOL    HW129522   1.980   5.542   5.533
 9541SOL    HW229523   1.966   5.651   5.412
 9542SOL     OW29524   6.296   4.152   3.151
 9542SOL    HW129525   6.365   4.108   3.094
 9542SOL    HW229526   6.317   4.250   3.158
 9543SOL     OW29527   2.400   0.521   5.910
 9543SOL    HW129528   2.458   0.510   5.992
 9543SOL    HW229529   2.351   0.607   5.916
 9544SOL     OW29530   6.072   3.690   4.732
 9544SOL    HW129531   6.075   3.601   4.779
 9544SOL    HW229532   5.986   3.698   4.681
 9545SOL     OW29533   6.715   4.533   2.110
 9545SOL    HW129534   6.616   4.521   2.107
 9545SOL    HW229535   6.742   4.604   2.045
 9546SOL     OW29536   2.610   2.938   1.470
 9546SOL    HW129537   2.685   2.877   1.445
 9546SOL    HW229538   2.596   3.005   1.398
 9547SOL     OW29539   4.502   0.131   3.525
 9547SOL    HW129540   4.419   0.151   3.473
 9547SOL    HW229541   4.550   0.217   3.545
 9548SOL     OW29542   0.657   4.824   6.616
 9548SOL    HW129543   0.678   4.906   6.669
 9548SOL    HW229544   0.684   4.839   6.520
 9549SOL     OW29545   3.968   2.088   1.239
 9549SOL    HW129546   4.003   2.110   1.331
 9549SOL    HW229547   3.868   2.085   1.242
 9550SOL     OW29548   6.278   3.165   1.938
 9550SOL    HW129549   6.287   3.072   1.903
 9550SOL    HW229550   6.252   3.227   1.864
 9551SOL     OW29551   5.714   2.898   6.618
 9551SOL    HW129552   5.640   2.847   6.574
 9551SOL    HW229553   5.796   2.842   6.621
 9552SOL     OW29554   3.017   1.937   0.949
 9552SOL    HW129555   3.000   1.954   0.852
 9552SOL    HW229556   3.060   2.018   0.990
 9553SOL     OW29557   5.620   1.342   6.641
 9553SOL    HW129558   5.545   1.355   6.706
 9553SOL    HW229559   5.662   1.253   6.656
 9554SOL     OW29560   2.960   0.690   3.534
 9554SOL    HW129561   3.049   0.670   3.574
 9554SOL    HW229562   2.935   0.784   3.556
 9555SOL     OW29563   0.006   0.007   3.421
 9555SOL    HW129564   0.018   0.072   3.496
 9555SOL    HW229565   6.934   0.007   3.392
 9556SOL     OW29566   2.187   4.792   6.837
 9556SOL    HW129567   2.236   4.847   6.905
 9556SOL    HW229568   2.233   4.705   6.825
 9557SOL     OW29569   5.701   0.611   1.063
 9557SOL    HW129570   5.635   0.608   1.139
 9557SOL    HW229571   5.747   0.522   1.057
 9558SOL     OW29572   4.766   6.563   6.387
 9558SOL    HW129573   4.742   6.562   6.484
 9558SOL    HW229574   4.776   6.469   6.355
 9559SOL     OW29575   1.724   4.633   0.172
 9559SOL    HW129576   1.651   4.684   0.127
 9559SOL    HW229577   1.812   4.673   0.148
 9560SOL     OW29578   2.952   0.228   2.655
 9560SOL    HW129579   2.885   0.164   2.692
 9560SOL    HW229580   2.970   0.206   2.560
 9561SOL     OW29581   0.880   0.677   0.438
 9561SOL    HW129582   0.949   0.611   0.467
 9561SOL    HW229583   0.842   0.723   0.519
 9562SOL     OW29584   2.305   6.157   2.684
 9562SOL    HW129585   2.368   6.087   2.718
 9562SOL    HW229586   2.346   6.247   2.695
 9563SOL     OW29587   0.940   5.933   6.499
 9563SOL    HW129588   0.894   6.013   6.537
 9563SOL    HW229589   0.997   5.960   6.422
 9564SOL     OW29590   1.983   1.281   0.804
 9564SOL    HW129591   1.976   1.184   0.782
 9564SOL    HW229592   2.068   1.299   0.853
 9565SOL     OW29593   2.725   1.651   4.306
 9565SOL    HW129594   2.794   1.688   4.243
 9565SOL    HW229595   2.762   1.571   4.353
 9566SOL     OW29596   3.516   0.397   0.181
 9566SOL    HW129597   3.484   0.397   0.276
 9566SOL    HW229598   3.502   0.306   0.141
 9567SOL     OW29599   6.975   4.297   0.928
 9567SOL    HW129600   0.045   4.311   0.960
 9567SOL    HW229601   6.918   4.374   0.957
 9568SOL     OW29602   4.485   1.664   6.705
 9568SOL    HW129603   4.580   1.648   6.675
 9568SOL    HW229604   4.431   1.696   6.627
 9569SOL     OW29605   5.616   0.260   2.431
 9569SOL    HW129606   5.610   0.233   2.335
 9569SOL    HW229607   5.700   0.312   2.445
 9570SOL     OW29608   0.518   3.341   1.716
 9570SOL    HW129609   0.604   3.388   1.736
 9570SOL    HW229610   0.465   3.331   1.800
 9571SOL     OW29611   1.711   1.323   6.890
 9571SOL    HW129612   1.742   1.286   6.802
 9571SOL    HW229613   1.611   1.326   6.891
 9572SOL     OW29614   2.458   4.427   4.395
 9572SOL    HW129615   2.465   4.444   4.494
 9572SOL    HW229616   2.402   4.345   4.380
 9573SOL     OW29617   6.482   0.102   4.360
 9573SOL    HW129618   6.564   0.153   4.333
 9573SOL    HW229619   6.418   0.164   4.407
 9574SOL     OW29620   4.121   3.233   0.866
 9574SOL    HW129621   4.077   3.178   0.795
 9574SOL    HW229622   4.073   3.320   0.876
 9575SOL     OW29623   5.433   6.660   1.960
 9575SOL    HW129624   5.374   6.653   2.041
 9575SOL    HW229625   5.379   6.694   1.883
 9576SOL     OW29626   0.768   0.447   6.509
 9576SOL    HW129627   0.853   0.431   6.460
 9576SOL    HW229628   0.787   0.454   6.607
 9577SOL     OW29629   6.549   5.542   2.619
 9577SOL    HW129630   6.508   5.613   2.561
 9577SOL    HW229631   6.627   5.501   2.571
 9578SOL     OW29632   1.887   3.786   2.338
 9578SOL    HW129633   1.873   3.753   2.432
 9578SOL    HW229634   1.965   3.740   2.298
 9579SOL     OW29635   5.955   5.918   2.463
 9579SOL    HW129636   5.988   5.882   2.550
 9579SOL    HW229637   5.986   5.860   2.389
 9580SOL     OW29638   4.980   4.007   3.457
 9580SOL    HW129639   4.992   3.970   3.549
 9580SOL    HW229640   5.048   4.078   3.440
 9581SOL     OW29641   5.938   1.608   0.176
 9581SOL    HW129642   5.864   1.573   0.118
 9581SOL    HW229643   5.961   1.539   0.245
 9582SOL     OW29644   5.614   6.361   5.181
 9582SOL    HW129645   5.714   6.354   5.176
 9582SOL    HW229646   5.574   6.269   5.174
 9583SOL     OW29647   3.634   5.007   1.893
 9583SOL    HW129648   3.619   4.912   1.923
 9583SOL    HW229649   3.574   5.068   1.944
 9584SOL     OW29650   2.720   5.532   3.861
 9584SOL    HW129651   2.741   5.578   3.947
 9584SOL    HW229652   2.630   5.561   3.829
 9585SOL     OW29653   4.581   6.127   1.189
 9585SOL    HW129654   4.483   6.111   1.193
 9585SOL    HW229655   4.625   6.087   1.270
 9586SOL     OW29656   3.908   5.349   2.980
 9586SOL    HW129657   3.920   5.365   3.078
 9586SOL    HW229658   3.996   5.334   2.937
 9587SOL     OW29659   3.316   6.148   0.993
 9587SOL    HW129660   3.362   6.084   1.054
 9587SOL    HW229661   3.261   6.096   0.927
 9588SOL     OW29662   6.661   5.787   0.185
 9588SOL    HW129663   6.619   5.721   0.246
 9588SOL    HW229664   6.591   5.847   0.147
 9589SOL     OW29665   2.097   3.139   6.669
 9589SOL    HW129666   2.134   3.099   6.584
 9589SOL    HW229667   1.998   3.127   6.670
 9590SOL     OW29668   6.314   0.371   0.974
 9590SOL    HW129669   6.369   0.309   0.918
 9590SOL    HW229670   6.372   0.411   1.045
 9591SOL     OW29671   4.587   0.813   0.294
 9591SOL    HW129672   4.508   0.846   0.347
 9591SOL    HW229673   4.666   0.803   0.355
 9592SOL     OW29674   2.451   6.587   5.886
 9592SOL    HW129675   2.495   6.504   5.921
 9592SOL    HW229676   2.491   6.612   5.798
 9593SOL     OW29677   1.763   2.425   3.516
 9593SOL    HW129678   1.857   2.441   3.545
 9593SOL    HW229679   1.703   2.421   3.596
 9594SOL     OW29680   0.030   6.519   3.491
 9594SOL    HW129681   6.971   6.510   3.436
 9594SOL    HW229682   0.036   6.444   3.556
 9595SOL     OW29683   0.619   3.287   3.411
 9595SOL    HW129684   0.578   3.218   3.471
 9595SOL    HW229685   0.717   3.269   3.401
 9596SOL     OW29686   0.791   6.454   0.859
 9596SOL    HW129687   0.839   6.388   0.801
 9596SOL    HW229688   0.838   6.542   0.856
 9597SOL     OW29689   1.282   3.534   2.135
 9597SOL    HW129690   1.328   3.463   2.082
 9597SOL    HW229691   1.218   3.492   2.198
 9598SOL     OW29692   2.327   4.404   3.932
 9598SOL    HW129693   2.331   4.441   4.025
 9598SOL    HW229694   2.262   4.328   3.928
 9599SOL     OW29695   4.268   6.524   4.401
 9599SOL    HW129696   4.181   6.543   4.355
 9599SOL    HW229697   4.256   6.526   4.500
 9600SOL     OW29698   3.871   1.151   1.283
 9600SOL    HW129699   3.878   1.070   1.341
 9600SOL    HW229700   3.948   1.212   1.301
 9601SOL     OW29701   1.184   3.632   0.693
 9601SOL    HW129702   1.117   3.684   0.746
 9601SOL    HW229703   1.255   3.695   0.660
 9602SOL     OW29704   4.109   5.245   5.116
 9602SOL    HW129705   4.070   5.275   5.203
 9602SOL    HW229706   4.037   5.238   5.048
 9603SOL     OW29707   4.963   6.817   5.422
 9603SOL    HW129708   4.980   6.849   5.329
 9603SOL    HW229709   4.932   6.722   5.419
 9604SOL     OW29710   5.338   6.783   0.255
 9604SOL    HW129711   5.294   6.697   0.279
 9604SOL    HW229712   5.370   6.829   0.338
 9605SOL     OW29713   5.799   5.524   1.801
 9605SOL    HW129714   5.736   5.529   1.879
 9605SOL    HW229715   5.821   5.428   1.782
 9606SOL     OW29716   1.772   1.075   0.030
 9606SOL    HW129717   1.846   1.047   6.992
 9606SOL    HW229718   1.796   1.161   0.074
 9607SOL     OW29719   2.260   2.331   5.933
 9607SOL    HW129720   2.166   2.305   5.910
 9607SOL    HW229721   2.275   2.427   5.910
 9608SOL     OW29722   6.074   3.143   4.418
 9608SOL    HW129723   6.102   3.233   4.453
 9608SOL    HW229724   5.991   3.154   4.363
 9609SOL     OW29725   4.252   2.842   6.612
 9609SOL    HW129726   4.310   2.903   6.665
 9609SOL    HW229727   4.206   2.777   6.673
 9610SOL     OW29728   0.725   5.099   3.128
 9610SOL    HW129729   0.731   5.170   3.198
 9610SOL    HW229730   0.630   5.090   3.098
 9611SOL     OW29731   2.084   0.485   0.568
 9611SOL    HW129732   2.158   0.427   0.534
 9611SOL    HW229733   2.111   0.581   0.563
 9612SOL     OW29734   6.871   2.905   4.038
 9612SOL    HW129735   6.803   2.959   4.088
 9612SOL    HW229736   6.962   2.927   4.072
 9613SOL     OW29737   5.951   5.404   3.080
 9613SOL    HW129738   5.904   5.317   3.095
 9613SOL    HW229739   5.987   5.407   2.987
 9614SOL     OW29740   4.490   2.523   3.637
 9614SOL    HW129741   4.590   2.514   3.638
 9614SOL    HW229742   4.458   2.532   3.542
 9615SOL     OW29743   2.391   4.280   1.123
 9615SOL    HW129744   2.323   4.273   1.197
 9615SOL    HW229745   2.385   4.200   1.064
 9616SOL     OW29746   4.071   3.303   6.915
 9616SOL    HW129747   4.027   3.319   6.827
 9616SOL    HW229748   4.006   3.260   6.978
 9617SOL     OW29749   1.743   2.391   2.821
 9617SOL    HW129750   1.664   2.376   2.762
 9617SOL    HW229751   1.780   2.302   2.849
 9618SOL     OW29752   2.376   1.721   1.353
 9618SOL    HW129753   2.370   1.766   1.264
 9618SOL    HW229754   2.328   1.634   1.350
 9619SOL     OW29755   2.818   0.652   5.824
 9619SOL    HW129756   2.894   0.702   5.782
 9619SOL    HW229757   2.737   0.661   5.767
 9620SOL     OW29758   5.881   1.225   5.229
 9620SOL    HW129759   5.871   1.131   5.264
 9620SOL    HW229760   5.880   1.289   5.306
 9621SOL     OW29761   1.848   3.411   3.445
 9621SOL    HW129762   1.815   3.356   3.368
 9621SOL    HW229763   1.904   3.487   3.410
 9622SOL     OW29764   5.320   6.865   0.851
 9622SOL    HW129765   5.331   6.794   0.782
 9622SOL    HW229766   5.410   6.892   0.886
 9623SOL     OW29767   2.599   3.360   6.202
 9623SOL    HW129768   2.669   3.430   6.187
 9623SOL    HW229769   2.561   3.331   6.114
 9624SOL     OW29770   6.342   2.922   4.119
 9624SOL    HW129771   6.286   2.934   4.202
 9624SOL    HW229772   6.351   2.824   4.099
 9625SOL     OW29773   5.844   5.853   1.114
 9625SOL    HW129774   5.804   5.924   1.173
 9625SOL    HW229775   5.794   5.849   1.028
 9626SOL     OW29776   3.560   6.518   0.073
 9626SOL    HW129777   3.565   6.613   0.102
 9626SOL    HW229778   3.562   6.459   0.154
 9627SOL     OW29779   1.472   6.424   6.628
 9627SOL    HW129780   1.478   6.523   6.641
 9627SOL    HW229781   1.411   6.405   6.552
 9628SOL     OW29782   3.355   6.703   2.439
 9628SOL    HW129783   3.263   6.742   2.437
 9628SOL    HW229784   3.349   6.604   2.429
 9629SOL     OW29785   2.279   6.930   1.116
 9629SOL    HW129786   2.257   6.997   1.046
 9629SOL    HW229787   2.324   6.851   1.074
 9630SOL     OW29788   6.805   1.600   6.543
 9630SOL    HW129789   6.814   1.600   6.643
 9630SOL    HW229790   6.708   1.603   6.518
 9631SOL     OW29791   5.830   6.030   0.169
 9631SOL    HW129792   5.825   6.031   0.069
 9631SOL    HW229793   5.876   6.113   0.201
 9632SOL     OW29794   1.032   6.016   2.030
 9632SOL    HW129795   1.113   6.012   1.972
 9632SOL    HW229796   0.953   5.982   1.980
 9633SOL     OW29797   6.872   5.065   6.127
 9633SOL    HW129798   6.939   5.043   6.197
 9633SOL    HW229799   6.890   5.011   6.044
 9634SOL     OW29800   1.444   6.114   5.740
 9634SOL    HW129801   1.420   6.028   5.784
 9634SOL    HW229802   1.368   6.146   5.683
 9635SOL     OW29803   1.121   5.914   5.678
 9635SOL    HW129804   1.055   5.866   5.736
 9635SOL    HW229805   1.173   5.847   5.625
 9636SOL     OW29806   4.062   1.365   6.660
 9636SOL    HW129807   3.965   1.368   6.686
 9636SOL    HW229808   4.106   1.288   6.706
 9637SOL     OW29809   2.214   1.126   0.153
 9637SOL    HW129810   2.299   1.080   0.180
 9637SOL    HW229811   2.236   1.204   0.095
 9638SOL     OW29812   6.776   2.191   6.550
 9638SOL    HW129813   6.715   2.115   6.568
 9638SOL    HW229814   6.764   2.221   6.455
 9639SOL     OW29815   3.975   0.814   2.039
 9639SOL    HW129816   3.969   0.814   1.939
 9639SOL    HW229817   3.987   0.720   2.072
 9640SOL     OW29818   1.761   2.015   2.450
 9640SOL    HW129819   1.766   2.113   2.433
 9640SOL    HW229820   1.747   1.967   2.363
 9641SOL     OW29821   5.603   5.582   6.968
 9641SOL    HW129822   5.681   5.609   0.002
 9641SOL    HW229823   5.621   5.493   6.927
 9642SOL     OW29824   3.673   0.686   3.694
 9642SOL    HW129825   3.755   0.661   3.644
 9642SOL    HW229826   3.686   0.667   3.791
 9643SOL     OW29827   4.094   4.752   3.087
 9643SOL    HW129828   4.101   4.794   2.997
 9643SOL    HW229829   4.147   4.805   3.153
 9644SOL     OW29830   2.966   2.353   0.335
 9644SOL    HW129831   3.036   2.356   0.406
 9644SOL    HW229832   2.977   2.270   0.280
 9645SOL     OW29833   3.312   5.245   5.401
 9645SOL    HW129834   3.327   5.152   5.434
 9645SOL    HW229835   3.399   5.286   5.374
 9646SOL     OW29836   4.015   5.207   4.203
 9646SOL    HW129837   4.108   5.169   4.210
 9646SOL    HW229838   4.021   5.303   4.177
 9647SOL     OW29839   6.571   3.045   6.280
 9647SOL    HW129840   6.561   3.087   6.190
 9647SOL    HW229841   6.495   3.074   6.339
 9648SOL     OW29842   4.030   3.719   1.055
 9648SOL    HW129843   3.939   3.758   1.070
 9648SOL    HW229844   4.061   3.676   1.140
 9649SOL     OW29845   2.060   5.900   1.926
 9649SOL    HW129846   2.145   5.940   1.890
 9649SOL    HW229847   2.035   5.945   2.011
 9650SOL     OW29848   0.279   6.684   0.664
 9650SOL    HW129849   0.246   6.624   0.737
 9650SOL    HW229850   0.267   6.780   0.692
 9651SOL     OW29851   0.613   1.623   6.540
 9651SOL    HW129852   0.584   1.689   6.471
 9651SOL    HW229853   0.602   1.664   6.631
 9652SOL     OW29854   0.553   5.040   2.485
 9652SOL    HW129855   0.528   5.137   2.491
 9652SOL    HW229856   0.473   4.986   2.460
 9653SOL     OW29857   6.512   6.174   4.468
 9653SOL    HW129858   6.459   6.178   4.383
 9653SOL    HW229859   6.536   6.267   4.497
 9654SOL     OW29860   2.177   3.117   2.807
 9654SOL    HW129861   2.175   3.088   2.903
 9654SOL    HW229862   2.182   3.216   2.802
 9655SOL     OW29863   6.195   1.691   6.648
 9655SOL    HW129864   6.114   1.685   6.706
 9655SOL    HW229865   6.166   1.708   6.553
 9656SOL     OW29866   3.257   1.361   2.852
 9656SOL    HW129867   3.331   1.293   2.844
 9656SOL    HW229868   3.206   1.364   2.766
 9657SOL     OW29869   0.043   0.151   5.053
 9657SOL    HW129870   7.004   0.078   5.081
 9657SOL    HW229871   7.015   0.235   5.037
 9658SOL     OW29872   5.670   2.104   3.034
 9658SOL    HW129873   5.725   2.110   3.118
 9658SOL    HW229874   5.603   2.031   3.043
 9659SOL     OW29875   1.295   4.864   6.979
 9659SOL    HW129876   1.267   4.784   6.927
 9659SOL    HW229877   1.384   4.847   7.022
 9660SOL     OW29878   0.755   5.295   0.801
 9660SOL    HW129879   0.753   5.355   0.720
 9660SOL    HW229880   0.737   5.201   0.772
 9661SOL     OW29881   4.262   6.837   1.194
 9661SOL    HW129882   4.208   6.896   1.254
 9661SOL    HW229883   4.356   6.835   1.226
 9662SOL     OW29884   4.710   1.025   4.402
 9662SOL    HW129885   4.735   1.117   4.373
 9662SOL    HW229886   4.789   0.965   4.395
 9663SOL     OW29887   2.230   6.390   2.999
 9663SOL    HW129888   2.144   6.386   2.948
 9663SOL    HW229889   2.253   6.486   3.016
 9664SOL     OW29890   2.345   5.983   1.766
 9664SOL    HW129891   2.354   6.050   1.839
 9664SOL    HW229892   2.435   5.947   1.742
 9665SOL     OW29893   5.066   4.196   3.781
 9665SOL    HW129894   5.071   4.232   3.874
 9665SOL    HW229895   5.150   4.144   3.761
 9666SOL     OW29896   5.130   4.610   4.851
 9666SOL    HW129897   5.107   4.657   4.936
 9666SOL    HW229898   5.138   4.512   4.868
 9667SOL     OW29899   3.488   3.126   3.474
 9667SOL    HW129900   3.497   3.173   3.561
 9667SOL    HW229901   3.395   3.091   3.465
 9668SOL     OW29902   0.693   1.391   5.215
 9668SOL    HW129903   0.708   1.372   5.118
 9668SOL    HW229904   0.763   1.455   5.248
 9669SOL     OW29905   1.403   6.398   6.916
 9669SOL    HW129906   1.493   6.407   6.958
 9669SOL    HW229907   1.411   6.411   6.817
 9670SOL     OW29908   5.410   4.589   6.358
 9670SOL    HW129909   5.329   4.544   6.319
 9670SOL    HW229910   5.455   4.644   6.288
 9671SOL     OW29911   0.082   0.149   0.042
 9671SOL    HW129912   0.131   0.061   0.049
 9671SOL    HW229913   0.045   0.173   0.131
 9672SOL     OW29914   1.616   6.220   5.274
 9672SOL    HW129915   1.533   6.186   5.228
 9672SOL    HW229916   1.595   6.237   5.370
 9673SOL     OW29917   2.029   2.806   5.844
 9673SOL    HW129918   2.110   2.753   5.868
 9673SOL    HW229919   2.046   2.903   5.862
 9674SOL     OW29920   2.640   6.674   2.275
 9674SOL    HW129921   2.646   6.580   2.307
 9674SOL    HW229922   2.548   6.709   2.294
 9675SOL     OW29923   0.447   2.149   2.344
 9675SOL    HW129924   0.391   2.100   2.410
 9675SOL    HW229925   0.540   2.161   2.380
 9676SOL     OW29926   0.132   2.809   4.796
 9676SOL    HW129927   0.161   2.804   4.700
 9676SOL    HW229928   0.035   2.788   4.802
 9677SOL     OW29929   1.761   3.583   5.569
 9677SOL    HW129930   1.819   3.581   5.487
 9677SOL    HW229931   1.778   3.500   5.623
 9678SOL     OW29932   3.593   3.444   2.911
 9678SOL    HW129933   3.663   3.397   2.857
 9678SOL    HW229934   3.502   3.414   2.882
 9679SOL     OW29935   0.404   3.858   1.488
 9679SOL    HW129936   0.409   3.769   1.442
 9679SOL    HW229937   0.404   3.844   1.587
 9680SOL     OW29938   4.816   4.866   3.280
 9680SOL    HW129939   4.891   4.918   3.239
 9680SOL    HW229940   4.826   4.769   3.257
 9681SOL     OW29941   0.665   0.558   4.383
 9681SOL    HW129942   0.685   0.622   4.309
 9681SOL    HW229943   0.644   0.468   4.346
 9682SOL     OW29944   0.421   5.351   2.970
 9682SOL    HW129945   0.497   5.384   2.915
 9682SOL    HW229946   0.423   5.251   2.973
 9683SOL     OW29947   5.128   6.604   6.155
 9683SOL    HW129948   5.079   6.620   6.241
 9683SOL    HW229949   5.223   6.634   6.166
 9684SOL     OW29950   1.087   4.401   3.462
 9684SOL    HW129951   1.109   4.398   3.559
 9684SOL    HW229952   1.118   4.488   3.423
 9685SOL     OW29953   2.105   2.258   6.899
 9685SOL    HW129954   2.050   2.238   6.818
 9685SOL    HW229955   2.096   2.355   6.922
 9686SOL     OW29956   5.373   1.854   1.647
 9686SOL    HW129957   5.293   1.797   1.667
 9686SOL    HW229958   5.352   1.915   1.571
 9687SOL     OW29959   3.733   1.356   4.548
 9687SOL    HW129960   3.753   1.444   4.591
 9687SOL    HW229961   3.634   1.347   4.536
 9688SOL     OW29962   6.542   2.010   4.028
 9688SOL    HW129963   6.519   1.921   3.989
 9688SOL    HW229964   6.476   2.078   3.997
 9689SOL     OW29965   2.054   5.983   5.805
 9689SOL    HW129966   2.111   5.950   5.730
 9689SOL    HW229967   1.970   6.022   5.767
 9690SOL     OW29968   5.883   3.781   0.430
 9690SOL    HW129969   5.916   3.766   0.337
 9690SOL    HW229970   5.927   3.717   0.493
 9691SOL     OW29971   1.508   4.486   0.946
 9691SOL    HW129972   1.593   4.437   0.968
 9691SOL    HW229973   1.504   4.503   0.847
 9692SOL     OW29974   2.938   5.829   0.830
 9692SOL    HW129975   2.953   5.750   0.890
 9692SOL    HW229976   2.839   5.843   0.818
 9693SOL     OW29977   6.078   5.632   1.511
 9693SOL    HW129978   5.992   5.645   1.561
 9693SOL    HW229979   6.134   5.714   1.522
 9694SOL     OW29980   1.095   1.976   0.546
 9694SOL    HW129981   1.149   2.026   0.613
 9694SOL    HW229982   0.998   2.001   0.556
 9695SOL     OW29983   6.585   4.452   0.649
 9695SOL    HW129984   6.685   4.448   0.650
 9695SOL    HW229985   6.553   4.471   0.557
 9696SOL     OW29986   3.736   4.337   0.752
 9696SOL    HW129987   3.673   4.363   0.679
 9696SOL    HW229988   3.693   4.353   0.841
 9697SOL     OW29989   0.597   5.911   5.848
 9697SOL    HW129990   0.611   5.882   5.753
 9697SOL    HW229991   0.539   5.844   5.895
 9698SOL     OW29992   5.018   1.223   5.294
 9698SOL    HW129993   4.930   1.255   5.258
 9698SOL    HW229994   5.051   1.288   5.363
 9699SOL     OW29995   2.348   2.897   0.001
 9699SOL    HW129996   2.306   2.979   6.985
 9699SOL    HW229997   2.277   2.831   0.024
 9700SOL     OW29998   3.698   4.086   3.585
 9700SOL    HW129999   3.633   4.090   3.509
 9700SOL    HW230000   3.750   4.001   3.581
 9701SOL     OW30001   4.756   4.238   4.794
 9701SOL    HW130002   4.672   4.293   4.800
 9701SOL    HW230003   4.768   4.206   4.700
 9702SOL     OW30004   4.988   0.336   0.738
 9702SOL    HW130005   5.077   0.336   0.782
 9702SOL    HW230006   4.950   0.243   0.737
 9703SOL     OW30007   2.883   6.019   3.957
 9703SOL    HW130008   2.974   5.983   3.938
 9703SOL    HW230009   2.839   6.047   3.871
 9704SOL     OW30010   2.609   1.349   3.694
 9704SOL    HW130011   2.668   1.333   3.615
 9704SOL    HW230012   2.578   1.444   3.694
 9705SOL     OW30013   3.728   3.719   1.039
 9705SOL    HW130014   3.714   3.655   0.964
 9705SOL    HW230015   3.658   3.790   1.036
 9706SOL     OW30016   6.561   2.725   3.717
 9706SOL    HW130017   6.643   2.674   3.741
 9706SOL    HW230018   6.501   2.667   3.661
 9707SOL     OW30019   2.286   5.219   3.006
 9707SOL    HW130020   2.204   5.226   3.063
 9707SOL    HW230021   2.362   5.266   3.050
 9708SOL     OW30022   1.702   1.913   2.179
 9708SOL    HW130023   1.623   1.876   2.130
 9708SOL    HW230024   1.785   1.897   2.126
 9709SOL     OW30025   1.706   5.405   3.096
 9709SOL    HW130026   1.705   5.497   3.137
 9709SOL    HW230027   1.681   5.412   2.999
 9710SOL     OW30028   0.517   0.439   4.006
 9710SOL    HW130029   0.495   0.536   4.006
 9710SOL    HW230030   0.478   0.396   4.087
 9711SOL     OW30031   1.770   3.316   6.347
 9711SOL    HW130032   1.717   3.393   6.383
 9711SOL    HW230033   1.792   3.254   6.422
 9712SOL     OW30034   4.926   3.244   4.631
 9712SOL    HW130035   4.964   3.285   4.549
 9712SOL    HW230036   4.871   3.164   4.606
 9713SOL     OW30037   7.001   5.279   2.409
 9713SOL    HW130038   6.982   5.307   2.503
 9713SOL    HW230039   6.988   5.356   2.347
 9714SOL     OW30040   1.810   2.286   2.351
 9714SOL    HW130041   1.785   2.266   2.256
 9714SOL    HW230042   1.894   2.339   2.352
 9715SOL     OW30043   6.133   5.403   5.729
 9715SOL    HW130044   6.145   5.493   5.771
 9715SOL    HW230045   6.053   5.404   5.669
 9716SOL     OW30046   3.609   1.318   5.740
 9716SOL    HW130047   3.684   1.325   5.675
 9716SOL    HW230048   3.645   1.301   5.832
 9717SOL     OW30049   5.761   5.705   3.407
 9717SOL    HW130050   5.769   5.790   3.459
 9717SOL    HW230051   5.753   5.628   3.471
 9718SOL     OW30052   4.681   3.236   1.672
 9718SOL    HW130053   4.639   3.158   1.718
 9718SOL    HW230054   4.727   3.205   1.589
 9719SOL     OW30055   0.314   1.595   0.521
 9719SOL    HW130056   0.408   1.568   0.500
 9719SOL    HW230057   0.312   1.647   0.606
 9720SOL     OW30058   0.876   0.154   0.663
 9720SOL    HW130059   0.950   0.158   0.596
 9720SOL    HW230060   0.874   0.239   0.716
 9721SOL     OW30061   0.034   2.567   3.400
 9721SOL    HW130062   6.959   2.550   3.395
 9721SOL    HW230063   0.074   2.551   3.310
 9722SOL     OW30064   6.938   0.212   4.417
 9722SOL    HW130065   6.909   0.307   4.429
 9722SOL    HW230066   6.857   0.155   4.400
 9723SOL     OW30067   6.580   1.237   3.625
 9723SOL    HW130068   6.614   1.208   3.535
 9723SOL    HW230069   6.510   1.172   3.656
 9724SOL     OW30070   3.636   2.570   1.013
 9724SOL    HW130071   3.638   2.480   1.057
 9724SOL    HW230072   3.720   2.583   0.960
 9725SOL     OW30073   4.012   3.371   5.779
 9725SOL    HW130074   3.970   3.420   5.703
 9725SOL    HW230075   3.977   3.407   5.865
 9726SOL     OW30076   5.855   5.913   4.259
 9726SOL    HW130077   5.857   5.827   4.311
 9726SOL    HW230078   5.948   5.934   4.228
 9727SOL     OW30079   1.861   0.837   0.382
 9727SOL    HW130080   1.898   0.901   0.315
 9727SOL    HW230081   1.917   0.839   0.465
 9728SOL     OW30082   3.167   5.653   0.050
 9728SOL    HW130083   3.148   5.722   0.120
 9728SOL    HW230084   3.089   5.590   0.044
 9729SOL     OW30085   3.000   5.220   2.121
 9729SOL    HW130086   3.010   5.153   2.048
 9729SOL    HW230087   3.084   5.223   2.175
 9730SOL     OW30088   5.784   3.518   3.117
 9730SOL    HW130089   5.836   3.434   3.102
 9730SOL    HW230090   5.689   3.504   3.091
 9731SOL     OW30091   5.098   5.468   1.195
 9731SOL    HW130092   5.140   5.550   1.156
 9731SOL    HW230093   5.019   5.441   1.140
 9732SOL     OW30094   5.931   6.140   3.964
 9732SOL    HW130095   5.961   6.047   3.983
 9732SOL    HW230096   5.941   6.196   4.045
 9733SOL     OW30097   5.524   4.712   6.129
 9733SOL    HW130098   5.539   4.810   6.116
 9733SOL    HW230099   5.513   4.669   6.039
 9734SOL     OW30100   5.717   2.152   5.674
 9734SOL    HW130101   5.778   2.230   5.686
 9734SOL    HW230102   5.622   2.181   5.685
 9735SOL     OW30103   3.199   4.258   0.577
 9735SOL    HW130104   3.222   4.176   0.630
 9735SOL    HW230105   3.252   4.259   0.492
 9736SOL     OW30106   3.553   1.826   1.882
 9736SOL    HW130107   3.593   1.803   1.794
 9736SOL    HW230108   3.528   1.923   1.884
 9737SOL     OW30109   4.216   2.285   4.838
 9737SOL    HW130110   4.201   2.336   4.924
 9737SOL    HW230111   4.165   2.199   4.842
 9738SOL     OW30112   2.568   0.625   2.147
 9738SOL    HW130113   2.490   0.654   2.093
 9738SOL    HW230114   2.623   0.705   2.173
 9739SOL     OW30115   5.718   4.375   1.682
 9739SOL    HW130116   5.727   4.373   1.781
 9739SOL    HW230117   5.655   4.302   1.653
 9740SOL     OW30118   6.824   3.811   3.188
 9740SOL    HW130119   6.905   3.785   3.241
 9740SOL    HW230120   6.819   3.757   3.104
 9741SOL     OW30121   4.118   1.594   1.955
 9741SOL    HW130122   4.039   1.653   1.970
 9741SOL    HW230123   4.159   1.569   2.043
 9742SOL     OW30124   4.484   1.563   3.571
 9742SOL    HW130125   4.389   1.565   3.603
 9742SOL    HW230126   4.528   1.479   3.603
 9743SOL     OW30127   1.289   1.740   5.533
 9743SOL    HW130128   1.190   1.750   5.525
 9743SOL    HW230129   1.325   1.699   5.449
 9744SOL     OW30130   2.214   0.418   1.767
 9744SOL    HW130131   2.149   0.364   1.821
 9744SOL    HW230132   2.250   0.493   1.822
 9745SOL     OW30133   0.852   1.052   4.823
 9745SOL    HW130134   0.825   1.023   4.915
 9745SOL    HW230135   0.950   1.035   4.811
 9746SOL     OW30136   6.412   0.872   4.041
 9746SOL    HW130137   6.334   0.934   4.029
 9746SOL    HW230138   6.448   0.881   4.133
 9747SOL     OW30139   0.374   0.411   6.603
 9747SOL    HW130140   0.278   0.432   6.587
 9747SOL    HW230141   0.399   0.436   6.696
 9748SOL     OW30142   0.929   4.689   3.992
 9748SOL    HW130143   0.947   4.591   3.980
 9748SOL    HW230144   0.963   4.718   4.082
 9749SOL     OW30145   0.497   5.008   4.272
 9749SOL    HW130146   0.570   4.962   4.221
 9749SOL    HW230147   0.517   5.105   4.279
 9750SOL     OW30148   3.091   5.351   2.590
 9750SOL    HW130149   3.020   5.298   2.543
 9750SOL    HW230150   3.131   5.295   2.663
 9751SOL     OW30151   1.723   2.816   0.780
 9751SOL    HW130152   1.759   2.889   0.722
 9751SOL    HW230153   1.790   2.742   0.787
 9752SOL     OW30154   4.112   1.005   5.825
 9752SOL    HW130155   4.148   1.002   5.732
 9752SOL    HW230156   4.135   0.920   5.872
 9753SOL     OW30157   0.162   6.464   6.608
 9753SOL    HW130158   0.224   6.541   6.623
 9753SOL    HW230159   0.186   6.418   6.523
 9754SOL     OW30160   0.266   3.012   6.433
 9754SOL    HW130161   0.236   3.089   6.489
 9754SOL    HW230162   0.274   2.930   6.489
 9755SOL     OW30163   3.569   5.421   5.896
 9755SOL    HW130164   3.545   5.506   5.943
 9755SOL    HW230165   3.486   5.377   5.863
 9756SOL     OW30166   5.202   2.601   5.747
 9756SOL    HW130167   5.142   2.594   5.667
 9756SOL    HW230168   5.269   2.527   5.745
 9757SOL     OW30169   6.470   0.977   3.707
 9757SOL    HW130170   6.439   0.950   3.798
 9757SOL    HW230171   6.531   0.907   3.671
 9758SOL     OW30172   3.050   0.874   6.912
 9758SOL    HW130173   2.973   0.811   6.912
 9758SOL    HW230174   3.049   0.928   6.996
 9759SOL     OW30175   3.288   5.968   1.447
 9759SOL    HW130176   3.245   5.915   1.374
 9759SOL    HW230177   3.376   5.927   1.471
 9760SOL     OW30178   5.900   4.632   5.968
 9760SOL    HW130179   5.819   4.690   5.960
 9760SOL    HW230180   5.911   4.604   6.064
 9761SOL     OW30181   5.347   5.219   2.822
 9761SOL    HW130182   5.431   5.170   2.848
 9761SOL    HW230183   5.285   5.224   2.900
 9762SOL     OW30184   3.260   0.926   3.029
 9762SOL    HW130185   3.197   0.864   3.076
 9762SOL    HW230186   3.261   1.014   3.077
 9763SOL     OW30187   2.065   1.667   2.234
 9763SOL    HW130188   1.999   1.673   2.160
 9763SOL    HW230189   2.018   1.643   2.319
 9764SOL     OW30190   1.164   2.401   2.372
 9764SOL    HW130191   1.112   2.470   2.422
 9764SOL    HW230192   1.117   2.378   2.287
 9765SOL     OW30193   0.260   0.944   5.308
 9765SOL    HW130194   0.182   0.968   5.249
 9765SOL    HW230195   0.342   0.936   5.251
 9766SOL     OW30196   2.173   0.522   2.913
 9766SOL    HW130197   2.230   0.489   2.988
 9766SOL    HW230198   2.171   0.622   2.915
 9767SOL     OW30199   5.016   0.231   5.339
 9767SOL    HW130200   4.977   0.141   5.317
 9767SOL    HW230201   5.042   0.233   5.436
 9768SOL     OW30202   5.057   2.591   4.285
 9768SOL    HW130203   5.046   2.643   4.200
 9768SOL    HW230204   5.113   2.644   4.349
 9769SOL     OW30205   0.256   1.394   1.226
 9769SOL    HW130206   0.308   1.471   1.263
 9769SOL    HW230207   0.168   1.427   1.191
 9770SOL     OW30208   0.221   2.981   5.530
 9770SOL    HW130209   0.171   3.066   5.517
 9770SOL    HW230210   0.249   2.944   5.441
 9771SOL     OW30211   2.969   5.437   3.690
 9771SOL    HW130212   3.021   5.378   3.752
 9771SOL    HW230213   2.879   5.456   3.730
 9772SOL     OW30214   5.941   6.532   0.843
 9772SOL    HW130215   6.021   6.579   0.880
 9772SOL    HW230216   5.860   6.555   0.897
 9773SOL     OW30217   4.862   5.101   3.746
 9773SOL    HW130218   4.770   5.108   3.708
 9773SOL    HW230219   4.868   5.021   3.806
 9774SOL     OW30220   7.009   5.041   4.413
 9774SOL    HW130221   6.988   5.110   4.483
 9774SOL    HW230222   6.924   5.009   4.371
 9775SOL     OW30223   2.798   2.290   4.637
 9775SOL    HW130224   2.877   2.342   4.604
 9775SOL    HW230225   2.813   2.265   4.733
 9776SOL     OW30226   0.392   4.788   4.022
 9776SOL    HW130227   0.406   4.851   4.098
 9776SOL    HW230228   0.329   4.829   3.956
 9777SOL     OW30229   5.605   5.283   6.057
 9777SOL    HW130230   5.531   5.319   6.001
 9777SOL    HW230231   5.657   5.359   6.097
 9778SOL     OW30232   3.686   0.693   4.694
 9778SOL    HW130233   3.719   0.752   4.620
 9778SOL    HW230234   3.590   0.714   4.714
 9779SOL     OW30235   3.019   2.146   6.779
 9779SOL    HW130236   2.959   2.208   6.829
 9779SOL    HW230237   3.114   2.163   6.805
 9780SOL     OW30238   2.610   4.232   0.517
 9780SOL    HW130239   2.708   4.224   0.536
 9780SOL    HW230240   2.597   4.291   0.437
 9781SOL     OW30241   1.442   6.723   4.370
 9781SOL    HW130242   1.491   6.678   4.445
 9781SOL    HW230243   1.348   6.740   4.397
 9782SOL     OW30244   5.686   0.255   0.320
 9782SOL    HW130245   5.595   0.296   0.321
 9782SOL    HW230246   5.711   0.227   0.412
 9783SOL     OW30247   6.027   0.421   3.218
 9783SOL    HW130248   6.033   0.510   3.263
 9783SOL    HW230249   6.007   0.351   3.287
 9784SOL     OW30250   5.766   0.443   4.469
 9784SOL    HW130251   5.794   0.441   4.372
 9784SOL    HW230252   5.843   0.414   4.526
 9785SOL     OW30253   0.488   2.992   1.413
 9785SOL    HW130254   0.390   2.989   1.430
 9785SOL    HW230255   0.537   2.959   1.494
 9786SOL     OW30256   2.704   6.922   4.552
 9786SOL    HW130257   2.772   6.994   4.536
 9786SOL    HW230258   2.613   6.962   4.545
 9787SOL     OW30259   6.302   4.187   1.344
 9787SOL    HW130260   6.339   4.110   1.396
 9787SOL    HW230261   6.209   4.206   1.374
 9788SOL     OW30262   6.553   1.120   5.527
 9788SOL    HW130263   6.524   1.035   5.570
 9788SOL    HW230264   6.630   1.102   5.466
 9789SOL     OW30265   1.904   5.375   4.760
 9789SOL    HW130266   1.928   5.288   4.718
 9789SOL    HW230267   1.894   5.445   4.690
 9790SOL     OW30268   6.706   1.208   3.390
 9790SOL    HW130269   6.722   1.141   3.318
 9790SOL    HW230270   6.792   1.233   3.433
 9791SOL     OW30271   1.283   2.197   1.204
 9791SOL    HW130272   1.236   2.156   1.127
 9791SOL    HW230273   1.370   2.151   1.219
 9792SOL     OW30274   3.522   5.882   2.307
 9792SOL    HW130275   3.600   5.820   2.303
 9792SOL    HW230276   3.471   5.876   2.221
 9793SOL     OW30277   5.387   5.909   2.390
 9793SOL    HW130278   5.390   5.988   2.452
 9793SOL    HW230279   5.480   5.877   2.373
 9794SOL     OW30280   3.284   3.430   6.714
 9794SOL    HW130281   3.290   3.330   6.708
 9794SOL    HW230282   3.370   3.470   6.683
 9795SOL     OW30283   2.179   5.144   3.429
 9795SOL    HW130284   2.105   5.118   3.492
 9795SOL    HW230285   2.203   5.066   3.372
 9796SOL     OW30286   3.675   4.882   0.592
 9796SOL    HW130287   3.727   4.828   0.525
 9796SOL    HW230288   3.734   4.902   0.670
 9797SOL     OW30289   5.368   3.167   4.924
 9797SOL    HW130290   5.298   3.115   4.875
 9797SOL    HW230291   5.337   3.262   4.934
 9798SOL     OW30292   2.574   1.766   1.758
 9798SOL    HW130293   2.561   1.853   1.711
 9798SOL    HW230294   2.622   1.782   1.844
 9799SOL     OW30295   3.188   4.082   2.446
 9799SOL    HW130296   3.172   4.002   2.504
 9799SOL    HW230297   3.124   4.155   2.472
 9800SOL     OW30298   3.963   5.370   0.480
 9800SOL    HW130299   3.867   5.343   0.472
 9800SOL    HW230300   3.984   5.395   0.575
 9801SOL     OW30301   4.879   5.369   1.029
 9801SOL    HW130302   4.882   5.348   0.931
 9801SOL    HW230303   4.885   5.285   1.082
 9802SOL     OW30304   0.576   5.406   1.701
 9802SOL    HW130305   0.479   5.407   1.677
 9802SOL    HW230306   0.624   5.477   1.649
 9803SOL     OW30307   4.929   0.342   6.368
 9803SOL    HW130308   4.842   0.299   6.393
 9803SOL    HW230309   5.005   0.290   6.407
 9804SOL     OW30310   4.835   5.444   4.199
 9804SOL    HW130311   4.903   5.511   4.168
 9804SOL    HW230312   4.769   5.427   4.126
 9805SOL     OW30313   3.413   3.798   1.061
 9805SOL    HW130314   3.422   3.763   1.154
 9805SOL    HW230315   3.377   3.726   1.001
 9806SOL     OW30316   6.990   1.685   2.616
 9806SOL    HW130317   0.016   1.726   2.539
 9806SOL    HW230318   7.023   1.592   2.632
 9807SOL     OW30319   2.152   3.525   0.893
 9807SOL    HW130320   2.249   3.518   0.917
 9807SOL    HW230321   2.106   3.584   0.959
 9808SOL     OW30322   1.757   2.042   4.060
 9808SOL    HW130323   1.695   2.035   4.138
 9808SOL    HW230324   1.829   2.108   4.081
 9809SOL     OW30325   0.613   0.831   4.230
 9809SOL    HW130326   0.698   0.800   4.187
 9809SOL    HW230327   0.628   0.843   4.328
 9810SOL     OW30328   4.217   1.699   2.436
 9810SOL    HW130329   4.188   1.651   2.353
 9810SOL    HW230330   4.167   1.785   2.444
 9811SOL     OW30331   1.336   0.207   2.723
 9811SOL    HW130332   1.376   0.278   2.780
 9811SOL    HW230333   1.295   0.137   2.781
 9812SOL     OW30334   5.915   3.165   5.953
 9812SOL    HW130335   5.906   3.155   6.052
 9812SOL    HW230336   5.902   3.261   5.928
 9813SOL     OW30337   6.473   4.017   0.542
 9813SOL    HW130338   6.412   3.976   0.474
 9813SOL    HW230339   6.423   4.086   0.593
 9814SOL     OW30340   6.635   0.640   5.622
 9814SOL    HW130341   6.698   0.665   5.695
 9814SOL    HW230342   6.598   0.723   5.580
 9815SOL     OW30343   6.704   4.304   2.499
 9815SOL    HW130344   6.706   4.267   2.406
 9815SOL    HW230345   6.797   4.308   2.535
 9816SOL     OW30346   6.048   1.242   5.519
 9816SOL    HW130347   6.055   1.232   5.618
 9816SOL    HW230348   6.024   1.154   5.478
 9817SOL     OW30349   2.606   1.199   0.508
 9817SOL    HW130350   2.663   1.209   0.426
 9817SOL    HW230351   2.632   1.115   0.556
 9818SOL     OW30352   0.343   6.729   2.172
 9818SOL    HW130353   0.433   6.742   2.213
 9818SOL    HW230354   0.316   6.633   2.181
 9819SOL     OW30355   6.455   1.997   4.551
 9819SOL    HW130356   6.543   2.025   4.587
 9819SOL    HW230357   6.385   2.063   4.579
 9820SOL     OW30358   4.111   1.198   6.195
 9820SOL    HW130359   4.050   1.265   6.238
 9820SOL    HW230360   4.200   1.199   6.240
 9821SOL     OW30361   4.513   3.422   0.127
 9821SOL    HW130362   4.461   3.399   0.045
 9821SOL    HW230363   4.602   3.460   0.101
 9822SOL     OW30364   3.527   5.029   4.253
 9822SOL    HW130365   3.617   5.046   4.294
 9822SOL    HW230366   3.478   5.116   4.244
 9823SOL     OW30367   4.266   6.562   3.332
 9823SOL    HW130368   4.345   6.526   3.284
 9823SOL    HW230369   4.258   6.660   3.315
 9824SOL     OW30370   1.363   5.887   5.060
 9824SOL    HW130371   1.275   5.849   5.031
 9824SOL    HW230372   1.421   5.813   5.093
 9825SOL     OW30373   0.499   6.300   4.818
 9825SOL    HW130374   0.426   6.257   4.871
 9825SOL    HW230375   0.579   6.241   4.816
 9826SOL     OW30376   1.786   5.615   6.688
 9826SOL    HW130377   1.862   5.654   6.740
 9826SOL    HW230378   1.810   5.614   6.591
 9827SOL     OW30379   1.853   4.637   1.380
 9827SOL    HW130380   1.935   4.582   1.402
 9827SOL    HW230381   1.880   4.732   1.366
 9828SOL     OW30382   4.539   2.311   4.755
 9828SOL    HW130383   4.469   2.240   4.768
 9828SOL    HW230384   4.552   2.325   4.657
 9829SOL     OW30385   5.163   4.522   5.869
 9829SOL    HW130386   5.230   4.480   5.930
 9829SOL    HW230387   5.165   4.621   5.878
 9830SOL     OW30388   6.221   1.245   3.578
 9830SOL    HW130389   6.216   1.312   3.652
 9830SOL    HW230390   6.301   1.187   3.592
 9831SOL     OW30391   0.037   4.567   1.634
 9831SOL    HW130392   0.068   4.493   1.694
 9831SOL    HW230393   0.071   4.654   1.669
 9832SOL     OW30394   4.914   5.589   4.881
 9832SOL    HW130395   5.010   5.578   4.854
 9832SOL    HW230396   4.866   5.642   4.812
 9833SOL     OW30397   3.620   3.294   4.880
 9833SOL    HW130398   3.657   3.213   4.924
 9833SOL    HW230399   3.679   3.322   4.805
 9834SOL     OW30400   3.043   5.778   5.945
 9834SOL    HW130401   3.122   5.788   6.005
 9834SOL    HW230402   3.031   5.862   5.892
 9835SOL     OW30403   3.790   3.227   3.967
 9835SOL    HW130404   3.850   3.303   3.992
 9835SOL    HW230405   3.844   3.144   3.954
 9836SOL     OW30406   6.693   3.343   5.241
 9836SOL    HW130407   6.631   3.389   5.304
 9836SOL    HW230408   6.745   3.411   5.190
 9837SOL     OW30409   6.659   0.828   3.592
 9837SOL    HW130410   6.701   0.741   3.619
 9837SOL    HW230411   6.727   0.900   3.596
 9838SOL     OW30412   0.277   5.468   0.664
 9838SOL    HW130413   0.195   5.516   0.693
 9838SOL    HW230414   0.316   5.419   0.742
 9839SOL     OW30415   4.550   6.282   3.320
 9839SOL    HW130416   4.551   6.376   3.284
 9839SOL    HW230417   4.568   6.285   3.419
 9840SOL     OW30418   6.489   1.860   6.915
 9840SOL    HW130419   6.499   1.761   6.929
 9840SOL    HW230420   6.500   1.907   7.003
 9841SOL     OW30421   0.091   6.256   2.164
 9841SOL    HW130422   0.001   6.212   2.158
 9841SOL    HW230423   0.154   6.208   2.103
 9842SOL     OW30424   3.883   0.517   0.539
 9842SOL    HW130425   3.969   0.471   0.517
 9842SOL    HW230426   3.900   0.586   0.609
 9843SOL     OW30427   0.368   0.493   0.620
 9843SOL    HW130428   0.453   0.535   0.589
 9843SOL    HW230429   0.315   0.560   0.672
 9844SOL     OW30430   5.038   0.129   4.865
 9844SOL    HW130431   5.105   0.106   4.795
 9844SOL    HW230432   5.085   0.152   4.950
 9845SOL     OW30433   1.027   3.817   2.310
 9845SOL    HW130434   1.006   3.877   2.233
 9845SOL    HW230435   1.093   3.861   2.370
 9846SOL     OW30436   5.222   2.317   2.574
 9846SOL    HW130437   5.308   2.274   2.602
 9846SOL    HW230438   5.218   2.409   2.613
 9847SOL     OW30439   3.882   4.170   6.919
 9847SOL    HW130440   3.795   4.132   6.888
 9847SOL    HW230441   3.867   4.222   7.003
 9848SOL     OW30442   2.938   4.631   5.569
 9848SOL    HW130443   2.882   4.550   5.587
 9848SOL    HW230444   2.995   4.615   5.488
 9849SOL     OW30445   2.263   2.357   3.168
 9849SOL    HW130446   2.348   2.390   3.210
 9849SOL    HW230447   2.243   2.411   3.086
 9850SOL     OW30448   0.953   0.187   4.510
 9850SOL    HW130449   0.895   0.148   4.438
 9850SOL    HW230450   0.899   0.246   4.569
 9851SOL     OW30451   3.298   5.427   3.757
 9851SOL    HW130452   3.264   5.437   3.850
 9851SOL    HW230453   3.351   5.508   3.732
 9852SOL     OW30454   1.991   6.725   0.210
 9852SOL    HW130455   2.000   6.701   0.306
 9852SOL    HW230456   2.052   6.801   0.189
 9853SOL     OW30457   0.195   4.262   4.069
 9853SOL    HW130458   0.224   4.311   3.987
 9853SOL    HW230459   0.275   4.229   4.119
 9854SOL     OW30460   6.427   3.405   6.745
 9854SOL    HW130461   6.360   3.379   6.676
 9854SOL    HW230462   6.513   3.357   6.729
 9855SOL     OW30463   1.082   5.964   6.893
 9855SOL    HW130464   1.118   6.012   6.813
 9855SOL    HW230465   1.157   5.927   6.947
 9856SOL     OW30466   5.394   3.786   3.604
 9856SOL    HW130467   5.386   3.828   3.514
 9856SOL    HW230468   5.489   3.760   3.621
 9857SOL     OW30469   5.033   0.386   5.877
 9857SOL    HW130470   5.072   0.463   5.928
 9857SOL    HW230471   4.978   0.330   5.939
 9858SOL     OW30472   6.723   5.435   2.442
 9858SOL    HW130473   6.815   5.470   2.421
 9858SOL    HW230474   6.687   5.388   2.362
 9859SOL     OW30475   0.916   4.959   2.568
 9859SOL    HW130476   1.002   5.008   2.568
 9859SOL    HW230477   0.904   4.912   2.481
 9860SOL     OW30478   1.621   3.640   3.959
 9860SOL    HW130479   1.577   3.690   4.033
 9860SOL    HW230480   1.599   3.682   3.872
 9861SOL     OW30481   3.205   1.632   3.757
 9861SOL    HW130482   3.176   1.542   3.788
 9861SOL    HW230483   3.230   1.627   3.660
 9862SOL     OW30484   1.816   3.130   6.619
 9862SOL    HW130485   1.749   3.058   6.602
 9862SOL    HW230486   1.790   3.179   6.703
 9863SOL     OW30487   4.118   6.830   1.984
 9863SOL    HW130488   4.116   6.751   1.923
 9863SOL    HW230489   4.111   6.799   2.079
 9864SOL     OW30490   3.008   6.332   5.434
 9864SOL    HW130491   3.024   6.254   5.372
 9864SOL    HW230492   2.910   6.354   5.433
 9865SOL     OW30493   2.353   6.295   5.771
 9865SOL    HW130494   2.283   6.295   5.842
 9865SOL    HW230495   2.441   6.323   5.811
 9866SOL     OW30496   6.926   5.370   6.538
 9866SOL    HW130497   6.856   5.338   6.475
 9866SOL    HW230498   7.008   5.398   6.487
 9867SOL     OW30499   4.753   1.153   2.209
 9867SOL    HW130500   4.757   1.090   2.131
 9867SOL    HW230501   4.798   1.239   2.185
 9868SOL     OW30502   2.654   4.683   3.657
 9868SOL    HW130503   2.603   4.688   3.571
 9868SOL    HW230504   2.594   4.652   3.730
 9869SOL     OW30505   6.378   2.600   2.999
 9869SOL    HW130506   6.395   2.534   2.926
 9869SOL    HW230507   6.369   2.552   3.086
 9870SOL     OW30508   1.943   2.336   3.084
 9870SOL    HW130509   1.981   2.244   3.073
 9870SOL    HW230510   1.843   2.330   3.086
 9871SOL     OW30511   5.779   6.056   3.040
 9871SOL    HW130512   5.738   6.033   3.129
 9871SOL    HW230513   5.796   5.973   2.988
 9872SOL     OW30514   0.709   6.343   5.801
 9872SOL    HW130515   0.683   6.439   5.813
 9872SOL    HW230516   0.804   6.339   5.768
 9873SOL     OW30517   0.427   0.794   5.062
 9873SOL    HW130518   0.385   0.744   4.987
 9873SOL    HW230519   0.482   0.732   5.117
 9874SOL     OW30520   0.275   1.996   3.577
 9874SOL    HW130521   0.223   1.964   3.656
 9874SOL    HW230522   0.240   1.953   3.494
 9875SOL     OW30523   6.455   6.284   0.971
 9875SOL    HW130524   6.525   6.244   0.912
 9875SOL    HW230525   6.432   6.220   1.044
 9876SOL     OW30526   0.154   6.968   3.768
 9876SOL    HW130527   0.097   6.901   3.721
 9876SOL    HW230528   0.220   6.920   3.826
 9877SOL     OW30529   1.192   6.104   5.195
 9877SOL    HW130530   1.203   6.172   5.267
 9877SOL    HW230531   1.098   6.070   5.194
 9878SOL     OW30532   3.858   2.234   6.861
 9878SOL    HW130533   3.828   2.142   6.837
 9878SOL    HW230534   3.798   2.302   6.818
 9879SOL     OW30535   5.674   6.161   4.184
 9879SOL    HW130536   5.740   6.092   4.211
 9879SOL    HW230537   5.681   6.179   4.086
 9880SOL     OW30538   3.737   1.156   0.928
 9880SOL    HW130539   3.713   1.253   0.932
 9880SOL    HW230540   3.822   1.140   0.979
 9881SOL     OW30541   6.174   0.100   3.330
 9881SOL    HW130542   6.107   0.156   3.380
 9881SOL    HW230543   6.230   0.160   3.272
 9882SOL     OW30544   3.488   3.145   4.693
 9882SOL    HW130545   3.419   3.203   4.649
 9882SOL    HW230546   3.519   3.189   4.778
 9883SOL     OW30547   1.805   6.187   2.589
 9883SOL    HW130548   1.797   6.091   2.563
 9883SOL    HW230549   1.893   6.222   2.559
 9884SOL     OW30550   3.194   2.623   5.437
 9884SOL    HW130551   3.235   2.561   5.370
 9884SOL    HW230552   3.100   2.597   5.454
 9885SOL     OW30553   4.762   2.405   5.670
 9885SOL    HW130554   4.807   2.367   5.589
 9885SOL    HW230555   4.718   2.492   5.646
 9886SOL     OW30556   2.465   6.236   1.445
 9886SOL    HW130557   2.527   6.241   1.523
 9886SOL    HW230558   2.512   6.190   1.369
 9887SOL     OW30559   3.323   1.145   0.035
 9887SOL    HW130560   3.306   1.068   6.997
 9887SOL    HW230561   3.419   1.145   0.062
 9888SOL     OW30562   6.843   6.230   3.540
 9888SOL    HW130563   6.796   6.287   3.473
 9888SOL    HW230564   6.790   6.227   3.625
 9889SOL     OW30565   6.125   6.137   2.523
 9889SOL    HW130566   6.062   6.065   2.496
 9889SOL    HW230567   6.102   6.169   2.615
 9890SOL     OW30568   1.860   2.980   2.761
 9890SOL    HW130569   1.800   2.907   2.793
 9890SOL    HW230570   1.934   2.941   2.707
 9891SOL     OW30571   4.474   6.895   1.673
 9891SOL    HW130572   4.385   6.859   1.647
 9891SOL    HW230573   4.529   6.911   1.590
 9892SOL     OW30574   1.905   6.361   3.109
 9892SOL    HW130575   1.805   6.365   3.105
 9892SOL    HW230576   1.933   6.334   3.201
 9893SOL     OW30577   5.777   4.488   5.613
 9893SOL    HW130578   5.818   4.437   5.689
 9893SOL    HW230579   5.739   4.423   5.547
 9894SOL     OW30580   3.943   3.931   5.455
 9894SOL    HW130581   3.855   3.976   5.474
 9894SOL    HW230582   4.009   3.999   5.426
 9895SOL     OW30583   5.405   2.240   6.368
 9895SOL    HW130584   5.352   2.325   6.368
 9895SOL    HW230585   5.496   2.257   6.331
 9896SOL     OW30586   3.985   3.810   0.183
 9896SOL    HW130587   3.976   3.887   0.245
 9896SOL    HW230588   3.937   3.731   0.221
 9897SOL     OW30589   0.747   1.615   2.683
 9897SOL    HW130590   0.707   1.564   2.607
 9897SOL    HW230591   0.749   1.557   2.765
 9898SOL     OW30592   0.727   4.968   0.423
 9898SOL    HW130593   0.654   4.903   0.402
 9898SOL    HW230594   0.816   4.925   0.406
 9899SOL     OW30595   4.103   5.623   2.376
 9899SOL    HW130596   4.060   5.712   2.361
 9899SOL    HW230597   4.032   5.554   2.393
 9900SOL     OW30598   2.598   5.076   4.186
 9900SOL    HW130599   2.534   5.000   4.198
 9900SOL    HW230600   2.662   5.054   4.112
 9901SOL     OW30601   2.509   1.699   5.972
 9901SOL    HW130602   2.605   1.708   5.945
 9901SOL    HW230603   2.455   1.768   5.924
 9902SOL     OW30604   3.991   3.900   6.933
 9902SOL    HW130605   3.944   3.988   6.929
 9902SOL    HW230606   3.998   3.870   0.005
 9903SOL     OW30607   3.197   1.518   1.298
 9903SOL    HW130608   3.270   1.450   1.288
 9903SOL    HW230609   3.121   1.494   1.238
 9904SOL     OW30610   6.691   6.060   2.303
 9904SOL    HW130611   6.693   6.139   2.363
 9904SOL    HW230612   6.597   6.031   2.289
 9905SOL     OW30613   2.583   7.016   6.266
 9905SOL    HW130614   2.545   0.021   6.178
 9905SOL    HW230615   2.673   6.974   6.251
 9906SOL     OW30616   3.482   4.585   6.040
 9906SOL    HW130617   3.430   4.625   6.115
 9906SOL    HW230618   3.578   4.577   6.067
 9907SOL     OW30619   0.906   6.410   3.219
 9907SOL    HW130620   0.983   6.473   3.212
 9907SOL    HW230621   0.876   6.383   3.128
 9908SOL     OW30622   6.586   2.855   5.278
 9908SOL    HW130623   6.630   2.824   5.363
 9908SOL    HW230624   6.490   2.829   5.278
 9909SOL     OW30625   2.961   6.901   2.682
 9909SOL    HW130626   2.888   6.968   2.695
 9909SOL    HW230627   3.018   6.897   2.764
 9910SOL     OW30628   0.905   5.824   0.329
 9910SOL    HW130629   0.979   5.890   0.320
 9910SOL    HW230630   0.912   5.777   0.418
 9911SOL     OW30631   3.805   4.809   2.412
 9911SOL    HW130632   3.831   4.721   2.371
 9911SOL    HW230633   3.715   4.835   2.378
 9912SOL     OW30634   5.768   6.616   0.233
 9912SOL    HW130635   5.813   6.680   0.294
 9912SOL    HW230636   5.707   6.666   0.171
 9913SOL     OW30637   5.375   2.355   3.216
 9913SOL    HW130638   5.450   2.288   3.217
 9913SOL    HW230639   5.349   2.375   3.122
 9914SOL     OW30640   2.482   5.583   4.157
 9914SOL    HW130641   2.486   5.493   4.202
 9914SOL    HW230642   2.520   5.652   4.219
 9915SOL     OW30643   6.030   4.054   4.506
 9915SOL    HW130644   5.960   4.115   4.469
 9915SOL    HW230645   6.070   4.094   4.588
 9916SOL     OW30646   2.323   3.720   0.470
 9916SOL    HW130647   2.242   3.693   0.417
 9916SOL    HW230648   2.348   3.646   0.532
 9917SOL     OW30649   2.280   2.954   4.420
 9917SOL    HW130650   2.285   2.923   4.325
 9917SOL    HW230651   2.217   2.895   4.471
 9918SOL     OW30652   2.361   0.843   4.566
 9918SOL    HW130653   2.289   0.777   4.546
 9918SOL    HW230654   2.341   0.929   4.519
 9919SOL     OW30655   0.963   5.292   1.749
 9919SOL    HW130656   1.049   5.245   1.767
 9919SOL    HW230657   0.953   5.307   1.650
 9920SOL     OW30658   3.661   0.383   3.021
 9920SOL    HW130659   3.721   0.375   3.101
 9920SOL    HW230660   3.644   0.479   3.002
 9921SOL     OW30661   4.717   0.928   2.460
 9921SOL    HW130662   4.646   0.998   2.457
 9921SOL    HW230663   4.807   0.971   2.467
 9922SOL     OW30664   5.188   2.790   2.576
 9922SOL    HW130665   5.261   2.728   2.547
 9922SOL    HW230666   5.113   2.787   2.510
 9923SOL     OW30667   6.424   0.618   6.669
 9923SOL    HW130668   6.326   0.615   6.651
 9923SOL    HW230669   6.449   0.543   6.731
 9924SOL     OW30670   5.369   1.482   3.944
 9924SOL    HW130671   5.380   1.569   3.992
 9924SOL    HW230672   5.332   1.413   4.007
 9925SOL     OW30673   3.875   2.140   4.647
 9925SOL    HW130674   3.880   2.041   4.642
 9925SOL    HW230675   3.866   2.169   4.742
 9926SOL     OW30676   2.375   1.152   5.807
 9926SOL    HW130677   2.457   1.119   5.854
 9926SOL    HW230678   2.353   1.244   5.838
 9927SOL     OW30679   0.984   3.703   3.645
 9927SOL    HW130680   1.044   3.759   3.703
 9927SOL    HW230681   1.036   3.668   3.568
 9928SOL     OW30682   6.982   2.703   2.324
 9928SOL    HW130683   6.964   2.616   2.371
 9928SOL    HW230684   0.050   2.735   2.347
 9929SOL     OW30685   1.435   5.196   5.764
 9929SOL    HW130686   1.366   5.125   5.754
 9929SOL    HW230687   1.438   5.227   5.859
 9930SOL     OW30688   6.379   5.532   6.445
 9930SOL    HW130689   6.427   5.464   6.501
 9930SOL    HW230690   6.363   5.494   6.354
 9931SOL     OW30691   2.362   4.562   6.766
 9931SOL    HW130692   2.332   4.470   6.740
 9931SOL    HW230693   2.429   4.554   6.841
 9932SOL     OW30694   1.955   2.609   1.105
 9932SOL    HW130695   1.996   2.697   1.079
 9932SOL    HW230696   2.027   2.542   1.120
 9933SOL     OW30697   0.733   1.461   3.288
 9933SOL    HW130698   0.669   1.414   3.350
 9933SOL    HW230699   0.681   1.515   3.222
 9934SOL     OW30700   5.531   0.690   6.065
 9934SOL    HW130701   5.545   0.687   5.966
 9934SOL    HW230702   5.519   0.597   6.100
 9935SOL     OW30703   2.710   3.405   0.648
 9935SOL    HW130704   2.762   3.374   0.727
 9935SOL    HW230705   2.748   3.366   0.564
 9936SOL     OW30706   5.130   6.288   6.811
 9936SOL    HW130707   5.103   6.328   6.899
 9936SOL    HW230708   5.208   6.338   6.774
 9937SOL     OW30709   1.716   6.935   4.096
 9937SOL    HW130710   1.700   6.968   4.002
 9937SOL    HW230711   1.668   6.848   4.109
 9938SOL     OW30712   6.949   1.316   3.040
 9938SOL    HW130713   6.974   1.223   3.069
 9938SOL    HW230714   6.885   1.310   2.963
 9939SOL     OW30715   2.628   3.791   1.426
 9939SOL    HW130716   2.581   3.703   1.426
 9939SOL    HW230717   2.721   3.778   1.462
 9940SOL     OW30718   0.588   0.998   3.075
 9940SOL    HW130719   0.682   1.006   3.108
 9940SOL    HW230720   0.536   0.939   3.138
 9941SOL     OW30721   6.181   3.399   0.473
 9941SOL    HW130722   6.266   3.435   0.434
 9941SOL    HW230723   6.195   3.304   0.502
 9942SOL     OW30724   6.110   5.540   2.637
 9942SOL    HW130725   6.125   5.545   2.539
 9942SOL    HW230726   6.065   5.624   2.668
 9943SOL     OW30727   1.314   4.184   5.547
 9943SOL    HW130728   1.285   4.250   5.617
 9943SOL    HW230729   1.297   4.091   5.580
 9944SOL     OW30730   2.354   5.457   0.104
 9944SOL    HW130731   2.409   5.409   0.036
 9944SOL    HW230732   2.413   5.498   0.173
 9945SOL     OW30733   6.584   3.546   6.179
 9945SOL    HW130734   6.510   3.480   6.189
 9945SOL    HW230735   6.581   3.612   6.254
 9946SOL     OW30736   5.603   2.315   1.835
 9946SOL    HW130737   5.606   2.218   1.811
 9946SOL    HW230738   5.511   2.338   1.869
 9947SOL     OW30739   1.027   0.538   3.099
 9947SOL    HW130740   0.965   0.494   3.164
 9947SOL    HW230741   0.992   0.628   3.076
 9948SOL     OW30742   5.853   0.931   5.169
 9948SOL    HW130743   5.779   0.865   5.170
 9948SOL    HW230744   5.888   0.941   5.076
 9949SOL     OW30745   0.094   3.501   2.927
 9949SOL    HW130746   0.164   3.454   2.873
 9949SOL    HW230747   0.041   3.434   2.979
 9950SOL     OW30748   4.727   5.546   5.983
 9950SOL    HW130749   4.741   5.608   6.060
 9950SOL    HW230750   4.650   5.577   5.927
 9951SOL     OW30751   6.891   2.040   2.852
 9951SOL    HW130752   6.879   2.051   2.754
 9951SOL    HW230753   6.929   1.949   2.871
 9952SOL     OW30754   1.298   4.612   1.359
 9952SOL    HW130755   1.247   4.526   1.350
 9952SOL    HW230756   1.289   4.646   1.453
 9953SOL     OW30757   5.896   4.506   4.596
 9953SOL    HW130758   5.898   4.443   4.519
 9953SOL    HW230759   5.939   4.592   4.570
 9954SOL     OW30760   4.554   1.214   1.701
 9954SOL    HW130761   4.485   1.143   1.684
 9954SOL    HW230762   4.529   1.296   1.648
 9955SOL     OW30763   5.976   4.992   0.856
 9955SOL    HW130764   5.898   5.055   0.853
 9955SOL    HW230765   5.994   4.966   0.951
 9956SOL     OW30766   1.474   3.951   3.460
 9956SOL    HW130767   1.462   3.855   3.487
 9956SOL    HW230768   1.562   3.984   3.493
 9957SOL     OW30769   5.417   6.952   0.438
 9957SOL    HW130770   5.398   6.992   0.528
 9957SOL    HW230771   5.439   0.001   0.374
 9958SOL     OW30772   5.993   6.217   6.011
 9958SOL    HW130773   5.993   6.122   5.980
 9958SOL    HW230774   6.064   6.268   5.964
 9959SOL     OW30775   5.747   4.977   6.831
 9959SOL    HW130776   5.808   5.057   6.833
 9959SOL    HW230777   5.688   4.983   6.751
 9960SOL     OW30778   6.834   0.441   6.724
 9960SOL    HW130779   6.888   0.365   6.761
 9960SOL    HW230780   6.782   0.410   6.644
 9961SOL     OW30781   3.256   0.154   0.529
 9961SOL    HW130782   3.307   0.068   0.528
 9961SOL    HW230783   3.218   0.168   0.621
 9962SOL     OW30784   3.335   0.305   1.459
 9962SOL    HW130785   3.291   0.289   1.547
 9962SOL    HW230786   3.325   0.223   1.402
 9963SOL     OW30787   1.276   0.291   6.578
 9963SOL    HW130788   1.220   0.261   6.656
 9963SOL    HW230789   1.332   0.369   6.605
 9964SOL     OW30790   4.868   5.570   5.434
 9964SOL    HW130791   4.824   5.486   5.466
 9964SOL    HW230792   4.820   5.649   5.471
 9965SOL     OW30793   2.091   5.191   4.273
 9965SOL    HW130794   2.083   5.091   4.278
 9965SOL    HW230795   2.053   5.223   4.186
 9966SOL     OW30796   2.586   5.585   2.478
 9966SOL    HW130797   2.529   5.581   2.395
 9966SOL    HW230798   2.662   5.520   2.469
 9967SOL     OW30799   0.222   0.628   2.491
 9967SOL    HW130800   0.170   0.598   2.571
 9967SOL    HW230801   0.161   0.632   2.412
 9968SOL     OW30802   4.703   6.266   6.881
 9968SOL    HW130803   4.766   6.291   6.807
 9968SOL    HW230804   4.756   6.249   6.965
 9969SOL     OW30805   0.398   5.751   2.781
 9969SOL    HW130806   0.299   5.745   2.787
 9969SOL    HW230807   0.438   5.742   2.872
 9970SOL     OW30808   0.534   3.342   2.114
 9970SOL    HW130809   0.605   3.364   2.180
 9970SOL    HW230810   0.567   3.271   2.052
 9971SOL     OW30811   6.771   5.200   5.105
 9971SOL    HW130812   6.843   5.240   5.048
 9971SOL    HW230813   6.700   5.269   5.121
 9972SOL     OW30814   3.146   4.770   6.015
 9972SOL    HW130815   3.113   4.860   5.986
 9972SOL    HW230816   3.149   4.709   5.936
 9973SOL     OW30817   2.970   2.209   2.926
 9973SOL    HW130818   2.883   2.227   2.879
 9973SOL    HW230819   2.951   2.180   3.020
 9974SOL     OW30820   0.880   2.831   2.884
 9974SOL    HW130821   0.849   2.804   2.976
 9974SOL    HW230822   0.964   2.884   2.892
 9975SOL     OW30823   1.883   3.800   6.603
 9975SOL    HW130824   1.908   3.851   6.520
 9975SOL    HW230825   1.817   3.853   6.656
 9976SOL     OW30826   3.780   6.274   5.577
 9976SOL    HW130827   3.709   6.342   5.597
 9976SOL    HW230828   3.828   6.250   5.662
 9977SOL     OW30829   4.409   0.302   5.807
 9977SOL    HW130830   4.470   0.316   5.730
 9977SOL    HW230831   4.339   0.373   5.808
 9978SOL     OW30832   6.788   2.945   0.394
 9978SOL    HW130833   6.766   2.879   0.321
 9978SOL    HW230834   6.728   3.025   0.385
 9979SOL     OW30835   3.908   3.560   4.098
 9979SOL    HW130836   3.872   3.648   4.128
 9979SOL    HW230837   3.884   3.544   4.002
 9980SOL     OW30838   0.564   0.178   0.121
 9980SOL    HW130839   0.583   0.104   0.186
 9980SOL    HW230840   0.552   0.263   0.171
 9981SOL     OW30841   5.572   0.942   0.286
 9981SOL    HW130842   5.672   0.939   0.286
 9981SOL    HW230843   5.539   0.938   0.380
 9982SOL     OW30844   2.561   2.453   4.455
 9982SOL    HW130845   2.623   2.469   4.378
 9982SOL    HW230846   2.596   2.380   4.513
 9983SOL     OW30847   0.023   2.451   2.418
 9983SOL    HW130848   0.072   2.388   2.359
 9983SOL    HW230849   0.085   2.488   2.487
 9984SOL     OW30850   0.790   4.534   0.995
 9984SOL    HW130851   0.827   4.613   1.042
 9984SOL    HW230852   0.753   4.469   1.062
 9985SOL     OW30853   5.003   4.508   0.290
 9985SOL    HW130854   5.073   4.437   0.294
 9985SOL    HW230855   4.915   4.467   0.265
 9986SOL     OW30856   5.212   4.897   6.846
 9986SOL    HW130857   5.303   4.913   6.810
 9986SOL    HW230858   5.152   4.863   6.773
 9987SOL     OW30859   4.652   2.447   1.075
 9987SOL    HW130860   4.636   2.490   0.987
 9987SOL    HW230861   4.618   2.506   1.148
 9988SOL     OW30862   6.214   6.767   3.556
 9988SOL    HW130863   6.134   6.754   3.498
 9988SOL    HW230864   6.285   6.815   3.505
 9989SOL     OW30865   5.855   5.712   1.621
 9989SOL    HW130866   5.780   5.765   1.582
 9989SOL    HW230867   5.827   5.676   1.710
 9990SOL     OW30868   0.852   5.924   2.806
 9990SOL    HW130869   0.791   5.855   2.846
 9990SOL    HW230870   0.935   5.931   2.862
 9991SOL     OW30871   1.769   4.245   1.661
 9991SOL    HW130872   1.804   4.188   1.587
 9991SOL    HW230873   1.833   4.243   1.738
 9992SOL     OW30874   2.637   5.090   6.630
 9992SOL    HW130875   2.729   5.073   6.595
 9992SOL    HW230876   2.579   5.125   6.556
 9993SOL     OW30877   3.963   7.015   5.034
 9993SOL    HW130878   3.996   6.931   4.994
 9993SOL    HW230879   3.995   0.070   4.981
 9994SOL     OW30880   5.652   5.153   4.594
 9994SOL    HW130881   5.581   5.207   4.639
 9994SOL    HW230882   5.741   5.196   4.610
 9995SOL     OW30883   4.334   1.186   6.349
 9995SOL    HW130884   4.315   1.270   6.399
 9995SOL    HW230885   4.425   1.191   6.307
 9996SOL     OW30886   2.731   4.963   0.715
 9996SOL    HW130887   2.634   4.980   0.695
 9996SOL    HW230888   2.772   5.046   0.753
 9997SOL     OW30889   6.332   0.817   3.182
 9997SOL    HW130890   6.413   0.832   3.239
 9997SOL    HW230891   6.288   0.905   3.163
 9998SOL     OW30892   5.352   3.647   2.472
 9998SOL    HW130893   5.287   3.684   2.538
 9998SOL    HW230894   5.332   3.551   2.456
 9999SOL     OW30895   0.449   6.973   4.854
 9999SOL    HW130896   0.483   6.889   4.896
 9999SOL    HW230897   0.403   0.005   4.923
10000SOL     OW30898   4.456   2.697   1.483
10000SOL    HW130899   4.509   2.748   1.551
10000SOL    HW230900   4.388   2.757   1.442
10001SOL     OW30901   3.751   6.560   1.482
10001SOL    HW130902   3.799   6.581   1.397
10001SOL    HW230903   3.754   6.462   1.498
10002SOL     OW30904   2.267   6.858   2.538
10002SOL    HW130905   2.200   6.920   2.580
10002SOL    HW230906   2.222   6.772   2.515
10003SOL     OW30907   1.005   0.910   2.330
10003SOL    HW130908   1.022   0.958   2.244
10003SOL    HW230909   0.908   0.891   2.340
10004SOL     OW30910   0.027   3.667   3.721
10004SOL    HW130911   0.058   3.578   3.688
10004SOL    HW230912   6.970   3.655   3.780
10005SOL     OW30913   2.566   5.434   2.951
10005SOL    HW130914   2.600   5.340   2.959
10005SOL    HW230915   2.515   5.458   3.033
10006SOL     OW30916   5.207   1.945   5.527
10006SOL    HW130917   5.280   2.003   5.564
10006SOL    HW230918   5.126   2.001   5.509
10007SOL     OW30919   1.541   5.484   3.734
10007SOL    HW130920   1.510   5.419   3.804
10007SOL    HW230921   1.639   5.474   3.721
10008SOL     OW30922   4.324   0.770   5.635
10008SOL    HW130923   4.397   0.812   5.689
10008SOL    HW230924   4.360   0.690   5.586
10009SOL     OW30925   0.915   4.786   2.373
10009SOL    HW130926   0.930   4.723   2.449
10009SOL    HW230927   0.908   4.733   2.288
10010SOL     OW30928   1.978   4.487   0.838
10010SOL    HW130929   1.895   4.532   0.872
10010SOL    HW230930   1.954   4.426   0.763
10011SOL     OW30931   3.218   3.523   0.308
10011SOL    HW130932   3.159   3.517   0.388
10011SOL    HW230933   3.231   3.432   0.268
10012SOL     OW30934   5.436   2.077   4.113
10012SOL    HW130935   5.434   2.026   4.027
10012SOL    HW230936   5.392   2.023   4.185
10013SOL     OW30937   0.814   6.300   4.565
10013SOL    HW130938   0.887   6.239   4.536
10013SOL    HW230939   0.796   6.367   4.492
10014SOL     OW30940   1.226   1.225   3.606
10014SOL    HW130941   1.316   1.234   3.563
10014SOL    HW230942   1.237   1.187   3.698
10015SOL     OW30943   4.395   6.987   6.148
10015SOL    HW130944   4.386   6.994   6.247
10015SOL    HW230945   4.304   6.985   6.106
10016SOL     OW30946   2.844   0.899   4.196
10016SOL    HW130947   2.853   0.834   4.271
10016SOL    HW230948   2.890   0.984   4.220
10017SOL     OW30949   3.306   1.659   2.680
10017SOL    HW130950   3.264   1.740   2.638
10017SOL    HW230951   3.333   1.681   2.774
10018SOL     OW30952   0.068   4.701   5.296
10018SOL    HW130953   0.163   4.713   5.326
10018SOL    HW230954   0.027   4.790   5.280
10019SOL     OW30955   6.759   1.931   2.363
10019SOL    HW130956   6.813   1.995   2.307
10019SOL    HW230957   6.731   1.853   2.307
10020SOL     OW30958   6.118   0.846   2.091
10020SOL    HW130959   6.049   0.918   2.086
10020SOL    HW230960   6.081   0.762   2.052
10021SOL     OW30961   1.061   3.590   1.723
10021SOL    HW130962   1.074   3.684   1.691
10021SOL    HW230963   0.992   3.545   1.667
10022SOL     OW30964   1.609   6.316   5.856
10022SOL    HW130965   1.708   6.300   5.856
10022SOL    HW230966   1.561   6.228   5.855
10023SOL     OW30967   0.490   1.831   5.820
10023SOL    HW130968   0.419   1.873   5.763
10023SOL    HW230969   0.451   1.753   5.869
10024SOL     OW30970   2.274   4.634   3.245
10024SOL    HW130971   2.199   4.572   3.221
10024SOL    HW230972   2.359   4.601   3.203
10025SOL     OW30973   0.774   2.680   1.152
10025SOL    HW130974   0.697   2.742   1.139
10025SOL    HW230975   0.840   2.722   1.214
10026SOL     OW30976   5.893   1.000   4.889
10026SOL    HW130977   5.860   1.093   4.904
10026SOL    HW230978   5.913   0.988   4.792
10027SOL     OW30979   3.815   1.407   5.238
10027SOL    HW130980   3.911   1.383   5.228
10027SOL    HW230981   3.759   1.341   5.188
10028SOL     OW30982   3.893   6.998   2.159
10028SOL    HW130983   3.955   6.959   2.091
10028SOL    HW230984   3.846   6.924   2.208
10029SOL     OW30985   6.912   4.392   3.706
10029SOL    HW130986   6.892   4.314   3.647
10029SOL    HW230987   6.932   4.360   3.799
10030SOL     OW30988   2.172   7.012   4.522
10030SOL    HW130989   2.191   0.039   4.606
10030SOL    HW230990   2.129   6.924   4.545
10031SOL     OW30991   1.981   6.373   3.749
10031SOL    HW130992   1.926   6.443   3.704
10031SOL    HW230993   1.922   6.314   3.804
10032SOL     OW30994   3.148   5.905   3.948
10032SOL    HW130995   3.207   5.985   3.935
10032SOL    HW230996   3.161   5.842   3.872
10033SOL     OW30997   3.042   1.210   5.303
10033SOL    HW130998   3.030   1.154   5.385
10033SOL    HW230999   3.005   1.302   5.320
10034SOL     OW31000   2.640   1.124   2.439
10034SOL    HW131001   2.718   1.149   2.383
10034SOL    HW231002   2.647   1.028   2.466
10035SOL     OW31003   6.845   3.031   3.068
10035SOL    HW131004   6.807   3.100   3.006
10035SOL    HW231005   6.820   2.940   3.036
10036SOL     OW31006   0.988   0.734   7.022
10036SOL    HW131007   0.926   0.775   6.954
10036SOL    HW231008   1.079   0.723   6.982
10037SOL     OW31009   5.752   6.830   6.430
10037SOL    HW131010   5.736   6.846   6.527
10037SOL    HW231011   5.851   6.826   6.413
10038SOL     OW31012   4.871   6.315   6.664
10038SOL    HW131013   4.902   6.349   6.575
10038SOL    HW231014   4.940   6.336   6.734
10039SOL     OW31015   0.193   5.548   1.949
10039SOL    HW131016   0.100   5.584   1.944
10039SOL    HW231017   0.259   5.622   1.938
10040SOL     OW31018   2.460   6.767   0.185
10040SOL    HW131019   2.387   6.834   0.170
10040SOL    HW231020   2.535   6.785   0.122
10041SOL     OW31021   5.762   5.368   5.134
10041SOL    HW131022   5.771   5.425   5.216
10041SOL    HW231023   5.827   5.292   5.138
10042SOL     OW31024   6.501   0.649   5.089
10042SOL    HW131025   6.437   0.706   5.141
10042SOL    HW231026   6.591   0.654   5.132
10043SOL     OW31027   0.593   0.759   2.923
10043SOL    HW131028   0.549   0.843   2.955
10043SOL    HW231029   0.637   0.776   2.835
10044SOL     OW31030   3.045   2.131   0.159
10044SOL    HW131031   2.990   2.186   0.097
10044SOL    HW231032   3.122   2.090   0.109
10045SOL     OW31033   3.674   6.528   4.538
10045SOL    HW131034   3.687   6.506   4.635
10045SOL    HW231035   3.702   6.622   4.521
10046SOL     OW31036   6.903   2.103   1.923
10046SOL    HW131037   6.808   2.074   1.909
10046SOL    HW231038   6.934   2.071   2.013
10047SOL     OW31039   0.855   2.459   3.131
10047SOL    HW131040   0.782   2.396   3.107
10047SOL    HW231041   0.877   2.450   3.228
10048SOL     OW31042   3.717   2.573   1.737
10048SOL    HW131043   3.773   2.652   1.761
10048SOL    HW231044   3.732   2.500   1.804
10049SOL     OW31045   1.842   6.597   4.381
10049SOL    HW131046   1.762   6.537   4.374
10049SOL    HW231047   1.906   6.576   4.306
10050SOL     OW31048   5.602   0.896   4.883
10050SOL    HW131049   5.600   0.996   4.893
10050SOL    HW231050   5.693   0.867   4.854
10051SOL     OW31051   6.264   2.574   0.332
10051SOL    HW131052   6.318   2.530   0.403
10051SOL    HW231053   6.263   2.518   0.249
10052SOL     OW31054   1.542   4.719   1.413
10052SOL    HW131055   1.463   4.663   1.390
10052SOL    HW231056   1.618   4.698   1.351
10053SOL     OW31057   3.150   6.696   3.474
10053SOL    HW131058   3.220   6.677   3.406
10053SOL    HW231059   3.177   6.776   3.529
10054SOL     OW31060   4.235   5.742   3.897
10054SOL    HW131061   4.268   5.735   3.991
10054SOL    HW231062   4.216   5.651   3.861
10055SOL     OW31063   6.145   3.088   6.697
10055SOL    HW131064   6.094   3.002   6.708
10055SOL    HW231065   6.112   3.136   6.615
10056SOL     OW31066   6.072   4.654   2.383
10056SOL    HW131067   6.076   4.753   2.392
10056SOL    HW231068   5.977   4.625   2.370
10057SOL     OW31069   2.244   2.145   3.586
10057SOL    HW131070   2.253   2.224   3.646
10057SOL    HW231071   2.183   2.167   3.510
10058SOL     OW31072   1.032   5.006   3.627
10058SOL    HW131073   1.098   5.061   3.575
10058SOL    HW231074   0.941   5.020   3.590
10059SOL     OW31075   5.916   0.372   1.552
10059SOL    HW131076   5.819   0.378   1.574
10059SOL    HW231077   5.952   0.283   1.580
10060SOL     OW31078   2.363   2.524   2.163
10060SOL    HW131079   2.332   2.601   2.218
10060SOL    HW231080   2.351   2.544   2.066
10061SOL     OW31081   6.087   1.946   4.866
10061SOL    HW131082   6.178   1.906   4.876
10061SOL    HW231083   6.028   1.911   4.938
10062SOL     OW31084   5.351   5.557   2.886
10062SOL    HW131085   5.315   5.463   2.884
10062SOL    HW231086   5.297   5.611   2.951
10063SOL     OW31087   0.725   2.514   2.471
10063SOL    HW131088   0.689   2.534   2.380
10063SOL    HW231089   0.726   2.598   2.525
10064SOL     OW31090   5.609   5.868   5.480
10064SOL    HW131091   5.567   5.896   5.394
10064SOL    HW231092   5.607   5.945   5.544
10065SOL     OW31093   0.690   6.400   3.482
10065SOL    HW131094   0.713   6.460   3.558
10065SOL    HW231095   0.677   6.454   3.399
10066SOL     OW31096   0.686   0.432   3.458
10066SOL    HW131097   0.629   0.355   3.428
10066SOL    HW231098   0.753   0.400   3.525
10067SOL     OW31099   5.077   6.756   3.534
10067SOL    HW131100   5.076   6.768   3.435
10067SOL    HW231101   5.083   6.659   3.556
10068SOL     OW31102   5.057   3.802   5.557
10068SOL    HW131103   5.057   3.852   5.471
10068SOL    HW231104   4.994   3.846   5.621
10069SOL     OW31105   4.899   1.125   3.796
10069SOL    HW131106   4.926   1.059   3.867
10069SOL    HW231107   4.898   1.217   3.835
10070SOL     OW31108   1.442   6.934   4.599
10070SOL    HW131109   1.467   6.865   4.532
10070SOL    HW231110   1.392   6.891   4.674
10071SOL     OW31111   5.129   4.965   4.858
10071SOL    HW131112   5.209   4.945   4.801
10071SOL    HW231113   5.116   5.064   4.863
10072SOL     OW31114   1.233   0.106   3.626
10072SOL    HW131115   1.242   0.104   3.526
10072SOL    HW231116   1.242   0.200   3.658
10073SOL     OW31117   7.008   5.632   6.277
10073SOL    HW131118   6.957   5.684   6.345
10073SOL    HW231119   6.945   5.587   6.214
10074SOL     OW31120   2.778   0.112   5.828
10074SOL    HW131121   2.858   0.164   5.800
10074SOL    HW231122   2.784   0.019   5.792
10075SOL     OW31123   1.457   2.597   3.582
10075SOL    HW131124   1.425   2.601   3.677
10075SOL    HW231125   1.509   2.680   3.561
10076SOL     OW31126   5.864   0.073   4.196
10076SOL    HW131127   5.927   0.042   4.124
10076SOL    HW231128   5.916   0.090   4.280
10077SOL     OW31129   2.803   1.155   6.766
10077SOL    HW131130   2.730   1.090   6.786
10077SOL    HW231131   2.887   1.105   6.744
10078SOL     OW31132   5.576   6.080   5.652
10078SOL    HW131133   5.479   6.077   5.677
10078SOL    HW231134   5.597   6.167   5.607
10079SOL     OW31135   6.661   2.566   6.151
10079SOL    HW131136   6.718   2.609   6.221
10079SOL    HW231137   6.689   2.471   6.138
10080SOL     OW31138   1.340   2.445   5.522
10080SOL    HW131139   1.400   2.396   5.458
10080SOL    HW231140   1.253   2.466   5.477
10081SOL     OW31141   0.292   1.202   0.161
10081SOL    HW131142   0.212   1.142   0.153
10081SOL    HW231143   0.329   1.220   0.071
10082SOL     OW31144   0.039   0.287   0.829
10082SOL    HW131145   0.128   0.249   0.803
10082SOL    HW231146   0.052   0.379   0.867
10083SOL     OW31147   5.182   1.178   4.479
10083SOL    HW131148   5.236   1.156   4.397
10083SOL    HW231149   5.087   1.150   4.463
10084SOL     OW31150   2.250   0.785   6.637
10084SOL    HW131151   2.296   0.732   6.565
10084SOL    HW231152   2.222   0.874   6.599
10085SOL     OW31153   0.679   5.321   2.321
10085SOL    HW131154   0.717   5.233   2.292
10085SOL    HW231155   0.683   5.386   2.245
10086SOL     OW31156   6.767   3.739   2.300
10086SOL    HW131157   6.802   3.646   2.307
10086SOL    HW231158   6.842   3.802   2.281
10087SOL     OW31159   1.538   0.160   3.907
10087SOL    HW131160   1.594   0.242   3.921
10087SOL    HW231161   1.500   0.131   3.994
10088SOL     OW31162   6.770   0.470   4.695
10088SOL    HW131163   6.784   0.372   4.706
10088SOL    HW231164   6.764   0.513   4.786
10089SOL     OW31165   1.479   2.921   2.499
10089SOL    HW131166   1.450   2.894   2.408
10089SOL    HW231167   1.525   2.844   2.544
10090SOL     OW31168   0.158   4.422   1.839
10090SOL    HW131169   0.156   4.456   1.933
10090SOL    HW231170   0.184   4.326   1.839
10091SOL     OW31171   0.671   2.187   3.855
10091SOL    HW131172   0.642   2.190   3.759
10091SOL    HW231173   0.592   2.166   3.913
10092SOL     OW31174   2.015   2.936   5.076
10092SOL    HW131175   2.081   2.979   5.138
10092SOL    HW231176   2.027   2.836   5.079
10093SOL     OW31177   0.400   5.815   6.530
10093SOL    HW131178   0.464   5.854   6.463
10093SOL    HW231179   0.318   5.782   6.483
10094SOL     OW31180   1.538   1.218   1.982
10094SOL    HW131181   1.601   1.296   1.987
10094SOL    HW231182   1.535   1.184   1.888
10095SOL     OW31183   0.385   1.255   5.747
10095SOL    HW131184   0.420   1.323   5.682
10095SOL    HW231185   0.310   1.295   5.800
10096SOL     OW31186   6.922   5.116   2.056
10096SOL    HW131187   6.961   5.087   2.143
10096SOL    HW231188   6.975   5.193   2.020
10097SOL     OW31189   1.535   2.315   5.974
10097SOL    HW131190   1.505   2.300   5.879
10097SOL    HW231191   1.488   2.394   6.011
10098SOL     OW31192   3.280   5.666   6.698
10098SOL    HW131193   3.342   5.676   6.620
10098SOL    HW231194   3.334   5.661   6.783
10099SOL     OW31195   6.669   4.767   4.548
10099SOL    HW131196   6.662   4.787   4.646
10099SOL    HW231197   6.766   4.762   4.522
10100SOL     OW31198   5.331   0.948   5.408
10100SOL    HW131199   5.271   1.014   5.365
10100SOL    HW231200   5.340   0.867   5.349
10101SOL     OW31201   6.980   4.771   2.411
10101SOL    HW131202   6.919   4.706   2.456
10101SOL    HW231203   0.000   4.829   2.480
10102SOL     OW31204   3.836   0.934   3.573
10102SOL    HW131205   3.789   0.909   3.489
10102SOL    HW231206   3.771   0.938   3.649
10103SOL     OW31207   1.711   1.814   0.078
10103SOL    HW131208   1.762   1.872   0.143
10103SOL    HW231209   1.715   1.719   0.108
10104SOL     OW31210   1.776   5.839   5.609
10104SOL    HW131211   1.744   5.794   5.693
10104SOL    HW231212   1.837   5.776   5.559
10105SOL     OW31213   3.130   0.231   6.909
10105SOL    HW131214   3.093   0.199   6.996
10105SOL    HW231215   3.091   0.177   6.834
10106SOL     OW31216   5.273   5.655   1.092
10106SOL    HW131217   5.354   5.711   1.077
10106SOL    HW231218   5.263   5.590   1.017
10107SOL     OW31219   5.539   1.004   5.573
10107SOL    HW131220   5.461   0.987   5.512
10107SOL    HW231221   5.509   0.998   5.668
10108SOL     OW31222   5.915   6.397   6.869
10108SOL    HW131223   5.903   6.355   6.779
10108SOL    HW231224   5.983   6.346   6.921
10109SOL     OW31225   4.582   5.720   3.602
10109SOL    HW131226   4.657   5.784   3.584
10109SOL    HW231227   4.521   5.760   3.671
10110SOL     OW31228   3.327   1.456   6.051
10110SOL    HW131229   3.371   1.510   5.980
10110SOL    HW231230   3.307   1.364   6.016
10111SOL     OW31231   0.221   2.539   2.583
10111SOL    HW131232   0.280   2.516   2.660
10111SOL    HW231233   0.269   2.602   2.522
10112SOL     OW31234   4.254   4.199   6.317
10112SOL    HW131235   4.301   4.155   6.240
10112SOL    HW231236   4.287   4.293   6.327
10113SOL     OW31237   4.139   6.451   0.638
10113SOL    HW131238   4.064   6.386   0.646
10113SOL    HW231239   4.214   6.409   0.586
10114SOL     OW31240   3.990   1.808   1.422
10114SOL    HW131241   3.998   1.905   1.444
10114SOL    HW231242   3.992   1.795   1.323
10115SOL     OW31243   1.153   1.917   3.797
10115SOL    HW131244   1.056   1.921   3.822
10115SOL    HW231245   1.175   1.993   3.736
10116SOL     OW31246   0.964   0.870   0.910
10116SOL    HW131247   1.056   0.898   0.939
10116SOL    HW231248   0.898   0.939   0.938
10117SOL     OW31249   4.874   0.624   5.834
10117SOL    HW131250   4.871   0.647   5.931
10117SOL    HW231251   4.938   0.548   5.819
10118SOL     OW31252   6.053   4.970   2.390
10118SOL    HW131253   6.036   5.041   2.459
10118SOL    HW231254   6.110   5.008   2.318
10119SOL     OW31255   2.533   0.419   5.447
10119SOL    HW131256   2.554   0.431   5.544
10119SOL    HW231257   2.478   0.336   5.435
10120SOL     OW31258   5.696   3.133   3.810
10120SOL    HW131259   5.752   3.215   3.823
10120SOL    HW231260   5.614   3.139   3.867
10121SOL     OW31261   5.520   4.946   4.156
10121SOL    HW131262   5.476   4.871   4.206
10121SOL    HW231263   5.594   4.984   4.212
10122SOL     OW31264   5.532   3.523   6.588
10122SOL    HW131265   5.572   3.452   6.645
10122SOL    HW231266   5.435   3.504   6.575
10123SOL     OW31267   6.927   0.082   0.543
10123SOL    HW131268   6.891   0.003   0.494
10123SOL    HW231269   6.865   0.106   0.618
10124SOL     OW31270   3.095   4.531   0.591
10124SOL    HW131271   3.192   4.541   0.610
10124SOL    HW231272   3.067   4.436   0.606
10125SOL     OW31273   1.691   0.181   0.936
10125SOL    HW131274   1.675   0.245   1.011
10125SOL    HW231275   1.684   0.231   0.849
10126SOL     OW31276   5.466   5.040   0.092
10126SOL    HW131277   5.375   5.005   0.115
10126SOL    HW231278   5.534   4.968   0.105
10127SOL     OW31279   3.626   4.258   5.335
10127SOL    HW131280   3.536   4.226   5.366
10127SOL    HW231281   3.634   4.243   5.237
10128SOL     OW31282   0.112   1.690   1.358
10128SOL    HW131283   0.192   1.749   1.345
10128SOL    HW231284   0.095   1.638   1.275
10129SOL     OW31285   5.108   2.779   3.550
10129SOL    HW131286   5.034   2.835   3.587
10129SOL    HW231287   5.126   2.806   3.456
10130SOL     OW31288   6.197   5.903   1.433
10130SOL    HW131289   6.173   5.876   1.339
10130SOL    HW231290   6.282   5.956   1.432
10131SOL     OW31291   6.496   0.200   0.791
10131SOL    HW131292   6.416   0.165   0.742
10131SOL    HW231293   6.513   0.295   0.764
10132SOL     OW31294   2.639   0.101   2.991
10132SOL    HW131295   2.696   0.170   3.036
10132SOL    HW231296   2.549   0.139   2.974
10133SOL     OW31297   5.520   4.384   2.708
10133SOL    HW131298   5.588   4.378   2.781
10133SOL    HW231299   5.449   4.450   2.735
10134SOL     OW31300   0.281   1.404   2.275
10134SOL    HW131301   0.287   1.311   2.309
10134SOL    HW231302   0.190   1.441   2.294
10135SOL     OW31303   3.081   5.952   2.759
10135SOL    HW131304   3.072   5.859   2.795
10135SOL    HW231305   2.991   5.996   2.757
10136SOL     OW31306   6.833   0.333   2.345
10136SOL    HW131307   6.877   0.303   2.261
10136SOL    HW231308   6.861   0.427   2.367
10137SOL     OW31309   5.550   5.244   4.231
10137SOL    HW131310   5.482   5.189   4.279
10137SOL    HW231311   5.633   5.189   4.218
10138SOL     OW31312   5.436   2.377   6.735
10138SOL    HW131313   5.345   2.398   6.698
10138SOL    HW231314   5.429   2.297   6.795
10139SOL     OW31315   3.765   3.283   3.214
10139SOL    HW131316   3.668   3.293   3.234
10139SOL    HW231317   3.779   3.276   3.115
10140SOL     OW31318   0.774   5.049   4.719
10140SOL    HW131319   0.709   4.974   4.705
10140SOL    HW231320   0.725   5.136   4.721
10141SOL     OW31321   2.144   0.661   3.890
10141SOL    HW131322   2.235   0.694   3.913
10141SOL    HW231323   2.118   0.692   3.799
10142SOL     OW31324   4.847   5.832   4.251
10142SOL    HW131325   4.816   5.781   4.171
10142SOL    HW231326   4.769   5.879   4.293
10143SOL     OW31327   4.780   5.719   1.491
10143SOL    HW131328   4.765   5.744   1.395
10143SOL    HW231329   4.857   5.771   1.528
10144SOL     OW31330   2.485   4.886   3.198
10144SOL    HW131331   2.562   4.863   3.258
10144SOL    HW231332   2.425   4.952   3.244
10145SOL     OW31333   3.025   6.554   5.611
10145SOL    HW131334   2.933   6.538   5.645
10145SOL    HW231335   3.058   6.472   5.563
10146SOL     OW31336   5.361   4.793   4.349
10146SOL    HW131337   5.317   4.770   4.436
10146SOL    HW231338   5.373   4.711   4.294
10147SOL     OW31339   4.847   5.681   4.638
10147SOL    HW131340   4.871   5.774   4.611
10147SOL    HW231341   4.902   5.615   4.585
10148SOL     OW31342   6.007   5.306   0.290
10148SOL    HW131343   6.034   5.209   0.293
10148SOL    HW231344   5.930   5.317   0.227
10149SOL     OW31345   4.331   3.672   0.660
10149SOL    HW131346   4.321   3.614   0.580
10149SOL    HW231347   4.391   3.628   0.727
10150SOL     OW31348   5.714   4.065   1.015
10150SOL    HW131349   5.754   4.018   0.937
10150SOL    HW231350   5.687   3.999   1.085
10151SOL     OW31351   1.196   6.361   5.809
10151SOL    HW131352   1.210   6.274   5.761
10151SOL    HW231353   1.282   6.410   5.816
10152SOL     OW31354   0.156   5.331   3.950
10152SOL    HW131355   0.224   5.339   3.877
10152SOL    HW231356   0.102   5.247   3.936
10153SOL     OW31357   5.787   6.460   3.723
10153SOL    HW131358   5.883   6.433   3.716
10153SOL    HW231359   5.778   6.557   3.700
10154SOL     OW31360   6.584   5.509   5.376
10154SOL    HW131361   6.573   5.542   5.282
10154SOL    HW231362   6.623   5.582   5.432
10155SOL     OW31363   3.500   1.440   6.281
10155SOL    HW131364   3.490   1.524   6.334
10155SOL    HW231365   3.466   1.454   6.188
10156SOL     OW31366   5.368   0.331   2.499
10156SOL    HW131367   5.456   0.310   2.455
10156SOL    HW231368   5.340   0.424   2.477
10157SOL     OW31369   4.681   1.005   4.692
10157SOL    HW131370   4.591   0.977   4.658
10157SOL    HW231371   4.670   1.049   4.781
10158SOL     OW31372   4.283   3.813   6.300
10158SOL    HW131373   4.324   3.893   6.257
10158SOL    HW231374   4.206   3.781   6.245
10159SOL     OW31375   1.490   0.982   6.392
10159SOL    HW131376   1.455   0.917   6.459
10159SOL    HW231377   1.416   1.042   6.362
10160SOL     OW31378   1.185   5.690   3.512
10160SOL    HW131379   1.204   5.699   3.414
10160SOL    HW231380   1.096   5.647   3.525
10161SOL     OW31381   2.137   6.290   6.006
10161SOL    HW131382   2.065   6.310   5.939
10161SOL    HW231383   2.096   6.253   6.089
10162SOL     OW31384   3.308   2.185   7.023
10162SOL    HW131385   3.360   2.240   6.958
10162SOL    HW231386   3.311   2.228   0.090
10163SOL     OW31387   6.805   2.672   5.533
10163SOL    HW131388   6.842   2.625   5.613
10163SOL    HW231389   6.839   2.766   5.530
10164SOL     OW31390   0.677   2.466   5.106
10164SOL    HW131391   0.622   2.549   5.103
10164SOL    HW231392   0.650   2.411   5.185
10165SOL     OW31393   6.840   2.283   3.364
10165SOL    HW131394   6.903   2.256   3.437
10165SOL    HW231395   6.786   2.204   3.335
10166SOL     OW31396   0.408   1.161   2.403
10166SOL    HW131397   0.490   1.198   2.360
10166SOL    HW231398   0.390   1.069   2.367
10167SOL     OW31399   4.782   0.456   0.901
10167SOL    HW131400   4.867   0.453   0.849
10167SOL    HW231401   4.790   0.523   0.975
10168SOL     OW31402   6.650   4.152   4.438
10168SOL    HW131403   6.670   4.203   4.522
10168SOL    HW231404   6.619   4.060   4.462
10169SOL     OW31405   6.409   4.191   4.277
10169SOL    HW131406   6.379   4.105   4.236
10169SOL    HW231407   6.487   4.175   4.336
10170SOL     OW31408   1.531   3.648   4.732
10170SOL    HW131409   1.526   3.705   4.814
10170SOL    HW231410   1.549   3.706   4.652
10171SOL     OW31411   6.508   3.186   5.512
10171SOL    HW131412   6.462   3.275   5.518
10171SOL    HW231413   6.440   3.115   5.495
10172SOL     OW31414   4.541   1.002   3.942
10172SOL    HW131415   4.582   0.935   4.004
10172SOL    HW231416   4.463   1.045   3.987
10173SOL     OW31417   2.281   1.913   2.527
10173SOL    HW131418   2.314   2.005   2.507
10173SOL    HW231419   2.285   1.857   2.445
10174SOL     OW31420   5.896   4.718   0.685
10174SOL    HW131421   5.808   4.689   0.648
10174SOL    HW231422   5.887   4.809   0.725
10175SOL     OW31423   6.169   2.122   6.307
10175SOL    HW131424   6.204   2.201   6.359
10175SOL    HW231425   6.148   2.048   6.371
10176SOL     OW31426   2.362   3.663   0.095
10176SOL    HW131427   2.328   3.597   0.162
10176SOL    HW231428   2.451   3.697   0.124
10177SOL     OW31429   2.243   0.309   5.871
10177SOL    HW131430   2.181   0.374   5.827
10177SOL    HW231431   2.322   0.358   5.908
10178SOL     OW31432   5.737   2.817   5.114
10178SOL    HW131433   5.714   2.720   5.103
10178SOL    HW231434   5.676   2.857   5.183
10179SOL     OW31435   0.797   3.114   6.260
10179SOL    HW131436   0.896   3.127   6.253
10179SOL    HW231437   0.758   3.104   6.169
10180SOL     OW31438   2.571   6.735   5.680
10180SOL    HW131439   2.646   6.801   5.674
10180SOL    HW231440   2.491   6.772   5.633
10181SOL     OW31441   5.933   3.145   1.827
10181SOL    HW131442   5.940   3.155   1.927
10181SOL    HW231443   5.959   3.232   1.784
10182SOL     OW31444   4.966   1.829   0.616
10182SOL    HW131445   5.009   1.907   0.660
10182SOL    HW231446   4.989   1.745   0.665
10183SOL     OW31447   1.703   1.693   6.646
10183SOL    HW131448   1.676   1.789   6.645
10183SOL    HW231449   1.792   1.683   6.692
10184SOL     OW31450   4.573   0.203   6.524
10184SOL    HW131451   4.655   0.147   6.537
10184SOL    HW231452   4.583   0.289   6.575
10185SOL     OW31453   4.805   1.222   6.826
10185SOL    HW131454   4.757   1.309   6.816
10185SOL    HW231455   4.849   1.218   6.915
10186SOL     OW31456   4.272   1.896   2.920
10186SOL    HW131457   4.232   1.831   2.986
10186SOL    HW231458   4.208   1.909   2.844
10187SOL     OW31459   0.996   2.283   2.165
10187SOL    HW131460   0.954   2.203   2.208
10187SOL    HW231461   0.937   2.315   2.091
10188SOL     OW31462   3.510   4.910   1.287
10188SOL    HW131463   3.438   4.843   1.307
10188SOL    HW231464   3.594   4.884   1.336
10189SOL     OW31465   1.414   6.461   5.373
10189SOL    HW131466   1.394   6.558   5.358
10189SOL    HW231467   1.491   6.452   5.435
10190SOL     OW31468   4.959   2.516   0.234
10190SOL    HW131469   5.021   2.438   0.223
10190SOL    HW231470   5.004   2.599   0.200
10191SOL     OW31471   6.866   4.629   6.730
10191SOL    HW131472   6.778   4.617   6.684
10191SOL    HW231473   6.923   4.692   6.677
10192SOL     OW31474   3.168   1.193   0.247
10192SOL    HW131475   3.096   1.257   0.222
10192SOL    HW231476   3.228   1.178   0.169
10193SOL     OW31477   4.131   4.019   0.569
10193SOL    HW131478   4.091   4.095   0.619
10193SOL    HW231479   4.224   4.002   0.602
10194SOL     OW31480   4.964   3.526   5.486
10194SOL    HW131481   4.981   3.611   5.536
10194SOL    HW231482   4.949   3.546   5.389
10195SOL     OW31483   6.119   4.220   1.730
10195SOL    HW131484   6.219   4.226   1.739
10195SOL    HW231485   6.077   4.230   1.820
10196SOL     OW31486   0.580   1.552   4.590
10196SOL    HW131487   0.603   1.526   4.496
10196SOL    HW231488   0.494   1.509   4.616
10197SOL     OW31489   5.579   0.748   6.988
10197SOL    HW131490   5.617   0.840   6.985
10197SOL    HW231491   5.546   0.722   6.897
10198SOL     OW31492   4.517   6.725   3.346
10198SOL    HW131493   4.616   6.734   3.351
10198SOL    HW231494   4.477   6.742   3.436
10199SOL     OW31495   0.916   2.045   5.511
10199SOL    HW131496   0.925   2.143   5.490
10199SOL    HW231497   0.855   2.034   5.589
10200SOL     OW31498   5.147   1.722   1.681
10200SOL    HW131499   5.087   1.759   1.753
10200SOL    HW231500   5.122   1.628   1.662
10201SOL     OW31501   0.793   3.965   0.398
10201SOL    HW131502   0.696   3.944   0.393
10201SOL    HW231503   0.846   3.881   0.384
10202SOL     OW31504   4.340   0.751   4.004
10202SOL    HW131505   4.334   0.790   3.912
10202SOL    HW231506   4.418   0.792   4.052
10203SOL     OW31507   6.698   2.704   4.752
10203SOL    HW131508   6.684   2.743   4.843
10203SOL    HW231509   6.611   2.676   4.713
10204SOL     OW31510   5.557   4.912   6.295
10204SOL    HW131511   5.561   4.947   6.201
10204SOL    HW231512   5.607   4.825   6.299
10205SOL     OW31513   1.038   0.719   6.253
10205SOL    HW131514   1.113   0.782   6.236
10205SOL    HW231515   0.968   0.765   6.308
10206SOL     OW31516   1.749   0.664   4.779
10206SOL    HW131517   1.717   0.656   4.684
10206SOL    HW231518   1.675   0.637   4.841
10207SOL     OW31519   2.283   2.070   4.789
10207SOL    HW131520   2.279   2.170   4.789
10207SOL    HW231521   2.319   2.038   4.702
10208SOL     OW31522   6.939   6.200   5.602
10208SOL    HW131523   6.945   6.123   5.665
10208SOL    HW231524   6.848   6.202   5.560
10209SOL     OW31525   0.158   6.937   5.871
10209SOL    HW131526   0.165   6.878   5.951
10209SOL    HW231527   0.249   6.957   5.835
10210SOL     OW31528   2.871   0.022   1.385
10210SOL    HW131529   2.896   0.117   1.406
10210SOL    HW231530   2.773   0.009   1.400
10211SOL     OW31531   5.302   5.726   5.916
10211SOL    HW131532   5.337   5.804   5.968
10211SOL    HW231533   5.357   5.713   5.833
10212SOL     OW31534   0.560   0.678   6.128
10212SOL    HW131535   0.643   0.701   6.178
10212SOL    HW231536   0.561   0.722   6.039
10213SOL     OW31537   6.513   2.227   1.092
10213SOL    HW131538   6.454   2.307   1.093
10213SOL    HW231539   6.498   2.173   1.175
10214SOL     OW31540   1.311   2.296   6.688
10214SOL    HW131541   1.234   2.353   6.658
10214SOL    HW231542   1.356   2.256   6.608
10215SOL     OW31543   2.841   3.440   2.138
10215SOL    HW131544   2.823   3.426   2.236
10215SOL    HW231545   2.789   3.518   2.105
10216SOL     OW31546   0.532   6.417   2.203
10216SOL    HW131547   0.500   6.423   2.108
10216SOL    HW231548   0.584   6.499   2.226
10217SOL     OW31549   3.131   1.317   4.813
10217SOL    HW131550   3.135   1.417   4.818
10217SOL    HW231551   3.192   1.278   4.882
10218SOL     OW31552   1.070   3.124   2.601
10218SOL    HW131553   1.065   3.025   2.615
10218SOL    HW231554   1.145   3.145   2.538
10219SOL     OW31555   7.012   5.900   3.131
10219SOL    HW131556   6.966   5.812   3.130
10219SOL    HW231557   0.074   5.894   3.079
10220SOL     OW31558   3.753   3.243   0.373
10220SOL    HW131559   3.723   3.295   0.452
10220SOL    HW231560   3.700   3.271   0.293
10221SOL     OW31561   0.709   5.413   4.139
10221SOL    HW131562   0.696   5.489   4.203
10221SOL    HW231563   0.634   5.348   4.150
10222SOL     OW31564   3.371   3.605   3.740
10222SOL    HW131565   3.443   3.675   3.735
10222SOL    HW231566   3.364   3.559   3.652
10223SOL     OW31567   2.120   6.307   0.732
10223SOL    HW131568   2.022   6.320   0.716
10223SOL    HW231569   2.138   6.213   0.760
10224SOL     OW31570   6.493   4.051   3.025
10224SOL    HW131571   6.591   4.048   3.047
10224SOL    HW231572   6.477   4.007   2.937
10225SOL     OW31573   1.946   4.101   5.877
10225SOL    HW131574   1.962   4.138   5.786
10225SOL    HW231575   1.936   4.001   5.872
10226SOL     OW31576   5.289   3.828   0.420
10226SOL    HW131577   5.283   3.747   0.361
10226SOL    HW231578   5.378   3.829   0.465
10227SOL     OW31579   5.756   3.250   1.616
10227SOL    HW131580   5.786   3.256   1.712
10227SOL    HW231581   5.675   3.192   1.611
10228SOL     OW31582   5.130   0.691   0.648
10228SOL    HW131583   5.094   0.651   0.731
10228SOL    HW231584   5.089   0.781   0.634
10229SOL     OW31585   0.284   2.717   4.993
10229SOL    HW131586   0.227   2.772   4.932
10229SOL    HW231587   0.244   2.625   5.001
10230SOL     OW31588   6.713   5.958   1.613
10230SOL    HW131589   6.789   5.929   1.671
10230SOL    HW231590   6.654   5.879   1.594
10231SOL     OW31591   0.602   4.778   2.866
10231SOL    HW131592   0.694   4.808   2.839
10231SOL    HW231593   0.597   4.678   2.862
10232SOL     OW31594   4.710   4.636   2.928
10232SOL    HW131595   4.674   4.577   3.001
10232SOL    HW231596   4.645   4.709   2.909
10233SOL     OW31597   2.638   4.302   5.603
10233SOL    HW131598   2.559   4.327   5.547
10233SOL    HW231599   2.649   4.202   5.603
10234SOL     OW31600   0.611   1.268   2.237
10234SOL    HW131601   0.677   1.218   2.181
10234SOL    HW231602   0.625   1.366   2.225
10235SOL     OW31603   1.264   1.270   2.865
10235SOL    HW131604   1.353   1.244   2.827
10235SOL    HW231605   1.220   1.189   2.905
10236SOL     OW31606   1.698   6.899   2.341
10236SOL    HW131607   1.636   6.920   2.416
10236SOL    HW231608   1.674   6.955   2.261
10237SOL     OW31609   0.430   3.568   4.627
10237SOL    HW131610   0.507   3.518   4.667
10237SOL    HW231611   0.386   3.623   4.699
10238SOL     OW31612   2.589   0.005   1.419
10238SOL    HW131613   2.567   0.010   1.322
10238SOL    HW231614   2.584   0.096   1.460
10239SOL     OW31615   0.746   1.783   4.580
10239SOL    HW131616   0.733   1.836   4.664
10239SOL    HW231617   0.702   1.694   4.589
10240SOL     OW31618   1.856   6.271   0.632
10240SOL    HW131619   1.797   6.249   0.554
10240SOL    HW231620   1.846   6.367   0.655
10241SOL     OW31621   4.342   3.016   1.255
10241SOL    HW131622   4.312   2.976   1.341
10241SOL    HW231623   4.369   3.111   1.270
10242SOL     OW31624   6.969   2.926   6.604
10242SOL    HW131625   6.967   2.967   6.695
10242SOL    HW231626   0.041   2.908   6.578
10243SOL     OW31627   3.107   6.198   1.997
10243SOL    HW131628   3.053   6.202   1.912
10243SOL    HW231629   3.076   6.271   2.058
10244SOL     OW31630   2.918   5.500   2.078
10244SOL    HW131631   2.937   5.415   2.028
10244SOL    HW231632   2.824   5.499   2.111
10245SOL     OW31633   5.096   4.323   0.953
10245SOL    HW131634   5.005   4.302   0.916
10245SOL    HW231635   5.106   4.279   1.042
10246SOL     OW31636   3.320   2.937   4.127
10246SOL    HW131637   3.345   3.028   4.093
10246SOL    HW231638   3.260   2.947   4.206
10247SOL     OW31639   0.828   2.960   4.468
10247SOL    HW131640   0.919   2.927   4.493
10247SOL    HW231641   0.834   3.055   4.439
10248SOL     OW31642   0.856   1.338   4.904
10248SOL    HW131643   0.815   1.255   4.865
10248SOL    HW231644   0.938   1.362   4.851
10249SOL     OW31645   2.638   5.262   6.136
10249SOL    HW131646   2.601   5.354   6.145
10249SOL    HW231647   2.645   5.238   6.039
10250SOL     OW31648   3.422   2.470   0.564
10250SOL    HW131649   3.498   2.535   0.570
10250SOL    HW231650   3.352   2.495   0.630
10251SOL     OW31651   1.403   0.535   4.515
10251SOL    HW131652   1.311   0.511   4.549
10251SOL    HW231653   1.471   0.480   4.563
10252SOL     OW31654   5.133   4.867   5.863
10252SOL    HW131655   5.093   4.938   5.805
10252SOL    HW231656   5.097   4.875   5.956
10253SOL     OW31657   3.891   5.871   6.430
10253SOL    HW131658   3.883   5.959   6.478
10253SOL    HW231659   3.904   5.888   6.332
10254SOL     OW31660   6.636   2.182   5.596
10254SOL    HW131661   6.581   2.117   5.544
10254SOL    HW231662   6.660   2.142   5.685
10255SOL     OW31663   3.930   4.423   1.668
10255SOL    HW131664   4.007   4.364   1.643
10255SOL    HW231665   3.859   4.368   1.712
10256SOL     OW31666   3.573   1.040   4.773
10256SOL    HW131667   3.505   1.099   4.731
10256SOL    HW231668   3.645   1.097   4.814
10257SOL     OW31669   4.162   5.868   3.099
10257SOL    HW131670   4.154   5.881   3.198
10257SOL    HW231671   4.087   5.916   3.053
10258SOL     OW31672   2.658   1.427   2.284
10258SOL    HW131673   2.565   1.464   2.288
10258SOL    HW231674   2.715   1.472   2.352
10259SOL     OW31675   1.982   4.460   3.974
10259SOL    HW131676   1.993   4.526   3.900
10259SOL    HW231677   1.885   4.448   3.994
10260SOL     OW31678   0.467   0.057   3.175
10260SOL    HW131679   0.411   0.032   3.254
10260SOL    HW231680   0.409   0.098   3.104
10261SOL     OW31681   0.273   3.956   0.836
10261SOL    HW131682   0.278   3.857   0.819
10261SOL    HW231683   0.254   4.003   0.750
10262SOL     OW31684   3.590   1.135   0.125
10262SOL    HW131685   3.665   1.182   0.079
10262SOL    HW231686   3.628   1.072   0.194
10263SOL     OW31687   5.544   0.615   2.510
10263SOL    HW131688   5.511   0.565   2.590
10263SOL    HW231689   5.572   0.707   2.537
10264SOL     OW31690   6.674   0.648   6.583
10264SOL    HW131691   6.577   0.640   6.607
10264SOL    HW231692   6.711   0.558   6.562
10265SOL     OW31693   1.741   1.836   1.272
10265SOL    HW131694   1.696   1.767   1.329
10265SOL    HW231695   1.685   1.918   1.270
10266SOL     OW31696   2.579   3.455   1.711
10266SOL    HW131697   2.620   3.545   1.726
10266SOL    HW231698   2.503   3.442   1.774
10267SOL     OW31699   6.186   0.122   0.453
10267SOL    HW131700   6.248   0.200   0.457
10267SOL    HW231701   6.165   0.101   0.357
10268SOL     OW31702   3.805   6.419   2.135
10268SOL    HW131703   3.833   6.460   2.048
10268SOL    HW231704   3.705   6.411   2.137
10269SOL     OW31705   2.098   2.089   0.998
10269SOL    HW131706   2.070   1.995   0.980
10269SOL    HW231707   2.079   2.146   0.918
10270SOL     OW31708   3.123   0.793   3.228
10270SOL    HW131709   3.054   0.752   3.287
10270SOL    HW231710   3.202   0.820   3.283
10271SOL     OW31711   1.802   1.258   6.600
10271SOL    HW131712   1.842   1.169   6.580
10271SOL    HW231713   1.750   1.290   6.521
10272SOL     OW31714   6.360   6.863   4.530
10272SOL    HW131715   6.286   6.920   4.568
10272SOL    HW231716   6.387   6.898   4.441
10273SOL     OW31717   2.475   5.569   3.702
10273SOL    HW131718   2.418   5.487   3.704
10273SOL    HW231719   2.423   5.646   3.738
10274SOL     OW31720   0.742   4.474   4.915
10274SOL    HW131721   0.764   4.452   4.820
10274SOL    HW231722   0.799   4.420   4.976
10275SOL     OW31723   6.616   0.619   1.666
10275SOL    HW131724   6.714   0.617   1.685
10275SOL    HW231725   6.567   0.572   1.739
10276SOL     OW31726   2.952   5.581   5.496
10276SOL    HW131727   2.984   5.637   5.572
10276SOL    HW231728   2.893   5.635   5.437
10277SOL     OW31729   1.079   5.979   4.234
10277SOL    HW131730   0.983   5.973   4.264
10277SOL    HW231731   1.085   6.038   4.154
10278SOL     OW31732   6.756   6.945   4.932
10278SOL    HW131733   6.792   6.976   4.844
10278SOL    HW231734   6.827   6.953   5.001
10279SOL     OW31735   1.235   5.945   3.989
10279SOL    HW131736   1.152   5.894   3.966
10279SOL    HW231737   1.230   6.036   3.947
10280SOL     OW31738   6.711   4.736   0.368
10280SOL    HW131739   6.618   4.703   0.379
10280SOL    HW231740   6.709   4.835   0.351
10281SOL     OW31741   6.044   1.040   3.509
10281SOL    HW131742   6.096   1.125   3.518
10281SOL    HW231743   6.081   0.971   3.570
10282SOL     OW31744   4.907   2.967   3.722
10282SOL    HW131745   4.957   3.026   3.785
10282SOL    HW231746   4.900   3.011   3.633
10283SOL     OW31747   0.954   2.863   0.918
10283SOL    HW131748   0.912   2.865   1.008
10283SOL    HW231749   0.883   2.865   0.848
10284SOL     OW31750   6.944   4.312   3.983
10284SOL    HW131751   6.852   4.284   4.013
10284SOL    HW231752   7.012   4.279   4.048
10285SOL     OW31753   6.491   6.850   5.791
10285SOL    HW131754   6.470   6.762   5.835
10285SOL    HW231755   6.525   6.914   5.859
10286SOL     OW31756   2.638   1.671   3.041
10286SOL    HW131757   2.653   1.636   3.133
10286SOL    HW231758   2.717   1.725   3.012
10287SOL     OW31759   1.474   5.628   2.708
10287SOL    HW131760   1.448   5.577   2.626
10287SOL    HW231761   1.407   5.611   2.780
10288SOL     OW31762   3.839   6.232   5.311
10288SOL    HW131763   3.814   6.180   5.393
10288SOL    HW231764   3.932   6.207   5.284
10289SOL     OW31765   3.758   6.078   0.185
10289SOL    HW131766   3.744   6.076   0.284
10289SOL    HW231767   3.853   6.055   0.164
10290SOL     OW31768   3.354   3.329   1.803
10290SOL    HW131769   3.410   3.412   1.801
10290SOL    HW231770   3.267   3.349   1.847
10291SOL     OW31771   2.290   1.815   2.285
10291SOL    HW131772   2.307   1.892   2.224
10291SOL    HW231773   2.205   1.770   2.260
10292SOL     OW31774   0.003   0.017   6.276
10292SOL    HW131775   6.999   6.955   6.319
10292SOL    HW231776   0.048   7.023   6.189
10293SOL     OW31777   1.326   3.961   4.996
10293SOL    HW131778   1.381   4.038   4.964
10293SOL    HW231779   1.384   3.880   5.005
10294SOL     OW31780   3.531   0.809   2.463
10294SOL    HW131781   3.578   0.781   2.379
10294SOL    HW231782   3.586   0.785   2.542
10295SOL     OW31783   1.202   1.319   6.456
10295SOL    HW131784   1.173   1.330   6.551
10295SOL    HW231785   1.258   1.398   6.430
10296SOL     OW31786   6.163   1.587   5.881
10296SOL    HW131787   6.173   1.548   5.790
10296SOL    HW231788   6.067   1.610   5.897
10297SOL     OW31789   3.465   1.616   0.418
10297SOL    HW131790   3.469   1.699   0.473
10297SOL    HW231791   3.376   1.571   0.432
10298SOL     OW31792   0.406   2.352   2.189
10298SOL    HW131793   0.426   2.274   2.248
10298SOL    HW231794   0.465   2.429   2.214
10299SOL     OW31795   4.576   0.098   2.816
10299SOL    HW131796   4.588   0.091   2.717
10299SOL    HW231797   4.490   0.146   2.836
10300SOL     OW31798   1.343   4.018   1.537
10300SOL    HW131799   1.367   3.928   1.499
10300SOL    HW231800   1.420   4.054   1.589
10301SOL     OW31801   3.770   0.985   0.305
10301SOL    HW131802   3.779   0.893   0.268
10301SOL    HW231803   3.851   1.008   0.359
10302SOL     OW31804   2.750   6.434   4.950
10302SOL    HW131805   2.753   6.504   5.021
10302SOL    HW231806   2.733   6.476   4.861
10303SOL     OW31807   0.591   4.841   4.658
10303SOL    HW131808   0.533   4.921   4.642
10303SOL    HW231809   0.587   4.781   4.578
10304SOL     OW31810   6.043   6.266   0.827
10304SOL    HW131811   5.995   6.345   0.865
10304SOL    HW231812   6.101   6.295   0.751
10305SOL     OW31813   3.042   4.086   6.201
10305SOL    HW131814   3.007   4.168   6.157
10305SOL    HW231815   3.090   4.030   6.132
10306SOL     OW31816   3.961   0.491   1.042
10306SOL    HW131817   4.042   0.519   0.991
10306SOL    HW231818   3.886   0.473   0.978
10307SOL     OW31819   1.687   0.353   5.735
10307SOL    HW131820   1.707   0.362   5.832
10307SOL    HW231821   1.664   0.258   5.714
10308SOL     OW31822   3.137   4.737   1.850
10308SOL    HW131823   3.159   4.694   1.763
10308SOL    HW231824   3.061   4.687   1.894
10309SOL     OW31825   0.065   0.928   5.519
10309SOL    HW131826   0.131   0.951   5.447
10309SOL    HW231827   0.094   0.969   5.605
10310SOL     OW31828   2.564   4.040   5.664
10310SOL    HW131829   2.579   3.964   5.728
10310SOL    HW231830   2.467   4.064   5.664
10311SOL     OW31831   5.121   5.342   6.887
10311SOL    HW131832   5.200   5.403   6.883
10311SOL    HW231833   5.125   5.288   6.971
10312SOL     OW31834   3.652   6.730   2.080
10312SOL    HW131835   3.714   6.658   2.049
10312SOL    HW231836   3.635   6.794   2.005
10313SOL     OW31837   5.545   6.527   2.631
10313SOL    HW131838   5.489   6.490   2.706
10313SOL    HW231839   5.595   6.607   2.663
10314SOL     OW31840   0.352   0.239   0.806
10314SOL    HW131841   0.313   0.291   0.730
10314SOL    HW231842   0.452   0.247   0.803
10315SOL     OW31843   5.661   5.417   3.556
10315SOL    HW131844   5.660   5.427   3.655
10315SOL    HW231845   5.594   5.347   3.529
10316SOL     OW31846   0.600   1.484   0.094
10316SOL    HW131847   0.540   1.412   0.061
10316SOL    HW231848   0.663   1.512   0.021
10317SOL     OW31849   2.950   6.087   5.027
10317SOL    HW131850   2.924   6.120   4.936
10317SOL    HW231851   2.907   5.998   5.043
10318SOL     OW31852   6.640   0.455   0.067
10318SOL    HW131853   6.664   0.376   0.010
10318SOL    HW231854   6.548   0.443   0.104
10319SOL     OW31855   0.693   4.417   4.102
10319SOL    HW131856   0.631   4.456   4.035
10319SOL    HW231857   0.704   4.319   4.084
10320SOL     OW31858   0.629   6.770   3.205
10320SOL    HW131859   0.704   6.812   3.154
10320SOL    HW231860   0.546   6.825   3.194
10321SOL     OW31861   5.575   2.953   2.217
10321SOL    HW131862   5.619   3.019   2.277
10321SOL    HW231863   5.481   2.936   2.248
10322SOL     OW31864   4.575   4.443   4.756
10322SOL    HW131865   4.527   4.455   4.669
10322SOL    HW231866   4.512   4.462   4.832
10323SOL     OW31867   1.088   4.164   5.800
10323SOL    HW131868   1.146   4.093   5.761
10323SOL    HW231869   0.993   4.136   5.797
10324SOL     OW31870   3.226   3.060   2.200
10324SOL    HW131871   3.284   3.007   2.138
10324SOL    HW231872   3.141   3.084   2.154
10325SOL     OW31873   6.042   5.632   4.075
10325SOL    HW131874   5.997   5.560   4.128
10325SOL    HW231875   5.974   5.688   4.028
10326SOL     OW31876   5.583   3.770   6.514
10326SOL    HW131877   5.567   3.835   6.588
10326SOL    HW231878   5.559   3.678   6.544
10327SOL     OW31879   2.459   5.124   0.310
10327SOL    HW131880   2.449   5.031   0.275
10327SOL    HW231881   2.368   5.163   0.326
10328SOL     OW31882   5.819   2.404   2.487
10328SOL    HW131883   5.829   2.501   2.509
10328SOL    HW231884   5.819   2.392   2.388
10329SOL     OW31885   3.361   2.000   2.817
10329SOL    HW131886   3.344   2.076   2.755
10329SOL    HW231887   3.455   1.968   2.807
10330SOL     OW31888   5.389   0.448   1.731
10330SOL    HW131889   5.419   0.528   1.782
10330SOL    HW231890   5.452   0.372   1.749
10331SOL     OW31891   5.956   6.131   5.667
10331SOL    HW131892   6.043   6.092   5.699
10331SOL    HW231893   5.952   6.228   5.691
10332SOL     OW31894   1.596   1.248   6.368
10332SOL    HW131895   1.567   1.157   6.399
10332SOL    HW231896   1.519   1.294   6.325
10333SOL     OW31897   1.487   3.664   4.436
10333SOL    HW131898   1.393   3.630   4.426
10333SOL    HW231899   1.552   3.591   4.416
10334SOL     OW31900   3.223   1.583   4.134
10334SOL    HW131901   3.159   1.646   4.090
10334SOL    HW231902   3.316   1.602   4.103
10335SOL     OW31903   1.141   2.437   4.943
10335SOL    HW131904   1.123   2.513   4.881
10335SOL    HW231905   1.172   2.358   4.890
10336SOL     OW31906   5.668   6.692   3.207
10336SOL    HW131907   5.654   6.594   3.222
10336SOL    HW231908   5.612   6.723   3.130
10337SOL     OW31909   6.674   5.546   6.650
10337SOL    HW131910   6.655   5.573   6.744
10337SOL    HW231911   6.769   5.516   6.642
10338SOL     OW31912   1.319   6.585   1.772
10338SOL    HW131913   1.388   6.651   1.802
10338SOL    HW231914   1.364   6.510   1.723
10339SOL     OW31915   6.062   2.581   5.916
10339SOL    HW131916   5.995   2.508   5.919
10339SOL    HW231917   6.023   2.665   5.953
10340SOL     OW31918   2.492   3.675   6.219
10340SOL    HW131919   2.426   3.709   6.286
10340SOL    HW231920   2.580   3.660   6.264
10341SOL     OW31921   2.224   4.121   3.196
10341SOL    HW131922   2.271   4.135   3.109
10341SOL    HW231923   2.174   4.034   3.193
10342SOL     OW31924   0.319   0.967   3.734
10342SOL    HW131925   0.293   0.965   3.830
10342SOL    HW231926   0.250   1.016   3.681
10343SOL     OW31927   3.768   5.652   1.755
10343SOL    HW131928   3.768   5.584   1.681
10343SOL    HW231929   3.761   5.605   1.843
10344SOL     OW31930   4.621   6.574   6.631
10344SOL    HW131931   4.645   6.604   6.723
10344SOL    HW231932   4.585   6.480   6.636
10345SOL     OW31933   2.089   3.643   4.173
10345SOL    HW131934   2.061   3.572   4.108
10345SOL    HW231935   2.114   3.600   4.260
10346SOL     OW31936   0.284   5.867   0.037
10346SOL    HW131937   0.249   5.920   6.983
10346SOL    HW231938   0.358   5.808   0.006
10347SOL     OW31939   5.153   2.130   5.204
10347SOL    HW131940   5.227   2.196   5.193
10347SOL    HW231941   5.065   2.176   5.191
10348SOL     OW31942   6.468   4.749   1.132
10348SOL    HW131943   6.432   4.688   1.061
10348SOL    HW231944   6.519   4.695   1.199
10349SOL     OW31945   0.483   7.021   6.030
10349SOL    HW131946   0.580   0.022   6.028
10349SOL    HW231947   0.472   6.937   6.083
10350SOL     OW31948   2.789   0.521   6.453
10350SOL    HW131949   2.869   0.558   6.502
10350SOL    HW231950   2.780   0.424   6.474
10351SOL     OW31951   3.746   5.316   6.444
10351SOL    HW131952   3.742   5.348   6.538
10351SOL    HW231953   3.824   5.255   6.432
10352SOL     OW31954   3.613   4.211   6.342
10352SOL    HW131955   3.535   4.273   6.329
10352SOL    HW231956   3.651   4.226   6.433
10353SOL     OW31957   1.027   3.070   5.098
10353SOL    HW131958   1.103   3.134   5.109
10353SOL    HW231959   1.059   2.989   5.050
10354SOL     OW31960   5.296   1.759   1.238
10354SOL    HW131961   5.309   1.664   1.266
10354SOL    HW231962   5.385   1.804   1.234
10355SOL     OW31963   1.277   4.897   2.930
10355SOL    HW131964   1.179   4.879   2.941
10355SOL    HW231965   1.300   4.984   2.974
10356SOL     OW31966   0.538   2.400   4.477
10356SOL    HW131967   0.515   2.475   4.538
10356SOL    HW231968   0.510   2.423   4.384
10357SOL     OW31969   3.502   2.511   6.892
10357SOL    HW131970   3.427   2.576   6.876
10357SOL    HW231971   3.501   2.482   6.987
10358SOL     OW31972   6.742   1.070   2.176
10358SOL    HW131973   6.692   1.153   2.151
10358SOL    HW231974   6.728   1.051   2.273
10359SOL     OW31975   0.989   1.266   0.837
10359SOL    HW131976   1.020   1.304   0.924
10359SOL    HW231977   1.060   1.281   0.768
10360SOL     OW31978   6.738   4.952   3.190
10360SOL    HW131979   6.813   4.976   3.129
10360SOL    HW231980   6.775   4.915   3.276
10361SOL     OW31981   1.969   5.182   1.464
10361SOL    HW131982   2.067   5.189   1.446
10361SOL    HW231983   1.954   5.164   1.562
10362SOL     OW31984   1.926   4.630   4.847
10362SOL    HW131985   2.021   4.632   4.877
10362SOL    HW231986   1.875   4.565   4.904
10363SOL     OW31987   5.708   0.230   3.888
10363SOL    HW131988   5.684   0.303   3.952
10363SOL    HW231989   5.630   0.168   3.878
10364SOL     OW31990   1.729   4.328   1.001
10364SOL    HW131991   1.764   4.408   1.049
10364SOL    HW231992   1.802   4.260   0.991
10365SOL     OW31993   4.742   5.579   0.173
10365SOL    HW131994   4.642   5.579   0.168
10365SOL    HW231995   4.780   5.598   0.083
10366SOL     OW31996   3.806   6.513   3.938
10366SOL    HW131997   3.820   6.425   3.984
10366SOL    HW231998   3.850   6.511   3.848
10367SOL     OW31999   6.434   1.643   3.438
10367SOL    HW132000   6.465   1.635   3.533
10367SOL    HW232001   6.499   1.597   3.377
10368SOL     OW32002   2.386   0.320   1.160
10368SOL    HW132003   2.343   0.329   1.250
10368SOL    HW232004   2.447   0.241   1.161
10369SOL     OW32005   4.424   2.695   6.965
10369SOL    HW132006   4.324   2.702   6.963
10369SOL    HW232007   4.456   2.707   0.035
10370SOL     OW32008   4.191   0.701   5.231
10370SOL    HW132009   4.159   0.775   5.289
10370SOL    HW232010   4.115   0.664   5.179
10371SOL     OW32011   5.193   6.278   5.745
10371SOL    HW132012   5.229   6.186   5.757
10371SOL    HW232013   5.192   6.326   5.832
10372SOL     OW32014   1.264   0.913   3.350
10372SOL    HW132015   1.226   0.993   3.304
10372SOL    HW232016   1.363   0.910   3.336
10373SOL     OW32017   1.573   5.247   5.069
10373SOL    HW132018   1.616   5.275   4.983
10373SOL    HW232019   1.619   5.292   5.145
10374SOL     OW32020   3.147   1.796   4.597
10374SOL    HW132021   3.115   1.822   4.506
10374SOL    HW232022   3.069   1.787   4.658
10375SOL     OW32023   0.206   1.908   0.588
10375SOL    HW132024   0.207   1.851   0.670
10375SOL    HW232025   0.285   1.887   0.532
10376SOL     OW32026   6.208   0.602   3.482
10376SOL    HW132027   6.172   0.543   3.554
10376SOL    HW232028   6.282   0.556   3.434
10377SOL     OW32029   0.488   6.562   4.280
10377SOL    HW132030   0.438   6.475   4.290
10377SOL    HW232031   0.527   6.588   4.369
10378SOL     OW32032   6.178   0.011   5.930
10378SOL    HW132033   6.212   7.010   5.839
10378SOL    HW232034   6.094   6.985   5.949
10379SOL     OW32035   4.575   1.907   4.280
10379SOL    HW132036   4.530   1.988   4.317
10379SOL    HW232037   4.664   1.896   4.324
10380SOL     OW32038   4.188   1.087   3.689
10380SOL    HW132039   4.264   1.125   3.742
10380SOL    HW232040   4.210   1.088   3.592
10381SOL     OW32041   4.443   5.777   4.741
10381SOL    HW132042   4.490   5.728   4.667
10381SOL    HW232043   4.510   5.812   4.806
10382SOL     OW32044   1.337   6.034   0.424
10382SOL    HW132045   1.326   6.129   0.454
10382SOL    HW232046   1.360   6.033   0.327
10383SOL     OW32047   5.216   2.404   0.170
10383SOL    HW132048   5.264   2.468   0.110
10383SOL    HW232049   5.216   2.313   0.128
10384SOL     OW32050   6.087   1.019   6.707
10384SOL    HW132051   6.183   0.995   6.696
10384SOL    HW232052   6.080   1.103   6.762
10385SOL     OW32053   6.345   2.341   6.739
10385SOL    HW132054   6.375   2.406   6.669
10385SOL    HW232055   6.315   2.391   6.821
10386SOL     OW32056   6.551   1.646   6.489
10386SOL    HW132057   6.490   1.725   6.500
10386SOL    HW232058   6.528   1.599   6.404
10387SOL     OW32059   1.534   3.883   2.180
10387SOL    HW132060   1.556   3.821   2.104
10387SOL    HW232061   1.519   3.829   2.263
10388SOL     OW32062   1.758   4.840   2.292
10388SOL    HW132063   1.726   4.855   2.198
10388SOL    HW232064   1.696   4.776   2.338
10389SOL     OW32065   0.637   5.654   3.605
10389SOL    HW132066   0.629   5.649   3.705
10389SOL    HW232067   0.628   5.749   3.575
10390SOL     OW32068   2.033   3.980   3.487
10390SOL    HW132069   2.050   3.929   3.571
10390SOL    HW232070   2.023   4.077   3.508
10391SOL     OW32071   3.456   6.176   4.529
10391SOL    HW132072   3.359   6.157   4.541
10391SOL    HW232073   3.502   6.177   4.618
10392SOL     OW32074   6.367   5.207   6.727
10392SOL    HW132075   6.269   5.220   6.711
10392SOL    HW232076   6.391   5.111   6.712
10393SOL     OW32077   0.485   1.064   4.248
10393SOL    HW132078   0.517   0.971   4.231
10393SOL    HW232079   0.526   1.100   4.331
10394SOL     OW32080   2.758   6.769   1.146
10394SOL    HW132081   2.713   6.681   1.163
10394SOL    HW232082   2.856   6.755   1.133
10395SOL     OW32083   1.585   1.607   4.843
10395SOL    HW132084   1.648   1.537   4.876
10395SOL    HW232085   1.511   1.619   4.910
10396SOL     OW32086   0.579   0.062   5.309
10396SOL    HW132087   0.657   0.095   5.256
10396SOL    HW232088   0.585   0.096   5.402
10397SOL     OW32089   4.549   1.698   2.681
10397SOL    HW132090   4.530   1.664   2.773
10397SOL    HW232091   4.520   1.630   2.614
10398SOL     OW32092   6.853   3.477   2.370
10398SOL    HW132093   6.791   3.403   2.395
10398SOL    HW232094   6.941   3.464   2.415
10399SOL     OW32095   6.046   2.803   5.349
10399SOL    HW132096   6.041   2.773   5.254
10399SOL    HW232097   6.138   2.839   5.369
10400SOL     OW32098   1.435   4.899   1.583
10400SOL    HW132099   1.433   4.889   1.682
10400SOL    HW232100   1.491   4.826   1.544
10401SOL     OW32101   1.332   5.505   0.979
10401SOL    HW132102   1.294   5.417   1.009
10401SOL    HW232103   1.378   5.549   1.057
10402SOL     OW32104   1.028   2.092   4.814
10402SOL    HW132105   1.108   2.145   4.840
10402SOL    HW232106   1.029   2.003   4.860
10403SOL     OW32107   5.355   0.892   2.064
10403SOL    HW132108   5.354   0.890   1.964
10403SOL    HW232109   5.400   0.810   2.099
10404SOL     OW32110   0.073   0.331   4.219
10404SOL    HW132111   0.144   0.281   4.171
10404SOL    HW232112   0.010   0.267   4.263
10405SOL     OW32113   2.531   6.310   6.850
10405SOL    HW132114   2.607   6.278   6.793
10405SOL    HW232115   2.447   6.309   6.796
10406SOL     OW32116   1.837   6.097   5.673
10406SOL    HW132117   1.809   6.011   5.630
10406SOL    HW232118   1.908   6.140   5.618
10407SOL     OW32119   1.858   1.239   6.310
10407SOL    HW132120   1.900   1.310   6.254
10407SOL    HW232121   1.758   1.250   6.307
10408SOL     OW32122   4.396   6.912   2.660
10408SOL    HW132123   4.328   6.982   2.641
10408SOL    HW232124   4.487   6.953   2.660
10409SOL     OW32125   6.816   5.074   2.404
10409SOL    HW132126   6.864   5.161   2.411
10409SOL    HW232127   6.852   5.022   2.326
10410SOL     OW32128   5.186   6.241   0.885
10410SOL    HW132129   5.255   6.204   0.822
10410SOL    HW232130   5.201   6.340   0.895
10411SOL     OW32131   1.608   4.757   2.051
10411SOL    HW132132   1.535   4.689   2.039
10411SOL    HW232133   1.695   4.718   2.022
10412SOL     OW32134   0.348   2.261   6.252
10412SOL    HW132135   0.322   2.354   6.229
10412SOL    HW232136   0.422   2.231   6.191
10413SOL     OW32137   6.927   1.804   5.086
10413SOL    HW132138   6.898   1.783   4.993
10413SOL    HW232139   6.873   1.881   5.121
10414SOL     OW32140   5.729   6.045   5.139
10414SOL    HW132141   5.756   6.100   5.218
10414SOL    HW232142   5.767   5.953   5.149
10415SOL     OW32143   6.741   5.457   3.095
10415SOL    HW132144   6.672   5.518   3.056
10415SOL    HW232145   6.698   5.371   3.122
10416SOL     OW32146   4.932   0.284   0.275
10416SOL    HW132147   4.891   0.337   0.349
10416SOL    HW232148   5.013   0.236   0.310
10417SOL     OW32149   4.491   4.572   4.182
10417SOL    HW132150   4.536   4.484   4.170
10417SOL    HW232151   4.559   4.645   4.179
10418SOL     OW32152   6.157   3.641   0.070
10418SOL    HW132153   6.227   3.585   0.115
10418SOL    HW232154   6.123   3.593   7.013
10419SOL     OW32155   1.881   0.568   4.437
10419SOL    HW132156   1.846   0.475   4.421
10419SOL    HW232157   1.805   0.630   4.455
10420SOL     OW32158   6.312   3.779   4.603
10420SOL    HW132159   6.242   3.731   4.657
10420SOL    HW232160   6.310   3.877   4.625
10421SOL     OW32161   0.933   3.801   4.327
10421SOL    HW132162   0.957   3.898   4.333
10421SOL    HW232163   0.914   3.765   4.418
10422SOL     OW32164   6.148   3.439   5.962
10422SOL    HW132165   6.057   3.429   5.922
10422SOL    HW232166   6.147   3.406   6.056
10423SOL     OW32167   2.674   5.186   3.012
10423SOL    HW132168   2.650   5.090   3.017
10423SOL    HW232169   2.758   5.197   2.957
10424SOL     OW32170   4.220   0.921   1.851
10424SOL    HW132171   4.177   0.980   1.783
10424SOL    HW232172   4.189   0.947   1.943
10425SOL     OW32173   1.135   3.945   0.247
10425SOL    HW132174   1.209   4.007   0.274
10425SOL    HW232175   1.058   4.000   0.213
10426SOL     OW32176   6.677   2.284   6.824
10426SOL    HW132177   6.731   2.312   6.744
10426SOL    HW232178   6.618   2.208   6.798
10427SOL     OW32179   5.985   0.807   3.920
10427SOL    HW132180   6.002   0.796   3.822
10427SOL    HW232181   5.970   0.903   3.941
10428SOL     OW32182   1.558   6.587   4.579
10428SOL    HW132183   1.523   6.529   4.652
10428SOL    HW232184   1.654   6.563   4.561
10429SOL     OW32185   2.187   4.379   1.696
10429SOL    HW132186   2.266   4.394   1.756
10429SOL    HW232187   2.116   4.330   1.746
10430SOL     OW32188   3.841   6.971   4.736
10430SOL    HW132189   3.752   7.014   4.721
10430SOL    HW232190   3.841   6.925   4.825
10431SOL     OW32191   3.899   1.782   4.337
10431SOL    HW132192   3.890   1.881   4.326
10431SOL    HW232193   3.954   1.745   4.262
10432SOL     OW32194   1.011   4.886   0.357
10432SOL    HW132195   1.033   4.898   0.453
10432SOL    HW232196   1.090   4.846   0.309
10433SOL     OW32197   3.514   6.403   4.389
10433SOL    HW132198   3.582   6.445   4.449
10433SOL    HW232199   3.491   6.312   4.423
10434SOL     OW32200   4.206   0.851   6.677
10434SOL    HW132201   4.276   0.914   6.709
10434SOL    HW232202   4.197   0.860   6.577
10435SOL     OW32203   2.706   1.637   1.367
10435SOL    HW132204   2.664   1.585   1.441
10435SOL    HW232205   2.671   1.730   1.367
10436SOL     OW32206   1.005   3.396   5.011
10436SOL    HW132207   1.056   3.428   5.091
10436SOL    HW232208   0.908   3.388   5.033
10437SOL     OW32209   0.022   6.043   4.375
10437SOL    HW132210   0.035   5.945   4.368
10437SOL    HW232211   0.069   6.089   4.300
10438SOL     OW32212   6.819   5.748   6.496
10438SOL    HW132213   6.756   5.797   6.436
10438SOL    HW232214   6.769   5.678   6.547
10439SOL     OW32215   6.084   5.491   4.450
10439SOL    HW132216   6.047   5.481   4.358
10439SOL    HW232217   6.183   5.504   4.445
10440SOL     OW32218   5.735   2.577   1.198
10440SOL    HW132219   5.749   2.611   1.106
10440SOL    HW232220   5.700   2.650   1.256
10441SOL     OW32221   4.351   1.932   6.767
10441SOL    HW132222   4.283   1.938   6.695
10441SOL    HW232223   4.408   1.852   6.753
10442SOL     OW32224   2.657   0.941   5.052
10442SOL    HW132225   2.642   0.845   5.027
10442SOL    HW232226   2.572   0.992   5.042
10443SOL     OW32227   0.957   0.442   0.036
10443SOL    HW132228   0.969   0.540   0.052
10443SOL    HW232229   0.922   0.398   0.119
10444SOL     OW32230   4.284   5.205   3.825
10444SOL    HW132231   4.305   5.119   3.872
10444SOL    HW232232   4.245   5.185   3.735
10445SOL     OW32233   0.942   3.585   4.007
10445SOL    HW132234   0.945   3.523   3.928
10445SOL    HW232235   0.892   3.668   3.982
10446SOL     OW32236   2.241   5.012   4.729
10446SOL    HW132237   2.295   4.961   4.796
10446SOL    HW232238   2.253   5.110   4.743
10447SOL     OW32239   0.862   1.880   2.699
10447SOL    HW132240   0.828   1.785   2.699
10447SOL    HW232241   0.792   1.940   2.662
10448SOL     OW32242   1.200   5.981   2.453
10448SOL    HW132243   1.221   5.908   2.518
10448SOL    HW232244   1.116   5.958   2.404
10449SOL     OW32245   3.860   4.993   4.892
10449SOL    HW132246   3.929   4.932   4.855
10449SOL    HW232247   3.769   4.959   4.867
10450SOL     OW32248   0.956   2.213   3.743
10450SOL    HW132249   1.055   2.210   3.731
10450SOL    HW232250   0.912   2.151   3.678
10451SOL     OW32251   3.246   1.962   4.156
10451SOL    HW132252   3.263   1.964   4.254
10451SOL    HW232253   3.329   1.932   4.108
10452SOL     OW32254   6.866   2.912   4.713
10452SOL    HW132255   6.797   2.842   4.695
10452SOL    HW232256   6.928   2.919   4.635
10453SOL     OW32257   3.765   4.934   4.391
10453SOL    HW132258   3.806   4.969   4.476
10453SOL    HW232259   3.677   4.890   4.411
10454SOL     OW32260   6.348   1.025   6.704
10454SOL    HW132261   6.395   0.974   6.776
10454SOL    HW232262   6.382   1.119   6.703
10455SOL     OW32263   0.507   6.131   2.622
10455SOL    HW132264   0.576   6.161   2.687
10455SOL    HW232265   0.506   6.191   2.542
10456SOL     OW32266   1.510   5.537   6.438
10456SOL    HW132267   1.443   5.598   6.480
10456SOL    HW232268   1.552   5.480   6.509
10457SOL     OW32269   4.154   1.293   0.402
10457SOL    HW132270   4.107   1.336   0.325
10457SOL    HW232271   4.233   1.242   0.367
10458SOL     OW32272   1.283   6.179   6.998
10458SOL    HW132273   1.185   6.167   6.983
10458SOL    HW232274   1.312   6.266   6.959
10459SOL     OW32275   6.065   6.136   1.289
10459SOL    HW132276   6.032   6.088   1.371
10459SOL    HW232277   6.092   6.069   1.220
10460SOL     OW32278   5.987   0.576   6.923
10460SOL    HW132279   6.011   0.483   6.896
10460SOL    HW232280   5.968   0.580   7.021
10461SOL     OW32281   0.260   4.007   5.899
10461SOL    HW132282   0.258   3.959   5.987
10461SOL    HW232283   0.191   3.967   5.838
10462SOL     OW32284   3.734   3.905   6.731
10462SOL    HW132285   3.823   3.920   6.688
10462SOL    HW232286   3.686   3.832   6.683
10463SOL     OW32287   4.969   2.714   6.149
10463SOL    HW132288   4.879   2.758   6.148
10463SOL    HW232289   5.025   2.750   6.074
10464SOL     OW32290   6.382   4.266   1.818
10464SOL    HW132291   6.418   4.210   1.893
10464SOL    HW232292   6.398   4.362   1.838
10465SOL     OW32293   5.659   4.180   1.926
10465SOL    HW132294   5.667   4.264   1.980
10465SOL    HW232295   5.581   4.127   1.958
10466SOL     OW32296   5.819   3.788   5.507
10466SOL    HW132297   5.882   3.864   5.489
10466SOL    HW232298   5.750   3.784   5.435
10467SOL     OW32299   0.333   2.634   6.824
10467SOL    HW132300   0.348   2.535   6.815
10467SOL    HW232301   0.235   2.651   6.838
10468SOL     OW32302   1.574   3.996   3.934
10468SOL    HW132303   1.660   3.962   3.895
10468SOL    HW232304   1.546   3.937   4.009
10469SOL     OW32305   1.243   1.652   3.781
10469SOL    HW132306   1.163   1.685   3.730
10469SOL    HW232307   1.319   1.714   3.767
10470SOL     OW32308   2.230   3.978   2.073
10470SOL    HW132309   2.281   4.023   2.000
10470SOL    HW232310   2.192   3.892   2.039
10471SOL     OW32311   2.678   4.774   0.100
10471SOL    HW132312   2.686   4.743   0.005
10471SOL    HW232313   2.605   4.724   0.146
10472SOL     OW32314   4.189   5.367   6.244
10472SOL    HW132315   4.120   5.430   6.211
10472SOL    HW232316   4.217   5.393   6.336
10473SOL     OW32317   6.449   4.930   6.710
10473SOL    HW132318   6.508   4.902   6.786
10473SOL    HW232319   6.480   4.886   6.626
10474SOL     OW32320   6.344   6.419   5.152
10474SOL    HW132321   6.323   6.432   5.249
10474SOL    HW232322   6.354   6.508   5.108
10475SOL     OW32323   0.633   5.206   1.530
10475SOL    HW132324   0.606   5.259   1.611
10475SOL    HW232325   0.725   5.169   1.544
10476SOL     OW32326   5.341   6.858   1.446
10476SOL    HW132327   5.301   6.888   1.360
10476SOL    HW232328   5.305   6.914   1.521
10477SOL     OW32329   6.765   5.427   3.570
10477SOL    HW132330   6.760   5.456   3.666
10477SOL    HW232331   6.688   5.464   3.519
10478SOL     OW32332   0.242   0.995   6.484
10478SOL    HW132333   0.321   0.940   6.512
10478SOL    HW232334   0.273   1.072   6.429
10479SOL     OW32335   0.634   3.689   1.913
10479SOL    HW132336   0.640   3.613   1.978
10479SOL    HW232337   0.687   3.666   1.831
10480SOL     OW32338   2.558   0.717   3.064
10480SOL    HW132339   2.553   0.772   2.980
10480SOL    HW232340   2.549   0.620   3.040
10481SOL     OW32341   6.537   1.425   1.297
10481SOL    HW132342   6.563   1.521   1.286
10481SOL    HW232343   6.543   1.399   1.393
10482SOL     OW32344   5.381   3.687   4.259
10482SOL    HW132345   5.342   3.710   4.348
10482SOL    HW232346   5.373   3.589   4.243
10483SOL     OW32347   6.001   0.193   6.630
10483SOL    HW132348   5.955   0.142   6.557
10483SOL    HW232349   5.947   0.273   6.654
10484SOL     OW32350   6.392   0.751   1.639
10484SOL    HW132351   6.330   0.712   1.707
10484SOL    HW232352   6.486   0.727   1.662
10485SOL     OW32353   5.575   3.143   5.086
10485SOL    HW132354   5.624   3.229   5.096
10485SOL    HW232355   5.492   3.157   5.031
10486SOL     OW32356   5.457   2.744   2.738
10486SOL    HW132357   5.504   2.826   2.704
10486SOL    HW232358   5.443   2.680   2.663
10487SOL     OW32359   4.611   6.907   2.364
10487SOL    HW132360   4.682   6.877   2.301
10487SOL    HW232361   4.524   6.913   2.316
10488SOL     OW32362   3.553   4.126   6.735
10488SOL    HW132363   3.608   4.044   6.719
10488SOL    HW232364   3.585   4.200   6.676
10489SOL     OW32365   1.626   5.271   4.801
10489SOL    HW132366   1.565   5.271   4.721
10489SOL    HW232367   1.698   5.340   4.787
10490SOL     OW32368   6.240   0.259   4.021
10490SOL    HW132369   6.231   0.179   4.081
10490SOL    HW232370   6.158   0.267   3.964
10491SOL     OW32371   0.141   4.997   5.157
10491SOL    HW132372   0.058   4.976   5.106
10491SOL    HW232373   0.151   5.096   5.167
10492SOL     OW32374   4.277   4.128   5.639
10492SOL    HW132375   4.337   4.163   5.712
10492SOL    HW232376   4.189   4.175   5.643
10493SOL     OW32377   3.683   1.623   0.718
10493SOL    HW132378   3.648   1.530   0.707
10493SOL    HW232379   3.713   1.658   0.629
10494SOL     OW32380   5.271   1.455   5.878
10494SOL    HW132381   5.242   1.547   5.906
10494SOL    HW232382   5.289   1.455   5.779
10495SOL     OW32383   1.719   6.973   6.508
10495SOL    HW132384   1.792   0.007   6.545
10495SOL    HW232385   1.637   0.005   6.494
10496SOL     OW32386   6.185   0.280   5.576
10496SOL    HW132387   6.111   0.300   5.639
10496SOL    HW232388   6.262   0.342   5.595
10497SOL     OW32389   1.373   1.558   6.436
10497SOL    HW132390   1.411   1.545   6.528
10497SOL    HW232391   1.439   1.523   6.368
10498SOL     OW32392   3.374   4.927   6.094
10498SOL    HW132393   3.300   4.994   6.092
10498SOL    HW232394   3.336   4.834   6.097
10499SOL     OW32395   3.233   6.056   2.991
10499SOL    HW132396   3.185   6.040   2.905
10499SOL    HW232397   3.167   6.068   3.065
10500SOL     OW32398   2.264   2.066   6.851
10500SOL    HW132399   2.307   2.071   6.761
10500SOL    HW232400   2.204   2.145   6.864
10501SOL     OW32401   1.363   3.578   3.008
10501SOL    HW132402   1.404   3.631   3.082
10501SOL    HW232403   1.404   3.487   3.005
10502SOL     OW32404   3.105   5.697   4.932
10502SOL    HW132405   3.079   5.607   4.897
10502SOL    HW232406   3.203   5.696   4.955
10503SOL     OW32407   2.495   3.014   5.747
10503SOL    HW132408   2.487   3.090   5.682
10503SOL    HW232409   2.559   3.039   5.819
10504SOL     OW32410   2.143   3.684   1.286
10504SOL    HW132411   2.090   3.648   1.210
10504SOL    HW232412   2.085   3.742   1.344
10505SOL     OW32413   0.333   6.472   0.474
10505SOL    HW132414   0.293   6.530   0.544
10505SOL    HW232415   0.387   6.399   0.517
10506SOL     OW32416   0.323   4.000   5.178
10506SOL    HW132417   0.289   4.052   5.100
10506SOL    HW232418   0.252   3.936   5.209
10507SOL     OW32419   1.847   0.566   3.520
10507SOL    HW132420   1.851   0.467   3.510
10507SOL    HW232421   1.795   0.589   3.603
10508SOL     OW32422   5.779   3.808   2.801
10508SOL    HW132423   5.817   3.772   2.716
10508SOL    HW232424   5.689   3.767   2.817
10509SOL     OW32425   2.348   0.769   6.195
10509SOL    HW132426   2.379   0.676   6.214
10509SOL    HW232427   2.418   0.834   6.225
10510SOL     OW32428   5.782   6.948   6.839
10510SOL    HW132429   5.696   6.922   6.794
10510SOL    HW232430   5.762   7.016   6.910
10511SOL     OW32431   0.121   2.532   1.041
10511SOL    HW132432   0.021   2.531   1.048
10511SOL    HW232433   0.152   2.454   0.986
10512SOL     OW32434   2.588   0.261   6.320
10512SOL    HW132435   2.663   0.195   6.320
10512SOL    HW232436   2.561   0.280   6.414
10513SOL     OW32437   0.583   1.713   0.282
10513SOL    HW132438   0.587   1.631   0.225
10513SOL    HW232439   0.661   1.772   0.262
10514SOL     OW32440   0.597   2.830   1.633
10514SOL    HW132441   0.676   2.876   1.672
10514SOL    HW232442   0.625   2.741   1.597
10515SOL     OW32443   6.227   2.868   4.377
10515SOL    HW132444   6.168   2.924   4.435
10515SOL    HW232445   6.178   2.784   4.351
10516SOL     OW32446   2.654   6.525   0.681
10516SOL    HW132447   2.715   6.462   0.728
10516SOL    HW232448   2.655   6.506   0.582
10517SOL     OW32449   0.358   2.498   2.829
10517SOL    HW132450   0.337   2.459   2.919
10517SOL    HW232451   0.452   2.533   2.829
10518SOL     OW32452   0.840   6.369   2.615
10518SOL    HW132453   0.809   6.433   2.685
10518SOL    HW232454   0.868   6.283   2.659
10519SOL     OW32455   3.804   3.833   6.081
10519SOL    HW132456   3.778   3.911   6.138
10519SOL    HW232457   3.855   3.865   6.001
10520SOL     OW32458   3.626   5.055   6.870
10520SOL    HW132459   3.570   5.093   6.944
10520SOL    HW232460   3.648   4.960   6.890
10521SOL     OW32461   6.158   5.346   1.814
10521SOL    HW132462   6.146   5.444   1.834
10521SOL    HW232463   6.068   5.302   1.811
10522SOL     OW32464   6.966   6.999   2.132
10522SOL    HW132465   6.940   6.964   2.042
10522SOL    HW232466   6.897   6.973   2.199
10523SOL     OW32467   6.936   5.993   5.778
10523SOL    HW132468   6.961   5.978   5.874
10523SOL    HW232469   6.852   5.942   5.757
10524SOL     OW32470   4.835   0.567   4.379
10524SOL    HW132471   4.884   0.498   4.325
10524SOL    HW232472   4.737   0.549   4.376
10525SOL     OW32473   2.882   6.200   4.789
10525SOL    HW132474   2.963   6.240   4.748
10525SOL    HW232475   2.816   6.272   4.810
10526SOL     OW32476   5.321   6.744   2.503
10526SOL    HW132477   5.421   6.741   2.505
10526SOL    HW232478   5.291   6.840   2.510
10527SOL     OW32479   1.504   2.994   4.498
10527SOL    HW132480   1.521   2.975   4.595
10527SOL    HW232481   1.510   3.093   4.482
10528SOL     OW32482   5.992   4.940   5.350
10528SOL    HW132483   5.928   4.876   5.306
10528SOL    HW232484   5.972   4.944   5.448
10529SOL     OW32485   0.011   5.929   4.064
10529SOL    HW132486   0.055   5.952   3.977
10529SOL    HW232487   7.008   5.832   4.064
10530SOL     OW32488   1.648   1.528   5.504
10530SOL    HW132489   1.554   1.561   5.500
10530SOL    HW232490   1.710   1.602   5.478
10531SOL     OW32491   1.585   1.897   5.026
10531SOL    HW132492   1.504   1.875   4.972
10531SOL    HW232493   1.647   1.819   5.026
10532SOL     OW32494   3.087   3.222   5.074
10532SOL    HW132495   3.176   3.265   5.092
10532SOL    HW232496   3.058   3.246   4.981
10533SOL     OW32497   3.170   1.028   6.439
10533SOL    HW132498   3.071   1.012   6.438
10533SOL    HW232499   3.190   1.116   6.397
10534SOL     OW32500   5.708   5.209   1.196
10534SOL    HW132501   5.616   5.191   1.161
10534SOL    HW232502   5.707   5.294   1.249
10535SOL     OW32503   0.002   0.928   1.494
10535SOL    HW132504   0.020   0.945   1.397
10535SOL    HW232505   0.072   0.975   1.549
10536SOL     OW32506   5.291   5.732   3.326
10536SOL    HW132507   5.387   5.723   3.298
10536SOL    HW232508   5.251   5.641   3.337
10537SOL     OW32509   6.420   5.452   0.886
10537SOL    HW132510   6.412   5.470   0.984
10537SOL    HW232511   6.369   5.370   0.862
10538SOL     OW32512   4.371   3.705   6.893
10538SOL    HW132513   4.338   3.721   6.986
10538SOL    HW232514   4.329   3.771   6.831
10539SOL     OW32515   0.860   3.194   5.272
10539SOL    HW132516   0.908   3.146   5.199
10539SOL    HW232517   0.817   3.126   5.333
10540SOL     OW32518   3.371   0.775   0.476
10540SOL    HW132519   3.424   0.691   0.467
10540SOL    HW232520   3.388   0.816   0.566
10541SOL     OW32521   4.054   2.548   0.679
10541SOL    HW132522   4.124   2.527   0.747
10541SOL    HW232523   4.084   2.625   0.623
10542SOL     OW32524   1.435   2.234   6.941
10542SOL    HW132525   1.389   2.285   7.014
10542SOL    HW232526   1.384   2.243   6.856
10543SOL     OW32527   2.965   0.297   4.965
10543SOL    HW132528   3.062   0.315   4.982
10543SOL    HW232529   2.926   0.249   5.043
10544SOL     OW32530   6.762   2.276   1.551
10544SOL    HW132531   6.690   2.265   1.620
10544SOL    HW232532   6.849   2.247   1.590
10545SOL     OW32533   4.683   1.292   3.037
10545SOL    HW132534   4.631   1.212   3.007
10545SOL    HW232535   4.621   1.358   3.080
10546SOL     OW32536   4.332   1.401   5.157
10546SOL    HW132537   4.349   1.386   5.059
10546SOL    HW232538   4.266   1.334   5.190
10547SOL     OW32539   4.640   6.883   1.461
10547SOL    HW132540   4.688   6.971   1.466
10547SOL    HW232541   4.694   6.814   1.510
10548SOL     OW32542   4.656   4.729   5.433
10548SOL    HW132543   4.571   4.697   5.474
10548SOL    HW232544   4.682   4.817   5.473
10549SOL     OW32545   0.803   1.481   1.374
10549SOL    HW132546   0.775   1.506   1.467
10549SOL    HW232547   0.724   1.445   1.324
10550SOL     OW32548   5.191   6.252   4.941
10550SOL    HW132549   5.178   6.328   5.005
10550SOL    HW232550   5.215   6.289   4.851
10551SOL     OW32551   1.093   2.564   5.755
10551SOL    HW132552   1.004   2.568   5.800
10551SOL    HW232553   1.137   2.477   5.775
10552SOL     OW32554   3.033   2.145   4.863
10552SOL    HW132555   3.071   2.186   4.946
10552SOL    HW232556   2.936   2.168   4.856
10553SOL     OW32557   3.148   5.048   6.022
10553SOL    HW132558   3.085   5.114   6.064
10553SOL    HW232559   3.218   5.097   5.970
10554SOL     OW32560   6.461   4.149   6.263
10554SOL    HW132561   6.500   4.061   6.239
10554SOL    HW232562   6.386   4.136   6.328
10555SOL     OW32563   3.591   2.823   1.109
10555SOL    HW132564   3.525   2.807   1.182
10555SOL    HW232565   3.580   2.755   1.037
10556SOL     OW32566   1.609   3.768   3.667
10556SOL    HW132567   1.697   3.783   3.712
10556SOL    HW232568   1.601   3.672   3.641
10557SOL     OW32569   5.500   1.218   3.561
10557SOL    HW132570   5.537   1.140   3.510
10557SOL    HW232571   5.431   1.264   3.505
10558SOL     OW32572   5.112   5.970   4.989
10558SOL    HW132573   5.157   6.043   4.936
10558SOL    HW232574   5.016   5.963   4.962
10559SOL     OW32575   4.414   2.699   0.666
10559SOL    HW132576   4.336   2.726   0.608
10559SOL    HW232577   4.384   2.631   0.732
10560SOL     OW32578   0.115   2.500   4.344
10560SOL    HW132579   0.070   2.423   4.297
10560SOL    HW232580   0.213   2.485   4.345
10561SOL     OW32581   2.224   4.005   6.353
10561SOL    HW132582   2.167   4.078   6.390
10561SOL    HW232583   2.251   4.028   6.259
10562SOL     OW32584   3.440   1.966   0.355
10562SOL    HW132585   3.345   1.939   0.371
10562SOL    HW232586   3.456   1.973   0.256
10563SOL     OW32587   1.515   2.269   2.731
10563SOL    HW132588   1.435   2.287   2.673
10563SOL    HW232589   1.541   2.173   2.722
10564SOL     OW32590   6.964   2.047   2.209
10564SOL    HW132591   7.007   2.135   2.230
10564SOL    HW232592   0.011   1.980   2.186
10565SOL     OW32593   5.283   1.571   4.637
10565SOL    HW132594   5.296   1.670   4.628
10565SOL    HW232595   5.371   1.526   4.652
10566SOL     OW32596   4.481   5.104   6.828
10566SOL    HW132597   4.532   5.176   6.781
10566SOL    HW232598   4.397   5.084   6.777
10567SOL     OW32599   2.411   5.306   3.879
10567SOL    HW132600   2.325   5.333   3.923
10567SOL    HW232601   2.487   5.349   3.928
10568SOL     OW32602   3.636   1.702   2.971
10568SOL    HW132603   3.553   1.654   3.001
10568SOL    HW232604   3.627   1.800   2.993
10569SOL     OW32605   6.305   2.964   3.324
10569SOL    HW132606   6.312   2.905   3.244
10569SOL    HW232607   6.241   3.039   3.306
10570SOL     OW32608   1.110   4.178   0.972
10570SOL    HW132609   1.145   4.261   1.016
10570SOL    HW232610   1.115   4.189   0.873
10571SOL     OW32611   6.513   6.644   4.586
10571SOL    HW132612   6.460   6.728   4.593
10571SOL    HW232613   6.491   6.584   4.663
10572SOL     OW32614   6.955   3.304   1.726
10572SOL    HW132615   6.930   3.374   1.660
10572SOL    HW232616   6.883   3.234   1.728
10573SOL     OW32617   5.961   4.394   5.862
10573SOL    HW132618   5.959   4.493   5.874
10573SOL    HW232619   6.029   4.354   5.922
10574SOL     OW32620   0.590   2.314   3.185
10574SOL    HW132621   0.643   2.229   3.188
10574SOL    HW232622   0.590   2.357   3.275
10575SOL     OW32623   1.099   7.007   6.001
10575SOL    HW132624   1.041   0.061   5.974
10575SOL    HW232625   1.042   6.926   6.014
10576SOL     OW32626   1.238   5.743   3.236
10576SOL    HW132627   1.303   5.667   3.238
10576SOL    HW232628   1.154   5.712   3.191
10577SOL     OW32629   0.525   2.437   5.660
10577SOL    HW132630   0.456   2.500   5.697
10577SOL    HW232631   0.517   2.348   5.706
10578SOL     OW32632   5.559   1.042   5.253
10578SOL    HW132633   5.604   0.957   5.227
10578SOL    HW232634   5.481   1.022   5.313
10579SOL     OW32635   5.730   6.896   0.510
10579SOL    HW132636   5.642   6.880   0.466
10579SOL    HW232637   5.804   6.862   0.452
10580SOL     OW32638   0.465   5.972   0.518
10580SOL    HW132639   0.521   5.999   0.440
10580SOL    HW232640   0.418   5.886   0.497
10581SOL     OW32641   4.775   2.470   3.939
10581SOL    HW132642   4.828   2.408   3.881
10581SOL    HW232643   4.759   2.556   3.890
10582SOL     OW32644   3.181   4.863   0.017
10582SOL    HW132645   3.194   4.954   7.000
10582SOL    HW232646   3.270   4.827   0.046
10583SOL     OW32647   4.680   0.997   1.540
10583SOL    HW132648   4.646   1.010   1.447
10583SOL    HW232649   4.688   1.085   1.586
10584SOL     OW32650   6.134   6.565   1.122
10584SOL    HW132651   6.175   6.654   1.144
10584SOL    HW232652   6.086   6.529   1.201
10585SOL     OW32653   2.548   4.662   6.569
10585SOL    HW132654   2.503   4.725   6.507
10585SOL    HW232655   2.485   4.634   6.641
10586SOL     OW32656   4.687   1.802   0.827
10586SOL    HW132657   4.743   1.879   0.798
10586SOL    HW232658   4.590   1.828   0.823
10587SOL     OW32659   5.997   2.979   0.224
10587SOL    HW132660   5.949   2.891   0.219
10587SOL    HW232661   5.938   3.047   0.268
10588SOL     OW32662   1.357   5.148   2.981
10588SOL    HW132663   1.305   5.233   2.978
10588SOL    HW232664   1.444   5.161   2.935
10589SOL     OW32665   5.513   1.702   4.414
10589SOL    HW132666   5.537   1.712   4.511
10589SOL    HW232667   5.535   1.610   4.384
10590SOL     OW32668   1.215   7.013   5.311
10590SOL    HW132669   1.147   0.062   5.307
10590SOL    HW232670   1.305   0.028   5.333
10591SOL     OW32671   1.580   2.472   1.520
10591SOL    HW132672   1.619   2.499   1.432
10591SOL    HW232673   1.623   2.525   1.593
10592SOL     OW32674   5.950   1.282   6.739
10592SOL    HW132675   6.037   1.295   6.787
10592SOL    HW232676   5.956   1.324   6.648
10593SOL     OW32677   0.971   4.664   1.573
10593SOL    HW132678   1.065   4.689   1.595
10593SOL    HW232679   0.959   4.566   1.583
10594SOL     OW32680   1.279   1.511   4.284
10594SOL    HW132681   1.259   1.460   4.368
10594SOL    HW232682   1.319   1.599   4.308
10595SOL     OW32683   2.285   6.093   4.857
10595SOL    HW132684   2.196   6.132   4.837
10595SOL    HW232685   2.307   6.024   4.787
10596SOL     OW32686   3.251   0.987   1.996
10596SOL    HW132687   3.342   1.022   1.972
10596SOL    HW232688   3.183   1.026   1.934
10597SOL     OW32689   1.362   0.934   4.106
10597SOL    HW132690   1.378   0.849   4.156
10597SOL    HW232691   1.279   0.926   4.051
10598SOL     OW32692   2.032   1.226   0.356
10598SOL    HW132693   2.121   1.195   0.324
10598SOL    HW232694   1.967   1.227   0.279
10599SOL     OW32695   5.034   0.750   6.634
10599SOL    HW132696   5.020   0.818   6.706
10599SOL    HW232697   5.053   0.796   6.547
10600SOL     OW32698   1.560   2.951   5.215
10600SOL    HW132699   1.482   2.889   5.209
10600SOL    HW232700   1.591   2.956   5.310
10601SOL     OW32701   3.139   6.116   5.252
10601SOL    HW132702   3.226   6.075   5.223
10601SOL    HW232703   3.088   6.145   5.171
10602SOL     OW32704   4.549   1.362   1.453
10602SOL    HW132705   4.566   1.450   1.497
10602SOL    HW232706   4.555   1.372   1.354
10603SOL     OW32707   0.869   5.365   4.947
10603SOL    HW132708   0.851   5.370   5.045
10603SOL    HW232709   0.959   5.404   4.927
10604SOL     OW32710   0.465   4.160   5.763
10604SOL    HW132711   0.421   4.071   5.770
10604SOL    HW232712   0.551   4.159   5.814
10605SOL     OW32713   1.842   5.093   6.703
10605SOL    HW132714   1.808   5.171   6.756
10605SOL    HW232715   1.776   5.070   6.631
10606SOL     OW32716   7.000   1.027   2.167
10606SOL    HW132717   0.027   1.042   2.082
10606SOL    HW232718   6.905   1.058   2.155
10607SOL     OW32719   5.437   4.708   6.589
10607SOL    HW132720   5.435   4.636   6.521
10607SOL    HW232721   5.422   4.797   6.545
10608SOL     OW32722   5.394   0.163   2.941
10608SOL    HW132723   5.299   0.137   2.927
10608SOL    HW232724   5.445   0.150   2.855
10609SOL     OW32725   3.746   6.866   2.758
10609SOL    HW132726   3.686   6.820   2.824
10609SOL    HW232727   3.714   6.960   2.744
10610SOL     OW32728   2.191   4.592   4.562
10610SOL    HW132729   2.203   4.677   4.511
10610SOL    HW232730   2.196   4.610   4.660
10611SOL     OW32731   4.856   2.303   6.428
10611SOL    HW132732   4.843   2.357   6.511
10611SOL    HW232733   4.947   2.261   6.429
10612SOL     OW32734   1.635   0.347   1.151
10612SOL    HW132735   1.698   0.423   1.164
10612SOL    HW232736   1.547   0.382   1.118
10613SOL     OW32737   0.677   6.434   6.963
10613SOL    HW132738   0.761   6.381   6.953
10613SOL    HW232739   0.682   6.488   0.023
10614SOL     OW32740   6.759   0.540   2.831
10614SOL    HW132741   6.846   0.523   2.877
10614SOL    HW232742   6.689   0.478   2.866
10615SOL     OW32743   0.203   6.473   5.010
10615SOL    HW132744   0.252   6.396   4.970
10615SOL    HW232745   0.260   6.517   5.079
10616SOL     OW32746   2.651   6.053   1.338
10616SOL    HW132747   2.679   6.043   1.243
10616SOL    HW232748   2.732   6.048   1.397
10617SOL     OW32749   0.300   1.592   0.067
10617SOL    HW132750   0.356   1.521   0.023
10617SOL    HW232751   0.206   1.584   0.034
10618SOL     OW32752   6.165   3.758   0.877
10618SOL    HW132753   6.257   3.787   0.853
10618SOL    HW232754   6.165   3.717   0.968
10619SOL     OW32755   0.673   3.947   3.229
10619SOL    HW132756   0.587   3.985   3.261
10619SOL    HW232757   0.689   3.974   3.134
10620SOL     OW32758   1.537   5.323   4.470
10620SOL    HW132759   1.621   5.269   4.482
10620SOL    HW232760   1.558   5.420   4.484
10621SOL     OW32761   3.283   6.196   0.666
10621SOL    HW132762   3.285   6.123   0.597
10621SOL    HW232763   3.204   6.184   0.726
10622SOL     OW32764   4.208   2.036   1.030
10622SOL    HW132765   4.261   1.954   1.051
10622SOL    HW232766   4.116   2.010   1.002
10623SOL     OW32767   7.010   1.013   4.473
10623SOL    HW132768   0.066   0.978   4.423
10623SOL    HW232769   7.023   0.996   4.571
10624SOL     OW32770   3.093   0.972   3.563
10624SOL    HW132771   3.127   0.936   3.650
10624SOL    HW232772   3.170   0.996   3.504
10625SOL     OW32773   0.609   2.713   0.321
10625SOL    HW132774   0.686   2.744   0.377
10625SOL    HW232775   0.533   2.778   0.331
10626SOL     OW32776   5.980   2.523   2.247
10626SOL    HW132777   5.885   2.526   2.213
10626SOL    HW232778   6.042   2.549   2.173
10627SOL     OW32779   5.496   6.000   4.636
10627SOL    HW132780   5.432   5.927   4.661
10627SOL    HW232781   5.584   5.983   4.679
10628SOL     OW32782   0.064   5.817   5.570
10628SOL    HW132783   7.012   5.853   5.515
10628SOL    HW232784   0.050   5.841   5.666
10629SOL     OW32785   2.290   4.291   6.789
10629SOL    HW132786   2.218   4.225   6.764
10629SOL    HW232787   2.380   4.250   6.772
10630SOL     OW32788   6.226   0.625   1.790
10630SOL    HW132789   6.300   0.575   1.833
10630SOL    HW232790   6.146   0.626   1.850
10631SOL     OW32791   1.227   6.611   4.977
10631SOL    HW132792   1.320   6.583   5.002
10631SOL    HW232793   1.212   6.593   4.880
10632SOL     OW32794   6.815   3.273   5.935
10632SOL    HW132795   6.774   3.215   5.864
10632SOL    HW232796   6.840   3.216   6.014
10633SOL     OW32797   1.100   5.240   0.360
10633SOL    HW132798   1.015   5.225   0.308
10633SOL    HW232799   1.102   5.178   0.438
10634SOL     OW32800   3.404   6.428   2.435
10634SOL    HW132801   3.312   6.390   2.445
10634SOL    HW232802   3.446   6.392   2.352
10635SOL     OW32803   1.785   1.266   1.319
10635SOL    HW132804   1.741   1.177   1.304
10635SOL    HW232805   1.797   1.312   1.231
10636SOL     OW32806   5.109   1.422   0.917
10636SOL    HW132807   5.177   1.491   0.943
10636SOL    HW232808   5.035   1.421   0.985
10637SOL     OW32809   2.845   4.586   6.266
10637SOL    HW132810   2.893   4.670   6.239
10637SOL    HW232811   2.911   4.517   6.295
10638SOL     OW32812   6.797   6.840   6.017
10638SOL    HW132813   6.772   6.914   5.954
10638SOL    HW232814   6.894   6.847   6.040
10639SOL     OW32815   3.434   2.167   5.203
10639SOL    HW132816   3.371   2.208   5.269
10639SOL    HW232817   3.434   2.222   5.119
10640SOL     OW32818   4.517   6.285   0.972
10640SOL    HW132819   4.540   6.346   1.048
10640SOL    HW232820   4.513   6.191   1.004
10641SOL     OW32821   3.400   0.136   6.601
10641SOL    HW132822   3.426   0.071   6.672
10641SOL    HW232823   3.447   0.223   6.616
10642SOL     OW32824   6.953   4.957   0.404
10642SOL    HW132825   6.988   5.050   0.389
10642SOL    HW232826   6.857   4.953   0.375
10643SOL     OW32827   4.134   3.104   5.331
10643SOL    HW132828   4.109   3.200   5.345
10643SOL    HW232829   4.219   3.099   5.279
10644SOL     OW32830   4.024   1.354   5.055
10644SOL    HW132831   4.087   1.413   5.006
10644SOL    HW232832   3.984   1.288   4.992
10645SOL     OW32833   2.228   0.089   4.763
10645SOL    HW132834   2.202   0.001   4.802
10645SOL    HW232835   2.324   0.108   4.785
10646SOL     OW32836   0.436   4.772   6.769
10646SOL    HW132837   0.495   4.782   6.689
10646SOL    HW232838   0.479   4.816   6.848
10647SOL     OW32839   0.635   5.936   0.782
10647SOL    HW132840   0.602   5.924   0.876
10647SOL    HW232841   0.559   5.959   0.722
10648SOL     OW32842   4.809   5.018   6.331
10648SOL    HW132843   4.856   4.955   6.269
10648SOL    HW232844   4.858   5.021   6.418
10649SOL     OW32845   0.202   4.303   5.959
10649SOL    HW132846   0.217   4.266   5.867
10649SOL    HW232847   0.288   4.303   6.009
10650SOL     OW32848   3.027   0.805   5.648
10650SOL    HW132849   3.114   0.777   5.689
10650SOL    HW232850   3.014   0.756   5.562
10651SOL     OW32851   2.720   0.768   5.352
10651SOL    HW132852   2.675   0.775   5.441
10651SOL    HW232853   2.819   0.756   5.366
10652SOL     OW32854   3.819   1.698   0.444
10652SOL    HW132855   3.911   1.663   0.425
10652SOL    HW232856   3.761   1.682   0.364
10653SOL     OW32857   6.328   3.955   4.175
10653SOL    HW132858   6.321   3.876   4.235
10653SOL    HW232859   6.322   3.926   4.079
10654SOL     OW32860   4.648   0.664   1.721
10654SOL    HW132861   4.626   0.567   1.713
10654SOL    HW232862   4.628   0.710   1.634
10655SOL     OW32863   2.506   5.532   1.800
10655SOL    HW132864   2.580   5.481   1.844
10655SOL    HW232865   2.494   5.497   1.707
10656SOL     OW32866   6.479   2.561   6.527
10656SOL    HW132867   6.507   2.650   6.563
10656SOL    HW232868   6.560   2.507   6.503
10657SOL     OW32869   6.807   0.241   1.324
10657SOL    HW132870   6.860   0.164   1.359
10657SOL    HW232871   6.747   0.210   1.250
10658SOL     OW32872   6.991   6.224   4.009
10658SOL    HW132873   7.009   6.133   4.046
10658SOL    HW232874   0.034   6.244   3.937
10659SOL     OW32875   4.756   1.237   1.214
10659SOL    HW132876   4.708   1.177   1.278
10659SOL    HW232877   4.775   1.189   1.129
10660SOL     OW32878   5.792   5.755   5.954
10660SOL    HW132879   5.791   5.677   5.891
10660SOL    HW232880   5.797   5.840   5.901
10661SOL     OW32881   0.202   0.657   2.078
10661SOL    HW132882   0.141   0.697   2.146
10661SOL    HW232883   0.294   0.646   2.117
10662SOL     OW32884   6.755   1.818   0.034
10662SOL    HW132885   6.679   1.871   0.071
10662SOL    HW232886   6.765   1.733   0.087
10663SOL     OW32887   0.755   2.208   0.351
10663SOL    HW132888   0.726   2.161   0.267
10663SOL    HW232889   0.725   2.304   0.347
10664SOL     OW32890   2.259   5.227   6.193
10664SOL    HW132891   2.170   5.186   6.210
10664SOL    HW232892   2.283   5.286   6.270
10665SOL     OW32893   6.002   1.693   6.842
10665SOL    HW132894   6.004   1.759   6.917
10665SOL    HW232895   5.971   1.605   6.877
10666SOL     OW32896   0.644   6.973   0.272
10666SOL    HW132897   0.665   6.890   0.325
10666SOL    HW232898   0.570   7.023   0.318
10667SOL     OW32899   2.632   2.570   5.640
10667SOL    HW132900   2.685   2.543   5.560
10667SOL    HW232901   2.694   2.584   5.718
10668SOL     OW32902   2.274   1.072   6.487
10668SOL    HW132903   2.242   1.062   6.393
10668SOL    HW232904   2.342   1.145   6.492
10669SOL     OW32905   1.681   6.262   6.255
10669SOL    HW132906   1.593   6.261   6.208
10669SOL    HW232907   1.688   6.180   6.312
10670SOL     OW32908   6.362   4.035   4.692
10670SOL    HW132909   6.363   4.116   4.634
10670SOL    HW232910   6.444   4.033   4.749
10671SOL     OW32911   2.190   2.744   2.750
10671SOL    HW132912   2.176   2.827   2.804
10671SOL    HW232913   2.101   2.705   2.725
10672SOL     OW32914   0.021   2.640   0.622
10672SOL    HW132915   6.972   2.603   0.564
10672SOL    HW232916   0.074   2.565   0.660
10673SOL     OW32917   3.176   3.783   3.804
10673SOL    HW132918   3.221   3.856   3.856
10673SOL    HW232919   3.245   3.721   3.766
10674SOL     OW32920   4.006   1.350   2.512
10674SOL    HW132921   4.074   1.278   2.527
10674SOL    HW232922   3.982   1.354   2.415
10675SOL     OW32923   1.127   1.253   5.366
10675SOL    HW132924   1.136   1.332   5.307
10675SOL    HW232925   1.046   1.263   5.424
10676SOL     OW32926   6.945   0.695   6.666
10676SOL    HW132927   6.846   0.708   6.675
10676SOL    HW232928   6.968   0.599   6.682
10677SOL     OW32929   6.000   0.970   0.874
10677SOL    HW132930   5.970   0.890   0.926
10677SOL    HW232931   5.987   1.052   0.930
10678SOL     OW32932   1.754   5.230   3.529
10678SOL    HW132933   1.698   5.158   3.571
10678SOL    HW232934   1.777   5.205   3.435
10679SOL     OW32935   5.124   4.809   3.529
10679SOL    HW132936   5.137   4.798   3.627
10679SOL    HW232937   5.202   4.767   3.481
10680SOL     OW32938   0.405   2.823   3.362
10680SOL    HW132939   0.342   2.758   3.404
10680SOL    HW232940   0.463   2.776   3.296
10681SOL     OW32941   0.553   2.814   6.831
10681SOL    HW132942   0.473   2.756   6.846
10681SOL    HW232943   0.632   2.775   6.878
10682SOL     OW32944   6.559   1.744   3.085
10682SOL    HW132945   6.582   1.791   3.170
10682SOL    HW232946   6.520   1.809   3.020
10683SOL     OW32947   1.090   0.396   4.332
10683SOL    HW132948   1.059   0.312   4.288
10683SOL    HW232949   1.014   0.437   4.382
10684SOL     OW32950   5.024   5.847   0.671
10684SOL    HW132951   4.958   5.919   0.650
10684SOL    HW232952   4.976   5.761   0.689
10685SOL     OW32953   6.041   2.908   2.598
10685SOL    HW132954   6.091   2.841   2.653
10685SOL    HW232955   6.105   2.957   2.539
10686SOL     OW32956   4.427   4.446   1.410
10686SOL    HW132957   4.386   4.364   1.371
10686SOL    HW232958   4.358   4.495   1.463
10687SOL     OW32959   6.545   5.259   1.286
10687SOL    HW132960   6.491   5.177   1.267
10687SOL    HW232961   6.607   5.241   1.363
10688SOL     OW32962   0.789   4.729   1.231
10688SOL    HW132963   0.698   4.758   1.203
10688SOL    HW232964   0.813   4.774   1.317
10689SOL     OW32965   1.160   0.424   0.783
10689SOL    HW132966   1.124   0.431   0.877
10689SOL    HW232967   1.228   0.351   0.778
10690SOL     OW32968   4.487   6.791   3.045
10690SOL    HW132969   4.493   6.779   3.144
10690SOL    HW232970   4.421   6.863   3.024
10691SOL     OW32971   5.715   0.972   1.734
10691SOL    HW132972   5.797   1.030   1.727
10691SOL    HW232973   5.742   0.876   1.740
10692SOL     OW32974   6.415   6.545   3.953
10692SOL    HW132975   6.349   6.606   3.909
10692SOL    HW232976   6.372   6.501   4.032
10693SOL     OW32977   4.920   2.949   4.554
10693SOL    HW132978   4.895   2.877   4.489
10693SOL    HW232979   4.894   2.921   4.646
10694SOL     OW32980   2.361   5.976   0.326
10694SOL    HW132981   2.377   6.047   0.394
10694SOL    HW232982   2.279   5.999   0.273
10695SOL     OW32983   5.555   3.537   5.770
10695SOL    HW132984   5.651   3.554   5.791
10695SOL    HW232985   5.518   3.615   5.719
10696SOL     OW32986   6.600   6.821   1.119
10696SOL    HW132987   6.567   6.726   1.115
10696SOL    HW232988   6.699   6.823   1.105
10697SOL     OW32989   2.005   6.356   2.865
10697SOL    HW132990   1.966   6.348   2.957
10697SOL    HW232991   1.958   6.293   2.803
10698SOL     OW32992   2.901   0.628   4.708
10698SOL    HW132993   2.915   0.692   4.633
10698SOL    HW232994   2.921   0.535   4.676
10699SOL     OW32995   1.601   2.794   3.820
10699SOL    HW132996   1.514   2.807   3.866
10699SOL    HW232997   1.603   2.848   3.735
10700SOL     OW32998   1.057   2.845   2.578
10700SOL    HW132999   0.972   2.807   2.615
10700SOL    HW233000   1.132   2.781   2.594
10701SOL     OW33001   2.730   0.226   1.169
10701SOL    HW133002   2.715   0.293   1.097
10701SOL    HW233003   2.645   0.177   1.186
10702SOL     OW33004   4.978   2.356   0.602
10702SOL    HW133005   5.018   2.430   0.656
10702SOL    HW233006   5.051   2.296   0.569
10703SOL     OW33007   3.670   3.045   4.519
10703SOL    HW133008   3.631   2.995   4.442
10703SOL    HW233009   3.601   3.060   4.589
10704SOL     OW33010   5.589   5.447   2.313
10704SOL    HW133011   5.504   5.433   2.363
10704SOL    HW233012   5.660   5.481   2.376
10705SOL     OW33013   1.331   3.112   6.735
10705SOL    HW133014   1.393   3.190   6.731
10705SOL    HW233015   1.237   3.144   6.741
10706SOL     OW33016   3.715   3.239   0.969
10706SOL    HW133017   3.734   3.154   0.919
10706SOL    HW233018   3.776   3.311   0.937
10707SOL     OW33019   6.022   6.833   6.407
10707SOL    HW133020   6.095   6.901   6.396
10707SOL    HW233021   6.052   6.763   6.472
10708SOL     OW33022   4.779   1.675   1.727
10708SOL    HW133023   4.768   1.774   1.712
10708SOL    HW233024   4.730   1.625   1.656
10709SOL     OW33025   0.705   0.201   6.035
10709SOL    HW133026   0.670   0.264   6.104
10709SOL    HW233027   0.720   0.111   6.075
10710SOL     OW33028   0.389   6.063   3.405
10710SOL    HW133029   0.291   6.051   3.391
10710SOL    HW233030   0.415   6.156   3.380
10711SOL     OW33031   2.202   4.768   5.733
10711SOL    HW133032   2.175   4.844   5.673
10711SOL    HW233033   2.239   4.694   5.677
10712SOL     OW33034   3.421   1.651   6.471
10712SOL    HW133035   3.416   1.605   6.560
10712SOL    HW233036   3.329   1.682   6.445
10713SOL     OW33037   2.231   6.904   0.209
10713SOL    HW133038   2.229   6.981   0.272
10713SOL    HW233039   2.193   6.932   0.120
10714SOL     OW33040   5.249   5.454   4.239
10714SOL    HW133041   5.220   5.534   4.291
10714SOL    HW233042   5.334   5.418   4.278
10715SOL     OW33043   5.963   0.538   2.794
10715SOL    HW133044   6.039   0.566   2.736
10715SOL    HW233045   5.953   0.439   2.791
10716SOL     OW33046   6.901   0.647   1.689
10716SOL    HW133047   6.963   0.664   1.765
10716SOL    HW233048   6.954   0.613   1.610
10717SOL     OW33049   0.456   6.465   1.953
10717SOL    HW133050   0.511   6.504   1.879
10717SOL    HW233051   0.389   6.401   1.914
10718SOL     OW33052   1.072   4.504   5.358
10718SOL    HW133053   0.991   4.449   5.373
10718SOL    HW233054   1.062   4.556   5.273
10719SOL     OW33055   3.894   6.429   2.823
10719SOL    HW133056   3.807   6.380   2.835
10719SOL    HW233057   3.878   6.511   2.769
10720SOL     OW33058   0.390   3.010   5.901
10720SOL    HW133059   0.388   3.075   5.825
10720SOL    HW233060   0.459   2.939   5.883
10721SOL     OW33061   5.315   1.886   4.346
10721SOL    HW133062   5.282   1.926   4.431
10721SOL    HW233063   5.388   1.821   4.366
10722SOL     OW33064   0.703   5.420   0.554
10722SOL    HW133065   0.665   5.347   0.498
10722SOL    HW233066   0.663   5.507   0.526
10723SOL     OW33067   6.604   3.976   6.498
10723SOL    HW133068   6.672   3.991   6.569
10723SOL    HW233069   6.543   4.055   6.491
10724SOL     OW33070   3.628   6.967   6.105
10724SOL    HW133071   3.580   6.979   6.193
10724SOL    HW233072   3.602   0.016   6.042
10725SOL     OW33073   0.120   6.966   5.434
10725SOL    HW133074   0.078   6.970   5.344
10725SOL    HW233075   0.057   6.920   5.498
10726SOL     OW33076   0.158   0.347   3.098
10726SOL    HW133077   0.137   0.305   3.187
10726SOL    HW233078   0.235   0.298   3.056
10727SOL     OW33079   4.638   6.569   6.142
10727SOL    HW133080   4.697   6.554   6.222
10727SOL    HW233081   4.682   6.533   6.060
10728SOL     OW33082   5.809   5.661   3.776
10728SOL    HW133083   5.733   5.680   3.714
10728SOL    HW233084   5.820   5.737   3.839
10729SOL     OW33085   7.004   2.888   4.490
10729SOL    HW133086   6.974   2.837   4.409
10729SOL    HW233087   0.056   2.839   4.533
10730SOL     OW33088   1.691   6.327   4.328
10730SOL    HW133089   1.592   6.339   4.320
10730SOL    HW233090   1.711   6.251   4.390
10731SOL     OW33091   4.790   4.631   6.039
10731SOL    HW133092   4.797   4.628   5.939
10731SOL    HW233093   4.850   4.561   6.078
10732SOL     OW33094   6.179   5.903   2.092
10732SOL    HW133095   6.143   5.996   2.097
10732SOL    HW233096   6.159   5.855   2.178
10733SOL     OW33097   0.377   1.618   5.946
10733SOL    HW133098   0.317   1.544   5.915
10733SOL    HW233099   0.413   1.596   6.037
10734SOL     OW33100   0.661   0.899   4.475
10734SOL    HW133101   0.668   0.979   4.535
10734SOL    HW233102   0.627   0.821   4.527
10735SOL     OW33103   6.878   0.503   1.364
10735SOL    HW133104   6.954   0.520   1.427
10735SOL    HW233105   6.865   0.404   1.354
10736SOL     OW33106   5.789   6.031   3.763
10736SOL    HW133107   5.844   6.103   3.805
10736SOL    HW233108   5.716   6.004   3.825
10737SOL     OW33109   0.102   0.501   0.976
10737SOL    HW133110   0.188   0.501   1.027
10737SOL    HW233111   0.029   0.535   1.033
10738SOL     OW33112   1.495   6.771   1.912
10738SOL    HW133113   1.406   6.799   1.948
10738SOL    HW233114   1.556   6.747   1.987
10739SOL     OW33115   4.837   2.793   4.356
10739SOL    HW133116   4.757   2.782   4.297
10739SOL    HW233117   4.861   2.705   4.396
10740SOL     OW33118   2.771   0.639   6.090
10740SOL    HW133119   2.778   0.645   5.991
10740SOL    HW233120   2.821   0.559   6.122
10741SOL     OW33121   1.216   2.481   4.202
10741SOL    HW133122   1.137   2.502   4.261
10741SOL    HW233123   1.299   2.516   4.245
10742SOL     OW33124   0.477   0.312   2.151
10742SOL    HW133125   0.541   0.315   2.228
10742SOL    HW233126   0.481   0.398   2.101
10743SOL     OW33127   3.989   2.220   5.709
10743SOL    HW133128   4.077   2.240   5.667
10743SOL    HW233129   3.925   2.186   5.640
10744SOL     OW33130   2.025   2.251   1.206
10744SOL    HW133131   2.092   2.249   1.281
10744SOL    HW233132   2.045   2.177   1.141
10745SOL     OW33133   2.965   5.692   1.515
10745SOL    HW133134   2.876   5.645   1.518
10745SOL    HW233135   3.005   5.692   1.607
10746SOL     OW33136   2.441   5.503   6.186
10746SOL    HW133137   2.366   5.496   6.251
10746SOL    HW233138   2.491   5.588   6.201
10747SOL     OW33139   6.861   7.018   4.686
10747SOL    HW133140   6.808   7.001   4.603
10747SOL    HW233141   6.953   0.025   4.661
10748SOL     OW33142   2.918   6.655   2.574
10748SOL    HW133143   2.943   6.746   2.608
10748SOL    HW233144   2.856   6.664   2.496
10749SOL     OW33145   4.860   3.660   1.890
10749SOL    HW133146   4.871   3.682   1.987
10749SOL    HW233147   4.791   3.722   1.850
10750SOL     OW33148   3.782   1.834   3.927
10750SOL    HW133149   3.837   1.903   3.974
10750SOL    HW233150   3.686   1.862   3.929
10751SOL     OW33151   6.479   6.048   3.673
10751SOL    HW133152   6.510   6.142   3.686
10751SOL    HW233153   6.386   6.048   3.638
10752SOL     OW33154   0.612   6.110   6.584
10752SOL    HW133155   0.530   6.160   6.612
10752SOL    HW233156   0.605   6.014   6.612
10753SOL     OW33157   5.428   6.541   5.234
10753SOL    HW133158   5.499   6.483   5.195
10753SOL    HW233159   5.439   6.634   5.199
10754SOL     OW33160   0.282   5.748   2.160
10754SOL    HW133161   0.282   5.838   2.116
10754SOL    HW233162   0.292   5.759   2.259
10755SOL     OW33163   0.177   2.023   1.665
10755SOL    HW133164   0.272   2.045   1.688
10755SOL    HW233165   0.163   1.925   1.672
10756SOL     OW33166   1.313   6.869   5.908
10756SOL    HW133167   1.259   6.795   5.868
10756SOL    HW233168   1.253   6.947   5.929
10757SOL     OW33169   0.107   2.899   2.006
10757SOL    HW133170   0.073   2.893   1.912
10757SOL    HW233171   0.038   2.943   2.063
10758SOL     OW33172   1.091   1.647   0.679
10758SOL    HW133173   1.023   1.682   0.615
10758SOL    HW233174   1.122   1.557   0.649
10759SOL     OW33175   3.970   4.036   5.029
10759SOL    HW133176   4.051   4.094   5.015
10759SOL    HW233177   3.923   4.064   5.112
10760SOL     OW33178   1.093   4.889   6.699
10760SOL    HW133179   1.007   4.853   6.734
10760SOL    HW233180   1.086   4.989   6.691
10761SOL     OW33181   1.660   0.980   6.750
10761SOL    HW133182   1.588   1.045   6.722
10761SOL    HW233183   1.686   0.998   6.845
10762SOL     OW33184   1.841   6.542   0.747
10762SOL    HW133185   1.882   6.510   0.833
10762SOL    HW233186   1.773   6.612   0.767
10763SOL     OW33187   4.951   1.081   2.390
10763SOL    HW133188   5.042   1.073   2.349
10763SOL    HW233189   4.883   1.098   2.318
10764SOL     OW33190   5.144   6.351   5.489
10764SOL    HW133191   5.192   6.323   5.572
10764SOL    HW233192   5.093   6.435   5.506
10765SOL     OW33193   0.209   2.716   0.831
10765SOL    HW133194   0.144   2.727   0.756
10765SOL    HW233195   0.190   2.784   0.902
10766SOL     OW33196   2.742   4.769   6.848
10766SOL    HW133197   2.658   4.823   6.851
10766SOL    HW233198   2.761   4.743   6.753
10767SOL     OW33199   1.906   4.912   6.881
10767SOL    HW133200   1.988   4.856   6.879
10767SOL    HW233201   1.915   4.987   6.815
10768SOL     OW33202   5.387   6.107   6.536
10768SOL    HW133203   5.417   6.179   6.598
10768SOL    HW233204   5.466   6.076   6.482
10769SOL     OW33205   3.110   3.665   4.764
10769SOL    HW133206   3.069   3.641   4.676
10769SOL    HW233207   3.163   3.749   4.755
10770SOL     OW33208   4.770   0.021   3.657
10770SOL    HW133209   4.704   0.026   3.581
10770SOL    HW233210   4.860   0.052   3.625
10771SOL     OW33211   4.305   5.815   5.968
10771SOL    HW133212   4.290   5.762   6.052
10771SOL    HW233213   4.227   5.874   5.951
10772SOL     OW33214   4.781   4.199   3.053
10772SOL    HW133215   4.784   4.177   3.151
10772SOL    HW233216   4.691   4.237   3.030
10773SOL     OW33217   0.500   4.024   0.696
10773SOL    HW133218   0.419   4.016   0.754
10773SOL    HW233219   0.569   4.079   0.743
10774SOL     OW33220   0.490   3.232   0.763
10774SOL    HW133221   0.412   3.287   0.794
10774SOL    HW233222   0.495   3.234   0.664
10775SOL     OW33223   2.108   4.845   0.099
10775SOL    HW133224   2.015   4.873   0.124
10775SOL    HW233225   2.113   4.746   0.100
10776SOL     OW33226   0.510   3.433   3.211
10776SOL    HW133227   0.535   3.373   3.287
10776SOL    HW233228   0.501   3.527   3.245
10777SOL     OW33229   1.583   0.095   1.648
10777SOL    HW133230   1.675   0.091   1.688
10777SOL    HW233231   1.581   0.166   1.577
10778SOL     OW33232   4.637   0.349   3.606
10778SOL    HW133233   4.569   0.420   3.584
10778SOL    HW233234   4.656   0.351   3.704
10779SOL     OW33235   5.978   2.805   6.085
10779SOL    HW133236   6.006   2.890   6.042
10779SOL    HW233237   5.882   2.787   6.066
10780SOL     OW33238   1.168   4.868   5.094
10780SOL    HW133239   1.108   4.929   5.042
10780SOL    HW233240   1.250   4.918   5.122
10781SOL     OW33241   6.219   2.288   5.901
10781SOL    HW133242   6.259   2.233   5.828
10781SOL    HW233243   6.249   2.383   5.892
10782SOL     OW33244   0.990   3.235   5.508
10782SOL    HW133245   1.088   3.254   5.500
10782SOL    HW233246   0.949   3.236   5.417
10783SOL     OW33247   1.518   4.194   3.726
10783SOL    HW133248   1.420   4.184   3.713
10783SOL    HW233249   1.550   4.133   3.798
10784SOL     OW33250   4.793   5.410   3.884
10784SOL    HW133251   4.763   5.339   3.820
10784SOL    HW233252   4.881   5.384   3.924
10785SOL     OW33253   1.576   5.500   1.772
10785SOL    HW133254   1.490   5.457   1.799
10785SOL    HW233255   1.645   5.429   1.756
10786SOL     OW33256   5.169   1.343   2.700
10786SOL    HW133257   5.245   1.360   2.763
10786SOL    HW233258   5.152   1.245   2.694
10787SOL     OW33259   3.505   1.442   3.593
10787SOL    HW133260   3.579   1.482   3.540
10787SOL    HW233261   3.528   1.448   3.690
10788SOL     OW33262   1.523   2.762   6.941
10788SOL    HW133263   1.501   2.851   6.981
10788SOL    HW233264   1.494   2.762   6.845
10789SOL     OW33265   6.318   1.783   2.565
10789SOL    HW133266   6.416   1.774   2.582
10789SOL    HW233267   6.303   1.811   2.470
10790SOL     OW33268   0.042   2.293   5.238
10790SOL    HW133269   0.034   2.367   5.305
10790SOL    HW233270   6.977   2.248   5.228
10791SOL     OW33271   2.126   3.573   3.723
10791SOL    HW133272   2.137   3.673   3.727
10791SOL    HW233273   2.168   3.532   3.804
10792SOL     OW33274   3.955   1.395   2.224
10792SOL    HW133275   3.906   1.446   2.154
10792SOL    HW233276   3.922   1.300   2.226
10793SOL     OW33277   3.818   2.096   4.946
10793SOL    HW133278   3.751   2.055   4.884
10793SOL    HW233279   3.772   2.130   5.028
10794SOL     OW33280   4.696   3.052   6.483
10794SOL    HW133281   4.636   2.988   6.434
10794SOL    HW233282   4.791   3.028   6.466
10795SOL     OW33283   5.918   3.099   3.467
10795SOL    HW133284   5.992   3.058   3.521
10795SOL    HW233285   5.896   3.189   3.504
10796SOL     OW33286   0.547   1.725   6.794
10796SOL    HW133287   0.636   1.711   6.838
10796SOL    HW233288   0.496   1.795   6.844
10797SOL     OW33289   5.433   5.078   6.637
10797SOL    HW133290   5.376   5.055   6.558
10797SOL    HW233291   5.529   5.060   6.616
10798SOL     OW33292   1.788   5.830   0.357
10798SOL    HW133293   1.886   5.838   0.378
10798SOL    HW233294   1.752   5.920   0.332
10799SOL     OW33295   2.005   0.496   2.671
10799SOL    HW133296   2.019   0.592   2.646
10799SOL    HW233297   2.061   0.474   2.751
10800SOL     OW33298   2.144   0.627   4.552
10800SOL    HW133299   2.060   0.585   4.516
10800SOL    HW233300   2.216   0.622   4.483
10801SOL     OW33301   2.873   6.094   6.796
10801SOL    HW133302   2.838   6.003   6.773
10801SOL    HW233303   2.959   6.109   6.747
10802SOL     OW33304   1.076   4.903   3.894
10802SOL    HW133305   1.063   4.939   3.802
10802SOL    HW233306   1.038   4.811   3.900
10803SOL     OW33307   6.463   4.446   4.192
10803SOL    HW133308   6.444   4.348   4.203
10803SOL    HW233309   6.519   4.478   4.268
10804SOL     OW33310   4.084   4.623   0.471
10804SOL    HW133311   4.122   4.657   0.557
10804SOL    HW233312   4.084   4.523   0.472
10805SOL     OW33313   4.558   6.294   0.491
10805SOL    HW133314   4.531   6.345   0.573
10805SOL    HW233315   4.655   6.308   0.474
10806SOL     OW33316   5.248   3.052   5.979
10806SOL    HW133317   5.343   3.064   5.950
10806SOL    HW233318   5.187   3.077   5.903
10807SOL     OW33319   4.581   2.157   5.463
10807SOL    HW133320   4.650   2.146   5.534
10807SOL    HW233321   4.490   2.162   5.505
10808SOL     OW33322   0.533   2.248   0.167
10808SOL    HW133323   0.482   2.319   0.215
10808SOL    HW233324   0.470   2.191   0.114
10809SOL     OW33325   1.159   0.638   2.439
10809SOL    HW133326   1.118   0.664   2.352
10809SOL    HW233327   1.222   0.709   2.469
10810SOL     OW33328   1.747   1.084   6.075
10810SOL    HW133329   1.757   0.997   6.125
10810SOL    HW233330   1.773   1.160   6.134
10811SOL     OW33331   4.064   6.289   6.483
10811SOL    HW133332   4.058   6.290   6.384
10811SOL    HW233333   3.999   6.222   6.520
10812SOL     OW33334   6.639   2.928   3.392
10812SOL    HW133335   6.714   2.914   3.456
10812SOL    HW233336   6.624   3.026   3.378
10813SOL     OW33337   3.139   5.827   2.484
10813SOL    HW133338   3.042   5.840   2.463
10813SOL    HW233339   3.149   5.787   2.575
10814SOL     OW33340   1.946   6.533   4.636
10814SOL    HW133341   1.988   6.442   4.628
10814SOL    HW233342   1.886   6.548   4.557
10815SOL     OW33343   5.410   1.712   5.585
10815SOL    HW133344   5.339   1.780   5.601
10815SOL    HW233345   5.381   1.624   5.622
10816SOL     OW33346   2.248   2.010   1.578
10816SOL    HW133347   2.202   1.931   1.617
10816SOL    HW233348   2.347   1.999   1.587
10817SOL     OW33349   3.679   1.757   2.199
10817SOL    HW133350   3.607   1.691   2.177
10817SOL    HW233351   3.640   1.849   2.198
10818SOL     OW33352   4.741   3.533   6.139
10818SOL    HW133353   4.710   3.439   6.127
10818SOL    HW233354   4.775   3.569   6.052
10819SOL     OW33355   2.069   3.967   5.058
10819SOL    HW133356   2.163   4.000   5.042
10819SOL    HW233357   2.072   3.888   5.119
10820SOL     OW33358   0.745   5.933   5.241
10820SOL    HW133359   0.747   6.032   5.242
10820SOL    HW233360   0.793   5.898   5.322
10821SOL     OW33361   0.424   0.462   6.883
10821SOL    HW133362   0.329   0.448   6.913
10821SOL    HW233363   0.477   0.498   6.960
10822SOL     OW33364   0.766   4.546   6.252
10822SOL    HW133365   0.741   4.630   6.204
10822SOL    HW233366   0.788   4.474   6.185
10823SOL     OW33367   1.683   2.367   0.572
10823SOL    HW133368   1.619   2.361   0.495
10823SOL    HW233369   1.717   2.276   0.594
10824SOL     OW33370   5.505   0.991   4.583
10824SOL    HW133371   5.484   0.946   4.669
10824SOL    HW233372   5.455   1.078   4.578
10825SOL     OW33373   3.069   1.232   2.287
10825SOL    HW133374   3.068   1.315   2.343
10825SOL    HW233375   3.164   1.209   2.266
10826SOL     OW33376   6.798   3.491   1.250
10826SOL    HW133377   6.706   3.495   1.211
10826SOL    HW233378   6.854   3.429   1.196
10827SOL     OW33379   0.748   2.648   4.308
10827SOL    HW133380   0.665   2.594   4.297
10827SOL    HW233381   0.746   2.726   4.246
10828SOL     OW33382   2.456   4.625   0.149
10828SOL    HW133383   2.487   4.579   0.232
10828SOL    HW233384   2.453   4.560   0.074
10829SOL     OW33385   2.361   4.144   1.905
10829SOL    HW133386   2.345   4.222   1.965
10829SOL    HW233387   2.393   4.177   1.815
10830SOL     OW33388   6.176   0.832   3.682
10830SOL    HW133389   6.085   0.797   3.661
10830SOL    HW233390   6.245   0.777   3.634
10831SOL     OW33391   5.212   2.376   2.097
10831SOL    HW133392   5.148   2.308   2.061
10831SOL    HW233393   5.205   2.380   2.196
10832SOL     OW33394   0.970   2.873   2.311
10832SOL    HW133395   1.055   2.912   2.274
10832SOL    HW233396   0.976   2.867   2.410
10833SOL     OW33397   3.165   0.040   4.452
10833SOL    HW133398   3.083   0.010   4.404
10833SOL    HW233399   3.139   0.093   4.533
10834SOL     OW33400   0.179   1.435   5.901
10834SOL    HW133401   0.122   1.445   5.819
10834SOL    HW233402   0.123   1.450   5.982
10835SOL     OW33403   0.846   2.076   0.569
10835SOL    HW133404   0.788   2.105   0.645
10835SOL    HW233405   0.821   2.127   0.486
10836SOL     OW33406   0.713   2.467   0.996
10836SOL    HW133407   0.725   2.508   0.906
10836SOL    HW233408   0.716   2.539   1.066
10837SOL     OW33409   0.990   5.666   0.701
10837SOL    HW133410   1.078   5.704   0.728
10837SOL    HW233411   1.003   5.601   0.626
10838SOL     OW33412   6.584   5.973   0.449
10838SOL    HW133413   6.622   6.013   0.533
10838SOL    HW233414   6.637   5.891   0.425
10839SOL     OW33415   2.486   1.668   6.766
10839SOL    HW133416   2.516   1.716   6.683
10839SOL    HW233417   2.434   1.732   6.824
10840SOL     OW33418   1.956   0.394   3.028
10840SOL    HW133419   1.882   0.460   3.046
10840SOL    HW233420   2.034   0.442   2.987
10841SOL     OW33421   4.594   4.073   0.855
10841SOL    HW133422   4.596   4.155   0.798
10841SOL    HW233423   4.575   4.098   0.950
10842SOL     OW33424   6.307   1.911   1.829
10842SOL    HW133425   6.304   2.011   1.841
10842SOL    HW233426   6.271   1.867   1.911
10843SOL     OW33427   1.154   2.461   1.185
10843SOL    HW133428   1.083   2.430   1.122
10843SOL    HW233429   1.216   2.384   1.207
10844SOL     OW33430   5.158   7.022   4.116
10844SOL    HW133431   5.151   6.931   4.157
10844SOL    HW233432   5.219   0.055   4.172
10845SOL     OW33433   2.283   3.461   1.204
10845SOL    HW133434   2.310   3.397   1.277
10845SOL    HW233435   2.236   3.539   1.245
10846SOL     OW33436   3.545   3.129   1.840
10846SOL    HW133437   3.591   3.169   1.919
10846SOL    HW233438   3.473   3.191   1.809
10847SOL     OW33439   4.591   1.874   5.674
10847SOL    HW133440   4.608   1.957   5.728
10847SOL    HW233441   4.658   1.867   5.601
10848SOL     OW33442   1.541   0.649   6.909
10848SOL    HW133443   1.595   0.644   6.826
10848SOL    HW233444   1.583   0.714   6.972
10849SOL     OW33445   1.421   4.674   4.660
10849SOL    HW133446   1.358   4.616   4.710
10849SOL    HW233447   1.515   4.642   4.674
10850SOL     OW33448   5.602   0.829   2.674
10850SOL    HW133449   5.638   0.772   2.748
10850SOL    HW233450   5.651   0.916   2.673
10851SOL     OW33451   4.942   2.825   6.861
10851SOL    HW133452   5.034   2.861   6.877
10851SOL    HW233453   4.934   2.793   6.767
10852SOL     OW33454   5.717   0.864   5.919
10852SOL    HW133455   5.717   0.898   6.013
10852SOL    HW233456   5.777   0.784   5.913
10853SOL     OW33457   3.096   0.600   5.190
10853SOL    HW133458   3.165   0.529   5.177
10853SOL    HW233459   3.063   0.631   5.101
10854SOL     OW33460   6.433   7.021   0.355
10854SOL    HW133461   6.362   0.067   0.356
10854SOL    HW233462   6.450   6.988   0.448
10855SOL     OW33463   0.505   5.555   1.349
10855SOL    HW133464   0.483   5.465   1.312
10855SOL    HW233465   0.546   5.612   1.278
10856SOL     OW33466   5.403   6.388   6.717
10856SOL    HW133467   5.424   6.460   6.782
10856SOL    HW233468   5.358   6.427   6.636
10857SOL     OW33469   6.704   6.486   4.484
10857SOL    HW133470   6.638   6.556   4.511
10857SOL    HW233471   6.687   6.459   4.389
10858SOL     OW33472   1.477   2.401   0.379
10858SOL    HW133473   1.448   2.485   0.425
10858SOL    HW233474   1.413   2.380   0.305
10859SOL     OW33475   2.389   5.564   2.248
10859SOL    HW133476   2.401   5.618   2.164
10859SOL    HW233477   2.297   5.525   2.250
10860SOL     OW33478   6.151   1.254   1.553
10860SOL    HW133479   6.233   1.276   1.606
10860SOL    HW233480   6.171   1.263   1.456
10861SOL     OW33481   1.608   4.100   1.361
10861SOL    HW133482   1.575   4.179   1.414
10861SOL    HW233483   1.668   4.044   1.418
10862SOL     OW33484   3.642   4.011   5.499
10862SOL    HW133485   3.617   3.933   5.442
10862SOL    HW233486   3.561   4.048   5.544
10863SOL     OW33487   1.265   0.122   3.348
10863SOL    HW133488   1.364   0.131   3.348
10863SOL    HW233489   1.227   0.167   3.267
10864SOL     OW33490   3.088   3.932   1.889
10864SOL    HW133491   3.135   3.960   1.972
10864SOL    HW233492   3.034   4.008   1.853
10865SOL     OW33493   2.672   1.959   2.891
10865SOL    HW133494   2.665   1.899   2.811
10865SOL    HW233495   2.741   1.924   2.954
10866SOL     OW33496   0.837   3.512   4.256
10866SOL    HW133497   0.868   3.544   4.167
10866SOL    HW233498   0.844   3.586   4.323
10867SOL     OW33499   4.768   2.968   0.116
10867SOL    HW133500   4.793   2.978   0.212
10867SOL    HW233501   4.676   2.931   0.109
10868SOL     OW33502   0.867   6.917   5.259
10868SOL    HW133503   0.878   7.010   5.293
10868SOL    HW233504   0.947   6.891   5.205
10869NA      NA33505   0.121   1.075   6.715
10870NA      NA33506   4.753   4.752   4.991
10871NA      NA33507   0.690   4.861   3.232
10872NA      NA33508   6.364   3.751   3.522
10873NA      NA33509   4.148   2.289   5.239
10874NA      NA33510   2.331   3.791   6.928
10875NA      NA33511   1.611   5.510   0.660
10876NA      NA33512   4.236   4.824   2.287
10877NA      NA33513   5.219   3.506   1.225
10878NA      NA33514   3.753   1.922   0.552
10879NA      NA33515   5.452   6.642   1.390
10880NA      NA33516   2.748   6.700   4.583
10881NA      NA33517   3.802   5.507   2.830
10882NA      NA33518   3.990   5.066   6.636
   7.02370   7.02370   7.02370
