Generated by trjconv : CNT in water t= 119.00000
33518
    1C        C    1   2.841   2.770   4.745
    1C        C    2   2.893   2.717   4.865
    1C        C    3   2.839   2.768   4.984
    1C        C    4   2.843   2.770   4.257
    1C        C    5   2.895   2.724   4.379
    1C        C    6   2.842   2.772   4.501
    1C        C    7   3.009   2.642   4.623
    1C        C    8   2.891   2.720   4.623
    1C        C    9   3.073   2.606   4.744
    1C        C   10   3.005   2.631   4.865
    1C        C   11   3.181   2.498   4.974
    1C        C   12   3.058   2.565   4.976
    1C        C   13   2.851   2.771   3.769
    1C        C   14   2.902   2.725   3.892
    1C        C   15   2.847   2.772   4.014
    1C        C   16   3.015   2.643   4.139
    1C        C   17   2.899   2.723   4.136
    1C        C   18   3.075   2.610   4.262
    1C        C   19   3.015   2.649   4.384
    1C        C   20   3.205   2.550   4.503
    1C        C   21   3.075   2.607   4.504
    1C        C   22   3.277   2.532   4.623
    1C        C   23   3.203   2.547   4.742
    1C        C   24   3.410   2.483   4.862
    1C        C   25   3.268   2.502   4.860
    1C        C   26   3.487   2.481   4.980
    1C        C   27   2.851   2.768   3.277
    1C        C   28   2.903   2.726   3.402
    1C        C   29   2.853   2.771   3.526
    1C        C   30   3.022   2.642   3.648
    1C        C   31   2.905   2.722   3.648
    1C        C   32   3.079   2.606   3.772
    1C        C   33   3.013   2.637   3.893
    1C        C   34   3.202   2.545   4.017
    1C        C   35   3.072   2.601   4.016
    1C        C   36   3.273   2.533   4.138
    1C        C   37   3.207   2.558   4.261
    1C        C   38   3.416   2.515   4.381
    1C        C   39   3.276   2.534   4.381
    1C        C   40   3.486   2.505   4.502
    1C        C   41   3.415   2.503   4.624
    1C        C   42   3.630   2.484   4.745
    1C        C   43   3.488   2.481   4.744
    1C        C   44   3.706   2.484   4.864
    1C        C   45   3.626   2.475   4.978
    1C        C   46   2.834   2.752   2.792
    1C        C   47   2.897   2.713   2.912
    1C        C   48   2.842   2.757   3.035
    1C        C   49   3.017   2.635   3.158
    1C        C   50   2.901   2.716   3.156
    1C        C   51   3.079   2.605   3.282
    1C        C   52   3.016   2.641   3.403
    1C        C   53   3.208   2.548   3.527
    1C        C   54   3.077   2.601   3.525
    1C        C   55   3.277   2.534   3.649
    1C        C   56   3.211   2.555   3.773
    1C        C   57   3.414   2.507   3.895
    1C        C   58   3.274   2.529   3.896
    1C        C   59   3.484   2.505   4.017
    1C        C   60   3.412   2.507   4.138
    1C        C   61   3.626   2.500   4.258
    1C        C   62   3.485   2.499   4.259
    1C        C   63   3.699   2.504   4.380
    1C        C   64   3.628   2.502   4.502
    1C        C   65   3.834   2.545   4.622
    1C        C   66   3.699   2.504   4.624
    1C        C   67   3.904   2.563   4.743
    1C        C   68   3.841   2.525   4.864
    1C        C   69   4.053   2.585   4.977
    1C        C   70   3.923   2.532   4.977
    1C        C   71   2.821   2.730   2.307
    1C        C   72   2.879   2.692   2.430
    1C        C   73   2.831   2.748   2.550
    1C        C   74   3.006   2.625   2.671
    1C        C   75   2.889   2.704   2.671
    1C        C   76   3.072   2.594   2.792
    1C        C   77   3.014   2.634   2.915
    1C        C   78   3.207   2.544   3.035
    1C        C   79   3.078   2.600   3.036
    1C        C   80   3.275   2.527   3.158
    1C        C   81   3.209   2.550   3.281
    1C        C   82   3.413   2.501   3.403
    1C        C   83   3.274   2.527   3.404
    1C        C   84   3.484   2.501   3.525
    1C        C   85   3.416   2.510   3.649
    1C        C   86   3.625   2.501   3.768
    1C        C   87   3.484   2.498   3.773
    1C        C   88   3.695   2.507   3.891
    1C        C   89   3.626   2.502   4.013
    1C        C   90   3.831   2.546   4.136
    1C        C   91   3.696   2.506   4.136
    1C        C   92   3.901   2.572   4.256
    1C        C   93   3.834   2.544   4.377
    1C        C   94   4.025   2.636   4.501
    1C        C   95   3.900   2.570   4.499
    1C        C   96   4.091   2.674   4.620
    1C        C   97   4.030   2.630   4.739
    1C        C   98   4.188   2.767   4.863
    1C        C   99   4.098   2.655   4.861
    1C        C  100   4.210   2.845   4.977
    1C        C  101   2.815   2.726   2.067
    1C        C  102   2.990   2.599   2.189
    1C        C  103   2.869   2.675   2.185
    1C        C  104   3.061   2.573   2.310
    1C        C  105   2.998   2.616   2.429
    1C        C  106   3.199   2.538   2.548
    1C        C  107   3.066   2.585   2.549
    1C        C  108   3.270   2.521   2.669
    1C        C  109   3.203   2.541   2.792
    1C        C  110   3.413   2.499   2.913
    1C        C  111   3.274   2.523   2.913
    1C        C  112   3.485   2.499   3.035
    1C        C  113   3.416   2.510   3.158
    1C        C  114   3.625   2.499   3.279
    1C        C  115   3.483   2.496   3.281
    1C        C  116   3.693   2.508   3.402
    1C        C  117   3.625   2.500   3.525
    1C        C  118   3.834   2.542   3.646
    1C        C  119   3.697   2.506   3.647
    1C        C  120   3.898   2.566   3.770
    1C        C  121   3.832   2.543   3.893
    1C        C  122   4.024   2.638   4.011
    1C        C  123   3.897   2.576   4.014
    1C        C  124   4.083   2.676   4.134
    1C        C  125   4.026   2.638   4.258
    1C        C  126   4.192   2.770   4.376
    1C        C  127   4.084   2.679   4.380
    1C        C  128   4.245   2.817   4.498
    1C        C  129   4.199   2.765   4.621
    1C        C  130   4.326   2.935   4.742
    1C        C  131   4.247   2.816   4.743
    1C        C  132   4.356   3.005   4.861
    1C        C  133   4.286   2.961   4.974
    1C        C  134   3.172   2.471   2.076
    1C        C  135   3.039   2.513   2.085
    1C        C  136   3.257   2.484   2.187
    1C        C  137   3.194   2.523   2.307
    1C        C  138   3.405   2.485   2.427
    1C        C  139   3.266   2.509   2.427
    1C        C  140   3.479   2.480   2.547
    1C        C  141   3.409   2.495   2.669
    1C        C  142   3.623   2.499   2.788
    1C        C  143   3.482   2.500   2.789
    1C        C  144   3.694   2.503   2.911
    1C        C  145   3.626   2.500   3.034
    1C        C  146   3.834   2.535   3.155
    1C        C  147   3.696   2.505   3.157
    1C        C  148   3.899   2.560   3.278
    1C        C  149   3.830   2.544   3.400
    1C        C  150   4.025   2.625   3.522
    1C        C  151   3.897   2.564   3.522
    1C        C  152   4.083   2.668   3.644
    1C        C  153   4.021   2.636   3.767
    1C        C  154   4.185   2.772   3.888
    1C        C  155   4.078   2.681   3.888
    1C        C  156   4.241   2.816   4.010
    1C        C  157   4.193   2.764   4.133
    1C        C  158   4.339   2.921   4.254
    1C        C  159   4.246   2.815   4.254
    1C        C  160   4.378   2.981   4.376
    1C        C  161   4.333   2.927   4.499
    1C        C  162   4.441   3.112   4.616
    1C        C  163   4.370   2.990   4.620
    1C        C  164   4.469   3.182   4.735
    1C        C  165   4.433   3.123   4.858
    1C        C  166   4.520   3.319   4.972
    1C        C  167   4.472   3.189   4.976
    1C        C  168   3.473   2.436   2.071
    1C        C  169   3.396   2.458   2.187
    1C        C  170   3.615   2.468   2.302
    1C        C  171   3.473   2.463   2.305
    1C        C  172   3.689   2.488   2.420
    1C        C  173   3.620   2.485   2.543
    1C        C  174   3.827   2.536   2.665
    1C        C  175   3.692   2.494   2.665
    1C        C  176   3.895   2.560   2.786
    1C        C  177   3.832   2.535   2.910
    1C        C  178   4.026   2.623   3.030
    1C        C  179   3.899   2.562   3.032
    1C        C  180   4.082   2.662   3.154
    1C        C  181   4.023   2.629   3.278
    1C        C  182   4.194   2.753   3.398
    1C        C  183   4.083   2.665   3.400
    1C        C  184   4.244   2.806   3.519
    1C        C  185   4.190   2.760   3.641
    1C        C  186   4.333   2.918   3.764
    1C        C  187   4.237   2.814   3.763
    1C        C  188   4.379   2.974   3.885
    1C        C  189   4.335   2.922   4.008
    1C        C  190   4.445   3.102   4.129
    1C        C  191   4.376   2.979   4.131
    1C        C  192   4.469   3.170   4.251
    1C        C  193   4.442   3.106   4.374
    1C        C  194   4.504   3.314   4.491
    1C        C  195   4.466   3.178   4.494
    1C        C  196   4.527   3.385   4.611
    1C        C  197   4.516   3.316   4.734
    1C        C  198   4.551   3.534   4.850
    1C        C  199   4.534   3.392   4.853
    1C        C  200   4.583   3.618   4.961
    1C        C  201   3.612   2.423   2.068
    1C        C  202   3.826   2.510   2.178
    1C        C  203   3.689   2.468   2.180
    1C        C  204   3.894   2.543   2.298
    1C        C  205   3.827   2.521   2.421
    1C        C  206   4.017   2.618   2.540
    1C        C  207   3.894   2.550   2.541
    1C        C  208   4.084   2.651   2.660
    1C        C  209   4.021   2.623   2.784
    1C        C  210   4.195   2.745   2.906
    1C        C  211   4.082   2.660   2.906
    1C        C  212   4.250   2.793   3.028
    1C        C  213   4.194   2.748   3.150
    1C        C  214   4.332   2.908   3.271
    1C        C  215   4.241   2.799   3.273
    1C        C  216   4.370   2.970   3.392
    1C        C  217   4.331   2.917   3.517
    1C        C  218   4.430   3.103   3.640
    1C        C  219   4.370   2.975   3.640
    1C        C  220   4.463   3.166   3.762
    1C        C  221   4.446   3.099   3.885
    1C        C  222   4.505   3.303   4.004
    1C        C  223   4.475   3.165   4.006
    1C        C  224   4.519   3.376   4.124
    1C        C  225   4.510   3.305   4.246
    1C        C  226   4.515   3.521   4.366
    1C        C  227   4.513   3.380   4.366
    1C        C  228   4.517   3.595   4.486
    1C        C  229   4.530   3.526   4.608
    1C        C  230   4.504   3.742   4.729
    1C        C  231   4.531   3.602   4.727
    1C        C  232   4.497   3.820   4.846
    1C        C  233   4.540   3.751   4.960
    1C        C  234   4.014   2.612   2.061
    1C        C  235   3.892   2.547   2.060
    1C        C  236   4.083   2.649   2.178
    1C        C  237   4.016   2.616   2.298
    1C        C  238   4.199   2.731   2.421
    1C        C  239   4.081   2.652   2.419
    1C        C  240   4.252   2.784   2.541
    1C        C  241   4.195   2.739   2.662
    1C        C  242   4.334   2.902   2.783
    1C        C  243   4.246   2.792   2.783
    1C        C  244   4.375   2.961   2.904
    1C        C  245   4.337   2.904   3.028
    1C        C  246   4.439   3.091   3.148
    1C        C  247   4.373   2.966   3.149
    1C        C  248   4.461   3.158   3.270
    1C        C  249   4.430   3.097   3.394
    1C        C  250   4.495   3.300   3.514
    1C        C  251   4.457   3.164   3.515
    1C        C  252   4.511   3.369   3.636
    1C        C  253   4.505   3.301   3.760
    1C        C  254   4.525   3.513   3.878
    1C        C  255   4.518   3.372   3.881
    1C        C  256   4.517   3.585   3.999
    1C        C  257   4.521   3.517   4.123
    1C        C  258   4.493   3.731   4.240
    1C        C  259   4.518   3.592   4.243
    1C        C  260   4.469   3.798   4.361
    1C        C  261   4.486   3.733   4.485
    1C        C  262   4.421   3.936   4.603
    1C        C  263   4.477   3.806   4.606
    1C        C  264   4.396   4.006   4.723
    1C        C  265   4.434   3.947   4.845
    1C        C  266   4.312   4.129   4.956
    1C        C  267   4.390   4.014   4.960
    1C        C  268   4.267   2.770   2.063
    1C        C  269   4.198   2.730   2.178
    1C        C  270   4.348   2.883   2.297
    1C        C  271   4.254   2.777   2.299
    1C        C  272   4.384   2.948   2.417
    1C        C  273   4.342   2.892   2.539
    1C        C  274   4.445   3.081   2.659
    1C        C  275   4.379   2.956   2.660
    1C        C  276   4.475   3.149   2.779
    1C        C  277   4.445   3.084   2.901
    1C        C  278   4.504   3.287   3.024
    1C        C  279   4.473   3.149   3.023
    1C        C  280   4.508   3.361   3.144
    1C        C  281   4.495   3.295   3.268
    1C        C  282   4.516   3.508   3.388
    1C        C  283   4.507   3.367   3.390
    1C        C  284   4.519   3.578   3.510
    1C        C  285   4.521   3.509   3.634
    1C        C  286   4.494   3.721   3.750
    1C        C  287   4.521   3.583   3.755
    1C        C  288   4.473   3.790   3.872
    1C        C  289   4.492   3.724   3.995
    1C        C  290   4.429   3.930   4.116
    1C        C  291   4.476   3.797   4.116
    1C        C  292   4.391   3.993   4.237
    1C        C  293   4.419   3.931   4.360
    1C        C  294   4.323   4.122   4.476
    1C        C  295   4.393   4.000   4.480
    1C        C  296   4.282   4.184   4.596
    1C        C  297   4.322   4.128   4.720
    1C        C  298   4.203   4.316   4.835
    1C        C  299   4.277   4.194   4.837
    1C        C  300   4.171   4.407   4.942
    1C        C  301   4.351   2.881   2.059
    1C        C  302   4.467   3.066   2.174
    1C        C  303   4.398   2.941   2.176
    1C        C  304   4.481   3.140   2.295
    1C        C  305   4.448   3.074   2.415
    1C        C  306   4.514   3.279   2.536
    1C        C  307   4.475   3.143   2.536
    1C        C  308   4.518   3.353   2.656
    1C        C  309   4.510   3.286   2.780
    1C        C  310   4.529   3.496   2.896
    1C        C  311   4.519   3.355   2.902
    1C        C  312   4.517   3.569   3.017
    1C        C  313   4.517   3.502   3.142
    1C        C  314   4.490   3.714   3.264
    1C        C  315   4.512   3.574   3.263
    1C        C  316   4.475   3.786   3.384
    1C        C  317   4.496   3.717   3.506
    1C        C  318   4.422   3.919   3.628
    1C        C  319   4.474   3.787   3.627
    1C        C  320   4.390   3.984   3.749
    1C        C  321   4.425   3.923   3.871
    1C        C  322   4.311   4.102   3.988
    1C        C  323   4.396   3.989   3.993
    1C        C  324   4.272   4.163   4.109
    1C        C  325   4.318   4.114   4.233
    1C        C  326   4.181   4.279   4.353
    1C        C  327   4.280   4.179   4.353
    1C        C  328   4.132   4.334   4.473
    1C        C  329   4.187   4.288   4.595
    1C        C  330   4.026   4.437   4.709
    1C        C  331   4.138   4.349   4.713
    1C        C  332   3.969   4.490   4.827
    1C        C  333   4.049   4.475   4.941
    1C        C  334   4.551   3.265   2.062
    1C        C  335   4.535   3.126   2.063
    1C        C  336   4.537   3.349   2.173
    1C        C  337   4.516   3.278   2.293
    1C        C  338   4.527   3.491   2.413
    1C        C  339   4.524   3.350   2.414
    1C        C  340   4.522   3.565   2.533
    1C        C  341   4.514   3.495   2.655
    1C        C  342   4.492   3.707   2.772
    1C        C  343   4.517   3.568   2.776
    1C        C  344   4.474   3.774   2.895
    1C        C  345   4.489   3.707   3.018
    1C        C  346   4.419   3.909   3.135
    1C        C  347   4.474   3.778   3.139
    1C        C  348   4.391   3.974   3.257
    1C        C  349   4.426   3.918   3.382
    1C        C  350   4.313   4.097   3.500
    1C        C  351   4.395   3.982   3.504
    1C        C  352   4.267   4.155   3.620
    1C        C  353   4.311   4.101   3.743
    1C        C  354   4.173   4.262   3.864
    1C        C  355   4.266   4.155   3.865
    1C        C  356   4.118   4.308   3.986
    1C        C  357   4.171   4.262   4.108
    1C        C  358   4.011   4.401   4.229
    1C        C  359   4.127   4.321   4.229
    1C        C  360   3.950   4.449   4.348
    1C        C  361   4.016   4.413   4.468
    1C        C  362   3.828   4.515   4.591
    1C        C  363   3.958   4.460   4.588
    1C        C  364   3.761   4.547   4.711
    1C        C  365   3.837   4.540   4.830
    1C        C  366   3.628   4.594   4.948
    1C        C  367   3.765   4.571   4.946
    1C        C  368   4.504   3.561   2.055
    1C        C  369   4.533   3.490   2.173
    1C        C  370   4.504   3.705   2.286
    1C        C  371   4.524   3.565   2.292
    1C        C  372   4.483   3.775   2.407
    1C        C  373   4.500   3.705   2.528
    1C        C  374   4.416   3.902   2.647
    1C        C  375   4.476   3.774   2.648
    1C        C  376   4.388   3.966   2.770
    1C        C  377   4.425   3.907   2.893
    1C        C  378   4.309   4.089   3.008
    1C        C  379   4.387   3.971   3.013
    1C        C  380   4.264   4.142   3.131
    1C        C  381   4.308   4.088   3.254
    1C        C  382   4.169   4.249   3.373
    1C        C  383   4.267   4.147   3.376
    1C        C  384   4.114   4.295   3.494
    1C        C  385   4.166   4.254   3.619
    1C        C  386   4.004   4.388   3.741
    1C        C  387   4.118   4.306   3.741
    1C        C  388   3.943   4.428   3.862
    1C        C  389   4.002   4.390   3.985
    1C        C  390   3.815   4.484   4.105
    1C        C  391   3.945   4.429   4.107
    1C        C  392   3.749   4.516   4.226
    1C        C  393   3.822   4.509   4.347
    1C        C  394   3.618   4.560   4.473
    1C        C  395   3.757   4.531   4.470
    1C        C  396   3.544   4.570   4.593
    1C        C  397   3.621   4.565   4.711
    1C        C  398   3.411   4.553   4.838
    1C        C  399   3.550   4.578   4.833
    1C        C  400   3.343   4.510   4.953
    1C        C  401   4.498   3.700   2.049
    1C        C  402   4.454   3.913   2.166
    1C        C  403   4.493   3.777   2.166
    1C        C  404   4.406   3.974   2.284
    1C        C  405   4.432   3.907   2.406
    1C        C  406   4.315   4.089   2.525
    1C        C  407   4.393   3.971   2.526
    1C        C  408   4.268   4.145   2.646
    1C        C  409   4.311   4.085   2.766
    1C        C  410   4.173   4.250   2.885
    1C        C  411   4.268   4.145   2.886
    1C        C  412   4.121   4.296   3.008
    1C        C  413   4.171   4.249   3.132
    1C        C  414   4.002   4.381   3.251
    1C        C  415   4.117   4.300   3.252
    1C        C  416   3.941   4.415   3.374
    1C        C  417   4.000   4.379   3.497
    1C        C  418   3.812   4.477   3.617
    1C        C  419   3.942   4.421   3.619
    1C        C  420   3.747   4.508   3.739
    1C        C  421   3.815   4.488   3.861
    1C        C  422   3.609   4.540   3.986
    1C        C  423   3.747   4.509   3.983
    1C        C  424   3.538   4.547   4.108
    1C        C  425   3.610   4.540   4.229
    1C        C  426   3.404   4.552   4.357
    1C        C  427   3.545   4.558   4.353
    1C        C  428   3.330   4.547   4.477
    1C        C  429   3.403   4.561   4.598
    1C        C  430   3.194   4.522   4.723
    1C        C  431   3.334   4.549   4.720
    1C        C  432   3.124   4.499   4.845
    1C        C  433   3.206   4.487   4.958
    1C        C  434   4.378   4.118   2.047
    1C        C  435   4.447   3.996   2.053
    1C        C  436   4.297   4.157   2.158
    1C        C  437   4.326   4.091   2.281
    1C        C  438   4.181   4.249   2.402
    1C        C  439   4.278   4.146   2.401
    1C        C  440   4.124   4.300   2.520
    1C        C  441   4.173   4.250   2.643
    1C        C  442   3.998   4.372   2.761
    1C        C  443   4.117   4.295   2.764
    1C        C  444   3.940   4.411   2.884
    1C        C  445   4.002   4.373   3.005
    1C        C  446   3.813   4.469   3.127
    1C        C  447   3.943   4.414   3.126
    1C        C  448   3.746   4.491   3.249
    1C        C  449   3.812   4.472   3.373
    1C        C  450   3.608   4.531   3.495
    1C        C  451   3.745   4.499   3.495
    1C        C  452   3.541   4.543   3.619
    1C        C  453   3.610   4.543   3.742
    1C        C  454   3.397   4.547   3.863
    1C        C  455   3.539   4.552   3.864
    1C        C  456   3.331   4.536   3.987
    1C        C  457   3.397   4.547   4.112
    1C        C  458   3.194   4.499   4.236
    1C        C  459   3.331   4.535   4.237
    1C        C  460   3.127   4.481   4.359
    1C        C  461   3.194   4.511   4.480
    1C        C  462   3.002   4.427   4.606
    1C        C  463   3.127   4.493   4.603
    1C        C  464   2.936   4.391   4.725
    1C        C  465   2.994   4.439   4.845
    1C        C  466   2.803   4.335   4.959
    1C        C  467   2.913   4.422   4.962
    1C        C  468   4.121   4.284   2.042
    1C        C  469   4.188   4.250   2.160
    1C        C  470   4.009   4.375   2.276
    1C        C  471   4.129   4.299   2.280
    1C        C  472   3.940   4.404   2.395
    1C        C  473   4.004   4.374   2.517
    1C        C  474   3.810   4.465   2.642
    1C        C  475   3.940   4.409   2.638
    1C        C  476   3.742   4.492   2.762
    1C        C  477   3.811   4.469   2.883
    1C        C  478   3.606   4.520   3.005
    1C        C  479   3.743   4.488   3.006
    1C        C  480   3.538   4.534   3.128
    1C        C  481   3.608   4.523   3.250
    1C        C  482   3.397   4.537   3.377
    1C        C  483   3.538   4.538   3.372
    1C        C  484   3.328   4.531   3.499
    1C        C  485   3.400   4.543   3.620
    1C        C  486   3.192   4.498   3.744
    1C        C  487   3.327   4.537   3.741
    1C        C  488   3.128   4.477   3.869
    1C        C  489   3.193   4.504   3.991
    1C        C  490   3.004   4.410   4.113
    1C        C  491   3.128   4.477   4.114
    1C        C  492   2.947   4.373   4.237
    1C        C  493   3.002   4.415   4.360
    1C        C  494   2.833   4.295   4.481
    1C        C  495   2.943   4.384   4.485
    1C        C  496   2.780   4.248   4.603
    1C        C  497   2.824   4.303   4.726
    1C        C  498   2.663   4.162   4.845
    1C        C  499   2.755   4.270   4.845
    1C        C  500   2.598   4.115   4.960
    1C        C  501   4.004   4.360   2.040
    1C        C  502   3.814   4.466   2.155
    1C        C  503   3.942   4.407   2.156
    1C        C  504   3.742   4.480   2.276
    1C        C  505   3.809   4.458   2.398
    1C        C  506   3.604   4.517   2.519
    1C        C  507   3.741   4.483   2.520
    1C        C  508   3.532   4.522   2.640
    1C        C  509   3.603   4.521   2.762
    1C        C  510   3.392   4.532   2.887
    1C        C  511   3.533   4.525   2.884
    1C        C  512   3.322   4.530   3.010
    1C        C  513   3.396   4.536   3.129
    1C        C  514   3.193   4.488   3.254
    1C        C  515   3.329   4.527   3.253
    1C        C  516   3.129   4.464   3.377
    1C        C  517   3.190   4.497   3.500
    1C        C  518   3.001   4.405   3.623
    1C        C  519   3.124   4.474   3.623
    1C        C  520   2.940   4.373   3.746
    1C        C  521   3.004   4.410   3.867
    1C        C  522   2.838   4.280   3.996
    1C        C  523   2.947   4.370   3.990
    1C        C  524   2.786   4.233   4.119
    1C        C  525   2.835   4.286   4.240
    1C        C  526   2.693   4.130   4.363
    1C        C  527   2.781   4.241   4.362
    1C        C  528   2.657   4.072   4.486
    1C        C  529   2.689   4.140   4.605
    1C        C  530   2.589   3.956   4.730
    1C        C  531   2.642   4.088   4.727
    1C        C  532   2.541   3.901   4.852
    1C        C  533   2.529   3.994   4.961
    1C        C  534   3.621   4.560   2.038
    1C        C  535   3.755   4.517   2.039
    1C        C  536   3.536   4.537   2.151
    1C        C  537   3.604   4.512   2.273
    1C        C  538   3.393   4.515   2.395
    1C        C  539   3.534   4.519   2.396
    1C        C  540   3.321   4.517   2.517
    1C        C  541   3.391   4.519   2.640
    1C        C  542   3.186   4.482   2.766
    1C        C  543   3.324   4.513   2.765
    1C        C  544   3.120   4.464   2.890
    1C        C  545   3.188   4.485   3.012
    1C        C  546   2.996   4.398   3.136
    1C        C  547   3.121   4.462   3.135
    1C        C  548   2.941   4.361   3.261
    1C        C  549   3.001   4.404   3.381
    1C        C  550   2.831   4.275   3.506
    1C        C  551   2.938   4.367   3.502
    1C        C  552   2.780   4.228   3.629
    1C        C  553   2.832   4.282   3.749
    1C        C  554   2.701   4.120   3.872
    1C        C  555   2.789   4.231   3.873
    1C        C  556   2.660   4.063   3.995
    1C        C  557   2.702   4.120   4.118
    1C        C  558   2.594   3.941   4.242
    1C        C  559   2.659   4.066   4.241
    1C        C  560   2.566   3.878   4.366
    1C        C  561   2.590   3.948   4.486
    1C        C  562   2.525   3.750   4.614
    1C        C  563   2.562   3.886   4.610
    1C        C  564   2.506   3.680   4.736
    1C        C  565   2.515   3.761   4.853
    1C        C  566   2.526   3.547   4.976
    1C        C  567   2.521   3.686   4.971
    1C        C  568   3.329   4.471   2.038
    1C        C  569   3.395   4.516   2.153
    1C        C  570   3.182   4.476   2.278
    1C        C  571   3.321   4.507   2.274
    1C        C  572   3.117   4.455   2.401
    1C        C  573   3.184   4.484   2.522
    1C        C  574   2.995   4.394   2.648
    1C        C  575   3.117   4.464   2.644
    1C        C  576   2.937   4.352   2.770
    1C        C  577   2.998   4.393   2.890
    1C        C  578   2.831   4.265   3.015
    1C        C  579   2.939   4.356   3.013
    1C        C  580   2.788   4.215   3.140
    1C        C  581   2.837   4.266   3.262
    1C        C  582   2.696   4.108   3.385
    1C        C  583   2.785   4.218   3.385
    1C        C  584   2.661   4.050   3.509
    1C        C  585   2.699   4.112   3.630
    1C        C  586   2.593   3.931   3.755
    1C        C  587   2.660   4.055   3.754
    1C        C  588   2.564   3.870   3.879
    1C        C  589   2.595   3.938   3.999
    1C        C  590   2.531   3.736   4.126
    1C        C  591   2.570   3.871   4.121
    1C        C  592   2.518   3.669   4.250
    1C        C  593   2.529   3.742   4.371
    1C        C  594   2.508   3.534   4.496
    1C        C  595   2.518   3.675   4.495
    1C        C  596   2.509   3.463   4.618
    1C        C  597   2.512   3.538   4.738
    1C        C  598   2.530   3.327   4.861
    1C        C  599   2.525   3.468   4.860
    1C        C  600   2.529   3.248   4.976
    1C        C  601   3.194   4.443   2.040
    1C        C  602   2.983   4.391   2.160
    1C        C  603   3.117   4.440   2.157
    1C        C  604   2.925   4.360   2.286
    1C        C  605   2.987   4.399   2.406
    1C        C  606   2.820   4.269   2.529
    1C        C  607   2.927   4.361   2.528
    1C        C  608   2.768   4.220   2.651
    1C        C  609   2.823   4.268   2.772
    1C        C  610   2.690   4.105   2.897
    1C        C  611   2.774   4.218   2.894
    1C        C  612   2.653   4.048   3.021
    1C        C  613   2.697   4.107   3.142
    1C        C  614   2.590   3.924   3.266
    1C        C  615   2.656   4.049   3.264
    1C        C  616   2.563   3.861   3.389
    1C        C  617   2.593   3.927   3.511
    1C        C  618   2.522   3.729   3.638
    1C        C  619   2.561   3.865   3.634
    1C        C  620   2.506   3.662   3.761
    1C        C  621   2.524   3.735   3.881
    1C        C  622   2.505   3.525   4.008
    1C        C  623   2.516   3.666   4.005
    1C        C  624   2.511   3.457   4.132
    1C        C  625   2.505   3.528   4.253
    1C        C  626   2.528   3.319   4.378
    1C        C  627   2.507   3.459   4.376
    1C        C  628   2.551   3.252   4.500
    1C        C  629   2.537   3.325   4.620
    1C        C  630   2.595   3.119   4.744
    1C        C  631   2.551   3.254   4.742
    1C        C  632   2.612   3.048   4.866
    1C        C  633   2.563   3.112   4.984
    1C        C  634   2.779   4.304   2.057
    1C        C  635   2.892   4.387   2.049
    1C        C  636   2.753   4.225   2.170
    1C        C  637   2.813   4.272   2.289
    1C        C  638   2.677   4.106   2.409
    1C        C  639   2.766   4.216   2.409
    1C        C  640   2.645   4.044   2.532
    1C        C  641   2.685   4.106   2.652
    1C        C  642   2.585   3.920   2.777
    1C        C  643   2.651   4.045   2.775
    1C        C  644   2.558   3.856   2.900
    1C        C  645   2.592   3.920   3.021
    1C        C  646   2.525   3.721   3.146
    1C        C  647   2.564   3.857   3.144
    1C        C  648   2.511   3.653   3.269
    1C        C  649   2.529   3.724   3.390
    1C        C  650   2.502   3.518   3.519
    1C        C  651   2.515   3.659   3.515
    1C        C  652   2.511   3.450   3.642
    1C        C  653   2.508   3.521   3.764
    1C        C  654   2.536   3.314   3.888
    1C        C  655   2.508   3.453   3.887
    1C        C  656   2.556   3.249   4.012
    1C        C  657   2.534   3.317   4.133
    1C        C  658   2.602   3.119   4.254
    1C        C  659   2.546   3.249   4.256
    1C        C  660   2.629   3.056   4.378
    1C        C  661   2.596   3.118   4.500
    1C        C  662   2.705   2.937   4.623
    1C        C  663   2.626   3.054   4.623
    1C        C  664   2.749   2.878   4.744
    1C        C  665   2.692   2.929   4.864
    1C        C  666   2.739   2.866   4.979
    1C        C  667   2.679   4.018   2.055
    1C        C  668   2.688   4.100   2.168
    1C        C  669   2.584   3.912   2.290
    1C        C  670   2.643   4.041   2.289
    1C        C  671   2.555   3.848   2.413
    1C        C  672   2.587   3.915   2.533
    1C        C  673   2.512   3.719   2.658
    1C        C  674   2.553   3.854   2.656
    1C        C  675   2.503   3.648   2.780
    1C        C  676   2.518   3.721   2.901
    1C        C  677   2.496   3.511   3.029
    1C        C  678   2.506   3.652   3.024
    1C        C  679   2.498   3.441   3.151
    1C        C  680   2.501   3.512   3.273
    1C        C  681   2.527   3.307   3.398
    1C        C  682   2.500   3.446   3.397
    1C        C  683   2.553   3.243   3.522
    1C        C  684   2.536   3.311   3.644
    1C        C  685   2.602   3.110   3.766
    1C        C  686   2.551   3.242   3.767
    1C        C  687   2.633   3.049   3.890
    1C        C  688   2.605   3.116   4.011
    1C        C  689   2.712   2.935   4.138
    1C        C  690   2.639   3.056   4.134
    1C        C  691   2.754   2.880   4.262
    1C        C  692   2.706   2.938   4.382
    1C        C  693   2.746   2.876   4.502
    1C        C  694   2.626   3.888   2.053
    1C        C  695   2.524   3.704   2.173
    1C        C  696   2.572   3.836   2.172
    1C        C  697   2.503   3.637   2.295
    1C        C  698   2.520   3.711   2.414
    1C        C  699   2.487   3.505   2.541
    1C        C  700   2.499   3.646   2.538
    1C        C  701   2.500   3.436   2.664
    1C        C  702   2.492   3.508   2.785
    1C        C  703   2.529   3.301   2.908
    1C        C  704   2.497   3.438   2.908
    1C        C  705   2.546   3.234   3.032
    1C        C  706   2.521   3.301   3.154
    1C        C  707   2.601   3.107   3.277
    1C        C  708   2.545   3.237   3.277
    1C        C  709   2.633   3.045   3.400
    1C        C  710   2.600   3.110   3.522
    1C        C  711   2.714   2.931   3.648
    1C        C  712   2.633   3.047   3.644
    1C        C  713   2.755   2.875   3.771
    1C        C  714   2.708   2.929   3.893
    1C        C  715   2.753   2.877   4.016
    1C        C  716   2.451   3.495   2.061
    1C        C  717   2.491   3.629   2.059
    1C        C  718   2.459   3.420   2.183
    1C        C  719   2.476   3.498   2.301
    1C        C  720   2.510   3.289   2.425
    1C        C  721   2.482   3.427   2.424
    1C        C  722   2.534   3.219   2.546
    1C        C  723   2.521   3.297   2.663
    1C        C  724   2.595   3.100   2.790
    1C        C  725   2.540   3.230   2.786
    1C        C  726   2.630   3.040   2.913
    1C        C  727   2.598   3.103   3.035
    1C        C  728   2.709   2.922   3.158
    1C        C  729   2.630   3.039   3.157
    1C        C  730   2.756   2.873   3.282
    1C        C  731   2.712   2.928   3.404
    1C        C  732   2.757   2.874   3.526
    1C        C  733   2.486   3.197   2.071
    1C        C  734   2.481   3.279   2.184
    1C        C  735   2.580   3.087   2.303
    1C        C  736   2.516   3.214   2.306
    1C        C  737   2.611   3.020   2.424
    1C        C  738   2.589   3.089   2.545
    1C        C  739   2.697   2.911   2.669
    1C        C  740   2.624   3.032   2.670
    1C        C  741   2.739   2.857   2.792
    1C        C  742   2.702   2.918   2.914
    1C        C  743   2.749   2.864   3.035
    1C        C  744   2.532   3.066   2.075
    1C        C  745   2.691   2.904   2.184
    1C        C  746   2.604   3.016   2.184
    1C        C  747   2.734   2.842   2.303
    1C        C  748   2.686   2.901   2.423
    1C        C  749   2.733   2.850   2.546
    1C        C  750   2.735   2.840   2.068
    1C        C  751   3.661   2.308   1.988
    1C        O  752   3.633   2.189   2.017
    1C        O  753   3.677   2.319   1.849
    1C        C  754   4.631   3.042   1.987
    1C        O  755   4.660   3.086   1.873
    1C        O  756   4.718   2.953   2.050
    1C        C  757   4.419   4.208   1.938
    1C        O  758   4.511   4.292   1.959
    1C        O  759   4.414   4.169   1.804
    1C        C  760   3.604   4.691   1.973
    1C        O  761   3.614   4.794   2.044
    1C        O  762   3.564   4.703   1.839
    1C        C  763   2.886   4.492   1.945
    1C        O  764   2.924   4.473   1.826
    1C        O  765   2.878   4.630   1.961
    1C        C  766   2.337   3.474   1.968
    1C        O  767   2.352   3.405   1.864
    1C        O  768   2.214   3.541   1.972
    1C        C  769   4.705   3.593   5.041
    1C        O  770   4.690   3.595   5.166
    1C        O  771   4.839   3.603   4.999
    1C        C  772   4.272   4.484   5.018
    1C        O  773   4.274   4.498   5.143
    1C        O  774   4.352   4.584   4.960
    1C        C  775   4.137   2.525   5.083
    1C        O  776   4.216   2.431   5.054
    1C        O  777   4.099   2.515   5.218
    1C        C  778   2.913   4.515   5.078
    1C        O  779   2.847   4.622   5.070
    1C        O  780   2.939   4.481   5.211
    1C        C  781   2.480   3.035   5.079
    1C        O  782   2.382   2.967   5.038
    1C        O  783   2.483   3.060   5.216
    1C        C  784   2.412   3.999   5.052
    1C        O  785   2.297   4.033   5.012
    1C        O  786   2.423   3.954   5.184
    1C        C  787   2.944   2.433   2.005
    1C        O  788   2.945   2.423   1.879
    1C        O  789   2.883   2.317   2.052
    1C        C  790   3.201   2.399   5.083
    1C        O  791   3.177   2.276   5.069
    1C        O  792   3.242   2.435   5.211
    1C        H  793   4.272   3.031   5.054
    1C        H  794   4.161   2.812   5.066
    1C        H  795   4.508   3.129   5.057
    1C        H  796   4.504   3.374   5.063
    1C        H  797   4.600   3.812   5.025
    1C        H  798   4.451   4.000   5.048
    1C        H  799   4.249   4.141   5.042
    1C        H  800   4.012   4.516   5.033
    1C        H  801   3.822   4.611   5.027
    1C        H  802   3.579   4.627   5.038
    1C        H  803   3.394   4.508   5.047
    1C        H  804   3.177   4.413   5.030
    1C        H  805   3.886   2.503   5.073
    1C        H  806   3.675   2.422   5.057
    1C        H  807   3.016   2.580   5.074
    1C        H  808   3.442   2.501   5.075
    1C        H  809   2.887   2.745   5.076
    1C        H  810   2.746   2.927   5.067
    1C        H  811   2.535   3.305   5.067
    1C        H  812   2.510   3.502   5.071
    1C        H  813   2.543   3.739   5.062
    1C        H  814   2.577   4.189   5.035
    1C        H  815   2.760   4.313   5.055
    1C        H  816   2.721   2.879   1.969
    1C        H  817   2.861   2.704   1.973
    1C        H  818   3.181   2.380   2.021
    1C        H  819   3.422   2.402   1.983
    1C        H  820   3.855   2.522   1.963
    1C        H  821   4.042   2.658   1.969
    1C        H  822   4.255   2.714   1.973
    1C        H  823   4.323   2.952   1.984
    1C        H  824   4.598   3.309   1.976
    1C        H  825   4.469   3.514   1.965
    1C        H  826   4.534   3.737   1.956
    1C        H  827   3.810   4.531   1.948
    1C        H  828   3.957   4.365   1.944
    1C        H  829   4.132   4.210   1.965
    1C        H  830   4.534   3.991   1.992
    1C        H  831   2.661   3.825   1.975
    1C        H  832   2.702   4.070   1.964
    1C        H  833   2.704   4.312   1.982
    1C        H  834   3.386   4.418   1.964
    1C        H  835   3.143   4.458   1.947
    1C        H  836   2.488   2.993   2.009
    1C        H  837   2.488   3.237   1.971
    1C        H  838   2.480   3.683   1.967
    2V3OU   H29  839   2.794   3.545   1.579
    2V3OU   C27  840   2.779   3.504   1.682
    2V3OU   H27  841   2.715   3.571   1.745
    2V3OU   H28  842   2.728   3.405   1.670
    2V3OU   O11  843   2.908   3.478   1.740
    2V3OU   C15  844   2.923   3.390   1.844
    2V3OU   C13  845   3.054   3.373   1.894
    2V3OU   C14  846   3.078   3.266   1.981
    2V3OU   C16  847   2.974   3.187   2.026
    2V3OU    H6  848   2.993   3.097   2.087
    2V3OU   C12  849   3.210   3.232   2.038
    2V3OU    O2  850   3.236   3.123   2.093
    2V3OU   C10  851   3.323   3.308   1.980
    2V3OU    C8  852   3.455   3.270   2.000
    2V3OU   O10  853   3.488   3.147   2.048
    2V3OU   H26  854   3.398   3.112   2.064
    2V3OU    C6  855   3.564   3.351   1.957
    2V3OU    C5  856   3.539   3.472   1.893
    2V3OU    C4  857   3.701   3.292   1.949
    2V3OU    H4  858   3.721   3.219   2.033
    2V3OU    H5  859   3.702   3.226   1.857
    2V3OU    C2  860   3.814   3.395   1.940
    2V3OU    O6  861   3.800   3.472   2.059
    2V3OU   H21  862   3.759   3.555   2.030
    2V3OU    C3  863   3.779   3.491   1.826
    2V3OU    H2  864   3.863   3.566   1.821
    2V3OU    H3  865   3.775   3.436   1.728
    2V3OU   C25  866   3.949   3.326   1.920
    2V3OU    O7  867   3.995   3.293   1.811
    2V3OU   C26  868   4.027   3.290   2.046
    2V3OU   H22  869   4.063   3.390   2.080
    2V3OU   H23  870   4.119   3.232   2.018
    2V3OU    O8  871   3.963   3.211   2.144
    2V3OU   H24  872   3.924   3.265   2.215
    2V3OU    C1  873   3.648   3.565   1.849
    2V3OU    H1  874   3.619   3.619   1.755
    2V3OU    O3  875   3.659   3.654   1.961
    2V3OU   C19  876   3.620   3.791   1.945
    2V3OU    H9  877   3.522   3.809   1.892
    2V3OU    O4  878   3.714   3.853   1.861
    2V3OU   C20  879   3.847   3.871   1.910
    2V3OU   H10  880   3.896   3.770   1.925
    2V3OU   C24  881   3.611   3.854   2.084
    2V3OU   H16  882   3.543   3.790   2.147
    2V3OU   H17  883   3.566   3.956   2.072
    2V3OU   C23  884   3.749   3.873   2.146
    2V3OU   H15  885   3.792   3.770   2.169
    2V3OU    N1  886   3.738   3.952   2.267
    2V3OU   H19  887   3.807   3.922   2.333
    2V3OU   H20  888   3.651   3.930   2.312
    2V3OU   C21  889   3.845   3.944   2.045
    2V3OU   H11  890   3.948   3.925   2.087
    2V3OU    O5  891   3.825   4.084   2.042
    2V3OU   H18  892   3.781   4.108   2.125
    2V3OU   C22  893   3.916   3.945   1.797
    2V3OU   H12  894   3.858   4.038   1.771
    2V3OU   H13  895   3.909   3.886   1.702
    2V3OU   H14  896   4.024   3.962   1.821
    2V3OU   C11  897   3.160   3.473   1.877
    2V3OU    O1  898   3.137   3.586   1.829
    2V3OU    C9  899   3.296   3.433   1.919
    2V3OU    C7  900   3.402   3.509   1.870
    2V3OU    O9  901   3.384   3.624   1.796
    2V3OU   H25  902   3.288   3.630   1.782
    2V3OU   C17  903   2.818   3.313   1.898
    2V3OU    H7  904   2.714   3.340   1.882
    2V3OU   C18  905   2.842   3.210   1.989
    2V3OU    H8  906   2.757   3.151   2.026
    3SOL     OW  907   2.177   4.330   1.387
    3SOL    HW1  908   2.171   4.230   1.383
    3SOL    HW2  909   2.205   4.365   1.298
    4SOL     OW  910   6.242   6.931   1.626
    4SOL    HW1  911   6.154   6.883   1.625
    4SOL    HW2  912   6.259   6.971   1.536
    5SOL     OW  913   4.534   1.115   1.483
    5SOL    HW1  914   4.511   1.193   1.426
    5SOL    HW2  915   4.455   1.053   1.489
    6SOL     OW  916   3.632   2.091   2.282
    6SOL    HW1  917   3.571   2.116   2.357
    6SOL    HW2  918   3.613   2.149   2.203
    7SOL     OW  919   6.012   2.229   2.108
    7SOL    HW1  920   5.973   2.139   2.129
    7SOL    HW2  921   6.112   2.222   2.109
    8SOL     OW  922   2.296   6.726   4.763
    8SOL    HW1  923   2.301   6.767   4.672
    8SOL    HW2  924   2.372   6.663   4.775
    9SOL     OW  925   1.650   5.523   5.653
    9SOL    HW1  926   1.730   5.472   5.623
    9SOL    HW2  927   1.589   5.462   5.704
   10SOL     OW  928   0.419   4.401   6.173
   10SOL    HW1  929   0.479   4.407   6.252
   10SOL    HW2  930   0.365   4.485   6.165
   11SOL     OW  931   3.690   6.913   0.105
   11SOL    HW1  932   3.634   6.862   0.041
   11SOL    HW2  933   3.759   6.853   0.145
   12SOL     OW  934   5.004   5.909   3.152
   12SOL    HW1  935   5.063   5.956   3.087
   12SOL    HW2  936   4.977   5.973   3.224
   13SOL     OW  937   2.790   6.474   4.357
   13SOL    HW1  938   2.727   6.424   4.298
   13SOL    HW2  939   2.882   6.436   4.347
   14SOL     OW  940   3.741   5.831   6.887
   14SOL    HW1  941   3.806   5.778   6.941
   14SOL    HW2  942   3.754   5.929   6.904
   15SOL     OW  943   1.031   6.156   0.064
   15SOL    HW1  944   1.022   6.155   0.164
   15SOL    HW2  945   1.065   6.245   0.035
   16SOL     OW  946   6.290   1.884   5.953
   16SOL    HW1  947   6.375   1.936   5.948
   16SOL    HW2  948   6.247   1.881   5.862
   17SOL     OW  949   5.132   6.441   4.306
   17SOL    HW1  950   5.101   6.373   4.239
   17SOL    HW2  951   5.121   6.533   4.268
   18SOL     OW  952   2.507   2.306   5.902
   18SOL    HW1  953   2.421   2.273   5.941
   18SOL    HW2  954   2.565   2.344   5.974
   19SOL     OW  955   6.910   0.066   3.309
   19SOL    HW1  956   6.857   0.047   3.391
   19SOL    HW2  957   6.855   0.120   3.245
   20SOL     OW  958   3.720   1.018   4.285
   20SOL    HW1  959   3.754   1.112   4.280
   20SOL    HW2  960   3.666   1.006   4.369
   21SOL     OW  961   3.176   1.772   2.010
   21SOL    HW1  962   3.082   1.761   1.978
   21SOL    HW2  963   3.181   1.850   2.072
   22SOL     OW  964   2.068   6.741   6.064
   22SOL    HW1  965   1.988   6.798   6.044
   22SOL    HW2  966   2.077   6.670   5.994
   23SOL     OW  967   4.318   6.637   3.852
   23SOL    HW1  968   4.298   6.608   3.758
   23SOL    HW2  969   4.414   6.665   3.858
   24SOL     OW  970   5.441   0.996   4.225
   24SOL    HW1  971   5.423   0.910   4.176
   24SOL    HW2  972   5.354   1.038   4.250
   25SOL     OW  973   3.194   5.725   0.094
   25SOL    HW1  974   3.285   5.690   0.115
   25SOL    HW2  975   3.193   5.766   0.003
   26SOL     OW  976   6.265   1.289   1.913
   26SOL    HW1  977   6.266   1.317   1.817
   26SOL    HW2  978   6.253   1.190   1.920
   27SOL     OW  979   6.567   0.448   2.501
   27SOL    HW1  980   6.549   0.353   2.476
   27SOL    HW2  981   6.605   0.451   2.594
   28SOL     OW  982   4.374   0.448   6.179
   28SOL    HW1  983   4.302   0.386   6.209
   28SOL    HW2  984   4.387   0.439   6.080
   29SOL     OW  985   5.394   2.426   2.125
   29SOL    HW1  986   5.436   2.460   2.209
   29SOL    HW2  987   5.455   2.359   2.082
   30SOL     OW  988   2.577   7.013   5.774
   30SOL    HW1  989   2.576   6.966   5.862
   30SOL    HW2  990   2.670   7.018   5.739
   31SOL     OW  991   0.829   0.936   5.397
   31SOL    HW1  992   0.914   0.918   5.347
   31SOL    HW2  993   0.794   0.851   5.434
   32SOL     OW  994   0.756   2.048   2.806
   32SOL    HW1  995   0.815   2.057   2.886
   32SOL    HW2  996   0.799   2.093   2.728
   33SOL     OW  997   1.672   2.841   5.826
   33SOL    HW1  998   1.678   2.765   5.761
   33SOL    HW2  999   1.605   2.908   5.793
   34SOL     OW 1000   2.158   0.392   4.872
   34SOL    HW1 1001   2.245   0.435   4.849
   34SOL    HW2 1002   2.083   0.441   4.827
   35SOL     OW 1003   4.208   1.965   6.564
   35SOL    HW1 1004   4.247   2.056   6.579
   35SOL    HW2 1005   4.249   1.900   6.628
   36SOL     OW 1006   1.238   0.520   6.424
   36SOL    HW1 1007   1.303   0.477   6.362
   36SOL    HW2 1008   1.288   0.562   6.500
   37SOL     OW 1009   2.374   6.551   1.171
   37SOL    HW1 1010   2.387   6.643   1.137
   37SOL    HW2 1011   2.282   6.543   1.210
   38SOL     OW 1012   6.989   6.001   2.835
   38SOL    HW1 1013   0.026   5.981   2.757
   38SOL    HW2 1014   6.902   6.040   2.804
   39SOL     OW 1015   6.480   3.766   6.071
   39SOL    HW1 1016   6.430   3.839   6.118
   39SOL    HW2 1017   6.539   3.807   6.001
   40SOL     OW 1018   6.115   1.533   2.784
   40SOL    HW1 1019   6.199   1.582   2.804
   40SOL    HW2 1020   6.136   1.438   2.761
   41SOL     OW 1021   2.189   6.529   4.225
   41SOL    HW1 1022   2.095   6.544   4.192
   41SOL    HW2 1023   2.187   6.503   4.321
   42SOL     OW 1024   3.220   6.986   6.325
   42SOL    HW1 1025   3.146   6.953   6.383
   42SOL    HW2 1026   3.258   6.911   6.271
   43SOL     OW 1027   5.806   5.954   5.479
   43SOL    HW1 1028   5.797   6.004   5.565
   43SOL    HW2 1029   5.774   5.860   5.492
   44SOL     OW 1030   0.071   2.709   6.260
   44SOL    HW1 1031   0.122   2.792   6.282
   44SOL    HW2 1032   0.103   2.634   6.319
   45SOL     OW 1033   3.123   0.648   2.625
   45SOL    HW1 1034   3.097   0.589   2.549
   45SOL    HW2 1035   3.044   0.659   2.687
   46SOL     OW 1036   0.866   3.511   4.547
   46SOL    HW1 1037   0.944   3.459   4.581
   46SOL    HW2 1038   0.893   3.606   4.531
   47SOL     OW 1039   6.331   4.127   3.803
   47SOL    HW1 1040   6.245   4.177   3.793
   47SOL    HW2 1041   6.316   4.044   3.856
   48SOL     OW 1042   0.320   2.512   4.756
   48SOL    HW1 1043   0.311   2.491   4.853
   48SOL    HW2 1044   0.360   2.434   4.708
   49SOL     OW 1045   4.651   4.263   1.020
   49SOL    HW1 1046   4.733   4.205   1.017
   49SOL    HW2 1047   4.569   4.205   1.014
   50SOL     OW 1048   6.801   3.230   4.739
   50SOL    HW1 1049   6.892   3.252   4.703
   50SOL    HW2 1050   6.798   3.254   4.836
   51SOL     OW 1051   3.403   4.955   2.841
   51SOL    HW1 1052   3.437   5.048   2.855
   51SOL    HW2 1053   3.303   4.956   2.840
   52SOL     OW 1054   3.131   1.767   2.887
   52SOL    HW1 1055   3.126   1.678   2.931
   52SOL    HW2 1056   3.039   1.806   2.880
   53SOL     OW 1057   4.309   0.207   3.798
   53SOL    HW1 1058   4.273   0.275   3.734
   53SOL    HW2 1059   4.283   0.116   3.769
   54SOL     OW 1060   3.016   4.986   6.043
   54SOL    HW1 1061   2.948   5.035   5.988
   54SOL    HW2 1062   3.096   5.045   6.056
   55SOL     OW 1063   3.380   1.012   5.729
   55SOL    HW1 1064   3.290   0.979   5.704
   55SOL    HW2 1065   3.443   0.935   5.738
   56SOL     OW 1066   1.984   0.634   2.172
   56SOL    HW1 1067   2.029   0.659   2.258
   56SOL    HW2 1068   1.930   0.712   2.139
   57SOL     OW 1069   5.096   0.502   0.684
   57SOL    HW1 1070   5.141   0.443   0.618
   57SOL    HW2 1071   5.048   0.446   0.752
   58SOL     OW 1072   0.262   5.829   6.944
   58SOL    HW1 1073   0.262   5.847   6.846
   58SOL    HW2 1074   0.176   5.861   6.983
   59SOL     OW 1075   1.827   0.309   6.299
   59SOL    HW1 1076   1.885   0.230   6.319
   59SOL    HW2 1077   1.780   0.338   6.383
   60SOL     OW 1078   4.367   0.205   6.009
   60SOL    HW1 1079   4.290   0.237   5.953
   60SOL    HW2 1080   4.448   0.194   5.952
   61SOL     OW 1081   4.831   0.121   4.092
   61SOL    HW1 1082   4.875   0.043   4.047
   61SOL    HW2 1083   4.744   0.141   4.046
   62SOL     OW 1084   0.936   0.410   3.843
   62SOL    HW1 1085   0.981   0.375   3.761
   62SOL    HW2 1086   0.858   0.467   3.816
   63SOL     OW 1087   6.484   2.144   3.425
   63SOL    HW1 1088   6.431   2.064   3.454
   63SOL    HW2 1089   6.442   2.183   3.343
   64SOL     OW 1090   6.683   3.756   5.841
   64SOL    HW1 1091   6.685   3.656   5.842
   64SOL    HW2 1092   6.771   3.791   5.873
   65SOL     OW 1093   6.710   4.374   5.298
   65SOL    HW1 1094   6.659   4.366   5.213
   65SOL    HW2 1095   6.765   4.291   5.312
   66SOL     OW 1096   3.694   0.924   6.725
   66SOL    HW1 1097   3.731   0.870   6.650
   66SOL    HW2 1098   3.749   0.910   6.807
   67SOL     OW 1099   5.722   6.507   5.178
   67SOL    HW1 1100   5.789   6.471   5.244
   67SOL    HW2 1101   5.731   6.457   5.092
   68SOL     OW 1102   6.014   1.502   6.679
   68SOL    HW1 1103   5.980   1.439   6.749
   68SOL    HW2 1104   6.085   1.457   6.625
   69SOL     OW 1105   1.776   4.234   6.821
   69SOL    HW1 1106   1.875   4.248   6.818
   69SOL    HW2 1107   1.748   4.171   6.749
   70SOL     OW 1108   6.627   5.860   2.760
   70SOL    HW1 1109   6.571   5.859   2.844
   70SOL    HW2 1110   6.678   5.946   2.755
   71SOL     OW 1111   3.111   2.152   3.758
   71SOL    HW1 1112   3.036   2.132   3.694
   71SOL    HW2 1113   3.082   2.128   3.851
   72SOL     OW 1114   3.052   5.910   3.763
   72SOL    HW1 1115   3.015   5.854   3.689
   72SOL    HW2 1116   3.048   5.859   3.849
   73SOL     OW 1117   3.095   2.660   6.925
   73SOL    HW1 1118   3.158   2.587   6.953
   73SOL    HW2 1119   3.007   2.620   6.899
   74SOL     OW 1120   5.119   6.794   0.233
   74SOL    HW1 1121   5.155   6.724   0.296
   74SOL    HW2 1122   5.195   6.834   0.182
   75SOL     OW 1123   3.534   5.412   4.884
   75SOL    HW1 1124   3.601   5.456   4.945
   75SOL    HW2 1125   3.579   5.389   4.797
   76SOL     OW 1126   2.124   2.504   0.991
   76SOL    HW1 1127   2.181   2.423   1.010
   76SOL    HW2 1128   2.143   2.574   1.059
   77SOL     OW 1129   5.299   5.637   4.709
   77SOL    HW1 1130   5.274   5.562   4.770
   77SOL    HW2 1131   5.396   5.659   4.720
   78SOL     OW 1132   6.656   6.799   6.088
   78SOL    HW1 1133   6.607   6.776   6.172
   78SOL    HW2 1134   6.643   6.726   6.021
   79SOL     OW 1135   3.335   0.117   0.479
   79SOL    HW1 1136   3.296   0.028   0.455
   79SOL    HW2 1137   3.333   0.129   0.579
   80SOL     OW 1138   6.404   0.721   5.149
   80SOL    HW1 1139   6.466   0.644   5.162
   80SOL    HW2 1140   6.367   0.748   5.238
   81SOL     OW 1141   2.140   0.823   2.926
   81SOL    HW1 1142   2.221   0.859   2.971
   81SOL    HW2 1143   2.133   0.725   2.943
   82SOL     OW 1144   6.832   5.227   0.203
   82SOL    HW1 1145   6.795   5.261   0.290
   82SOL    HW2 1146   6.759   5.182   0.151
   83SOL     OW 1147   6.892   6.684   0.611
   83SOL    HW1 1148   6.922   6.739   0.689
   83SOL    HW2 1149   6.845   6.742   0.544
   84SOL     OW 1150   5.245   3.371   2.494
   84SOL    HW1 1151   5.229   3.454   2.548
   84SOL    HW2 1152   5.169   3.307   2.509
   85SOL     OW 1153   0.728   1.120   5.098
   85SOL    HW1 1154   0.825   1.106   5.115
   85SOL    HW2 1155   0.695   1.196   5.154
   86SOL     OW 1156   0.329   0.549   5.574
   86SOL    HW1 1157   0.271   0.470   5.555
   86SOL    HW2 1158   0.272   0.626   5.603
   87SOL     OW 1159   4.557   2.763   0.126
   87SOL    HW1 1160   4.605   2.843   0.162
   87SOL    HW2 1161   4.607   2.727   0.048
   88SOL     OW 1162   4.805   1.815   6.857
   88SOL    HW1 1163   4.742   1.751   6.900
   88SOL    HW2 1164   4.855   1.769   6.783
   89SOL     OW 1165   1.852   2.621   6.965
   89SOL    HW1 1166   1.786   2.678   7.014
   89SOL    HW2 1167   1.940   2.668   6.961
   90SOL     OW 1168   4.915   6.875   4.013
   90SOL    HW1 1169   4.915   6.780   4.042
   90SOL    HW2 1170   4.834   6.893   3.957
   91SOL     OW 1171   4.782   4.463   3.789
   91SOL    HW1 1172   4.735   4.375   3.802
   91SOL    HW2 1173   4.827   4.463   3.699
   92SOL     OW 1174   2.829   5.630   0.515
   92SOL    HW1 1175   2.867   5.722   0.523
   92SOL    HW2 1176   2.848   5.594   0.423
   93SOL     OW 1177   3.121   4.157   5.913
   93SOL    HW1 1178   3.115   4.120   6.006
   93SOL    HW2 1179   3.089   4.088   5.848
   94SOL     OW 1180   3.221   5.267   6.650
   94SOL    HW1 1181   3.214   5.259   6.749
   94SOL    HW2 1182   3.129   5.270   6.611
   95SOL     OW 1183   0.538   1.657   3.575
   95SOL    HW1 1184   0.451   1.633   3.531
   95SOL    HW2 1185   0.521   1.685   3.670
   96SOL     OW 1186   2.479   0.127   5.547
   96SOL    HW1 1187   2.490   0.071   5.628
   96SOL    HW2 1188   2.387   0.168   5.547
   97SOL     OW 1189   6.485   4.045   4.875
   97SOL    HW1 1190   6.394   4.053   4.834
   97SOL    HW2 1191   6.490   3.962   4.930
   98SOL     OW 1192   5.777   3.038   6.350
   98SOL    HW1 1193   5.874   3.045   6.371
   98SOL    HW2 1194   5.764   3.016   6.253
   99SOL     OW 1195   4.319   2.941   1.270
   99SOL    HW1 1196   4.352   2.872   1.206
   99SOL    HW2 1197   4.366   2.931   1.358
  100SOL     OW 1198   0.157   6.895   6.700
  100SOL    HW1 1199   0.127   6.989   6.682
  100SOL    HW2 1200   0.167   6.846   6.614
  101SOL     OW 1201   0.845   5.605   2.983
  101SOL    HW1 1202   0.879   5.647   2.899
  101SOL    HW2 1203   0.902   5.633   3.060
  102SOL     OW 1204   4.439   0.737   2.990
  102SOL    HW1 1205   4.382   0.814   3.019
  102SOL    HW2 1206   4.483   0.758   2.903
  103SOL     OW 1207   4.410   1.337   1.866
  103SOL    HW1 1208   4.473   1.301   1.796
  103SOL    HW2 1209   4.401   1.271   1.940
  104SOL     OW 1210   6.390   5.687   3.065
  104SOL    HW1 1211   6.479   5.649   3.090
  104SOL    HW2 1212   6.354   5.742   3.140
  105SOL     OW 1213   6.705   0.882   6.712
  105SOL    HW1 1214   6.783   0.934   6.745
  105SOL    HW2 1215   6.622   0.936   6.720
  106SOL     OW 1216   2.968   6.619   6.200
  106SOL    HW1 1217   3.067   6.606   6.194
  106SOL    HW2 1218   2.927   6.602   6.110
  107SOL     OW 1219   1.821   2.057   1.454
  107SOL    HW1 1220   1.820   2.110   1.539
  107SOL    HW2 1221   1.889   2.096   1.391
  108SOL     OW 1222   4.700   3.991   0.226
  108SOL    HW1 1223   4.685   4.089   0.212
  108SOL    HW2 1224   4.738   3.951   0.142
  109SOL     OW 1225   0.787   0.262   1.478
  109SOL    HW1 1226   0.755   0.176   1.438
  109SOL    HW2 1227   0.887   0.259   1.485
  110SOL     OW 1228   3.952   5.584   5.439
  110SOL    HW1 1229   3.966   5.490   5.468
  110SOL    HW2 1230   3.935   5.587   5.341
  111SOL     OW 1231   3.946   0.437   3.963
  111SOL    HW1 1232   3.886   0.477   4.032
  111SOL    HW2 1233   4.040   0.435   3.997
  112SOL     OW 1234   5.721   5.689   5.508
  112SOL    HW1 1235   5.741   5.675   5.411
  112SOL    HW2 1236   5.713   5.600   5.553
  113SOL     OW 1237   6.142   4.901   3.726
  113SOL    HW1 1238   6.081   4.831   3.763
  113SOL    HW2 1239   6.130   4.907   3.627
  114SOL     OW 1240   0.904   0.293   0.508
  114SOL    HW1 1241   0.973   0.340   0.454
  114SOL    HW2 1242   0.815   0.298   0.462
  115SOL     OW 1243   4.705   1.089   4.124
  115SOL    HW1 1244   4.648   1.137   4.057
  115SOL    HW2 1245   4.680   0.993   4.128
  116SOL     OW 1246   6.294   5.001   2.485
  116SOL    HW1 1247   6.243   4.952   2.556
  116SOL    HW2 1248   6.338   5.081   2.525
  117SOL     OW 1249   0.751   1.085   6.650
  117SOL    HW1 1250   0.758   1.013   6.581
  117SOL    HW2 1251   0.759   1.174   6.606
  118SOL     OW 1252   0.306   1.103   1.692
  118SOL    HW1 1253   0.367   1.141   1.762
  118SOL    HW2 1254   0.216   1.146   1.700
  119SOL     OW 1255   0.129   2.278   6.735
  119SOL    HW1 1256   0.044   2.227   6.745
  119SOL    HW2 1257   0.186   2.265   6.817
  120SOL     OW 1258   6.749   7.004   1.184
  120SOL    HW1 1259   6.836   6.986   1.137
  120SOL    HW2 1260   6.681   6.937   1.155
  121SOL     OW 1261   2.407   3.925   6.964
  121SOL    HW1 1262   2.376   3.836   6.930
  121SOL    HW2 1263   2.334   3.967   7.017
  122SOL     OW 1264   1.563   3.786   5.588
  122SOL    HW1 1265   1.565   3.786   5.688
  122SOL    HW2 1266   1.530   3.698   5.556
  123SOL     OW 1267   0.067   2.344   0.950
  123SOL    HW1 1268   0.054   2.363   0.853
  123SOL    HW2 1269   0.113   2.422   0.993
  124SOL     OW 1270   5.275   3.265   0.711
  124SOL    HW1 1271   5.252   3.170   0.732
  124SOL    HW2 1272   5.342   3.267   0.637
  125SOL     OW 1273   2.173   2.292   2.843
  125SOL    HW1 1274   2.128   2.350   2.911
  125SOL    HW2 1275   2.209   2.209   2.887
  126SOL     OW 1276   3.454   4.482   0.739
  126SOL    HW1 1277   3.447   4.447   0.833
  126SOL    HW2 1278   3.456   4.582   0.742
  127SOL     OW 1279   0.188   4.855   5.963
  127SOL    HW1 1280   0.148   4.790   5.899
  127SOL    HW2 1281   0.252   4.808   6.024
  128SOL     OW 1282   4.660   2.638   1.839
  128SOL    HW1 1283   4.678   2.699   1.916
  128SOL    HW2 1284   4.720   2.663   1.763
  129SOL     OW 1285   4.417   3.363   6.064
  129SOL    HW1 1286   4.426   3.461   6.047
  129SOL    HW2 1287   4.494   3.332   6.119
  130SOL     OW 1288   0.788   0.798   4.420
  130SOL    HW1 1289   0.760   0.894   4.410
  130SOL    HW2 1290   0.871   0.782   4.365
  131SOL     OW 1291   4.631   1.419   3.102
  131SOL    HW1 1292   4.696   1.442   3.174
  131SOL    HW2 1293   4.581   1.501   3.075
  132SOL     OW 1294   1.497   2.886   0.889
  132SOL    HW1 1295   1.536   2.800   0.923
  132SOL    HW2 1296   1.430   2.921   0.955
  133SOL     OW 1297   5.621   6.391   3.155
  133SOL    HW1 1298   5.642   6.342   3.070
  133SOL    HW2 1299   5.699   6.449   3.180
  134SOL     OW 1300   5.845   2.657   2.570
  134SOL    HW1 1301   5.912   2.588   2.546
  134SOL    HW2 1302   5.780   2.668   2.495
  135SOL     OW 1303   5.078   1.802   2.841
  135SOL    HW1 1304   4.996   1.858   2.834
  135SOL    HW2 1305   5.055   1.715   2.886
  136SOL     OW 1306   4.627   4.377   5.970
  136SOL    HW1 1307   4.670   4.288   5.983
  136SOL    HW2 1308   4.613   4.393   5.872
  137SOL     OW 1309   4.367   6.907   5.400
  137SOL    HW1 1310   4.346   6.997   5.439
  137SOL    HW2 1311   4.394   6.918   5.305
  138SOL     OW 1312   0.192   5.020   4.103
  138SOL    HW1 1313   0.154   5.072   4.027
  138SOL    HW2 1314   0.290   5.007   4.089
  139SOL     OW 1315   2.279   5.709   5.454
  139SOL    HW1 1316   2.358   5.656   5.421
  139SOL    HW2 1317   2.284   5.717   5.554
  140SOL     OW 1318   6.427   5.022   4.264
  140SOL    HW1 1319   6.375   4.976   4.192
  140SOL    HW2 1320   6.462   5.109   4.230
  141SOL     OW 1321   0.881   1.712   5.644
  141SOL    HW1 1322   0.801   1.691   5.699
  141SOL    HW2 1323   0.857   1.781   5.575
  142SOL     OW 1324   1.844   6.310   1.317
  142SOL    HW1 1325   1.776   6.283   1.248
  142SOL    HW2 1326   1.821   6.401   1.353
  143SOL     OW 1327   5.662   4.262   2.206
  143SOL    HW1 1328   5.652   4.211   2.120
  143SOL    HW2 1329   5.751   4.307   2.208
  144SOL     OW 1330   1.485   6.574   6.335
  144SOL    HW1 1331   1.514   6.611   6.247
  144SOL    HW2 1332   1.566   6.560   6.393
  145SOL     OW 1333   1.282   5.339   0.720
  145SOL    HW1 1334   1.228   5.393   0.785
  145SOL    HW2 1335   1.345   5.280   0.770
  146SOL     OW 1336   4.740   6.056   6.828
  146SOL    HW1 1337   4.810   6.125   6.809
  146SOL    HW2 1338   4.696   6.076   6.915
  147SOL     OW 1339   6.211   2.793   0.452
  147SOL    HW1 1340   6.162   2.760   0.372
  147SOL    HW2 1341   6.289   2.850   0.423
  148SOL     OW 1342   0.350   4.734   5.481
  148SOL    HW1 1343   0.360   4.827   5.517
  148SOL    HW2 1344   0.435   4.707   5.434
  149SOL     OW 1345   2.703   1.097   4.177
  149SOL    HW1 1346   2.668   1.190   4.165
  149SOL    HW2 1347   2.652   1.052   4.249
  150SOL     OW 1348   6.987   4.903   6.177
  150SOL    HW1 1349   0.015   4.857   6.102
  150SOL    HW2 1350   6.938   4.982   6.140
  151SOL     OW 1351   3.963   1.953   1.377
  151SOL    HW1 1352   3.882   1.990   1.424
  151SOL    HW2 1353   4.024   1.912   1.444
  152SOL     OW 1354   2.298   0.900   4.645
  152SOL    HW1 1355   2.282   0.854   4.733
  152SOL    HW2 1356   2.241   0.858   4.575
  153SOL     OW 1357   2.326   0.012   2.416
  153SOL    HW1 1358   2.352   0.034   2.323
  153SOL    HW2 1359   2.277   0.089   2.457
  154SOL     OW 1360   6.578   2.841   1.824
  154SOL    HW1 1361   6.599   2.801   1.734
  154SOL    HW2 1362   6.645   2.912   1.845
  155SOL     OW 1363   0.338   1.302   3.605
  155SOL    HW1 1364   0.309   1.398   3.604
  155SOL    HW2 1365   0.366   1.274   3.513
  156SOL     OW 1366   6.685   1.554   1.438
  156SOL    HW1 1367   6.669   1.484   1.508
  156SOL    HW2 1368   6.616   1.626   1.448
  157SOL     OW 1369   6.187   3.379   2.174
  157SOL    HW1 1370   6.133   3.348   2.096
  157SOL    HW2 1371   6.278   3.407   2.143
  158SOL     OW 1372   2.978   0.385   2.148
  158SOL    HW1 1373   2.920   0.374   2.229
  158SOL    HW2 1374   2.950   0.320   2.078
  159SOL     OW 1375   4.758   4.254   1.347
  159SOL    HW1 1376   4.690   4.245   1.274
  159SOL    HW2 1377   4.822   4.327   1.323
  160SOL     OW 1378   6.549   4.472   6.786
  160SOL    HW1 1379   6.528   4.448   6.881
  160SOL    HW2 1380   6.629   4.421   6.755
  161SOL     OW 1381   1.923   5.348   4.899
  161SOL    HW1 1382   1.997   5.406   4.865
  161SOL    HW2 1383   1.946   5.252   4.885
  162SOL     OW 1384   3.885   6.736   0.211
  162SOL    HW1 1385   3.979   6.739   0.243
  162SOL    HW2 1386   3.853   6.641   0.208
  163SOL     OW 1387   4.196   6.012   1.280
  163SOL    HW1 1388   4.103   5.995   1.311
  163SOL    HW2 1389   4.257   6.020   1.359
  164SOL     OW 1390   6.478   4.023   1.325
  164SOL    HW1 1391   6.440   4.115   1.334
  164SOL    HW2 1392   6.407   3.956   1.346
  165SOL     OW 1393   5.029   2.935   0.461
  165SOL    HW1 1394   5.115   2.895   0.429
  165SOL    HW2 1395   4.959   2.923   0.390
  166SOL     OW 1396   0.283   5.734   3.643
  166SOL    HW1 1397   0.272   5.652   3.699
  166SOL    HW2 1398   0.378   5.742   3.613
  167SOL     OW 1399   5.883   2.030   0.275
  167SOL    HW1 1400   5.861   2.080   0.358
  167SOL    HW2 1401   5.799   2.011   0.224
  168SOL     OW 1402   2.799   3.728   0.792
  168SOL    HW1 1403   2.816   3.820   0.828
  168SOL    HW2 1404   2.873   3.667   0.820
  169SOL     OW 1405   2.937   0.086   1.617
  169SOL    HW1 1406   2.859   0.025   1.603
  169SOL    HW2 1407   2.943   0.150   1.540
  170SOL     OW 1408   0.579   1.705   3.883
  170SOL    HW1 1409   0.532   1.787   3.851
  170SOL    HW2 1410   0.557   1.690   3.980
  171SOL     OW 1411   3.431   4.009   0.333
  171SOL    HW1 1412   3.437   3.910   0.321
  171SOL    HW2 1413   3.414   4.053   0.245
  172SOL     OW 1414   6.482   1.428   4.667
  172SOL    HW1 1415   6.446   1.516   4.697
  172SOL    HW2 1416   6.536   1.440   4.583
  173SOL     OW 1417   6.734   0.293   4.386
  173SOL    HW1 1418   6.832   0.292   4.408
  173SOL    HW2 1419   6.699   0.199   4.389
  174SOL     OW 1420   2.964   5.525   3.227
  174SOL    HW1 1421   2.889   5.538   3.162
  174SOL    HW2 1422   2.956   5.434   3.268
  175SOL     OW 1423   1.683   6.591   1.755
  175SOL    HW1 1424   1.615   6.521   1.779
  175SOL    HW2 1425   1.754   6.593   1.825
  176SOL     OW 1426   2.418   4.050   1.047
  176SOL    HW1 1427   2.417   4.000   1.134
  176SOL    HW2 1428   2.512   4.057   1.014
  177SOL     OW 1429   5.727   2.910   3.096
  177SOL    HW1 1430   5.757   2.980   3.032
  177SOL    HW2 1431   5.708   2.951   3.185
  178SOL     OW 1432   4.943   4.019   6.270
  178SOL    HW1 1433   5.005   3.982   6.340
  178SOL    HW2 1434   4.904   4.105   6.302
  179SOL     OW 1435   3.065   1.025   6.647
  179SOL    HW1 1436   3.086   1.118   6.678
  179SOL    HW2 1437   2.985   1.027   6.587
  180SOL     OW 1438   0.728   1.354   6.897
  180SOL    HW1 1439   0.675   1.270   6.904
  180SOL    HW2 1440   0.822   1.332   6.870
  181SOL     OW 1441   3.652   1.640   6.547
  181SOL    HW1 1442   3.592   1.715   6.576
  181SOL    HW2 1443   3.747   1.668   6.559
  182SOL     OW 1444   4.356   2.423   4.076
  182SOL    HW1 1445   4.269   2.388   4.042
  182SOL    HW2 1446   4.355   2.422   4.176
  183SOL     OW 1447   3.757   6.980   2.082
  183SOL    HW1 1448   3.766   0.047   2.128
  183SOL    HW2 1449   3.725   6.911   2.148
  184SOL     OW 1450   1.424   5.867   3.817
  184SOL    HW1 1451   1.404   5.964   3.804
  184SOL    HW2 1452   1.511   5.858   3.866
  185SOL     OW 1453   1.002   3.312   6.580
  185SOL    HW1 1454   1.060   3.389   6.553
  185SOL    HW2 1455   1.060   3.239   6.616
  186SOL     OW 1456   6.314   0.438   3.579
  186SOL    HW1 1457   6.393   0.455   3.638
  186SOL    HW2 1458   6.230   0.444   3.632
  187SOL     OW 1459   5.620   0.872   4.003
  187SOL    HW1 1460   5.674   0.952   4.031
  187SOL    HW2 1461   5.612   0.809   4.080
  188SOL     OW 1462   5.957   2.741   3.049
  188SOL    HW1 1463   5.879   2.717   2.991
  188SOL    HW2 1464   5.969   2.840   3.050
  189SOL     OW 1465   1.808   5.813   2.781
  189SOL    HW1 1466   1.778   5.806   2.876
  189SOL    HW2 1467   1.730   5.827   2.721
  190SOL     OW 1468   3.745   1.153   4.674
  190SOL    HW1 1469   3.752   1.141   4.773
  190SOL    HW2 1470   3.833   1.133   4.631
  191SOL     OW 1471   5.774   5.262   5.895
  191SOL    HW1 1472   5.713   5.307   5.961
  191SOL    HW2 1473   5.840   5.206   5.944
  192SOL     OW 1474   0.201   6.583   1.964
  192SOL    HW1 1475   0.300   6.588   1.976
  192SOL    HW2 1476   0.177   6.496   1.921
  193SOL     OW 1477   5.141   2.928   6.549
  193SOL    HW1 1478   5.144   2.995   6.475
  193SOL    HW2 1479   5.229   2.928   6.597
  194SOL     OW 1480   3.549   0.716   2.959
  194SOL    HW1 1481   3.561   0.785   2.889
  194SOL    HW2 1482   3.584   0.628   2.926
  195SOL     OW 1483   1.579   6.155   3.336
  195SOL    HW1 1484   1.625   6.067   3.327
  195SOL    HW2 1485   1.610   6.201   3.418
  196SOL     OW 1486   1.943   2.146   6.887
  196SOL    HW1 1487   1.869   2.212   6.897
  196SOL    HW2 1488   1.910   2.066   6.837
  197SOL     OW 1489   2.287   1.919   0.921
  197SOL    HW1 1490   2.202   1.959   0.887
  197SOL    HW2 1491   2.271   1.823   0.945
  198SOL     OW 1492   4.168   0.774   3.260
  198SOL    HW1 1493   4.205   0.815   3.177
  198SOL    HW2 1494   4.095   0.833   3.296
  199SOL     OW 1495   1.831   2.599   4.225
  199SOL    HW1 1496   1.880   2.556   4.301
  199SOL    HW2 1497   1.793   2.528   4.166
  200SOL     OW 1498   0.725   2.489   0.882
  200SOL    HW1 1499   0.812   2.533   0.906
  200SOL    HW2 1500   0.742   2.395   0.855
  201SOL     OW 1501   0.435   1.160   5.881
  201SOL    HW1 1502   0.347   1.155   5.928
  201SOL    HW2 1503   0.478   1.069   5.882
  202SOL     OW 1504   4.753   0.450   6.539
  202SOL    HW1 1505   4.676   0.388   6.555
  202SOL    HW2 1506   4.723   0.527   6.482
  203SOL     OW 1507   5.724   2.864   5.390
  203SOL    HW1 1508   5.709   2.945   5.333
  203SOL    HW2 1509   5.816   2.829   5.374
  204SOL     OW 1510   0.126   0.299   5.571
  204SOL    HW1 1511   0.074   0.261   5.647
  204SOL    HW2 1512   0.065   0.318   5.495
  205SOL     OW 1513   1.121   2.156   2.662
  205SOL    HW1 1514   1.139   2.169   2.759
  205SOL    HW2 1515   1.161   2.069   2.632
  206SOL     OW 1516   0.669   3.391   1.897
  206SOL    HW1 1517   0.573   3.374   1.876
  206SOL    HW2 1518   0.726   3.329   1.843
  207SOL     OW 1519   4.976   1.953   3.316
  207SOL    HW1 1520   4.952   1.982   3.223
  207SOL    HW2 1521   5.066   1.911   3.315
  208SOL     OW 1522   0.315   4.090   5.259
  208SOL    HW1 1523   0.268   4.177   5.247
  208SOL    HW2 1524   0.383   4.098   5.332
  209SOL     OW 1525   6.606   4.484   2.656
  209SOL    HW1 1526   6.563   4.422   2.590
  209SOL    HW2 1527   6.549   4.566   2.666
  210SOL     OW 1528   4.336   2.235   0.413
  210SOL    HW1 1529   4.239   2.209   0.410
  210SOL    HW2 1530   4.385   2.173   0.474
  211SOL     OW 1531   1.854   0.443   3.154
  211SOL    HW1 1532   1.805   0.408   3.074
  211SOL    HW2 1533   1.796   0.508   3.203
  212SOL     OW 1534   1.179   3.713   2.830
  212SOL    HW1 1535   1.115   3.657   2.777
  212SOL    HW2 1536   1.272   3.696   2.798
  213SOL     OW 1537   1.652   5.809   0.982
  213SOL    HW1 1538   1.663   5.836   1.078
  213SOL    HW2 1539   1.655   5.890   0.924
  214SOL     OW 1540   4.242   5.471   2.192
  214SOL    HW1 1541   4.228   5.374   2.173
  214SOL    HW2 1542   4.340   5.491   2.194
  215SOL     OW 1543   2.459   4.962   1.471
  215SOL    HW1 1544   2.468   4.909   1.555
  215SOL    HW2 1545   2.382   4.925   1.417
  216SOL     OW 1546   1.412   0.649   2.545
  216SOL    HW1 1547   1.352   0.713   2.498
  216SOL    HW2 1548   1.487   0.623   2.485
  217SOL     OW 1549   1.131   2.836   5.639
  217SOL    HW1 1550   1.197   2.850   5.566
  217SOL    HW2 1551   1.177   2.841   5.728
  218SOL     OW 1552   0.617   2.271   5.323
  218SOL    HW1 1553   0.690   2.219   5.278
  218SOL    HW2 1554   0.620   2.255   5.421
  219SOL     OW 1555   3.794   0.572   0.447
  219SOL    HW1 1556   3.781   0.671   0.458
  219SOL    HW2 1557   3.828   0.533   0.532
  220SOL     OW 1558   3.032   0.684   0.932
  220SOL    HW1 1559   3.054   0.781   0.943
  220SOL    HW2 1560   3.071   0.632   1.008
  221SOL     OW 1561   5.986   5.198   1.282
  221SOL    HW1 1562   6.069   5.178   1.333
  221SOL    HW2 1563   5.907   5.195   1.344
  222SOL     OW 1564   1.861   4.646   6.811
  222SOL    HW1 1565   1.941   4.696   6.779
  222SOL    HW2 1566   1.854   4.652   6.910
  223SOL     OW 1567   6.781   2.799   5.432
  223SOL    HW1 1568   6.710   2.830   5.495
  223SOL    HW2 1569   6.750   2.813   5.338
  224SOL     OW 1570   3.263   2.299   6.111
  224SOL    HW1 1571   3.241   2.358   6.034
  224SOL    HW2 1572   3.362   2.293   6.122
  225SOL     OW 1573   4.444   3.964   5.897
  225SOL    HW1 1574   4.457   4.011   5.810
  225SOL    HW2 1575   4.531   3.958   5.946
  226SOL     OW 1576   1.099   1.596   6.730
  226SOL    HW1 1577   1.075   1.549   6.815
  226SOL    HW2 1578   1.120   1.692   6.750
  227SOL     OW 1579   2.230   4.206   2.473
  227SOL    HW1 1580   2.195   4.280   2.416
  227SOL    HW2 1581   2.225   4.120   2.422
  228SOL     OW 1582   1.959   0.836   3.201
  228SOL    HW1 1583   1.872   0.810   3.159
  228SOL    HW2 1584   2.009   0.754   3.227
  229SOL     OW 1585   5.280   4.621   6.791
  229SOL    HW1 1586   5.266   4.720   6.786
  229SOL    HW2 1587   5.263   4.580   6.701
  230SOL     OW 1588   4.452   6.128   4.397
  230SOL    HW1 1589   4.417   6.036   4.378
  230SOL    HW2 1590   4.466   6.138   4.495
  231SOL     OW 1591   5.462   1.093   6.792
  231SOL    HW1 1592   5.420   1.181   6.810
  231SOL    HW2 1593   5.394   1.020   6.803
  232SOL     OW 1594   0.215   2.789   6.751
  232SOL    HW1 1595   0.137   2.836   6.710
  232SOL    HW2 1596   0.185   2.699   6.785
  233SOL     OW 1597   3.252   2.123   3.484
  233SOL    HW1 1598   3.200   2.113   3.569
  233SOL    HW2 1599   3.189   2.137   3.408
  234SOL     OW 1600   5.498   1.044   5.998
  234SOL    HW1 1601   5.508   1.054   6.097
  234SOL    HW2 1602   5.587   1.055   5.954
  235SOL     OW 1603   4.889   2.943   2.569
  235SOL    HW1 1604   4.904   2.967   2.474
  235SOL    HW2 1605   4.949   2.999   2.627
  236SOL     OW 1606   4.897   3.688   6.530
  236SOL    HW1 1607   4.828   3.638   6.582
  236SOL    HW2 1608   4.986   3.643   6.542
  237SOL     OW 1609   6.875   4.488   2.630
  237SOL    HW1 1610   6.909   4.397   2.606
  237SOL    HW2 1611   6.775   4.488   2.629
  238SOL     OW 1612   6.436   1.022   0.295
  238SOL    HW1 1613   6.413   1.027   0.392
  238SOL    HW2 1614   6.486   1.105   0.268
  239SOL     OW 1615   0.943   4.540   0.610
  239SOL    HW1 1616   0.997   4.609   0.562
  239SOL    HW2 1617   0.952   4.554   0.709
  240SOL     OW 1618   6.851   3.527   3.334
  240SOL    HW1 1619   6.931   3.481   3.374
  240SOL    HW2 1620   6.875   3.621   3.311
  241SOL     OW 1621   2.710   2.406   4.196
  241SOL    HW1 1622   2.801   2.422   4.233
  241SOL    HW2 1623   2.713   2.408   4.096
  242SOL     OW 1624   3.816   3.543   3.496
  242SOL    HW1 1625   3.806   3.495   3.409
  242SOL    HW2 1626   3.911   3.534   3.528
  243SOL     OW 1627   4.599   1.645   6.995
  243SOL    HW1 1628   4.551   1.710   0.035
  243SOL    HW2 1629   4.532   1.588   6.948
  244SOL     OW 1630   6.031   3.088   6.446
  244SOL    HW1 1631   6.057   3.138   6.528
  244SOL    HW2 1632   6.083   3.122   6.368
  245SOL     OW 1633   3.749   1.824   3.817
  245SOL    HW1 1634   3.723   1.897   3.880
  245SOL    HW2 1635   3.836   1.784   3.848
  246SOL     OW 1636   5.372   1.704   3.657
  246SOL    HW1 1637   5.424   1.627   3.694
  246SOL    HW2 1638   5.433   1.764   3.607
  247SOL     OW 1639   2.437   2.048   0.472
  247SOL    HW1 1640   2.443   2.023   0.569
  247SOL    HW2 1641   2.427   1.964   0.417
  248SOL     OW 1642   2.527   1.399   2.876
  248SOL    HW1 1643   2.533   1.302   2.898
  248SOL    HW2 1644   2.585   1.452   2.938
  249SOL     OW 1645   5.144   6.961   5.473
  249SOL    HW1 1646   5.225   6.919   5.515
  249SOL    HW2 1647   5.066   6.900   5.484
  250SOL     OW 1648   3.733   3.104   1.141
  250SOL    HW1 1649   3.707   3.040   1.214
  250SOL    HW2 1650   3.701   3.196   1.165
  251SOL     OW 1651   4.721   3.413   5.343
  251SOL    HW1 1652   4.745   3.322   5.310
  251SOL    HW2 1653   4.708   3.474   5.265
  252SOL     OW 1654   6.445   0.002   5.443
  252SOL    HW1 1655   6.382   6.950   5.417
  252SOL    HW2 1656   6.479   7.006   5.536
  253SOL     OW 1657   3.876   4.671   5.772
  253SOL    HW1 1658   3.941   4.642   5.842
  253SOL    HW2 1659   3.843   4.763   5.794
  254SOL     OW 1660   6.991   2.618   3.553
  254SOL    HW1 1661   6.914   2.557   3.572
  254SOL    HW2 1662   6.964   2.686   3.485
  255SOL     OW 1663   1.275   4.671   6.052
  255SOL    HW1 1664   1.363   4.699   6.091
  255SOL    HW2 1665   1.236   4.746   5.998
  256SOL     OW 1666   5.601   3.363   5.807
  256SOL    HW1 1667   5.609   3.292   5.737
  256SOL    HW2 1668   5.638   3.329   5.893
  257SOL     OW 1669   4.877   6.737   3.032
  257SOL    HW1 1670   4.788   6.709   2.996
  257SOL    HW2 1671   4.933   6.656   3.050
  258SOL     OW 1672   2.438   3.925   5.682
  258SOL    HW1 1673   2.382   3.989   5.734
  258SOL    HW2 1674   2.439   3.952   5.585
  259SOL     OW 1675   5.194   0.927   2.207
  259SOL    HW1 1676   5.227   0.867   2.280
  259SOL    HW2 1677   5.149   1.007   2.247
  260SOL     OW 1678   3.617   5.224   3.159
  260SOL    HW1 1679   3.594   5.223   3.062
  260SOL    HW2 1680   3.655   5.135   3.185
  261SOL     OW 1681   5.392   4.918   1.374
  261SOL    HW1 1682   5.449   4.930   1.456
  261SOL    HW2 1683   5.347   4.829   1.377
  262SOL     OW 1684   1.660   3.918   1.007
  262SOL    HW1 1685   1.654   3.877   1.097
  262SOL    HW2 1686   1.748   3.896   0.966
  263SOL     OW 1687   1.066   0.313   3.630
  263SOL    HW1 1688   0.999   0.256   3.582
  263SOL    HW2 1689   1.114   0.371   3.563
  264SOL     OW 1690   6.457   2.889   0.408
  264SOL    HW1 1691   6.528   2.893   0.478
  264SOL    HW2 1692   6.500   2.885   0.318
  265SOL     OW 1693   6.193   6.737   3.125
  265SOL    HW1 1694   6.116   6.787   3.087
  265SOL    HW2 1695   6.199   6.647   3.082
  266SOL     OW 1696   4.849   3.117   5.942
  266SOL    HW1 1697   4.793   3.034   5.937
  266SOL    HW2 1698   4.793   3.196   5.919
  267SOL     OW 1699   1.377   0.886   5.167
  267SOL    HW1 1700   1.448   0.938   5.119
  267SOL    HW2 1701   1.419   0.815   5.224
  268SOL     OW 1702   3.753   0.900   6.148
  268SOL    HW1 1703   3.739   0.997   6.131
  268SOL    HW2 1704   3.851   0.880   6.150
  269SOL     OW 1705   3.138   2.207   0.045
  269SOL    HW1 1706   3.128   2.153   0.128
  269SOL    HW2 1707   3.053   2.204   7.013
  270SOL     OW 1708   0.708   5.955   0.357
  270SOL    HW1 1709   0.741   5.913   0.273
  270SOL    HW2 1710   0.757   6.040   0.374
  271SOL     OW 1711   0.630   1.638   6.323
  271SOL    HW1 1712   0.601   1.673   6.413
  271SOL    HW2 1713   0.631   1.538   6.326
  272SOL     OW 1714   3.507   6.014   3.907
  272SOL    HW1 1715   3.589   5.992   3.960
  272SOL    HW2 1716   3.505   6.112   3.886
  273SOL     OW 1717   1.663   5.037   5.685
  273SOL    HW1 1718   1.733   4.966   5.683
  273SOL    HW2 1719   1.641   5.065   5.591
  274SOL     OW 1720   4.043   0.939   3.679
  274SOL    HW1 1721   4.096   1.024   3.677
  274SOL    HW2 1722   3.976   0.940   3.605
  275SOL     OW 1723   6.991   6.370   2.630
  275SOL    HW1 1724   6.947   6.326   2.709
  275SOL    HW2 1725   0.043   6.431   2.662
  276SOL     OW 1726   0.471   6.971   4.003
  276SOL    HW1 1727   0.469   0.047   4.030
  276SOL    HW2 1728   0.445   6.914   4.081
  277SOL     OW 1729   1.514   2.888   0.247
  277SOL    HW1 1730   1.587   2.863   0.311
  277SOL    HW2 1731   1.467   2.970   0.280
  278SOL     OW 1732   0.126   3.381   3.223
  278SOL    HW1 1733   0.069   3.388   3.305
  278SOL    HW2 1734   0.200   3.448   3.227
  279SOL     OW 1735   5.360   2.860   4.224
  279SOL    HW1 1736   5.442   2.886   4.275
  279SOL    HW2 1737   5.293   2.820   4.286
  280SOL     OW 1738   2.294   5.389   1.670
  280SOL    HW1 1739   2.269   5.483   1.696
  280SOL    HW2 1740   2.300   5.382   1.571
  281SOL     OW 1741   2.077   4.280   1.665
  281SOL    HW1 1742   2.103   4.311   1.573
  281SOL    HW2 1743   2.154   4.233   1.707
  282SOL     OW 1744   3.284   0.849   5.228
  282SOL    HW1 1745   3.222   0.827   5.152
  282SOL    HW2 1746   3.293   0.948   5.235
  283SOL     OW 1747   5.531   2.671   6.584
  283SOL    HW1 1748   5.511   2.697   6.489
  283SOL    HW2 1749   5.623   2.702   6.609
  284SOL     OW 1750   0.574   3.861   3.329
  284SOL    HW1 1751   0.583   3.801   3.250
  284SOL    HW2 1752   0.578   3.807   3.413
  285SOL     OW 1753   5.188   4.983   4.048
  285SOL    HW1 1754   5.271   4.967   4.102
  285SOL    HW2 1755   5.213   5.014   3.956
  286SOL     OW 1756   3.227   4.094   6.838
  286SOL    HW1 1757   3.214   4.115   6.741
  286SOL    HW2 1758   3.319   4.059   6.853
  287SOL     OW 1759   1.635   3.452   1.024
  287SOL    HW1 1760   1.552   3.497   1.056
  287SOL    HW2 1761   1.619   3.354   1.018
  288SOL     OW 1762   3.940   1.211   6.389
  288SOL    HW1 1763   3.972   1.153   6.314
  288SOL    HW2 1764   3.984   1.300   6.384
  289SOL     OW 1765   1.921   4.566   5.601
  289SOL    HW1 1766   2.007   4.530   5.638
  289SOL    HW2 1767   1.854   4.493   5.592
  290SOL     OW 1768   0.218   1.777   5.385
  290SOL    HW1 1769   0.245   1.732   5.470
  290SOL    HW2 1770   0.211   1.875   5.400
  291SOL     OW 1771   0.962   1.815   3.846
  291SOL    HW1 1772   0.943   1.772   3.934
  291SOL    HW2 1773   0.932   1.910   3.848
  292SOL     OW 1774   2.212   0.366   3.671
  292SOL    HW1 1775   2.195   0.280   3.719
  292SOL    HW2 1776   2.130   0.394   3.622
  293SOL     OW 1777   4.629   5.792   4.192
  293SOL    HW1 1778   4.639   5.865   4.259
  293SOL    HW2 1779   4.651   5.705   4.234
  294SOL     OW 1780   5.354   5.911   6.534
  294SOL    HW1 1781   5.429   5.937   6.473
  294SOL    HW2 1782   5.295   5.990   6.550
  295SOL     OW 1783   4.917   0.680   3.683
  295SOL    HW1 1784   4.828   0.705   3.645
  295SOL    HW2 1785   4.983   0.753   3.665
  296SOL     OW 1786   3.215   1.220   3.044
  296SOL    HW1 1787   3.270   1.286   3.094
  296SOL    HW2 1788   3.129   1.203   3.093
  297SOL     OW 1789   1.566   3.950   3.485
  297SOL    HW1 1790   1.591   4.042   3.456
  297SOL    HW2 1791   1.636   3.914   3.547
  298SOL     OW 1792   6.255   5.718   0.992
  298SOL    HW1 1793   6.216   5.678   0.909
  298SOL    HW2 1794   6.187   5.776   1.036
  299SOL     OW 1795   6.210   2.636   4.509
  299SOL    HW1 1796   6.271   2.582   4.567
  299SOL    HW2 1797   6.250   2.645   4.418
  300SOL     OW 1798   5.979   0.349   3.002
  300SOL    HW1 1799   6.005   0.409   2.927
  300SOL    HW2 1800   5.895   0.382   3.044
  301SOL     OW 1801   5.933   3.586   6.979
  301SOL    HW1 1802   5.880   3.560   0.040
  301SOL    HW2 1803   6.024   3.617   7.008
  302SOL     OW 1804   0.728   0.237   3.930
  302SOL    HW1 1805   0.823   0.269   3.930
  302SOL    HW2 1806   0.697   0.227   4.025
  303SOL     OW 1807   4.784   0.716   3.014
  303SOL    HW1 1808   4.709   0.749   3.071
  303SOL    HW2 1809   4.851   0.670   3.071
  304SOL     OW 1810   2.298   0.053   3.191
  304SOL    HW1 1811   2.331   0.140   3.226
  304SOL    HW2 1812   2.237   0.069   3.114
  305SOL     OW 1813   1.242   4.082   0.050
  305SOL    HW1 1814   1.289   4.008   0.002
  305SOL    HW2 1815   1.148   4.090   0.017
  306SOL     OW 1816   2.328   0.915   3.636
  306SOL    HW1 1817   2.232   0.909   3.610
  306SOL    HW2 1818   2.337   0.962   3.723
  307SOL     OW 1819   4.565   0.322   1.190
  307SOL    HW1 1820   4.478   0.368   1.175
  307SOL    HW2 1821   4.622   0.376   1.252
  308SOL     OW 1822   1.267   6.464   3.195
  308SOL    HW1 1823   1.186   6.408   3.176
  308SOL    HW2 1824   1.268   6.543   3.134
  309SOL     OW 1825   3.600   4.603   5.415
  309SOL    HW1 1826   3.682   4.612   5.359
  309SOL    HW2 1827   3.546   4.687   5.409
  310SOL     OW 1828   0.359   6.500   5.624
  310SOL    HW1 1829   0.414   6.471   5.703
  310SOL    HW2 1830   0.376   6.597   5.607
  311SOL     OW 1831   0.646   5.798   1.678
  311SOL    HW1 1832   0.654   5.882   1.730
  311SOL    HW2 1833   0.731   5.745   1.685
  312SOL     OW 1834   5.035   1.690   5.295
  312SOL    HW1 1835   5.124   1.693   5.342
  312SOL    HW2 1836   5.013   1.595   5.273
  313SOL     OW 1837   1.857   4.114   1.961
  313SOL    HW1 1838   1.770   4.136   1.917
  313SOL    HW2 1839   1.884   4.020   1.937
  314SOL     OW 1840   3.771   5.655   0.313
  314SOL    HW1 1841   3.694   5.638   0.375
  314SOL    HW2 1842   3.849   5.691   0.365
  315SOL     OW 1843   0.196   2.994   3.855
  315SOL    HW1 1844   0.227   3.059   3.924
  315SOL    HW2 1845   0.166   2.910   3.900
  316SOL     OW 1846   2.265   2.845   3.714
  316SOL    HW1 1847   2.330   2.821   3.786
  316SOL    HW2 1848   2.256   2.944   3.709
  317SOL     OW 1849   6.684   1.496   6.733
  317SOL    HW1 1850   6.600   1.443   6.729
  317SOL    HW2 1851   6.755   1.441   6.777
  318SOL     OW 1852   1.768   4.070   0.676
  318SOL    HW1 1853   1.761   4.163   0.713
  318SOL    HW2 1854   1.792   4.074   0.579
  319SOL     OW 1855   1.390   0.102   1.083
  319SOL    HW1 1856   1.468   0.150   1.043
  319SOL    HW2 1857   1.366   0.144   1.170
  320SOL     OW 1858   6.166   3.362   0.879
  320SOL    HW1 1859   6.230   3.425   0.834
  320SOL    HW2 1860   6.182   3.269   0.846
  321SOL     OW 1861   1.926   2.393   1.866
  321SOL    HW1 1862   2.013   2.429   1.900
  321SOL    HW2 1863   1.854   2.460   1.886
  322SOL     OW 1864   3.862   2.986   4.979
  322SOL    HW1 1865   3.811   3.044   5.042
  322SOL    HW2 1866   3.916   3.044   4.917
  323SOL     OW 1867   6.646   4.271   1.055
  323SOL    HW1 1868   6.699   4.246   1.136
  323SOL    HW2 1869   6.549   4.274   1.079
  324SOL     OW 1870   1.095   3.390   4.663
  324SOL    HW1 1871   1.107   3.297   4.629
  324SOL    HW2 1872   1.185   3.430   4.684
  325SOL     OW 1873   2.218   2.712   1.727
  325SOL    HW1 1874   2.166   2.630   1.702
  325SOL    HW2 1875   2.237   2.765   1.645
  326SOL     OW 1876   2.387   5.704   6.538
  326SOL    HW1 1877   2.367   5.618   6.584
  326SOL    HW2 1878   2.304   5.759   6.533
  327SOL     OW 1879   6.145   4.959   5.467
  327SOL    HW1 1880   6.137   4.861   5.453
  327SOL    HW2 1881   6.086   4.987   5.544
  328SOL     OW 1882   4.136   4.885   1.806
  328SOL    HW1 1883   4.047   4.900   1.850
  328SOL    HW2 1884   4.122   4.838   1.719
  329SOL     OW 1885   3.627   3.828   3.192
  329SOL    HW1 1886   3.679   3.911   3.213
  329SOL    HW2 1887   3.612   3.776   3.275
  330SOL     OW 1888   3.153   6.869   1.370
  330SOL    HW1 1889   3.188   6.785   1.329
  330SOL    HW2 1890   3.113   6.848   1.459
  331SOL     OW 1891   4.852   5.115   5.693
  331SOL    HW1 1892   4.853   5.209   5.658
  331SOL    HW2 1893   4.927   5.063   5.652
  332SOL     OW 1894   3.008   1.689   3.897
  332SOL    HW1 1895   2.950   1.735   3.964
  332SOL    HW2 1896   3.029   1.597   3.928
  333SOL     OW 1897   3.749   6.285   6.288
  333SOL    HW1 1898   3.771   6.205   6.232
  333SOL    HW2 1899   3.806   6.286   6.370
  334SOL     OW 1900   3.513   6.948   2.424
  334SOL    HW1 1901   3.426   6.988   2.396
  334SOL    HW2 1902   3.496   6.877   2.492
  335SOL     OW 1903   3.216   6.389   3.467
  335SOL    HW1 1904   3.208   6.325   3.390
  335SOL    HW2 1905   3.149   6.365   3.537
  336SOL     OW 1906   3.244   1.093   3.506
  336SOL    HW1 1907   3.154   1.119   3.543
  336SOL    HW2 1908   3.238   1.086   3.407
  337SOL     OW 1909   7.010   3.291   1.440
  337SOL    HW1 1910   6.940   3.247   1.384
  337SOL    HW2 1911   6.966   3.357   1.501
  338SOL     OW 1912   2.923   2.931   1.430
  338SOL    HW1 1913   2.907   2.890   1.520
  338SOL    HW2 1914   3.022   2.941   1.415
  339SOL     OW 1915   3.793   6.452   2.710
  339SOL    HW1 1916   3.875   6.508   2.697
  339SOL    HW2 1917   3.797   6.408   2.800
  340SOL     OW 1918   4.912   3.662   4.561
  340SOL    HW1 1919   4.931   3.626   4.653
  340SOL    HW2 1920   4.920   3.588   4.494
  341SOL     OW 1921   5.255   5.402   4.054
  341SOL    HW1 1922   5.216   5.472   3.994
  341SOL    HW2 1923   5.191   5.325   4.059
  342SOL     OW 1924   6.499   5.058   0.493
  342SOL    HW1 1925   6.454   5.085   0.578
  342SOL    HW2 1926   6.588   5.016   0.514
  343SOL     OW 1927   3.961   6.934   1.504
  343SOL    HW1 1928   3.904   6.925   1.422
  343SOL    HW2 1929   4.012   6.849   1.518
  344SOL     OW 1930   2.100   4.806   0.562
  344SOL    HW1 1931   2.187   4.758   0.565
  344SOL    HW2 1932   2.033   4.758   0.617
  345SOL     OW 1933   0.879   0.426   5.459
  345SOL    HW1 1934   0.795   0.389   5.419
  345SOL    HW2 1935   0.897   0.516   5.419
  346SOL     OW 1936   1.579   0.333   2.572
  346SOL    HW1 1937   1.531   0.287   2.497
  346SOL    HW2 1938   1.546   0.297   2.659
  347SOL     OW 1939   5.415   6.824   6.740
  347SOL    HW1 1940   5.326   6.868   6.751
  347SOL    HW2 1941   5.431   6.762   6.817
  348SOL     OW 1942   3.329   5.318   1.065
  348SOL    HW1 1943   3.425   5.335   1.089
  348SOL    HW2 1944   3.324   5.239   1.003
  349SOL     OW 1945   0.573   4.965   2.625
  349SOL    HW1 1946   0.521   5.037   2.579
  349SOL    HW2 1947   0.548   4.961   2.721
  350SOL     OW 1948   3.884   3.468   1.428
  350SOL    HW1 1949   3.818   3.401   1.461
  350SOL    HW2 1950   3.845   3.560   1.436
  351SOL     OW 1951   2.797   1.634   6.908
  351SOL    HW1 1952   2.824   1.704   6.974
  351SOL    HW2 1953   2.747   1.561   6.955
  352SOL     OW 1954   3.184   0.498   5.857
  352SOL    HW1 1955   3.278   0.511   5.826
  352SOL    HW2 1956   3.134   0.446   5.789
  353SOL     OW 1957   1.511   6.132   0.418
  353SOL    HW1 1958   1.558   6.207   0.464
  353SOL    HW2 1959   1.521   6.141   0.319
  354SOL     OW 1960   4.388   1.447   0.182
  354SOL    HW1 1961   4.405   1.369   0.122
  354SOL    HW2 1962   4.323   1.420   0.253
  355SOL     OW 1963   0.039   3.605   2.763
  355SOL    HW1 1964   0.078   3.545   2.833
  355SOL    HW2 1965   6.971   3.570   2.734
  356SOL     OW 1966   4.020   5.114   3.533
  356SOL    HW1 1967   4.024   5.199   3.481
  356SOL    HW2 1968   4.011   5.036   3.471
  357SOL     OW 1969   0.175   5.788   5.268
  357SOL    HW1 1970   0.226   5.815   5.186
  357SOL    HW2 1971   0.193   5.854   5.341
  358SOL     OW 1972   5.783   0.432   2.012
  358SOL    HW1 1973   5.700   0.486   2.026
  358SOL    HW2 1974   5.851   0.487   1.966
  359SOL     OW 1975   1.308   1.668   2.143
  359SOL    HW1 1976   1.307   1.576   2.181
  359SOL    HW2 1977   1.215   1.704   2.139
  360SOL     OW 1978   3.987   6.876   6.946
  360SOL    HW1 1979   3.900   6.826   6.946
  360SOL    HW2 1980   4.043   6.843   0.002
  361SOL     OW 1981   4.795   6.606   2.486
  361SOL    HW1 1982   4.847   6.525   2.456
  361SOL    HW2 1983   4.843   6.649   2.562
  362SOL     OW 1984   3.195   3.309   0.974
  362SOL    HW1 1985   3.200   3.396   1.023
  362SOL    HW2 1986   3.099   3.281   0.965
  363SOL     OW 1987   4.026   5.103   3.825
  363SOL    HW1 1988   4.022   5.087   3.726
  363SOL    HW2 1989   4.112   5.066   3.861
  364SOL     OW 1990   1.386   5.184   6.090
  364SOL    HW1 1991   1.413   5.201   5.995
  364SOL    HW2 1992   1.450   5.231   6.151
  365SOL     OW 1993   4.981   6.363   2.153
  365SOL    HW1 1994   5.056   6.377   2.090
  365SOL    HW2 1995   4.944   6.271   2.142
  366SOL     OW 1996   5.717   1.127   0.060
  366SOL    HW1 1997   5.663   1.174   0.130
  366SOL    HW2 1998   5.786   1.070   0.104
  367SOL     OW 1999   5.454   3.016   1.446
  367SOL    HW1 2000   5.446   3.099   1.502
  367SOL    HW2 2001   5.446   3.041   1.350
  368SOL     OW 2002   1.359   4.723   5.362
  368SOL    HW1 2003   1.387   4.666   5.285
  368SOL    HW2 2004   1.266   4.758   5.345
  369SOL     OW 2005   0.529   4.048   1.943
  369SOL    HW1 2006   0.474   3.990   1.883
  369SOL    HW2 2007   0.617   4.067   1.900
  370SOL     OW 2008   3.526   1.544   5.576
  370SOL    HW1 2009   3.492   1.462   5.530
  370SOL    HW2 2010   3.504   1.540   5.673
  371SOL     OW 2011   3.113   3.418   0.191
  371SOL    HW1 2012   3.029   3.420   0.245
  371SOL    HW2 2013   3.130   3.325   0.160
  372SOL     OW 2014   6.926   6.702   6.098
  372SOL    HW1 2015   6.900   6.608   6.076
  372SOL    HW2 2016   6.845   6.754   6.125
  373SOL     OW 2017   0.154   6.282   0.601
  373SOL    HW1 2018   0.250   6.267   0.622
  373SOL    HW2 2019   0.111   6.194   0.579
  374SOL     OW 2020   3.754   0.653   1.585
  374SOL    HW1 2021   3.659   0.686   1.585
  374SOL    HW2 2022   3.757   0.559   1.552
  375SOL     OW 2023   6.538   5.037   3.464
  375SOL    HW1 2024   6.574   5.075   3.550
  375SOL    HW2 2025   6.583   4.949   3.445
  376SOL     OW 2026   2.116   2.728   4.240
  376SOL    HW1 2027   2.178   2.670   4.292
  376SOL    HW2 2028   2.026   2.685   4.235
  377SOL     OW 2029   4.684   2.299   3.325
  377SOL    HW1 2030   4.766   2.355   3.339
  377SOL    HW2 2031   4.697   2.209   3.368
  378SOL     OW 2032   4.821   3.176   5.198
  378SOL    HW1 2033   4.822   3.082   5.164
  378SOL    HW2 2034   4.895   3.227   5.154
  379SOL     OW 2035   5.621   3.799   0.898
  379SOL    HW1 2036   5.571   3.847   0.826
  379SOL    HW2 2037   5.621   3.701   0.880
  380SOL     OW 2038   1.673   1.995   1.215
  380SOL    HW1 2039   1.646   2.077   1.164
  380SOL    HW2 2040   1.710   2.022   1.304
  381SOL     OW 2041   3.355   3.877   0.982
  381SOL    HW1 2042   3.391   3.794   1.026
  381SOL    HW2 2043   3.301   3.851   0.902
  382SOL     OW 2044   2.990   6.043   0.393
  382SOL    HW1 2045   2.924   5.968   0.387
  382SOL    HW2 2046   2.966   6.114   0.326
  383SOL     OW 2047   6.470   2.587   0.283
  383SOL    HW1 2048   6.391   2.526   0.288
  383SOL    HW2 2049   6.457   2.663   0.347
  384SOL     OW 2050   1.119   5.313   4.789
  384SOL    HW1 2051   1.190   5.289   4.723
  384SOL    HW2 2052   1.087   5.231   4.835
  385SOL     OW 2053   4.620   6.325   0.351
  385SOL    HW1 2054   4.631   6.416   0.311
  385SOL    HW2 2055   4.531   6.319   0.397
  386SOL     OW 2056   3.430   6.322   5.843
  386SOL    HW1 2057   3.425   6.403   5.901
  386SOL    HW2 2058   3.487   6.341   5.763
  387SOL     OW 2059   0.283   0.795   5.193
  387SOL    HW1 2060   0.339   0.859   5.245
  387SOL    HW2 2061   0.343   0.735   5.140
  388SOL     OW 2062   6.400   2.583   5.024
  388SOL    HW1 2063   6.447   2.671   5.020
  388SOL    HW2 2064   6.467   2.510   5.029
  389SOL     OW 2065   4.215   5.047   1.461
  389SOL    HW1 2066   4.138   5.079   1.516
  389SOL    HW2 2067   4.205   5.081   1.368
  390SOL     OW 2068   3.222   1.895   0.555
  390SOL    HW1 2069   3.197   1.820   0.493
  390SOL    HW2 2070   3.311   1.932   0.528
  391SOL     OW 2071   3.441   4.311   6.056
  391SOL    HW1 2072   3.375   4.340   5.987
  391SOL    HW2 2073   3.496   4.236   6.019
  392SOL     OW 2074   1.210   3.681   2.030
  392SOL    HW1 2075   1.127   3.678   1.974
  392SOL    HW2 2076   1.219   3.596   2.082
  393SOL     OW 2077   1.164   4.673   1.359
  393SOL    HW1 2078   1.124   4.582   1.363
  393SOL    HW2 2079   1.140   4.717   1.273
  394SOL     OW 2080   6.365   0.800   6.239
  394SOL    HW1 2081   6.379   0.895   6.213
  394SOL    HW2 2082   6.429   0.775   6.312
  395SOL     OW 2083   5.713   4.766   1.146
  395SOL    HW1 2084   5.719   4.701   1.222
  395SOL    HW2 2085   5.800   4.815   1.138
  396SOL     OW 2086   2.778   1.352   2.381
  396SOL    HW1 2087   2.867   1.372   2.340
  396SOL    HW2 2088   2.757   1.422   2.450
  397SOL     OW 2089   4.283   1.735   5.406
  397SOL    HW1 2090   4.330   1.654   5.442
  397SOL    HW2 2091   4.240   1.713   5.319
  398SOL     OW 2092   2.328   1.486   4.237
  398SOL    HW1 2093   2.236   1.448   4.227
  398SOL    HW2 2094   2.346   1.506   4.333
  399SOL     OW 2095   5.608   6.203   3.813
  399SOL    HW1 2096   5.618   6.285   3.870
  399SOL    HW2 2097   5.511   6.182   3.801
  400SOL     OW 2098   6.803   0.497   4.818
  400SOL    HW1 2099   6.718   0.468   4.773
  400SOL    HW2 2100   6.782   0.533   4.909
  401SOL     OW 2101   6.921   5.668   5.897
  401SOL    HW1 2102   6.845   5.727   5.926
  401SOL    HW2 2103   6.999   5.682   5.958
  402SOL     OW 2104   6.474   0.200   2.372
  402SOL    HW1 2105   6.566   0.161   2.365
  402SOL    HW2 2106   6.453   0.250   2.289
  403SOL     OW 2107   2.162   1.100   5.412
  403SOL    HW1 2108   2.235   1.164   5.434
  403SOL    HW2 2109   2.184   1.011   5.453
  404SOL     OW 2110   3.664   4.938   3.753
  404SOL    HW1 2111   3.716   4.952   3.669
  404SOL    HW2 2112   3.725   4.907   3.826
  405SOL     OW 2113   2.803   4.801   3.806
  405SOL    HW1 2114   2.882   4.852   3.774
  405SOL    HW2 2115   2.767   4.744   3.732
  406SOL     OW 2116   0.662   5.562   5.936
  406SOL    HW1 2117   0.691   5.620   6.012
  406SOL    HW2 2118   0.671   5.613   5.851
  407SOL     OW 2119   2.191   3.073   4.574
  407SOL    HW1 2120   2.162   3.164   4.543
  407SOL    HW2 2121   2.221   3.078   4.669
  408SOL     OW 2122   2.812   1.589   3.714
  408SOL    HW1 2123   2.820   1.626   3.622
  408SOL    HW2 2124   2.894   1.614   3.767
  409SOL     OW 2125   1.060   3.540   2.662
  409SOL    HW1 2126   0.976   3.536   2.608
  409SOL    HW2 2127   1.130   3.483   2.618
  410SOL     OW 2128   2.156   1.911   1.592
  410SOL    HW1 2129   2.184   1.977   1.523
  410SOL    HW2 2130   2.197   1.937   1.680
  411SOL     OW 2131   0.992   2.706   1.290
  411SOL    HW1 2132   0.992   2.642   1.213
  411SOL    HW2 2133   1.072   2.765   1.284
  412SOL     OW 2134   1.874   4.835   1.310
  412SOL    HW1 2135   1.810   4.786   1.369
  412SOL    HW2 2136   1.825   4.878   1.235
  413SOL     OW 2137   5.372   5.294   2.842
  413SOL    HW1 2138   5.437   5.341   2.782
  413SOL    HW2 2139   5.421   5.236   2.907
  414SOL     OW 2140   2.237   6.273   3.241
  414SOL    HW1 2141   2.235   6.342   3.314
  414SOL    HW2 2142   2.301   6.200   3.267
  415SOL     OW 2143   6.668   1.063   0.777
  415SOL    HW1 2144   6.741   1.077   0.844
  415SOL    HW2 2145   6.686   0.979   0.725
  416SOL     OW 2146   4.989   3.247   4.759
  416SOL    HW1 2147   5.056   3.284   4.824
  416SOL    HW2 2148   4.932   3.179   4.805
  417SOL     OW 2149   3.178   2.037   6.042
  417SOL    HW1 2150   3.121   2.038   6.125
  417SOL    HW2 2151   3.228   2.123   6.035
  418SOL     OW 2152   3.953   5.788   4.739
  418SOL    HW1 2153   3.949   5.735   4.654
  418SOL    HW2 2154   3.878   5.761   4.798
  419SOL     OW 2155   0.950   6.703   1.221
  419SOL    HW1 2156   0.956   6.638   1.296
  419SOL    HW2 2157   0.884   6.671   1.153
  420SOL     OW 2158   4.991   1.708   6.017
  420SOL    HW1 2159   5.015   1.698   6.114
  420SOL    HW2 2160   4.930   1.633   5.990
  421SOL     OW 2161   5.486   3.224   2.476
  421SOL    HW1 2162   5.407   3.282   2.493
  421SOL    HW2 2163   5.516   3.181   2.561
  422SOL     OW 2164   4.886   3.249   1.877
  422SOL    HW1 2165   4.950   3.229   1.952
  422SOL    HW2 2166   4.801   3.197   1.891
  423SOL     OW 2167   3.662   1.231   6.421
  423SOL    HW1 2168   3.747   1.235   6.475
  423SOL    HW2 2169   3.609   1.151   6.449
  424SOL     OW 2170   1.004   3.731   3.263
  424SOL    HW1 2171   0.925   3.677   3.292
  424SOL    HW2 2172   1.008   3.815   3.318
  425SOL     OW 2173   2.675   1.078   5.376
  425SOL    HW1 2174   2.745   1.057   5.307
  425SOL    HW2 2175   2.606   1.138   5.336
  426SOL     OW 2176   2.833   2.161   4.423
  426SOL    HW1 2177   2.929   2.180   4.406
  426SOL    HW2 2178   2.816   2.155   4.522
  427SOL     OW 2179   3.584   2.090   3.216
  427SOL    HW1 2180   3.527   2.064   3.293
  427SOL    HW2 2181   3.530   2.089   3.132
  428SOL     OW 2182   2.432   1.672   5.613
  428SOL    HW1 2183   2.409   1.601   5.546
  428SOL    HW2 2184   2.403   1.761   5.578
  429SOL     OW 2185   1.167   6.099   3.757
  429SOL    HW1 2186   1.203   6.006   3.761
  429SOL    HW2 2187   1.209   6.148   3.681
  430SOL     OW 2188   1.552   0.048   3.586
  430SOL    HW1 2189   1.585   0.128   3.536
  430SOL    HW2 2190   1.464   0.071   3.629
  431SOL     OW 2191   2.437   1.835   1.444
  431SOL    HW1 2192   2.375   1.913   1.454
  431SOL    HW2 2193   2.522   1.866   1.402
  432SOL     OW 2194   4.133   2.254   2.252
  432SOL    HW1 2195   4.212   2.269   2.192
  432SOL    HW2 2196   4.057   2.219   2.199
  433SOL     OW 2197   2.362   5.727   0.276
  433SOL    HW1 2198   2.417   5.682   0.346
  433SOL    HW2 2199   2.290   5.782   0.319
  434SOL     OW 2200   3.767   6.214   3.760
  434SOL    HW1 2201   3.688   6.253   3.807
  434SOL    HW2 2202   3.844   6.277   3.767
  435SOL     OW 2203   3.554   1.466   6.340
  435SOL    HW1 2204   3.594   1.382   6.378
  435SOL    HW2 2205   3.606   1.545   6.372
  436SOL     OW 2206   4.977   6.982   2.914
  436SOL    HW1 2207   4.944   6.899   2.960
  436SOL    HW2 2208   4.917   7.003   2.837
  437SOL     OW 2209   6.685   0.534   5.048
  437SOL    HW1 2210   6.682   0.436   5.029
  437SOL    HW2 2211   6.729   0.550   5.136
  438SOL     OW 2212   0.278   4.514   2.927
  438SOL    HW1 2213   0.189   4.499   2.969
  438SOL    HW2 2214   0.267   4.522   2.828
  439SOL     OW 2215   6.351   6.976   4.037
  439SOL    HW1 2216   6.409   6.947   4.114
  439SOL    HW2 2217   6.288   6.902   4.014
  440SOL     OW 2218   3.680   1.128   0.896
  440SOL    HW1 2219   3.634   1.043   0.873
  440SOL    HW2 2220   3.642   1.203   0.841
  441SOL     OW 2221   0.071   4.140   2.403
  441SOL    HW1 2222   0.165   4.145   2.369
  441SOL    HW2 2223   0.043   4.044   2.409
  442SOL     OW 2224   5.482   3.610   6.116
  442SOL    HW1 2225   5.535   3.687   6.152
  442SOL    HW2 2226   5.470   3.621   6.017
  443SOL     OW 2227   5.002   3.227   2.317
  443SOL    HW1 2228   4.962   3.136   2.301
  443SOL    HW2 2229   4.955   3.271   2.393
  444SOL     OW 2230   4.233   0.838   1.607
  444SOL    HW1 2231   4.147   0.792   1.630
  444SOL    HW2 2232   4.216   0.904   1.533
  445SOL     OW 2233   1.398   5.695   1.989
  445SOL    HW1 2234   1.470   5.668   2.053
  445SOL    HW2 2235   1.309   5.667   2.024
  446SOL     OW 2236   5.589   0.130   1.585
  446SOL    HW1 2237   5.524   0.202   1.612
  446SOL    HW2 2238   5.562   0.094   1.495
  447SOL     OW 2239   6.217   4.687   1.006
  447SOL    HW1 2240   6.193   4.674   0.909
  447SOL    HW2 2241   6.309   4.650   1.022
  448SOL     OW 2242   2.759   7.020   3.139
  448SOL    HW1 2243   2.801   6.930   3.142
  448SOL    HW2 2244   2.807   0.060   3.203
  449SOL     OW 2245   1.404   3.985   5.228
  449SOL    HW1 2246   1.471   4.010   5.298
  449SOL    HW2 2247   1.419   4.041   5.146
  450SOL     OW 2248   0.620   5.123   3.818
  450SOL    HW1 2249   0.603   5.071   3.734
  450SOL    HW2 2250   0.572   5.211   3.813
  451SOL     OW 2251   0.906   2.156   2.355
  451SOL    HW1 2252   0.867   2.247   2.344
  451SOL    HW2 2253   0.986   2.146   2.296
  452SOL     OW 2254   4.928   5.393   1.971
  452SOL    HW1 2255   4.987   5.405   1.891
  452SOL    HW2 2256   4.848   5.339   1.946
  453SOL     OW 2257   3.457   0.500   6.290
  453SOL    HW1 2258   3.515   0.551   6.227
  453SOL    HW2 2259   3.382   0.458   6.239
  454SOL     OW 2260   6.630   3.257   6.427
  454SOL    HW1 2261   6.572   3.298   6.356
  454SOL    HW2 2262   6.718   3.303   6.429
  455SOL     OW 2263   5.898   4.469   6.385
  455SOL    HW1 2264   5.905   4.381   6.433
  455SOL    HW2 2265   5.857   4.537   6.446
  456SOL     OW 2266   3.017   1.148   2.279
  456SOL    HW1 2267   2.949   1.075   2.275
  456SOL    HW2 2268   3.047   1.171   2.186
  457SOL     OW 2269   2.618   0.449   6.936
  457SOL    HW1 2270   2.615   0.501   6.851
  457SOL    HW2 2271   2.660   0.360   6.919
  458SOL     OW 2272   3.068   1.550   3.291
  458SOL    HW1 2273   3.020   1.462   3.292
  458SOL    HW2 2274   3.133   1.551   3.216
  459SOL     OW 2275   3.489   0.060   3.953
  459SOL    HW1 2276   3.460   0.139   3.900
  459SOL    HW2 2277   3.589   0.055   3.953
  460SOL     OW 2278   1.348   1.455   5.987
  460SOL    HW1 2279   1.316   1.506   6.067
  460SOL    HW2 2280   1.269   1.415   5.940
  461SOL     OW 2281   0.890   5.130   5.523
  461SOL    HW1 2282   0.949   5.211   5.526
  461SOL    HW2 2283   0.913   5.070   5.600
  462SOL     OW 2284   2.985   3.869   4.938
  462SOL    HW1 2285   3.015   3.919   4.857
  462SOL    HW2 2286   2.961   3.935   5.011
  463SOL     OW 2287   5.350   0.040   2.791
  463SOL    HW1 2288   5.280   0.104   2.822
  463SOL    HW2 2289   5.319   6.967   2.808
  464SOL     OW 2290   4.073   5.215   6.463
  464SOL    HW1 2291   3.996   5.154   6.484
  464SOL    HW2 2292   4.072   5.237   6.366
  465SOL     OW 2293   0.891   3.577   1.441
  465SOL    HW1 2294   0.918   3.575   1.345
  465SOL    HW2 2295   0.879   3.671   1.471
  466SOL     OW 2296   3.905   5.456   4.760
  466SOL    HW1 2297   3.950   5.453   4.850
  466SOL    HW2 2298   3.957   5.515   4.699
  467SOL     OW 2299   6.521   0.040   1.922
  467SOL    HW1 2300   6.529   0.139   1.921
  467SOL    HW2 2301   6.425   0.014   1.920
  468SOL     OW 2302   3.028   0.164   6.220
  468SOL    HW1 2303   3.001   0.093   6.155
  468SOL    HW2 2304   3.087   0.124   6.290
  469SOL     OW 2305   3.282   4.872   5.903
  469SOL    HW1 2306   3.313   4.792   5.955
  469SOL    HW2 2307   3.237   4.936   5.965
  470SOL     OW 2308   2.153   4.973   2.953
  470SOL    HW1 2309   2.106   4.885   2.960
  470SOL    HW2 2310   2.251   4.957   2.936
  471SOL     OW 2311   1.725   2.259   4.232
  471SOL    HW1 2312   1.722   2.292   4.138
  471SOL    HW2 2313   1.795   2.309   4.283
  472SOL     OW 2314   5.969   3.542   6.175
  472SOL    HW1 2315   5.915   3.616   6.215
  472SOL    HW2 2316   5.915   3.458   6.173
  473SOL     OW 2317   6.750   2.629   2.041
  473SOL    HW1 2318   6.805   2.700   2.084
  473SOL    HW2 2319   6.780   2.617   1.946
  474SOL     OW 2320   5.041   6.177   3.777
  474SOL    HW1 2321   4.965   6.241   3.787
  474SOL    HW2 2322   5.029   6.102   3.842
  475SOL     OW 2323   6.127   1.893   0.683
  475SOL    HW1 2324   6.045   1.836   0.684
  475SOL    HW2 2325   6.123   1.956   0.606
  476SOL     OW 2326   1.039   4.670   1.617
  476SOL    HW1 2327   0.963   4.733   1.598
  476SOL    HW2 2328   1.112   4.684   1.550
  477SOL     OW 2329   1.553   4.491   3.976
  477SOL    HW1 2330   1.648   4.501   4.006
  477SOL    HW2 2331   1.517   4.579   3.946
  478SOL     OW 2332   5.049   5.614   2.099
  478SOL    HW1 2333   5.001   5.536   2.058
  478SOL    HW2 2334   5.072   5.592   2.194
  479SOL     OW 2335   3.358   4.157   3.921
  479SOL    HW1 2336   3.275   4.180   3.971
  479SOL    HW2 2337   3.348   4.066   3.879
  480SOL     OW 2338   1.693   0.801   3.020
  480SOL    HW1 2339   1.607   0.843   3.049
  480SOL    HW2 2340   1.743   0.864   2.961
  481SOL     OW 2341   0.163   6.864   0.608
  481SOL    HW1 2342   0.162   6.939   0.542
  481SOL    HW2 2343   0.232   6.882   0.678
  482SOL     OW 2344   3.902   5.041   1.365
  482SOL    HW1 2345   3.896   4.988   1.280
  482SOL    HW2 2346   3.893   4.979   1.443
  483SOL     OW 2347   5.490   2.089   3.898
  483SOL    HW1 2348   5.573   2.038   3.919
  483SOL    HW2 2349   5.458   2.064   3.807
  484SOL     OW 2350   2.153   4.723   4.711
  484SOL    HW1 2351   2.191   4.633   4.732
  484SOL    HW2 2352   2.210   4.793   4.755
  485SOL     OW 2353   5.511   3.331   1.803
  485SOL    HW1 2354   5.456   3.394   1.858
  485SOL    HW2 2355   5.564   3.272   1.863
  486SOL     OW 2356   6.022   5.873   6.631
  486SOL    HW1 2357   5.970   5.880   6.545
  486SOL    HW2 2358   5.992   5.944   6.694
  487SOL     OW 2359   6.784   6.901   5.815
  487SOL    HW1 2360   6.795   6.879   5.912
  487SOL    HW2 2361   6.870   6.936   5.779
  488SOL     OW 2362   1.830   6.156   2.685
  488SOL    HW1 2363   1.860   6.097   2.760
  488SOL    HW2 2364   1.863   6.249   2.701
  489SOL     OW 2365   1.341   5.973   6.378
  489SOL    HW1 2366   1.396   5.963   6.461
  489SOL    HW2 2367   1.298   6.064   6.378
  490SOL     OW 2368   1.118   4.435   4.402
  490SOL    HW1 2369   1.156   4.448   4.311
  490SOL    HW2 2370   1.192   4.438   4.470
  491SOL     OW 2371   0.388   2.864   1.082
  491SOL    HW1 2372   0.292   2.839   1.067
  491SOL    HW2 2373   0.447   2.802   1.030
  492SOL     OW 2374   1.028   2.476   5.821
  492SOL    HW1 2375   0.997   2.517   5.906
  492SOL    HW2 2376   1.115   2.518   5.794
  493SOL     OW 2377   2.279   5.656   4.917
  493SOL    HW1 2378   2.348   5.635   4.848
  493SOL    HW2 2379   2.312   5.624   5.006
  494SOL     OW 2380   2.309   6.664   5.162
  494SOL    HW1 2381   2.224   6.635   5.118
  494SOL    HW2 2382   2.334   6.755   5.129
  495SOL     OW 2383   3.737   3.749   5.904
  495SOL    HW1 2384   3.723   3.793   5.993
  495SOL    HW2 2385   3.729   3.818   5.831
  496SOL     OW 2386   4.801   1.452   3.317
  496SOL    HW1 2387   4.777   1.542   3.354
  496SOL    HW2 2388   4.885   1.419   3.361
  497SOL     OW 2389   3.859   1.903   0.027
  497SOL    HW1 2390   3.919   1.915   6.969
  497SOL    HW2 2391   3.913   1.911   0.111
  498SOL     OW 2392   0.805   6.865   1.567
  498SOL    HW1 2393   0.803   6.922   1.484
  498SOL    HW2 2394   0.898   6.837   1.587
  499SOL     OW 2395   2.931   6.258   6.967
  499SOL    HW1 2396   2.996   6.259   0.023
  499SOL    HW2 2397   2.913   6.164   6.939
  500SOL     OW 2398   6.106   2.052   0.453
  500SOL    HW1 2399   6.032   2.033   0.389
  500SOL    HW2 2400   6.184   2.090   0.403
  501SOL     OW 2401   1.181   1.253   3.983
  501SOL    HW1 2402   1.205   1.260   4.080
  501SOL    HW2 2403   1.171   1.345   3.944
  502SOL     OW 2404   2.030   5.183   6.569
  502SOL    HW1 2405   1.936   5.170   6.539
  502SOL    HW2 2406   2.033   5.191   6.669
  503SOL     OW 2407   3.980   4.886   0.190
  503SOL    HW1 2408   3.888   4.852   0.209
  503SOL    HW2 2409   3.980   4.934   0.102
  504SOL     OW 2410   5.983   6.349   1.616
  504SOL    HW1 2411   6.015   6.431   1.663
  504SOL    HW2 2412   6.001   6.269   1.675
  505SOL     OW 2413   4.491   6.156   4.701
  505SOL    HW1 2414   4.551   6.208   4.761
  505SOL    HW2 2415   4.396   6.177   4.721
  506SOL     OW 2416   4.399   4.978   2.089
  506SOL    HW1 2417   4.374   4.887   2.122
  506SOL    HW2 2418   4.321   5.039   2.097
  507SOL     OW 2419   2.771   0.789   0.756
  507SOL    HW1 2420   2.705   0.746   0.696
  507SOL    HW2 2421   2.859   0.797   0.710
  508SOL     OW 2422   0.037   4.481   3.458
  508SOL    HW1 2423   0.046   4.527   3.370
  508SOL    HW2 2424   0.114   4.504   3.517
  509SOL     OW 2425   4.566   6.904   6.572
  509SOL    HW1 2426   4.661   6.883   6.595
  509SOL    HW2 2427   4.561   6.942   6.480
  510SOL     OW 2428   6.582   3.875   0.403
  510SOL    HW1 2429   6.501   3.818   0.391
  510SOL    HW2 2430   6.582   3.914   0.495
  511SOL     OW 2431   0.760   2.186   0.788
  511SOL    HW1 2432   0.760   2.103   0.731
  511SOL    HW2 2433   0.667   2.203   0.821
  512SOL     OW 2434   0.059   2.360   5.125
  512SOL    HW1 2435   0.018   2.273   5.150
  512SOL    HW2 2436   7.013   2.434   5.141
  513SOL     OW 2437   5.776   0.992   3.281
  513SOL    HW1 2438   5.694   0.937   3.295
  513SOL    HW2 2439   5.847   0.936   3.238
  514SOL     OW 2440   6.228   0.035   4.673
  514SOL    HW1 2441   6.216   6.958   4.658
  514SOL    HW2 2442   6.321   0.054   4.704
  515SOL     OW 2443   3.995   0.420   5.435
  515SOL    HW1 2444   4.040   0.486   5.375
  515SOL    HW2 2445   4.038   0.331   5.426
  516SOL     OW 2446   2.396   5.900   1.636
  516SOL    HW1 2447   2.321   5.946   1.684
  516SOL    HW2 2448   2.452   5.968   1.589
  517SOL     OW 2449   3.638   5.573   0.907
  517SOL    HW1 2450   3.663   5.669   0.895
  517SOL    HW2 2451   3.540   5.565   0.924
  518SOL     OW 2452   2.148   3.552   3.929
  518SOL    HW1 2453   2.133   3.594   3.839
  518SOL    HW2 2454   2.225   3.488   3.923
  519SOL     OW 2455   0.364   0.383   2.657
  519SOL    HW1 2456   0.316   0.421   2.578
  519SOL    HW2 2457   0.424   0.453   2.695
  520SOL     OW 2458   1.166   3.559   0.693
  520SOL    HW1 2459   1.231   3.613   0.640
  520SOL    HW2 2460   1.170   3.463   0.663
  521SOL     OW 2461   6.387   6.424   4.980
  521SOL    HW1 2462   6.413   6.385   5.068
  521SOL    HW2 2463   6.340   6.354   4.926
  522SOL     OW 2464   3.614   4.069   1.608
  522SOL    HW1 2465   3.610   4.093   1.705
  522SOL    HW2 2466   3.704   4.030   1.587
  523SOL     OW 2467   0.883   0.146   1.105
  523SOL    HW1 2468   0.909   0.063   1.153
  523SOL    HW2 2469   0.894   0.132   1.006
  524SOL     OW 2470   0.033   2.264   1.916
  524SOL    HW1 2471   0.058   2.219   1.830
  524SOL    HW2 2472   0.055   2.361   1.911
  525SOL     OW 2473   1.229   3.458   5.519
  525SOL    HW1 2474   1.318   3.493   5.548
  525SOL    HW2 2475   1.242   3.369   5.475
  526SOL     OW 2476   3.230   7.005   4.025
  526SOL    HW1 2477   3.322   7.012   3.986
  526SOL    HW2 2478   3.230   6.941   4.102
  527SOL     OW 2479   0.109   0.988   0.722
  527SOL    HW1 2480   0.123   0.921   0.795
  527SOL    HW2 2481   0.188   1.048   0.716
  528SOL     OW 2482   6.835   3.291   4.001
  528SOL    HW1 2483   6.810   3.350   3.924
  528SOL    HW2 2484   6.759   3.285   4.065
  529SOL     OW 2485   1.694   1.038   0.289
  529SOL    HW1 2486   1.734   1.125   0.259
  529SOL    HW2 2487   1.725   1.018   0.382
  530SOL     OW 2488   4.124   3.994   0.968
  530SOL    HW1 2489   4.126   4.060   0.893
  530SOL    HW2 2490   4.153   3.904   0.935
  531SOL     OW 2491   1.350   0.786   1.123
  531SOL    HW1 2492   1.270   0.728   1.103
  531SOL    HW2 2493   1.378   0.773   1.218
  532SOL     OW 2494   1.805   2.285   0.158
  532SOL    HW1 2495   1.780   2.382   0.163
  532SOL    HW2 2496   1.900   2.277   0.130
  533SOL     OW 2497   3.647   0.414   4.573
  533SOL    HW1 2498   3.627   0.474   4.651
  533SOL    HW2 2499   3.735   0.368   4.589
  534SOL     OW 2500   1.500   4.845   1.188
  534SOL    HW1 2501   1.479   4.768   1.248
  534SOL    HW2 2502   1.464   4.929   1.227
  535SOL     OW 2503   5.435   3.539   3.816
  535SOL    HW1 2504   5.354   3.596   3.804
  535SOL    HW2 2505   5.407   3.445   3.837
  536SOL     OW 2506   6.952   6.886   2.354
  536SOL    HW1 2507   6.919   6.792   2.358
  536SOL    HW2 2508   0.028   6.889   2.381
  537SOL     OW 2509   4.066   1.660   4.521
  537SOL    HW1 2510   4.059   1.572   4.567
  537SOL    HW2 2511   4.137   1.657   4.451
  538SOL     OW 2512   3.076   4.764   5.523
  538SOL    HW1 2513   3.024   4.799   5.446
  538SOL    HW2 2514   3.037   4.799   5.608
  539SOL     OW 2515   1.181   0.159   0.112
  539SOL    HW1 2516   1.185   0.216   0.195
  539SOL    HW2 2517   1.108   0.091   0.122
  540SOL     OW 2518   1.020   0.359   4.095
  540SOL    HW1 2519   1.027   0.372   3.996
  540SOL    HW2 2520   0.939   0.408   4.129
  541SOL     OW 2521   4.295   5.486   4.580
  541SOL    HW1 2522   4.341   5.437   4.654
  541SOL    HW2 2523   4.288   5.428   4.500
  542SOL     OW 2524   3.495   0.566   5.754
  542SOL    HW1 2525   3.534   0.653   5.724
  542SOL    HW2 2526   3.484   0.505   5.675
  543SOL     OW 2527   6.332   2.392   4.629
  543SOL    HW1 2528   6.424   2.433   4.630
  543SOL    HW2 2529   6.339   2.296   4.601
  544SOL     OW 2530   1.514   4.135   1.140
  544SOL    HW1 2531   1.561   4.129   1.228
  544SOL    HW2 2532   1.568   4.087   1.070
  545SOL     OW 2533   5.753   1.236   1.180
  545SOL    HW1 2534   5.843   1.279   1.195
  545SOL    HW2 2535   5.739   1.164   1.248
  546SOL     OW 2536   0.116   4.248   2.718
  546SOL    HW1 2537   0.166   4.161   2.712
  546SOL    HW2 2538   0.034   4.243   2.661
  547SOL     OW 2539   4.338   0.825   6.188
  547SOL    HW1 2540   4.417   0.879   6.218
  547SOL    HW2 2541   4.280   0.805   6.267
  548SOL     OW 2542   3.513   2.252   7.008
  548SOL    HW1 2543   3.446   2.181   6.985
  548SOL    HW2 2544   3.602   2.227   6.970
  549SOL     OW 2545   6.210   1.560   1.463
  549SOL    HW1 2546   6.276   1.583   1.391
  549SOL    HW2 2547   6.118   1.553   1.423
  550SOL     OW 2548   7.007   5.404   3.383
  550SOL    HW1 2549   6.933   5.337   3.391
  550SOL    HW2 2550   0.006   5.419   3.287
  551SOL     OW 2551   6.467   0.558   0.560
  551SOL    HW1 2552   6.506   0.469   0.583
  551SOL    HW2 2553   6.463   0.616   0.641
  552SOL     OW 2554   6.422   5.157   5.530
  552SOL    HW1 2555   6.341   5.100   5.516
  552SOL    HW2 2556   6.398   5.237   5.585
  553SOL     OW 2557   2.959   0.879   6.223
  553SOL    HW1 2558   2.925   0.973   6.219
  553SOL    HW2 2559   2.884   0.815   6.207
  554SOL     OW 2560   5.786   6.322   1.166
  554SOL    HW1 2561   5.792   6.355   1.071
  554SOL    HW2 2562   5.875   6.333   1.211
  555SOL     OW 2563   1.338   3.923   5.823
  555SOL    HW1 2564   1.352   3.833   5.864
  555SOL    HW2 2565   1.284   3.914   5.739
  556SOL     OW 2566   5.397   0.333   4.328
  556SOL    HW1 2567   5.336   0.279   4.385
  556SOL    HW2 2568   5.373   0.430   4.335
  557SOL     OW 2569   6.242   4.410   6.689
  557SOL    HW1 2570   6.164   4.471   6.684
  557SOL    HW2 2571   6.292   4.426   6.774
  558SOL     OW 2572   3.070   4.031   2.295
  558SOL    HW1 2573   3.032   4.022   2.203
  558SOL    HW2 2574   3.011   4.091   2.350
  559SOL     OW 2575   6.119   6.881   5.718
  559SOL    HW1 2576   6.156   6.925   5.800
  559SOL    HW2 2577   6.094   6.786   5.739
  560SOL     OW 2578   6.262   3.240   3.138
  560SOL    HW1 2579   6.273   3.257   3.236
  560SOL    HW2 2580   6.319   3.163   3.111
  561SOL     OW 2581   0.703   3.166   6.926
  561SOL    HW1 2582   0.655   3.254   6.928
  561SOL    HW2 2583   0.796   3.180   6.891
  562SOL     OW 2584   4.124   0.168   5.401
  562SOL    HW1 2585   4.084   0.138   5.314
  562SOL    HW2 2586   4.222   0.182   5.389
  563SOL     OW 2587   2.268   1.744   4.129
  563SOL    HW1 2588   2.184   1.751   4.074
  563SOL    HW2 2589   2.291   1.647   4.141
  564SOL     OW 2590   6.837   1.946   5.524
  564SOL    HW1 2591   6.837   2.045   5.504
  564SOL    HW2 2592   6.923   1.922   5.568
  565SOL     OW 2593   4.156   3.308   3.104
  565SOL    HW1 2594   4.248   3.275   3.085
  565SOL    HW2 2595   4.150   3.335   3.200
  566SOL     OW 2596   3.451   6.798   3.001
  566SOL    HW1 2597   3.534   6.744   2.984
  566SOL    HW2 2598   3.465   6.856   3.081
  567SOL     OW 2599   1.823   3.318   6.768
  567SOL    HW1 2600   1.808   3.231   6.723
  567SOL    HW2 2601   1.772   3.390   6.721
  568SOL     OW 2602   6.765   6.409   0.603
  568SOL    HW1 2603   6.745   6.336   0.538
  568SOL    HW2 2604   6.843   6.463   0.571
  569SOL     OW 2605   6.583   2.152   0.587
  569SOL    HW1 2606   6.558   2.243   0.553
  569SOL    HW2 2607   6.533   2.134   0.672
  570SOL     OW 2608   2.425   1.027   5.695
  570SOL    HW1 2609   2.417   1.115   5.648
  570SOL    HW2 2610   2.340   0.975   5.682
  571SOL     OW 2611   2.045   5.143   2.456
  571SOL    HW1 2612   2.061   5.175   2.550
  571SOL    HW2 2613   2.132   5.141   2.407
  572SOL     OW 2614   2.771   0.054   3.933
  572SOL    HW1 2615   2.719   0.095   3.859
  572SOL    HW2 2616   2.756   0.106   4.017
  573SOL     OW 2617   0.132   1.189   5.540
  573SOL    HW1 2618   0.144   1.113   5.604
  573SOL    HW2 2619   0.046   1.236   5.560
  574SOL     OW 2620   2.391   1.924   5.519
  574SOL    HW1 2621   2.393   2.019   5.552
  574SOL    HW2 2622   2.318   1.914   5.452
  575SOL     OW 2623   3.201   3.192   0.458
  575SOL    HW1 2624   3.200   3.290   0.440
  575SOL    HW2 2625   3.259   3.173   0.538
  576SOL     OW 2626   2.113   3.144   2.974
  576SOL    HW1 2627   2.104   3.211   2.901
  576SOL    HW2 2628   2.043   3.074   2.964
  577SOL     OW 2629   0.964   1.491   2.127
  577SOL    HW1 2630   1.002   1.580   2.100
  577SOL    HW2 2631   0.872   1.482   2.089
  578SOL     OW 2632   2.060   6.464   6.669
  578SOL    HW1 2633   2.071   6.498   6.575
  578SOL    HW2 2634   1.964   6.466   6.694
  579SOL     OW 2635   2.348   4.724   1.622
  579SOL    HW1 2636   2.427   4.764   1.670
  579SOL    HW2 2637   2.380   4.677   1.540
  580SOL     OW 2638   4.120   5.068   4.454
  580SOL    HW1 2639   4.128   4.968   4.458
  580SOL    HW2 2640   4.160   5.108   4.536
  581SOL     OW 2641   1.733   2.871   4.358
  581SOL    HW1 2642   1.739   2.831   4.266
  581SOL    HW2 2643   1.824   2.900   4.388
  582SOL     OW 2644   5.792   5.721   3.665
  582SOL    HW1 2645   5.858   5.649   3.685
  582SOL    HW2 2646   5.784   5.783   3.743
  583SOL     OW 2647   3.872   5.390   5.842
  583SOL    HW1 2648   3.777   5.378   5.870
  583SOL    HW2 2649   3.914   5.463   5.896
  584SOL     OW 2650   4.282   0.817   5.705
  584SOL    HW1 2651   4.301   0.859   5.793
  584SOL    HW2 2652   4.301   0.719   5.710
  585SOL     OW 2653   3.070   7.019   1.831
  585SOL    HW1 2654   3.049   0.043   1.744
  585SOL    HW2 2655   3.142   6.951   1.817
  586SOL     OW 2656   4.728   0.392   0.951
  586SOL    HW1 2657   4.674   0.458   0.900
  586SOL    HW2 2658   4.687   0.377   1.041
  587SOL     OW 2659   5.030   1.838   2.120
  587SOL    HW1 2660   4.931   1.837   2.115
  587SOL    HW2 2661   5.063   1.756   2.167
  588SOL     OW 2662   1.179   5.355   2.447
  588SOL    HW1 2663   1.092   5.338   2.492
  588SOL    HW2 2664   1.190   5.292   2.370
  589SOL     OW 2665   3.343   6.080   1.134
  589SOL    HW1 2666   3.436   6.077   1.171
  589SOL    HW2 2667   3.333   6.162   1.076
  590SOL     OW 2668   4.687   1.713   0.521
  590SOL    HW1 2669   4.696   1.670   0.610
  590SOL    HW2 2670   4.612   1.779   0.523
  591SOL     OW 2671   3.650   6.088   4.684
  591SOL    HW1 2672   3.584   6.114   4.755
  591SOL    HW2 2673   3.610   6.019   4.625
  592SOL     OW 2674   4.518   2.471   3.879
  592SOL    HW1 2675   4.460   2.448   3.957
  592SOL    HW2 2676   4.470   2.446   3.794
  593SOL     OW 2677   3.105   1.411   6.065
  593SOL    HW1 2678   3.082   1.505   6.040
  593SOL    HW2 2679   3.205   1.402   6.073
  594SOL     OW 2680   5.655   1.545   1.903
  594SOL    HW1 2681   5.599   1.506   1.830
  594SOL    HW2 2682   5.700   1.471   1.953
  595SOL     OW 2683   5.378   5.987   2.287
  595SOL    HW1 2684   5.321   6.010   2.208
  595SOL    HW2 2685   5.382   6.065   2.349
  596SOL     OW 2686   6.356   4.778   4.053
  596SOL    HW1 2687   6.455   4.772   4.068
  596SOL    HW2 2688   6.320   4.687   4.032
  597SOL     OW 2689   3.001   0.388   6.046
  597SOL    HW1 2690   3.024   0.311   6.106
  597SOL    HW2 2691   3.086   0.433   6.016
  598SOL     OW 2692   2.977   3.291   4.303
  598SOL    HW1 2693   3.005   3.218   4.365
  598SOL    HW2 2694   2.891   3.331   4.336
  599SOL     OW 2695   1.400   5.942   1.863
  599SOL    HW1 2696   1.406   5.855   1.911
  599SOL    HW2 2697   1.304   5.972   1.861
  600SOL     OW 2698   6.904   3.861   4.636
  600SOL    HW1 2699   6.991   3.905   4.661
  600SOL    HW2 2700   6.904   3.840   4.539
  601SOL     OW 2701   1.622   6.929   5.049
  601SOL    HW1 2702   1.550   6.998   5.061
  601SOL    HW2 2703   1.601   6.849   5.105
  602SOL     OW 2704   2.793   6.281   3.943
  602SOL    HW1 2705   2.776   6.380   3.947
  602SOL    HW2 2706   2.710   6.235   3.912
  603SOL     OW 2707   1.552   1.318   5.433
  603SOL    HW1 2708   1.466   1.274   5.458
  603SOL    HW2 2709   1.615   1.250   5.395
  604SOL     OW 2710   6.342   2.650   1.747
  604SOL    HW1 2711   6.357   2.739   1.789
  604SOL    HW2 2712   6.338   2.580   1.819
  605SOL     OW 2713   0.317   5.670   2.382
  605SOL    HW1 2714   0.242   5.665   2.448
  605SOL    HW2 2715   0.382   5.740   2.411
  606SOL     OW 2716   3.507   6.623   4.858
  606SOL    HW1 2717   3.557   6.708   4.843
  606SOL    HW2 2718   3.557   6.547   4.817
  607SOL     OW 2719   0.724   4.580   6.398
  607SOL    HW1 2720   0.700   4.631   6.315
  607SOL    HW2 2721   0.823   4.568   6.403
  608SOL     OW 2722   2.992   1.373   5.350
  608SOL    HW1 2723   3.004   1.274   5.363
  608SOL    HW2 2724   2.899   1.390   5.318
  609SOL     OW 2725   3.359   2.903   1.894
  609SOL    HW1 2726   3.395   2.888   1.986
  609SOL    HW2 2727   3.276   2.848   1.882
  610SOL     OW 2728   4.920   3.386   0.571
  610SOL    HW1 2729   4.929   3.461   0.506
  610SOL    HW2 2730   4.911   3.422   0.664
  611SOL     OW 2731   3.894   0.254   2.676
  611SOL    HW1 2732   3.803   0.283   2.646
  611SOL    HW2 2733   3.918   0.302   2.761
  612SOL     OW 2734   4.033   4.430   5.945
  612SOL    HW1 2735   4.121   4.456   5.984
  612SOL    HW2 2736   4.047   4.390   5.855
  613SOL     OW 2737   4.262   5.251   5.402
  613SOL    HW1 2738   4.200   5.190   5.353
  613SOL    HW2 2739   4.347   5.203   5.423
  614SOL     OW 2740   4.260   5.344   5.944
  614SOL    HW1 2741   4.240   5.417   6.010
  614SOL    HW2 2742   4.198   5.267   5.960
  615SOL     OW 2743   0.493   5.353   1.909
  615SOL    HW1 2744   0.547   5.389   1.832
  615SOL    HW2 2745   0.402   5.394   1.908
  616SOL     OW 2746   5.719   3.560   3.025
  616SOL    HW1 2747   5.725   3.546   3.124
  616SOL    HW2 2748   5.810   3.571   2.987
  617SOL     OW 2749   2.794   5.214   6.267
  617SOL    HW1 2750   2.891   5.238   6.261
  617SOL    HW2 2751   2.749   5.276   6.332
  618SOL     OW 2752   1.611   0.939   2.385
  618SOL    HW1 2753   1.546   1.005   2.422
  618SOL    HW2 2754   1.570   0.891   2.308
  619SOL     OW 2755   1.002   1.280   6.809
  619SOL    HW1 2756   1.004   1.184   6.782
  619SOL    HW2 2757   1.050   1.292   6.896
  620SOL     OW 2758   4.932   3.668   0.458
  620SOL    HW1 2759   4.864   3.647   0.388
  620SOL    HW2 2760   4.886   3.691   0.544
  621SOL     OW 2761   0.219   4.680   2.062
  621SOL    HW1 2762   0.261   4.771   2.060
  621SOL    HW2 2763   0.281   4.615   2.105
  622SOL     OW 2764   1.647   1.596   0.175
  622SOL    HW1 2765   1.686   1.537   0.104
  622SOL    HW2 2766   1.553   1.568   0.194
  623SOL     OW 2767   0.518   4.528   6.859
  623SOL    HW1 2768   0.518   4.524   6.759
  623SOL    HW2 2769   0.611   4.521   6.893
  624SOL     OW 2770   0.843   2.633   3.279
  624SOL    HW1 2771   0.927   2.614   3.228
  624SOL    HW2 2772   0.766   2.641   3.216
  625SOL     OW 2773   2.498   1.817   1.912
  625SOL    HW1 2774   2.581   1.764   1.894
  625SOL    HW2 2775   2.427   1.758   1.948
  626SOL     OW 2776   2.701   6.484   4.617
  626SOL    HW1 2777   2.740   6.474   4.525
  626SOL    HW2 2778   2.751   6.426   4.681
  627SOL     OW 2779   5.622   0.839   0.298
  627SOL    HW1 2780   5.551   0.908   0.316
  627SOL    HW2 2781   5.666   0.814   0.384
  628SOL     OW 2782   4.883   3.963   3.709
  628SOL    HW1 2783   4.902   3.875   3.752
  628SOL    HW2 2784   4.874   3.951   3.610
  629SOL     OW 2785   1.019   0.376   1.168
  629SOL    HW1 2786   0.934   0.428   1.180
  629SOL    HW2 2787   0.997   0.281   1.147
  630SOL     OW 2788   4.136   1.805   1.240
  630SOL    HW1 2789   4.052   1.838   1.283
  630SOL    HW2 2790   4.210   1.869   1.259
  631SOL     OW 2791   2.142   0.301   5.337
  631SOL    HW1 2792   2.238   0.325   5.319
  631SOL    HW2 2793   2.095   0.283   5.251
  632SOL     OW 2794   2.035   1.479   1.016
  632SOL    HW1 2795   2.020   1.576   1.003
  632SOL    HW2 2796   1.948   1.430   1.007
  633SOL     OW 2797   2.544   6.876   6.037
  633SOL    HW1 2798   2.598   6.946   6.084
  633SOL    HW2 2799   2.576   6.785   6.065
  634SOL     OW 2800   3.710   5.854   0.605
  634SOL    HW1 2801   3.679   5.933   0.551
  634SOL    HW2 2802   3.631   5.796   0.626
  635SOL     OW 2803   3.099   0.401   2.450
  635SOL    HW1 2804   3.020   0.428   2.395
  635SOL    HW2 2805   3.075   0.325   2.509
  636SOL     OW 2806   5.098   5.162   0.253
  636SOL    HW1 2807   4.999   5.152   0.262
  636SOL    HW2 2808   5.130   5.113   0.172
  637SOL     OW 2809   4.570   4.597   1.073
  637SOL    HW1 2810   4.567   4.630   1.167
  637SOL    HW2 2811   4.537   4.503   1.070
  638SOL     OW 2812   4.780   1.348   2.462
  638SOL    HW1 2813   4.810   1.427   2.409
  638SOL    HW2 2814   4.687   1.322   2.435
  639SOL     OW 2815   4.426   4.563   1.931
  639SOL    HW1 2816   4.485   4.494   1.974
  639SOL    HW2 2817   4.387   4.525   1.848
  640SOL     OW 2818   3.086   4.243   5.248
  640SOL    HW1 2819   3.146   4.258   5.326
  640SOL    HW2 2820   3.006   4.303   5.255
  641SOL     OW 2821   0.040   6.197   4.869
  641SOL    HW1 2822   0.018   6.128   4.937
  641SOL    HW2 2823   6.987   6.265   4.865
  642SOL     OW 2824   0.763   5.152   4.801
  642SOL    HW1 2825   0.774   5.116   4.708
  642SOL    HW2 2826   0.772   5.251   4.799
  643SOL     OW 2827   5.878   5.696   5.759
  643SOL    HW1 2828   5.902   5.770   5.822
  643SOL    HW2 2829   5.779   5.692   5.748
  644SOL     OW 2830   1.179   6.497   2.286
  644SOL    HW1 2831   1.107   6.455   2.341
  644SOL    HW2 2832   1.141   6.574   2.235
  645SOL     OW 2833   5.706   2.850   3.522
  645SOL    HW1 2834   5.802   2.855   3.551
  645SOL    HW2 2835   5.684   2.754   3.501
  646SOL     OW 2836   1.910   1.789   4.431
  646SOL    HW1 2837   1.894   1.861   4.364
  646SOL    HW2 2838   1.904   1.826   4.523
  647SOL     OW 2839   6.200   3.438   0.432
  647SOL    HW1 2840   6.128   3.477   0.489
  647SOL    HW2 2841   6.203   3.338   0.444
  648SOL     OW 2842   6.139   3.452   1.676
  648SOL    HW1 2843   6.112   3.425   1.769
  648SOL    HW2 2844   6.068   3.425   1.612
  649SOL     OW 2845   4.383   4.617   0.817
  649SOL    HW1 2846   4.373   4.535   0.874
  649SOL    HW2 2847   4.473   4.658   0.832
  650SOL     OW 2848   4.848   4.926   0.491
  650SOL    HW1 2849   4.915   4.972   0.550
  650SOL    HW2 2850   4.788   4.870   0.548
  651SOL     OW 2851   0.985   6.057   6.798
  651SOL    HW1 2852   0.981   6.065   6.898
  651SOL    HW2 2853   1.079   6.073   6.768
  652SOL     OW 2854   3.930   1.277   2.460
  652SOL    HW1 2855   3.917   1.319   2.370
  652SOL    HW2 2856   3.927   1.177   2.451
  653SOL     OW 2857   3.509   4.960   3.365
  653SOL    HW1 2858   3.422   4.938   3.320
  653SOL    HW2 2859   3.492   5.017   3.445
  654SOL     OW 2860   6.649   4.213   0.078
  654SOL    HW1 2861   6.561   4.249   0.109
  654SOL    HW2 2862   6.716   4.287   0.072
  655SOL     OW 2863   0.770   0.524   1.121
  655SOL    HW1 2864   0.763   0.619   1.153
  655SOL    HW2 2865   0.767   0.523   1.021
  656SOL     OW 2866   2.945   6.631   1.806
  656SOL    HW1 2867   2.900   6.632   1.895
  656SOL    HW2 2868   2.904   6.559   1.750
  657SOL     OW 2869   3.216   1.696   6.917
  657SOL    HW1 2870   3.148   1.767   6.905
  657SOL    HW2 2871   3.206   1.627   6.845
  658SOL     OW 2872   3.297   4.114   6.281
  658SOL    HW1 2873   3.211   4.088   6.236
  658SOL    HW2 2874   3.351   4.171   6.221
  659SOL     OW 2875   2.270   6.947   6.738
  659SOL    HW1 2876   2.314   6.986   6.657
  659SOL    HW2 2877   2.178   6.917   6.715
  660SOL     OW 2878   3.636   5.291   2.646
  660SOL    HW1 2879   3.648   5.231   2.566
  660SOL    HW2 2880   3.555   5.348   2.633
  661SOL     OW 2881   4.931   5.578   2.895
  661SOL    HW1 2882   4.993   5.507   2.860
  661SOL    HW2 2883   4.955   5.599   2.990
  662SOL     OW 2884   3.351   1.232   6.774
  662SOL    HW1 2885   3.259   1.271   6.768
  662SOL    HW2 2886   3.401   1.278   6.848
  663SOL     OW 2887   2.303   4.314   5.021
  663SOL    HW1 2888   2.346   4.368   5.093
  663SOL    HW2 2889   2.333   4.219   5.030
  664SOL     OW 2890   6.266   0.643   6.667
  664SOL    HW1 2891   6.185   0.697   6.646
  664SOL    HW2 2892   6.251   0.591   6.751
  665SOL     OW 2893   2.119   5.875   3.037
  665SOL    HW1 2894   2.176   5.907   2.961
  665SOL    HW2 2895   2.073   5.791   3.011
  666SOL     OW 2896   4.299   0.578   2.258
  666SOL    HW1 2897   4.308   0.634   2.340
  666SOL    HW2 2898   4.237   0.622   2.194
  667SOL     OW 2899   0.748   6.685   2.581
  667SOL    HW1 2900   0.766   6.732   2.667
  667SOL    HW2 2901   0.823   6.700   2.517
  668SOL     OW 2902   5.526   3.679   6.974
  668SOL    HW1 2903   5.616   3.714   6.950
  668SOL    HW2 2904   5.474   3.662   6.891
  669SOL     OW 2905   4.991   1.579   2.983
  669SOL    HW1 2906   4.993   1.495   3.036
  669SOL    HW2 2907   4.920   1.572   2.913
  670SOL     OW 2908   2.093   2.361   3.343
  670SOL    HW1 2909   2.159   2.409   3.401
  670SOL    HW2 2910   2.117   2.264   3.340
  671SOL     OW 2911   2.804   6.656   1.354
  671SOL    HW1 2912   2.887   6.614   1.316
  671SOL    HW2 2913   2.725   6.600   1.332
  672SOL     OW 2914   0.992   6.740   2.481
  672SOL    HW1 2915   1.020   6.644   2.480
  672SOL    HW2 2916   1.047   6.789   2.549
  673SOL     OW 2917   5.106   6.956   0.472
  673SOL    HW1 2918   5.084   0.030   0.493
  673SOL    HW2 2919   5.146   6.950   0.381
  674SOL     OW 2920   0.531   0.701   4.444
  674SOL    HW1 2921   0.546   0.644   4.524
  674SOL    HW2 2922   0.618   0.737   4.412
  675SOL     OW 2923   6.325   3.165   2.585
  675SOL    HW1 2924   6.265   3.236   2.549
  675SOL    HW2 2925   6.281   3.120   2.663
  676SOL     OW 2926   2.099   6.030   5.913
  676SOL    HW1 2927   2.181   6.026   5.857
  676SOL    HW2 2928   2.121   6.009   6.008
  677SOL     OW 2929   4.556   0.991   0.858
  677SOL    HW1 2930   4.583   1.086   0.870
  677SOL    HW2 2931   4.606   0.952   0.781
  678SOL     OW 2932   1.845   4.625   5.046
  678SOL    HW1 2933   1.843   4.630   4.946
  678SOL    HW2 2934   1.923   4.569   5.075
  679SOL     OW 2935   4.955   2.201   5.317
  679SOL    HW1 2936   4.956   2.102   5.332
  679SOL    HW2 2937   4.861   2.233   5.314
  680SOL     OW 2938   4.208   6.860   4.224
  680SOL    HW1 2939   4.265   6.780   4.208
  680SOL    HW2 2940   4.141   6.868   4.150
  681SOL     OW 2941   4.937   5.118   2.321
  681SOL    HW1 2942   4.928   5.215   2.299
  681SOL    HW2 2943   4.853   5.070   2.295
  682SOL     OW 2944   1.078   0.930   3.574
  682SOL    HW1 2945   1.076   1.000   3.503
  682SOL    HW2 2946   1.066   0.973   3.663
  683SOL     OW 2947   4.210   3.506   1.403
  683SOL    HW1 2948   4.182   3.495   1.498
  683SOL    HW2 2949   4.159   3.582   1.362
  684SOL     OW 2950   6.445   0.145   5.927
  684SOL    HW1 2951   6.498   0.229   5.917
  684SOL    HW2 2952   6.471   0.080   5.855
  685SOL     OW 2953   3.565   0.288   3.092
  685SOL    HW1 2954   3.512   0.323   3.170
  685SOL    HW2 2955   3.505   0.235   3.032
  686SOL     OW 2956   4.442   0.918   4.893
  686SOL    HW1 2957   4.385   0.865   4.831
  686SOL    HW2 2958   4.486   0.857   4.959
  687SOL     OW 2959   1.706   1.917   4.147
  687SOL    HW1 2960   1.629   1.950   4.201
  687SOL    HW2 2961   1.686   1.826   4.111
  688SOL     OW 2962   5.962   1.351   6.884
  688SOL    HW1 2963   5.894   1.277   6.883
  688SOL    HW2 2964   6.019   1.343   6.966
  689SOL     OW 2965   1.573   5.367   5.890
  689SOL    HW1 2966   1.550   5.271   5.875
  689SOL    HW2 2967   1.646   5.375   5.957
  690SOL     OW 2968   5.642   3.526   2.601
  690SOL    HW1 2969   5.629   3.464   2.678
  690SOL    HW2 2970   5.721   3.497   2.547
  691SOL     OW 2971   4.442   1.422   6.876
  691SOL    HW1 2972   4.433   1.358   6.952
  691SOL    HW2 2973   4.397   1.383   6.795
  692SOL     OW 2974   2.880   1.178   4.635
  692SOL    HW1 2975   2.893   1.122   4.717
  692SOL    HW2 2976   2.879   1.120   4.554
  693SOL     OW 2977   5.348   6.096   3.783
  693SOL    HW1 2978   5.355   6.011   3.837
  693SOL    HW2 2979   5.254   6.128   3.783
  694SOL     OW 2980   4.158   5.412   4.977
  694SOL    HW1 2981   4.222   5.391   5.051
  694SOL    HW2 2982   4.137   5.510   4.978
  695SOL     OW 2983   3.212   6.974   4.430
  695SOL    HW1 2984   3.230   6.987   4.527
  695SOL    HW2 2985   3.123   7.015   4.407
  696SOL     OW 2986   4.792   4.559   3.234
  696SOL    HW1 2987   4.765   4.654   3.241
  696SOL    HW2 2988   4.869   4.550   3.170
  697SOL     OW 2989   0.361   5.139   2.476
  697SOL    HW1 2990   0.379   5.235   2.450
  697SOL    HW2 2991   0.322   5.091   2.398
  698SOL     OW 2992   5.624   0.127   1.262
  698SOL    HW1 2993   5.628   0.108   1.164
  698SOL    HW2 2994   5.560   0.202   1.279
  699SOL     OW 2995   2.296   2.250   0.961
  699SOL    HW1 2996   2.352   2.192   0.901
  699SOL    HW2 2997   2.217   2.198   0.993
  700SOL     OW 2998   3.753   6.816   2.655
  700SOL    HW1 2999   3.806   6.732   2.641
  700SOL    HW2 3000   3.802   6.893   2.614
  701SOL     OW 3001   6.399   5.423   1.098
  701SOL    HW1 3002   6.445   5.473   1.172
  701SOL    HW2 3003   6.301   5.443   1.102
  702SOL     OW 3004   2.853   1.044   3.954
  702SOL    HW1 3005   2.950   1.066   3.967
  702SOL    HW2 3006   2.808   1.039   4.043
  703SOL     OW 3007   3.101   2.573   6.298
  703SOL    HW1 3008   3.094   2.672   6.303
  703SOL    HW2 3009   3.181   2.542   6.349
  704SOL     OW 3010   1.279   3.071   6.018
  704SOL    HW1 3011   1.191   3.116   6.038
  704SOL    HW2 3012   1.306   3.015   6.096
  705SOL     OW 3013   0.127   6.354   4.633
  705SOL    HW1 3014   0.097   6.266   4.672
  705SOL    HW2 3015   0.068   6.427   4.669
  706SOL     OW 3016   4.734   0.964   5.112
  706SOL    HW1 3017   4.681   1.044   5.141
  706SOL    HW2 3018   4.827   0.994   5.089
  707SOL     OW 3019   3.266   4.920   3.224
  707SOL    HW1 3020   3.193   4.882   3.167
  707SOL    HW2 3021   3.263   5.020   3.221
  708SOL     OW 3022   3.187   0.698   3.639
  708SOL    HW1 3023   3.213   0.605   3.615
  708SOL    HW2 3024   3.227   0.762   3.572
  709SOL     OW 3025   2.326   0.129   1.349
  709SOL    HW1 3026   2.233   0.106   1.377
  709SOL    HW2 3027   2.362   0.057   1.289
  710SOL     OW 3028   4.842   2.964   1.671
  710SOL    HW1 3029   4.917   3.028   1.652
  710SOL    HW2 3030   4.817   2.970   1.767
  711SOL     OW 3031   0.263   2.338   5.741
  711SOL    HW1 3032   0.195   2.384   5.686
  711SOL    HW2 3033   0.354   2.353   5.702
  712SOL     OW 3034   5.146   3.396   0.343
  712SOL    HW1 3035   5.200   3.460   0.398
  712SOL    HW2 3036   5.193   3.308   0.337
  713SOL     OW 3037   3.839   2.616   5.315
  713SOL    HW1 3038   3.902   2.546   5.282
  713SOL    HW2 3039   3.877   2.706   5.297
  714SOL     OW 3040   5.259   5.097   3.374
  714SOL    HW1 3041   5.296   5.094   3.281
  714SOL    HW2 3042   5.320   5.151   3.432
  715SOL     OW 3043   6.312   5.418   5.687
  715SOL    HW1 3044   6.284   5.359   5.762
  715SOL    HW2 3045   6.251   5.498   5.683
  716SOL     OW 3046   1.817   1.270   2.633
  716SOL    HW1 3047   1.799   1.361   2.671
  716SOL    HW2 3048   1.902   1.272   2.581
  717SOL     OW 3049   5.249   5.075   3.786
  717SOL    HW1 3050   5.205   5.079   3.696
  717SOL    HW2 3051   5.326   5.140   3.788
  718SOL     OW 3052   5.507   2.028   4.280
  718SOL    HW1 3053   5.472   1.983   4.362
  718SOL    HW2 3054   5.433   2.079   4.236
  719SOL     OW 3055   5.624   0.451   3.517
  719SOL    HW1 3056   5.593   0.440   3.611
  719SOL    HW2 3057   5.717   0.414   3.508
  720SOL     OW 3058   2.056   0.978   6.954
  720SOL    HW1 3059   2.016   0.909   6.894
  720SOL    HW2 3060   2.066   0.941   0.026
  721SOL     OW 3061   7.004   2.531   2.747
  721SOL    HW1 3062   6.929   2.553   2.685
  721SOL    HW2 3063   0.061   2.591   2.728
  722SOL     OW 3064   4.394   6.733   0.202
  722SOL    HW1 3065   4.372   6.791   0.280
  722SOL    HW2 3066   4.347   6.645   0.212
  723SOL     OW 3067   2.667   5.648   3.871
  723SOL    HW1 3068   2.715   5.735   3.875
  723SOL    HW2 3069   2.570   5.663   3.851
  724SOL     OW 3070   1.373   1.352   3.602
  724SOL    HW1 3071   1.274   1.350   3.619
  724SOL    HW2 3072   1.390   1.357   3.504
  725SOL     OW 3073   1.574   3.922   2.558
  725SOL    HW1 3074   1.503   3.909   2.488
  725SOL    HW2 3075   1.658   3.955   2.515
  726SOL     OW 3076   2.248   4.099   0.701
  726SOL    HW1 3077   2.203   4.131   0.617
  726SOL    HW2 3078   2.338   4.141   0.708
  727SOL     OW 3079   4.176   5.117   5.032
  727SOL    HW1 3080   4.118   5.037   5.045
  727SOL    HW2 3081   4.120   5.196   5.010
  728SOL     OW 3082   6.912   3.040   4.275
  728SOL    HW1 3083   6.880   3.009   4.365
  728SOL    HW2 3084   6.833   3.068   4.220
  729SOL     OW 3085   0.297   4.142   1.518
  729SOL    HW1 3086   0.368   4.080   1.549
  729SOL    HW2 3087   0.339   4.225   1.481
  730SOL     OW 3088   5.063   0.439   3.605
  730SOL    HW1 3089   5.134   0.488   3.554
  730SOL    HW2 3090   4.999   0.505   3.644
  731SOL     OW 3091   4.350   4.113   6.291
  731SOL    HW1 3092   4.396   4.174   6.357
  731SOL    HW2 3093   4.303   4.169   6.222
  732SOL     OW 3094   5.028   1.592   3.610
  732SOL    HW1 3095   5.111   1.554   3.569
  732SOL    HW2 3096   5.051   1.673   3.663
  733SOL     OW 3097   6.148   6.636   3.417
  733SOL    HW1 3098   6.111   6.543   3.422
  733SOL    HW2 3099   6.141   6.670   3.323
  734SOL     OW 3100   5.412   6.128   2.523
  734SOL    HW1 3101   5.507   6.159   2.530
  734SOL    HW2 3102   5.403   6.040   2.570
  735SOL     OW 3103   4.956   0.695   2.152
  735SOL    HW1 3104   4.912   0.739   2.230
  735SOL    HW2 3105   5.034   0.750   2.122
  736SOL     OW 3106   1.285   1.233   4.234
  736SOL    HW1 3107   1.385   1.238   4.241
  736SOL    HW2 3108   1.255   1.142   4.260
  737SOL     OW 3109   5.265   1.287   6.630
  737SOL    HW1 3110   5.357   1.322   6.613
  737SOL    HW2 3111   5.263   1.241   6.719
  738SOL     OW 3112   2.624   4.230   1.254
  738SOL    HW1 3113   2.664   4.139   1.242
  738SOL    HW2 3114   2.658   4.291   1.183
  739SOL     OW 3115   2.778   6.764   4.871
  739SOL    HW1 3116   2.799   6.671   4.839
  739SOL    HW2 3117   2.768   6.763   4.970
  740SOL     OW 3118   5.339   2.867   3.209
  740SOL    HW1 3119   5.378   2.776   3.225
  740SOL    HW2 3120   5.299   2.871   3.118
  741SOL     OW 3121   2.871   0.635   3.215
  741SOL    HW1 3122   2.942   0.702   3.240
  741SOL    HW2 3123   2.909   0.543   3.219
  742SOL     OW 3124   2.091   0.064   1.453
  742SOL    HW1 3125   2.071   6.988   1.472
  742SOL    HW2 3126   2.017   0.103   1.398
  743SOL     OW 3127   0.893   6.496   3.466
  743SOL    HW1 3128   0.840   6.571   3.427
  743SOL    HW2 3129   0.974   6.534   3.513
  744SOL     OW 3130   4.677   1.229   0.430
  744SOL    HW1 3131   4.656   1.326   0.416
  744SOL    HW2 3132   4.602   1.174   0.392
  745SOL     OW 3133   2.931   6.004   5.076
  745SOL    HW1 3134   2.873   6.010   5.158
  745SOL    HW2 3135   2.875   6.020   4.995
  746SOL     OW 3136   6.009   4.369   5.447
  746SOL    HW1 3137   5.922   4.322   5.434
  746SOL    HW2 3138   5.992   4.466   5.463
  747SOL     OW 3139   5.484   5.663   2.943
  747SOL    HW1 3140   5.397   5.612   2.946
  747SOL    HW2 3141   5.473   5.750   2.992
  748SOL     OW 3142   5.557   5.342   2.281
  748SOL    HW1 3143   5.541   5.262   2.222
  748SOL    HW2 3144   5.472   5.367   2.327
  749SOL     OW 3145   5.204   3.921   3.504
  749SOL    HW1 3146   5.242   3.973   3.428
  749SOL    HW2 3147   5.104   3.925   3.501
  750SOL     OW 3148   2.305   1.981   1.822
  750SOL    HW1 3149   2.257   1.992   1.909
  750SOL    HW2 3150   2.383   1.920   1.835
  751SOL     OW 3151   4.808   0.397   6.982
  751SOL    HW1 3152   4.729   0.347   7.018
  751SOL    HW2 3153   4.874   0.332   6.944
  752SOL     OW 3154   3.476   2.724   5.463
  752SOL    HW1 3155   3.525   2.811   5.473
  752SOL    HW2 3156   3.382   2.743   5.434
  753SOL     OW 3157   3.985   3.983   5.114
  753SOL    HW1 3158   3.904   3.938   5.077
  753SOL    HW2 3159   4.043   4.014   5.038
  754SOL     OW 3160   5.585   0.551   6.703
  754SOL    HW1 3161   5.647   0.551   6.625
  754SOL    HW2 3162   5.610   0.625   6.766
  755SOL     OW 3163   4.069   4.578   5.291
  755SOL    HW1 3164   4.149   4.549   5.238
  755SOL    HW2 3165   4.097   4.602   5.384
  756SOL     OW 3166   2.178   4.822   6.163
  756SOL    HW1 3167   2.121   4.756   6.212
  756SOL    HW2 3168   2.261   4.839   6.216
  757SOL     OW 3169   2.460   6.936   2.736
  757SOL    HW1 3170   2.465   6.949   2.835
  757SOL    HW2 3171   2.367   6.911   2.711
  758SOL     OW 3172   3.268   1.804   3.847
  758SOL    HW1 3173   3.306   1.795   3.939
  758SOL    HW2 3174   3.176   1.766   3.845
  759SOL     OW 3175   0.370   2.962   4.600
  759SOL    HW1 3176   0.420   3.045   4.577
  759SOL    HW2 3177   0.274   2.971   4.572
  760SOL     OW 3178   6.678   6.127   3.847
  760SOL    HW1 3179   6.590   6.088   3.820
  760SOL    HW2 3180   6.749   6.097   3.783
  761SOL     OW 3181   4.557   3.687   5.565
  761SOL    HW1 3182   4.463   3.714   5.541
  761SOL    HW2 3183   4.620   3.721   5.495
  762SOL     OW 3184   3.221   5.697   4.637
  762SOL    HW1 3185   3.185   5.649   4.557
  762SOL    HW2 3186   3.217   5.796   4.621
  763SOL     OW 3187   5.533   0.379   0.065
  763SOL    HW1 3188   5.456   0.390   0.002
  763SOL    HW2 3189   5.548   0.465   0.115
  764SOL     OW 3190   5.172   6.833   5.044
  764SOL    HW1 3191   5.205   6.877   4.961
  764SOL    HW2 3192   5.176   6.899   5.120
  765SOL     OW 3193   0.235   6.605   0.585
  765SOL    HW1 3194   0.168   6.542   0.624
  765SOL    HW2 3195   0.208   6.699   0.602
  766SOL     OW 3196   1.884   2.265   5.542
  766SOL    HW1 3197   1.968   2.229   5.501
  766SOL    HW2 3198   1.907   2.318   5.624
  767SOL     OW 3199   0.472   6.804   4.297
  767SOL    HW1 3200   0.555   6.773   4.342
  767SOL    HW2 3201   0.392   6.757   4.336
  768SOL     OW 3202   2.555   5.474   1.998
  768SOL    HW1 3203   2.535   5.447   1.904
  768SOL    HW2 3204   2.648   5.446   2.022
  769SOL     OW 3205   2.865   2.246   4.952
  769SOL    HW1 3206   2.935   2.174   4.957
  769SOL    HW2 3207   2.885   2.316   5.020
  770SOL     OW 3208   1.940   5.082   4.868
  770SOL    HW1 3209   1.843   5.106   4.866
  770SOL    HW2 3210   1.954   4.993   4.825
  771SOL     OW 3211   1.334   5.980   3.256
  771SOL    HW1 3212   1.390   6.037   3.317
  771SOL    HW2 3213   1.390   5.950   3.179
  772SOL     OW 3214   5.544   4.481   0.379
  772SOL    HW1 3215   5.593   4.492   0.465
  772SOL    HW2 3216   5.449   4.456   0.398
  773SOL     OW 3217   0.343   3.921   3.687
  773SOL    HW1 3218   0.319   3.824   3.681
  773SOL    HW2 3219   0.424   3.932   3.744
  774SOL     OW 3220   2.413   0.496   3.032
  774SOL    HW1 3221   2.316   0.488   3.010
  774SOL    HW2 3222   2.467   0.496   2.948
  775SOL     OW 3223   2.026   4.463   3.539
  775SOL    HW1 3224   1.977   4.388   3.583
  775SOL    HW2 3225   2.111   4.428   3.499
  776SOL     OW 3226   2.678   5.373   6.633
  776SOL    HW1 3227   2.654   5.370   6.536
  776SOL    HW2 3228   2.662   5.283   6.673
  777SOL     OW 3229   1.638   3.585   0.284
  777SOL    HW1 3230   1.600   3.585   0.191
  777SOL    HW2 3231   1.705   3.511   0.293
  778SOL     OW 3232   2.862   0.081   1.211
  778SOL    HW1 3233   2.768   0.045   1.214
  778SOL    HW2 3234   2.926   0.005   1.202
  779SOL     OW 3235   0.236   1.777   3.327
  779SOL    HW1 3236   0.232   1.830   3.243
  779SOL    HW2 3237   0.176   1.819   3.396
  780SOL     OW 3238   0.853   1.547   4.894
  780SOL    HW1 3239   0.869   1.500   4.980
  780SOL    HW2 3240   0.937   1.590   4.863
  781SOL     OW 3241   0.945   4.287   0.896
  781SOL    HW1 3242   0.920   4.381   0.918
  781SOL    HW2 3243   0.862   4.232   0.885
  782SOL     OW 3244   1.880   3.434   5.716
  782SOL    HW1 3245   1.950   3.364   5.736
  782SOL    HW2 3246   1.899   3.475   5.627
  783SOL     OW 3247   5.955   4.842   6.871
  783SOL    HW1 3248   5.862   4.807   6.858
  783SOL    HW2 3249   5.991   4.810   6.959
  784SOL     OW 3250   2.919   6.693   0.589
  784SOL    HW1 3251   2.917   6.751   0.508
  784SOL    HW2 3252   2.963   6.606   0.566
  785SOL     OW 3253   1.323   6.589   4.728
  785SOL    HW1 3254   1.264   6.546   4.659
  785SOL    HW2 3255   1.354   6.520   4.793
  786SOL     OW 3256   6.995   1.519   3.402
  786SOL    HW1 3257   6.941   1.544   3.321
  786SOL    HW2 3258   0.038   1.446   3.377
  787SOL     OW 3259   2.761   0.413   0.593
  787SOL    HW1 3260   2.820   0.414   0.674
  787SOL    HW2 3261   2.682   0.473   0.609
  788SOL     OW 3262   3.685   2.915   1.345
  788SOL    HW1 3263   3.755   2.897   1.415
  788SOL    HW2 3264   3.595   2.918   1.389
  789SOL     OW 3265   4.083   5.247   1.169
  789SOL    HW1 3266   4.145   5.315   1.129
  789SOL    HW2 3267   4.049   5.187   1.096
  790SOL     OW 3268   1.039   2.568   2.854
  790SOL    HW1 3269   1.049   2.518   2.940
  790SOL    HW2 3270   0.961   2.532   2.803
  791SOL     OW 3271   3.480   5.193   5.023
  791SOL    HW1 3272   3.503   5.279   4.977
  791SOL    HW2 3273   3.430   5.214   5.108
  792SOL     OW 3274   1.013   0.821   1.297
  792SOL    HW1 3275   1.037   0.806   1.201
  792SOL    HW2 3276   0.993   0.732   1.339
  793SOL     OW 3277   3.227   6.066   3.975
  793SOL    HW1 3278   3.320   6.067   3.940
  793SOL    HW2 3279   3.190   5.973   3.968
  794SOL     OW 3280   3.343   3.784   3.156
  794SOL    HW1 3281   3.374   3.804   3.063
  794SOL    HW2 3282   3.402   3.829   3.221
  795SOL     OW 3283   3.942   6.708   6.094
  795SOL    HW1 3284   4.036   6.680   6.114
  795SOL    HW2 3285   3.881   6.631   6.108
  796SOL     OW 3286   0.686   3.188   6.591
  796SOL    HW1 3287   0.612   3.150   6.536
  796SOL    HW2 3288   0.650   3.260   6.651
  797SOL     OW 3289   5.099   6.559   0.962
  797SOL    HW1 3290   5.136   6.469   0.939
  797SOL    HW2 3291   5.012   6.549   1.008
  798SOL     OW 3292   3.674   6.533   0.684
  798SOL    HW1 3293   3.754   6.541   0.624
  798SOL    HW2 3294   3.645   6.625   0.712
  799SOL     OW 3295   1.147   2.232   5.912
  799SOL    HW1 3296   1.087   2.310   5.892
  799SOL    HW2 3297   1.171   2.233   6.009
  800SOL     OW 3298   6.195   2.517   1.934
  800SOL    HW1 3299   6.113   2.572   1.919
  800SOL    HW2 3300   6.242   2.549   2.017
  801SOL     OW 3301   2.366   5.277   5.967
  801SOL    HW1 3302   2.278   5.267   5.922
  801SOL    HW2 3303   2.364   5.235   6.057
  802SOL     OW 3304   5.720   2.574   6.896
  802SOL    HW1 3305   5.740   2.533   6.985
  802SOL    HW2 3306   5.730   2.673   6.902
  803SOL     OW 3307   2.465   1.513   5.390
  803SOL    HW1 3308   2.490   1.594   5.336
  803SOL    HW2 3309   2.440   1.439   5.328
  804SOL     OW 3310   6.128   0.901   2.261
  804SOL    HW1 3311   6.033   0.871   2.271
  804SOL    HW2 3312   6.133   1.000   2.276
  805SOL     OW 3313   3.748   0.389   3.751
  805SOL    HW1 3314   3.809   0.377   3.829
  805SOL    HW2 3315   3.746   0.486   3.724
  806SOL     OW 3316   2.224   6.010   5.560
  806SOL    HW1 3317   2.232   5.917   5.522
  806SOL    HW2 3318   2.267   6.075   5.498
  807SOL     OW 3319   0.587   5.881   5.597
  807SOL    HW1 3320   0.532   5.863   5.679
  807SOL    HW2 3321   0.562   5.817   5.525
  808SOL     OW 3322   5.409   2.586   6.828
  808SOL    HW1 3323   5.456   2.592   6.739
  808SOL    HW2 3324   5.428   2.669   6.880
  809SOL     OW 3325   2.029   4.519   0.147
  809SOL    HW1 3326   2.038   4.497   0.245
  809SOL    HW2 3327   2.113   4.492   0.100
  810SOL     OW 3328   3.595   3.510   0.285
  810SOL    HW1 3329   3.662   3.486   0.356
  810SOL    HW2 3330   3.554   3.427   0.248
  811SOL     OW 3331   5.007   4.723   4.078
  811SOL    HW1 3332   5.048   4.813   4.066
  811SOL    HW2 3333   4.995   4.704   4.175
  812SOL     OW 3334   0.557   2.807   2.076
  812SOL    HW1 3335   0.567   2.720   2.028
  812SOL    HW2 3336   0.473   2.805   2.131
  813SOL     OW 3337   1.056   1.731   4.784
  813SOL    HW1 3338   1.105   1.817   4.801
  813SOL    HW2 3339   1.098   1.684   4.706
  814SOL     OW 3340   1.016   5.239   3.011
  814SOL    HW1 3341   1.076   5.309   2.972
  814SOL    HW2 3342   0.947   5.283   3.069
  815SOL     OW 3343   4.672   1.548   3.856
  815SOL    HW1 3344   4.731   1.627   3.870
  815SOL    HW2 3345   4.638   1.547   3.762
  816SOL     OW 3346   5.599   4.133   6.990
  816SOL    HW1 3347   5.637   4.225   6.986
  816SOL    HW2 3348   5.499   4.138   6.996
  817SOL     OW 3349   0.760   4.490   7.019
  817SOL    HW1 3350   0.798   4.448   6.937
  817SOL    HW2 3351   0.755   4.423   0.072
  818SOL     OW 3352   6.171   2.956   4.329
  818SOL    HW1 3353   6.178   2.861   4.300
  818SOL    HW2 3354   6.242   2.976   4.395
  819SOL     OW 3355   5.184   2.810   2.447
  819SOL    HW1 3356   5.121   2.770   2.382
  819SOL    HW2 3357   5.211   2.901   2.416
  820SOL     OW 3358   2.094   2.051   5.154
  820SOL    HW1 3359   2.014   1.991   5.163
  820SOL    HW2 3360   2.129   2.046   5.061
  821SOL     OW 3361   5.907   3.709   5.222
  821SOL    HW1 3362   5.951   3.736   5.136
  821SOL    HW2 3363   5.814   3.678   5.203
  822SOL     OW 3364   0.574   4.136   3.267
  822SOL    HW1 3365   0.485   4.177   3.287
  822SOL    HW2 3366   0.571   4.038   3.285
  823SOL     OW 3367   0.749   3.877   5.524
  823SOL    HW1 3368   0.686   3.840   5.456
  823SOL    HW2 3369   0.767   3.808   5.594
  824SOL     OW 3370   5.667   1.524   5.819
  824SOL    HW1 3371   5.701   1.534   5.726
  824SOL    HW2 3372   5.567   1.518   5.818
  825SOL     OW 3373   6.754   5.766   1.226
  825SOL    HW1 3374   6.832   5.717   1.265
  825SOL    HW2 3375   6.748   5.858   1.266
  826SOL     OW 3376   3.632   1.329   5.748
  826SOL    HW1 3377   3.571   1.285   5.681
  826SOL    HW2 3378   3.726   1.323   5.715
  827SOL     OW 3379   3.957   3.959   4.825
  827SOL    HW1 3380   3.861   3.961   4.851
  827SOL    HW2 3381   3.976   4.034   4.762
  828SOL     OW 3382   6.419   5.775   5.113
  828SOL    HW1 3383   6.329   5.737   5.134
  828SOL    HW2 3384   6.487   5.702   5.113
  829SOL     OW 3385   3.082   3.092   2.816
  829SOL    HW1 3386   3.090   3.189   2.795
  829SOL    HW2 3387   3.166   3.044   2.791
  830SOL     OW 3388   6.557   4.592   0.208
  830SOL    HW1 3389   6.625   4.565   0.276
  830SOL    HW2 3390   6.574   4.687   0.180
  831SOL     OW 3391   5.243   6.472   1.351
  831SOL    HW1 3392   5.231   6.435   1.443
  831SOL    HW2 3393   5.237   6.398   1.284
  832SOL     OW 3394   3.195   2.151   4.744
  832SOL    HW1 3395   3.277   2.181   4.794
  832SOL    HW2 3396   3.117   2.150   4.807
  833SOL     OW 3397   1.864   2.978   6.412
  833SOL    HW1 3398   1.914   3.053   6.369
  833SOL    HW2 3399   1.881   2.894   6.362
  834SOL     OW 3400   5.244   3.903   6.863
  834SOL    HW1 3401   5.252   3.919   6.961
  834SOL    HW2 3402   5.191   3.820   6.846
  835SOL     OW 3403   0.878   6.708   4.492
  835SOL    HW1 3404   0.950   6.774   4.472
  835SOL    HW2 3405   0.832   6.734   4.577
  836SOL     OW 3406   3.506   1.314   4.632
  836SOL    HW1 3407   3.475   1.290   4.724
  836SOL    HW2 3408   3.595   1.270   4.615
  837SOL     OW 3409   1.429   0.771   0.848
  837SOL    HW1 3410   1.461   0.837   0.781
  837SOL    HW2 3411   1.405   0.818   0.933
  838SOL     OW 3412   1.983   5.942   3.287
  838SOL    HW1 3413   2.026   5.861   3.327
  838SOL    HW2 3414   2.013   5.952   3.192
  839SOL     OW 3415   1.293   2.274   0.304
  839SOL    HW1 3416   1.372   2.242   0.251
  839SOL    HW2 3417   1.229   2.198   0.318
  840SOL     OW 3418   5.267   5.483   6.828
  840SOL    HW1 3419   5.193   5.532   6.875
  840SOL    HW2 3420   5.229   5.402   6.783
  841SOL     OW 3421   3.947   4.761   6.238
  841SOL    HW1 3422   3.871   4.788   6.178
  841SOL    HW2 3423   3.943   4.662   6.254
  842SOL     OW 3424   3.268   6.981   6.687
  842SOL    HW1 3425   3.190   0.016   6.659
  842SOL    HW2 3426   3.345   6.997   6.625
  843SOL     OW 3427   1.318   1.407   2.241
  843SOL    HW1 3428   1.255   1.391   2.317
  843SOL    HW2 3429   1.409   1.371   2.264
  844SOL     OW 3430   6.130   0.281   1.323
  844SOL    HW1 3431   6.118   0.241   1.414
  844SOL    HW2 3432   6.222   0.319   1.315
  845SOL     OW 3433   3.319   1.477   2.406
  845SOL    HW1 3434   3.240   1.535   2.428
  845SOL    HW2 3435   3.368   1.516   2.328
  846SOL     OW 3436   2.749   2.314   0.316
  846SOL    HW1 3437   2.795   2.226   0.301
  846SOL    HW2 3438   2.656   2.297   0.349
  847SOL     OW 3439   2.512   4.597   1.398
  847SOL    HW1 3440   2.552   4.599   1.307
  847SOL    HW2 3441   2.496   4.503   1.426
  848SOL     OW 3442   6.878   5.478   6.845
  848SOL    HW1 3443   6.894   5.390   6.801
  848SOL    HW2 3444   6.842   5.543   6.778
  849SOL     OW 3445   6.209   3.646   0.028
  849SOL    HW1 3446   6.306   3.622   0.030
  849SOL    HW2 3447   6.199   3.744   0.041
  850SOL     OW 3448   0.530   0.584   5.379
  850SOL    HW1 3449   0.461   0.593   5.451
  850SOL    HW2 3450   0.488   0.600   5.290
  851SOL     OW 3451   6.742   3.268   6.084
  851SOL    HW1 3452   6.673   3.200   6.057
  851SOL    HW2 3453   6.705   3.326   6.157
  852SOL     OW 3454   0.671   4.073   2.378
  852SOL    HW1 3455   0.721   4.159   2.372
  852SOL    HW2 3456   0.671   4.028   2.289
  853SOL     OW 3457   2.845   3.969   0.020
  853SOL    HW1 3458   2.865   3.872   0.006
  853SOL    HW2 3459   2.796   3.981   0.106
  854SOL     OW 3460   5.355   6.311   6.491
  854SOL    HW1 3461   5.316   6.228   6.531
  854SOL    HW2 3462   5.377   6.295   6.395
  855SOL     OW 3463   6.245   0.937   6.954
  855SOL    HW1 3464   6.283   0.988   6.877
  855SOL    HW2 3465   6.281   0.973   0.019
  856SOL     OW 3466   1.818   6.296   0.186
  856SOL    HW1 3467   1.849   6.209   0.224
  856SOL    HW2 3468   1.805   6.288   0.087
  857SOL     OW 3469   6.253   5.091   5.243
  857SOL    HW1 3470   6.216   5.166   5.189
  857SOL    HW2 3471   6.195   5.074   5.322
  858SOL     OW 3472   3.887   3.522   0.455
  858SOL    HW1 3473   3.922   3.559   0.542
  858SOL    HW2 3474   3.959   3.526   0.386
  859SOL     OW 3475   4.296   6.508   5.585
  859SOL    HW1 3476   4.365   6.488   5.515
  859SOL    HW2 3477   4.298   6.606   5.606
  860SOL     OW 3478   5.962   3.200   6.011
  860SOL    HW1 3479   5.988   3.215   5.916
  860SOL    HW2 3480   6.014   3.122   6.047
  861SOL     OW 3481   2.647   6.243   2.385
  861SOL    HW1 3482   2.566   6.267   2.439
  861SOL    HW2 3483   2.647   6.297   2.300
  862SOL     OW 3484   1.143   4.476   3.683
  862SOL    HW1 3485   1.213   4.546   3.665
  862SOL    HW2 3486   1.068   4.487   3.618
  863SOL     OW 3487   6.766   0.616   6.738
  863SOL    HW1 3488   6.751   0.712   6.716
  863SOL    HW2 3489   6.863   0.593   6.722
  864SOL     OW 3490   5.516   0.162   4.772
  864SOL    HW1 3491   5.532   0.246   4.720
  864SOL    HW2 3492   5.599   0.106   4.772
  865SOL     OW 3493   2.061   6.587   4.515
  865SOL    HW1 3494   2.020   6.545   4.596
  865SOL    HW2 3495   2.045   6.686   4.518
  866SOL     OW 3496   2.756   6.305   1.942
  866SOL    HW1 3497   2.846   6.261   1.942
  866SOL    HW2 3498   2.690   6.246   1.896
  867SOL     OW 3499   6.020   1.958   0.062
  867SOL    HW1 3500   5.960   1.902   0.004
  867SOL    HW2 3501   5.968   1.990   0.141
  868SOL     OW 3502   0.245   2.334   2.231
  868SOL    HW1 3503   0.188   2.405   2.188
  868SOL    HW2 3504   0.318   2.378   2.284
  869SOL     OW 3505   6.811   3.876   3.677
  869SOL    HW1 3506   6.873   3.903   3.603
  869SOL    HW2 3507   6.720   3.860   3.640
  870SOL     OW 3508   3.504   5.228   1.656
  870SOL    HW1 3509   3.505   5.324   1.683
  870SOL    HW2 3510   3.417   5.186   1.680
  871SOL     OW 3511   4.476   1.933   3.462
  871SOL    HW1 3512   4.432   1.905   3.547
  871SOL    HW2 3513   4.419   2.002   3.416
  872SOL     OW 3514   0.100   2.995   4.529
  872SOL    HW1 3515   0.103   2.992   4.429
  872SOL    HW2 3516   0.075   2.905   4.564
  873SOL     OW 3517   4.566   6.381   6.221
  873SOL    HW1 3518   4.582   6.475   6.252
  873SOL    HW2 3519   4.640   6.354   6.159
  874SOL     OW 3520   5.036   4.488   0.561
  874SOL    HW1 3521   4.994   4.564   0.511
  874SOL    HW2 3522   4.968   4.415   0.572
  875SOL     OW 3523   4.934   5.718   0.445
  875SOL    HW1 3524   4.987   5.648   0.493
  875SOL    HW2 3525   4.936   5.803   0.497
  876SOL     OW 3526   0.171   6.163   1.739
  876SOL    HW1 3527   0.200   6.165   1.835
  876SOL    HW2 3528   0.231   6.101   1.688
  877SOL     OW 3529   2.874   4.062   6.760
  877SOL    HW1 3530   2.921   4.150   6.761
  877SOL    HW2 3531   2.871   4.025   6.853
  878SOL     OW 3532   4.091   6.456   4.699
  878SOL    HW1 3533   4.094   6.556   4.698
  878SOL    HW2 3534   4.133   6.421   4.615
  879SOL     OW 3535   5.913   0.326   0.789
  879SOL    HW1 3536   5.848   0.379   0.735
  879SOL    HW2 3537   5.972   0.388   0.840
  880SOL     OW 3538   2.887   3.452   3.242
  880SOL    HW1 3539   2.922   3.414   3.157
  880SOL    HW2 3540   2.793   3.421   3.256
  881SOL     OW 3541   4.530   2.069   6.366
  881SOL    HW1 3542   4.545   2.030   6.457
  881SOL    HW2 3543   4.435   2.055   6.339
  882SOL     OW 3544   0.641   3.500   4.680
  882SOL    HW1 3545   0.735   3.523   4.655
  882SOL    HW2 3546   0.642   3.424   4.745
  883SOL     OW 3547   2.992   0.218   2.609
  883SOL    HW1 3548   3.011   0.124   2.579
  883SOL    HW2 3549   2.939   0.215   2.694
  884SOL     OW 3550   4.615   2.747   4.988
  884SOL    HW1 3551   4.522   2.782   4.979
  884SOL    HW2 3552   4.663   2.797   5.061
  885SOL     OW 3553   3.117   1.744   6.424
  885SOL    HW1 3554   3.073   1.654   6.425
  885SOL    HW2 3555   3.204   1.739   6.374
  886SOL     OW 3556   3.276   0.756   0.435
  886SOL    HW1 3557   3.357   0.712   0.396
  886SOL    HW2 3558   3.245   0.829   0.374
  887SOL     OW 3559   4.309   0.834   3.776
  887SOL    HW1 3560   4.249   0.882   3.712
  887SOL    HW2 3561   4.256   0.804   3.855
  888SOL     OW 3562   0.429   0.530   3.213
  888SOL    HW1 3563   0.356   0.516   3.280
  888SOL    HW2 3564   0.502   0.464   3.229
  889SOL     OW 3565   0.661   3.856   6.858
  889SOL    HW1 3566   0.564   3.837   6.842
  889SOL    HW2 3567   0.698   3.787   6.919
  890SOL     OW 3568   2.325   6.061   3.855
  890SOL    HW1 3569   2.408   6.105   3.889
  890SOL    HW2 3570   2.247   6.086   3.912
  891SOL     OW 3571   5.679   5.968   0.845
  891SOL    HW1 3572   5.591   6.001   0.811
  891SOL    HW2 3573   5.738   5.946   0.768
  892SOL     OW 3574   2.702   3.845   5.883
  892SOL    HW1 3575   2.775   3.911   5.864
  892SOL    HW2 3576   2.671   3.804   5.797
  893SOL     OW 3577   2.813   6.465   2.706
  893SOL    HW1 3578   2.852   6.488   2.617
  893SOL    HW2 3579   2.716   6.489   2.707
  894SOL     OW 3580   1.542   4.100   1.637
  894SOL    HW1 3581   1.442   4.113   1.634
  894SOL    HW2 3582   1.563   4.011   1.678
  895SOL     OW 3583   0.279   6.159   3.545
  895SOL    HW1 3584   0.355   6.151   3.609
  895SOL    HW2 3585   0.306   6.122   3.456
  896SOL     OW 3586   6.421   5.955   6.252
  896SOL    HW1 3587   6.446   5.888   6.182
  896SOL    HW2 3588   6.471   6.040   6.236
  897SOL     OW 3589   5.248   0.924   6.850
  897SOL    HW1 3590   5.215   0.842   6.897
  897SOL    HW2 3591   5.200   1.004   6.885
  898SOL     OW 3592   3.241   5.567   3.162
  898SOL    HW1 3593   3.179   5.549   3.239
  898SOL    HW2 3594   3.297   5.487   3.144
  899SOL     OW 3595   0.725   4.981   6.104
  899SOL    HW1 3596   0.638   4.993   6.152
  899SOL    HW2 3597   0.724   5.033   6.019
  900SOL     OW 3598   5.894   6.878   0.617
  900SOL    HW1 3599   5.875   6.849   0.523
  900SOL    HW2 3600   5.950   6.961   0.616
  901SOL     OW 3601   2.033   1.309   2.326
  901SOL    HW1 3602   2.089   1.368   2.384
  901SOL    HW2 3603   2.087   1.229   2.298
  902SOL     OW 3604   6.206   3.944   1.364
  902SOL    HW1 3605   6.171   3.860   1.323
  902SOL    HW2 3606   6.167   3.956   1.455
  903SOL     OW 3607   6.736   1.700   0.365
  903SOL    HW1 3608   6.714   1.797   0.368
  903SOL    HW2 3609   6.726   1.660   0.456
  904SOL     OW 3610   3.452   2.159   3.715
  904SOL    HW1 3611   3.388   2.157   3.638
  904SOL    HW2 3612   3.407   2.119   3.796
  905SOL     OW 3613   6.110   2.728   0.193
  905SOL    HW1 3614   6.015   2.755   0.175
  905SOL    HW2 3615   6.121   2.630   0.174
  906SOL     OW 3616   0.131   2.758   5.230
  906SOL    HW1 3617   0.210   2.698   5.245
  906SOL    HW2 3618   0.050   2.702   5.215
  907SOL     OW 3619   4.811   3.313   6.959
  907SOL    HW1 3620   4.754   3.245   6.912
  907SOL    HW2 3621   4.865   3.364   6.892
  908SOL     OW 3622   2.717   4.752   2.140
  908SOL    HW1 3623   2.637   4.700   2.170
  908SOL    HW2 3624   2.755   4.710   2.057
  909SOL     OW 3625   4.471   4.842   6.069
  909SOL    HW1 3626   4.477   4.745   6.096
  909SOL    HW2 3627   4.546   4.863   6.006
  910SOL     OW 3628   2.815   2.836   1.671
  910SOL    HW1 3629   2.762   2.921   1.672
  910SOL    HW2 3630   2.754   2.759   1.657
  911SOL     OW 3631   1.762   5.724   6.055
  911SOL    HW1 3632   1.801   5.701   5.966
  911SOL    HW2 3633   1.836   5.735   6.122
  912SOL     OW 3634   4.887   2.530   3.354
  912SOL    HW1 3635   4.821   2.605   3.348
  912SOL    HW2 3636   4.919   2.522   3.448
  913SOL     OW 3637   5.271   6.734   3.238
  913SOL    HW1 3638   5.315   6.645   3.246
  913SOL    HW2 3639   5.285   6.770   3.146
  914SOL     OW 3640   2.714   0.373   6.597
  914SOL    HW1 3641   2.714   0.465   6.559
  914SOL    HW2 3642   2.648   0.316   6.547
  915SOL     OW 3643   5.816   5.859   0.636
  915SOL    HW1 3644   5.911   5.851   0.664
  915SOL    HW2 3645   5.777   5.768   0.622
  916SOL     OW 3646   1.209   2.303   2.412
  916SOL    HW1 3647   1.192   2.233   2.481
  916SOL    HW2 3648   1.152   2.383   2.431
  917SOL     OW 3649   0.424   0.239   0.525
  917SOL    HW1 3650   0.420   0.218   0.622
  917SOL    HW2 3651   0.339   0.212   0.480
  918SOL     OW 3652   1.585   6.268   0.664
  918SOL    HW1 3653   1.672   6.260   0.615
  918SOL    HW2 3654   1.581   6.357   0.709
  919SOL     OW 3655   5.936   1.813   3.696
  919SOL    HW1 3656   5.968   1.873   3.623
  919SOL    HW2 3657   5.872   1.745   3.658
  920SOL     OW 3658   2.648   5.019   2.166
  920SOL    HW1 3659   2.649   5.022   2.266
  920SOL    HW2 3660   2.642   4.925   2.134
  921SOL     OW 3661   5.080   5.448   4.614
  921SOL    HW1 3662   5.163   5.504   4.618
  921SOL    HW2 3663   5.026   5.472   4.534
  922SOL     OW 3664   4.059   3.698   3.843
  922SOL    HW1 3665   4.074   3.796   3.837
  922SOL    HW2 3666   4.044   3.672   3.938
  923SOL     OW 3667   2.185   2.796   5.564
  923SOL    HW1 3668   2.226   2.847   5.488
  923SOL    HW2 3669   2.086   2.810   5.564
  924SOL     OW 3670   6.806   3.724   2.418
  924SOL    HW1 3671   6.785   3.643   2.472
  924SOL    HW2 3672   6.784   3.706   2.322
  925SOL     OW 3673   6.173   1.509   0.312
  925SOL    HW1 3674   6.093   1.566   0.292
  925SOL    HW2 3675   6.249   1.568   0.341
  926SOL     OW 3676   0.712   1.437   2.010
  926SOL    HW1 3677   0.614   1.455   1.998
  926SOL    HW2 3678   0.752   1.412   1.922
  927SOL     OW 3679   5.821   3.898   3.690
  927SOL    HW1 3680   5.744   3.848   3.729
  927SOL    HW2 3681   5.856   3.964   3.758
  928SOL     OW 3682   3.202   5.889   6.895
  928SOL    HW1 3683   3.116   5.937   6.915
  928SOL    HW2 3684   3.246   5.931   6.816
  929SOL     OW 3685   6.768   1.416   5.691
  929SOL    HW1 3686   6.855   1.462   5.674
  929SOL    HW2 3687   6.775   1.321   5.661
  930SOL     OW 3688   5.132   5.182   6.634
  930SOL    HW1 3689   5.096   5.268   6.672
  930SOL    HW2 3690   5.070   5.150   6.562
  931SOL     OW 3691   6.491   2.756   3.206
  931SOL    HW1 3692   6.517   2.688   3.274
  931SOL    HW2 3693   6.396   2.741   3.179
  932SOL     OW 3694   3.823   0.687   3.820
  932SOL    HW1 3695   3.736   0.732   3.844
  932SOL    HW2 3696   3.887   0.696   3.897
  933SOL     OW 3697   1.279   5.041   2.695
  933SOL    HW1 3698   1.330   5.065   2.611
  933SOL    HW2 3699   1.186   5.076   2.688
  934SOL     OW 3700   1.762   5.146   6.474
  934SOL    HW1 3701   1.662   5.145   6.480
  934SOL    HW2 3702   1.792   5.078   6.407
  935SOL     OW 3703   5.453   3.599   3.430
  935SOL    HW1 3704   5.367   3.626   3.471
  935SOL    HW2 3705   5.483   3.512   3.470
  936SOL     OW 3706   1.748   0.433   6.799
  936SOL    HW1 3707   1.669   0.392   6.753
  936SOL    HW2 3708   1.737   0.532   6.804
  937SOL     OW 3709   5.203   1.267   5.524
  937SOL    HW1 3710   5.194   1.186   5.467
  937SOL    HW2 3711   5.123   1.275   5.584
  938SOL     OW 3712   5.837   5.347   4.651
  938SOL    HW1 3713   5.822   5.425   4.712
  938SOL    HW2 3714   5.777   5.355   4.571
  939SOL     OW 3715   0.365   6.795   4.982
  939SOL    HW1 3716   0.379   6.697   4.967
  939SOL    HW2 3717   0.401   6.819   5.072
  940SOL     OW 3718   2.210   5.048   0.435
  940SOL    HW1 3719   2.170   4.981   0.498
  940SOL    HW2 3720   2.228   5.133   0.485
  941SOL     OW 3721   3.702   0.163   6.459
  941SOL    HW1 3722   3.722   0.110   6.542
  941SOL    HW2 3723   3.614   0.134   6.422
  942SOL     OW 3724   0.160   5.374   0.431
  942SOL    HW1 3725   0.256   5.357   0.455
  942SOL    HW2 3726   0.114   5.420   0.508
  943SOL     OW 3727   2.817   4.758   2.980
  943SOL    HW1 3728   2.767   4.697   2.918
  943SOL    HW2 3729   2.819   4.850   2.941
  944SOL     OW 3730   0.979   6.441   4.548
  944SOL    HW1 3731   0.949   6.383   4.473
  944SOL    HW2 3732   0.956   6.537   4.529
  945SOL     OW 3733   0.845   5.260   6.282
  945SOL    HW1 3734   0.893   5.246   6.369
  945SOL    HW2 3735   0.909   5.248   6.207
  946SOL     OW 3736   4.919   3.713   3.773
  946SOL    HW1 3737   5.001   3.657   3.785
  946SOL    HW2 3738   4.838   3.654   3.774
  947SOL     OW 3739   4.062   3.684   4.734
  947SOL    HW1 3740   4.096   3.700   4.641
  947SOL    HW2 3741   4.036   3.771   4.775
  948SOL     OW 3742   4.784   1.017   2.746
  948SOL    HW1 3743   4.731   1.101   2.746
  948SOL    HW2 3744   4.832   1.008   2.833
  949SOL     OW 3745   2.869   6.576   6.788
  949SOL    HW1 3746   2.817   6.494   6.812
  949SOL    HW2 3747   2.805   6.647   6.758
  950SOL     OW 3748   0.464   6.388   2.068
  950SOL    HW1 3749   0.553   6.342   2.073
  950SOL    HW2 3750   0.479   6.487   2.070
  951SOL     OW 3751   1.951   6.708   3.154
  951SOL    HW1 3752   1.943   6.804   3.129
  951SOL    HW2 3753   1.872   6.682   3.209
  952SOL     OW 3754   3.363   1.454   1.847
  952SOL    HW1 3755   3.396   1.548   1.835
  952SOL    HW2 3756   3.324   1.444   1.938
  953SOL     OW 3757   6.649   5.071   5.066
  953SOL    HW1 3758   6.581   5.016   5.018
  953SOL    HW2 3759   6.602   5.135   5.127
  954SOL     OW 3760   4.987   5.918   2.499
  954SOL    HW1 3761   4.942   5.850   2.556
  954SOL    HW2 3762   4.992   6.005   2.548
  955SOL     OW 3763   1.558   4.306   0.280
  955SOL    HW1 3764   1.597   4.283   0.191
  955SOL    HW2 3765   1.468   4.347   0.267
  956SOL     OW 3766   6.238   0.604   1.709
  956SOL    HW1 3767   6.223   0.654   1.624
  956SOL    HW2 3768   6.306   0.532   1.694
  957SOL     OW 3769   6.212   2.620   3.970
  957SOL    HW1 3770   6.194   2.639   3.873
  957SOL    HW2 3771   6.182   2.527   3.991
  958SOL     OW 3772   5.329   0.352   1.885
  958SOL    HW1 3773   5.255   0.402   1.929
  958SOL    HW2 3774   5.308   0.255   1.884
  959SOL     OW 3775   3.778   6.737   4.332
  959SOL    HW1 3776   3.812   6.808   4.394
  959SOL    HW2 3777   3.678   6.741   4.328
  960SOL     OW 3778   0.953   0.635   7.000
  960SOL    HW1 3779   0.966   0.734   6.992
  960SOL    HW2 3780   0.865   0.610   6.959
  961SOL     OW 3781   3.262   6.609   2.700
  961SOL    HW1 3782   3.219   6.532   2.653
  961SOL    HW2 3783   3.206   6.691   2.687
  962SOL     OW 3784   6.664   0.276   4.650
  962SOL    HW1 3785   6.755   0.279   4.690
  962SOL    HW2 3786   6.668   0.302   4.554
  963SOL     OW 3787   4.760   2.812   1.147
  963SOL    HW1 3788   4.814   2.753   1.208
  963SOL    HW2 3789   4.721   2.756   1.074
  964SOL     OW 3790   4.531   4.430   5.202
  964SOL    HW1 3791   4.589   4.351   5.186
  964SOL    HW2 3792   4.436   4.400   5.211
  965SOL     OW 3793   5.753   2.662   3.877
  965SOL    HW1 3794   5.770   2.761   3.873
  965SOL    HW2 3795   5.836   2.616   3.908
  966SOL     OW 3796   5.176   1.946   4.117
  966SOL    HW1 3797   5.088   1.969   4.075
  966SOL    HW2 3798   5.234   2.027   4.120
  967SOL     OW 3799   5.624   4.181   6.321
  967SOL    HW1 3800   5.597   4.115   6.391
  967SOL    HW2 3801   5.544   4.232   6.290
  968SOL     OW 3802   3.829   0.312   1.839
  968SOL    HW1 3803   3.773   0.337   1.760
  968SOL    HW2 3804   3.772   0.267   1.907
  969SOL     OW 3805   3.755   3.948   5.674
  969SOL    HW1 3806   3.691   4.023   5.659
  969SOL    HW2 3807   3.811   3.935   5.593
  970SOL     OW 3808   5.663   0.349   5.920
  970SOL    HW1 3809   5.746   0.295   5.914
  970SOL    HW2 3810   5.644   0.371   6.016
  971SOL     OW 3811   5.582   4.039   2.958
  971SOL    HW1 3812   5.513   4.060   2.889
  971SOL    HW2 3813   5.669   4.020   2.913
  972SOL     OW 3814   0.096   2.732   1.093
  972SOL    HW1 3815   0.012   2.739   1.147
  972SOL    HW2 3816   0.073   2.735   0.995
  973SOL     OW 3817   6.976   3.585   5.855
  973SOL    HW1 3818   0.024   3.516   5.881
  973SOL    HW2 3819   7.019   3.653   5.795
  974SOL     OW 3820   6.914   5.608   4.197
  974SOL    HW1 3821   6.934   5.705   4.190
  974SOL    HW2 3822   6.999   5.558   4.213
  975SOL     OW 3823   2.524   6.613   2.090
  975SOL    HW1 3824   2.463   6.677   2.136
  975SOL    HW2 3825   2.511   6.618   1.992
  976SOL     OW 3826   6.684   3.793   2.146
  976SOL    HW1 3827   6.597   3.828   2.180
  976SOL    HW2 3828   6.735   3.867   2.102
  977SOL     OW 3829   0.087   1.038   2.669
  977SOL    HW1 3830   0.044   1.127   2.654
  977SOL    HW2 3831   0.025   0.966   2.636
  978SOL     OW 3832   5.572   2.653   1.928
  978SOL    HW1 3833   5.533   2.617   2.012
  978SOL    HW2 3834   5.652   2.709   1.949
  979SOL     OW 3835   6.862   3.685   0.043
  979SOL    HW1 3836   6.838   3.770   0.091
  979SOL    HW2 3837   6.811   3.680   6.978
  980SOL     OW 3838   3.469   1.829   5.230
  980SOL    HW1 3839   3.421   1.898   5.284
  980SOL    HW2 3840   3.438   1.833   5.135
  981SOL     OW 3841   6.576   6.614   5.462
  981SOL    HW1 3842   6.595   6.578   5.371
  981SOL    HW2 3843   6.486   6.657   5.462
  982SOL     OW 3844   6.752   1.260   5.282
  982SOL    HW1 3845   6.706   1.342   5.316
  982SOL    HW2 3846   6.729   1.246   5.186
  983SOL     OW 3847   0.079   4.292   4.148
  983SOL    HW1 3848   0.005   4.359   4.145
  983SOL    HW2 3849   0.110   4.280   4.243
  984SOL     OW 3850   1.271   1.926   2.605
  984SOL    HW1 3851   1.264   1.887   2.697
  984SOL    HW2 3852   1.340   1.875   2.553
  985SOL     OW 3853   6.412   4.006   4.490
  985SOL    HW1 3854   6.495   3.951   4.477
  985SOL    HW2 3855   6.437   4.100   4.511
  986SOL     OW 3856   5.417   4.820   1.103
  986SOL    HW1 3857   5.507   4.786   1.077
  986SOL    HW2 3858   5.416   4.841   1.200
  987SOL     OW 3859   5.519   5.165   3.745
  987SOL    HW1 3860   5.591   5.195   3.807
  987SOL    HW2 3861   5.546   5.180   3.651
  988SOL     OW 3862   3.010   4.177   1.466
  988SOL    HW1 3863   3.068   4.226   1.530
  988SOL    HW2 3864   2.915   4.179   1.498
  989SOL     OW 3865   0.372   1.426   1.112
  989SOL    HW1 3866   0.300   1.357   1.118
  989SOL    HW2 3867   0.350   1.503   1.172
  990SOL     OW 3868   4.188   0.013   3.483
  990SOL    HW1 3869   4.241   0.086   3.441
  990SOL    HW2 3870   4.091   0.035   3.479
  991SOL     OW 3871   7.004   4.879   3.926
  991SOL    HW1 3872   0.053   4.883   3.854
  991SOL    HW2 3873   0.024   4.903   4.014
  992SOL     OW 3874   0.302   2.479   1.432
  992SOL    HW1 3875   0.248   2.407   1.474
  992SOL    HW2 3876   0.398   2.450   1.427
  993SOL     OW 3877   1.912   5.318   0.511
  993SOL    HW1 3878   1.852   5.239   0.494
  993SOL    HW2 3879   1.866   5.381   0.573
  994SOL     OW 3880   2.933   6.896   0.373
  994SOL    HW1 3881   2.956   6.920   0.278
  994SOL    HW2 3882   2.933   6.979   0.429
  995SOL     OW 3883   5.879   2.800   5.889
  995SOL    HW1 3884   5.915   2.730   5.828
  995SOL    HW2 3885   5.845   2.877   5.834
  996SOL     OW 3886   3.918   6.071   6.050
  996SOL    HW1 3887   3.998   6.123   6.021
  996SOL    HW2 3888   3.864   6.044   5.970
  997SOL     OW 3889   1.754   5.600   3.993
  997SOL    HW1 3890   1.818   5.531   3.957
  997SOL    HW2 3891   1.661   5.564   3.989
  998SOL     OW 3892   6.115   0.097   6.182
  998SOL    HW1 3893   6.088   0.185   6.143
  998SOL    HW2 3894   6.108   0.100   6.281
  999SOL     OW 3895   4.754   3.843   1.801
  999SOL    HW1 3896   4.760   3.764   1.862
  999SOL    HW2 3897   4.731   3.812   1.709
 1000SOL     OW 3898   4.147   1.839   1.609
 1000SOL    HW1 3899   4.109   1.873   1.695
 1000SOL    HW2 3900   4.141   1.740   1.606
 1001SOL     OW 3901   2.805   6.568   2.027
 1001SOL    HW1 3902   2.709   6.587   2.050
 1001SOL    HW2 3903   2.811   6.476   1.987
 1002SOL     OW 3904   5.535   2.773   1.286
 1002SOL    HW1 3905   5.488   2.776   1.374
 1002SOL    HW2 3906   5.633   2.767   1.300
 1003SOL     OW 3907   0.418   6.755   2.945
 1003SOL    HW1 3908   0.517   6.758   2.936
 1003SOL    HW2 3909   0.379   6.840   2.909
 1004SOL     OW 3910   5.422   1.375   3.663
 1004SOL    HW1 3911   5.421   1.281   3.628
 1004SOL    HW2 3912   5.345   1.388   3.725
 1005SOL     OW 3913   1.280   4.394   3.907
 1005SOL    HW1 3914   1.376   4.420   3.916
 1005SOL    HW2 3915   1.239   4.443   3.830
 1006SOL     OW 3916   2.427   3.396   0.919
 1006SOL    HW1 3917   2.383   3.477   0.881
 1006SOL    HW2 3918   2.516   3.421   0.957
 1007SOL     OW 3919   4.547   1.276   6.403
 1007SOL    HW1 3920   4.467   1.327   6.372
 1007SOL    HW2 3921   4.598   1.332   6.469
 1008SOL     OW 3922   0.003   5.007   4.840
 1008SOL    HW1 3923   0.059   4.957   4.774
 1008SOL    HW2 3924   6.993   5.094   4.800
 1009SOL     OW 3925   6.707   5.160   6.390
 1009SOL    HW1 3926   6.707   5.060   6.392
 1009SOL    HW2 3927   6.616   5.193   6.362
 1010SOL     OW 3928   2.243   3.296   1.474
 1010SOL    HW1 3929   2.180   3.322   1.400
 1010SOL    HW2 3930   2.277   3.204   1.456
 1011SOL     OW 3931   0.058   5.083   2.918
 1011SOL    HW1 3932   0.103   5.050   3.000
 1011SOL    HW2 3933   0.120   5.076   2.840
 1012SOL     OW 3934   5.490   0.407   2.376
 1012SOL    HW1 3935   5.461   0.453   2.460
 1012SOL    HW2 3936   5.589   0.410   2.368
 1013SOL     OW 3937   6.567   0.745   6.420
 1013SOL    HW1 3938   6.663   0.746   6.448
 1013SOL    HW2 3939   6.523   0.663   6.456
 1014SOL     OW 3940   1.739   4.897   4.796
 1014SOL    HW1 3941   1.717   4.952   4.877
 1014SOL    HW2 3942   1.703   4.942   4.714
 1015SOL     OW 3943   3.566   6.248   6.952
 1015SOL    HW1 3944   3.540   6.340   6.923
 1015SOL    HW2 3945   3.485   6.189   6.952
 1016SOL     OW 3946   5.643   4.268   1.687
 1016SOL    HW1 3947   5.662   4.366   1.673
 1016SOL    HW2 3948   5.645   4.221   1.599
 1017SOL     OW 3949   2.052   1.547   2.896
 1017SOL    HW1 3950   2.148   1.573   2.889
 1017SOL    HW2 3951   2.044   1.457   2.939
 1018SOL     OW 3952   0.455   5.250   3.317
 1018SOL    HW1 3953   0.413   5.313   3.252
 1018SOL    HW2 3954   0.383   5.198   3.363
 1019SOL     OW 3955   0.102   5.149   1.062
 1019SOL    HW1 3956   0.075   5.217   0.995
 1019SOL    HW2 3957   0.107   5.192   1.153
 1020SOL     OW 3958   6.921   6.935   0.769
 1020SOL    HW1 3959   6.997   6.926   0.704
 1020SOL    HW2 3960   6.839   6.965   0.720
 1021SOL     OW 3961   6.182   6.071   1.413
 1021SOL    HW1 3962   6.157   6.064   1.510
 1021SOL    HW2 3963   6.263   6.129   1.404
 1022SOL     OW 3964   2.674   6.493   6.354
 1022SOL    HW1 3965   2.651   6.408   6.306
 1022SOL    HW2 3966   2.726   6.471   6.437
 1023SOL     OW 3967   0.524   2.024   3.498
 1023SOL    HW1 3968   0.571   2.067   3.575
 1023SOL    HW2 3969   0.588   2.009   3.423
 1024SOL     OW 3970   1.164   2.039   5.055
 1024SOL    HW1 3971   1.217   2.029   4.971
 1024SOL    HW2 3972   1.140   2.136   5.068
 1025SOL     OW 3973   4.752   3.361   0.215
 1025SOL    HW1 3974   4.810   3.337   0.138
 1025SOL    HW2 3975   4.776   3.306   0.295
 1026SOL     OW 3976   2.736   2.786   1.307
 1026SOL    HW1 3977   2.645   2.798   1.347
 1026SOL    HW2 3978   2.802   2.843   1.356
 1027SOL     OW 3979   0.468   6.380   0.897
 1027SOL    HW1 3980   0.478   6.439   0.817
 1027SOL    HW2 3981   0.371   6.362   0.913
 1028SOL     OW 3982   0.869   6.081   2.898
 1028SOL    HW1 3983   0.967   6.064   2.892
 1028SOL    HW2 3984   0.844   6.157   2.837
 1029SOL     OW 3985   1.375   1.786   6.177
 1029SOL    HW1 3986   1.319   1.736   6.111
 1029SOL    HW2 3987   1.472   1.769   6.158
 1030SOL     OW 3988   3.263   3.711   1.448
 1030SOL    HW1 3989   3.226   3.623   1.477
 1030SOL    HW2 3990   3.197   3.756   1.387
 1031SOL     OW 3991   3.113   3.486   1.543
 1031SOL    HW1 3992   3.073   3.441   1.463
 1031SOL    HW2 3993   3.042   3.501   1.612
 1032SOL     OW 3994   2.015   1.756   6.283
 1032SOL    HW1 3995   1.974   1.708   6.205
 1032SOL    HW2 3996   2.019   1.854   6.263
 1033SOL     OW 3997   0.700   6.033   1.801
 1033SOL    HW1 3998   0.728   6.086   1.721
 1033SOL    HW2 3999   0.756   6.059   1.880
 1034SOL     OW 4000   3.105   6.847   4.980
 1034SOL    HW1 4001   3.116   6.938   4.939
 1034SOL    HW2 4002   3.195   6.808   4.998
 1035SOL     OW 4003   0.754   2.030   5.750
 1035SOL    HW1 4004   0.742   1.993   5.842
 1035SOL    HW2 4005   0.851   2.024   5.725
 1036SOL     OW 4006   4.981   1.478   1.184
 1036SOL    HW1 4007   5.069   1.432   1.191
 1036SOL    HW2 4008   4.927   1.458   1.266
 1037SOL     OW 4009   1.416   2.502   3.139
 1037SOL    HW1 4010   1.492   2.557   3.174
 1037SOL    HW2 4011   1.370   2.552   3.066
 1038SOL     OW 4012   2.960   6.968   0.096
 1038SOL    HW1 4013   2.947   0.045   0.117
 1038SOL    HW2 4014   3.057   6.946   0.099
 1039SOL     OW 4015   3.650   3.229   3.276
 1039SOL    HW1 4016   3.636   3.139   3.317
 1039SOL    HW2 4017   3.583   3.244   3.204
 1040SOL     OW 4018   4.252   0.910   3.038
 1040SOL    HW1 4019   4.201   0.885   2.955
 1040SOL    HW2 4020   4.262   1.009   3.043
 1041SOL     OW 4021   6.677   6.193   6.025
 1041SOL    HW1 4022   6.726   6.118   5.981
 1041SOL    HW2 4023   6.592   6.212   5.975
 1042SOL     OW 4024   5.219   4.832   2.222
 1042SOL    HW1 4025   5.234   4.925   2.189
 1042SOL    HW2 4026   5.214   4.770   2.145
 1043SOL     OW 4027   3.746   1.497   4.072
 1043SOL    HW1 4028   3.705   1.530   4.157
 1043SOL    HW2 4029   3.822   1.557   4.046
 1044SOL     OW 4030   5.774   5.167   1.499
 1044SOL    HW1 4031   5.687   5.159   1.452
 1044SOL    HW2 4032   5.769   5.240   1.567
 1045SOL     OW 4033   2.378   0.590   3.719
 1045SOL    HW1 4034   2.337   0.679   3.699
 1045SOL    HW2 4035   2.316   0.517   3.688
 1046SOL     OW 4036   2.973   1.257   0.894
 1046SOL    HW1 4037   2.987   1.205   0.810
 1046SOL    HW2 4038   3.039   1.228   0.963
 1047SOL     OW 4039   3.683   6.675   2.943
 1047SOL    HW1 4040   3.706   6.697   2.848
 1047SOL    HW2 4041   3.763   6.686   3.001
 1048SOL     OW 4042   1.548   6.145   2.023
 1048SOL    HW1 4043   1.480   6.082   1.984
 1048SOL    HW2 4044   1.618   6.163   1.954
 1049SOL     OW 4045   4.239   6.437   5.224
 1049SOL    HW1 4046   4.260   6.422   5.127
 1049SOL    HW2 4047   4.324   6.447   5.275
 1050SOL     OW 4048   3.123   5.415   3.587
 1050SOL    HW1 4049   3.050   5.385   3.525
 1050SOL    HW2 4050   3.190   5.468   3.536
 1051SOL     OW 4051   0.216   0.287   0.292
 1051SOL    HW1 4052   0.290   0.348   0.265
 1051SOL    HW2 4053   0.147   0.338   0.344
 1052SOL     OW 4054   3.753   0.449   6.474
 1052SOL    HW1 4055   3.756   0.350   6.458
 1052SOL    HW2 4056   3.658   0.478   6.484
 1053SOL     OW 4057   5.955   3.265   2.656
 1053SOL    HW1 4058   6.008   3.203   2.598
 1053SOL    HW2 4059   5.975   3.360   2.630
 1054SOL     OW 4060   3.182   4.523   6.990
 1054SOL    HW1 4061   3.168   4.608   0.020
 1054SOL    HW2 4062   3.268   4.529   6.939
 1055SOL     OW 4063   4.525   5.848   6.767
 1055SOL    HW1 4064   4.527   5.942   6.803
 1055SOL    HW2 4065   4.490   5.786   6.838
 1056SOL     OW 4066   2.582   4.075   6.750
 1056SOL    HW1 4067   2.581   3.989   6.802
 1056SOL    HW2 4068   2.676   4.100   6.729
 1057SOL     OW 4069   3.277   1.527   1.533
 1057SOL    HW1 4070   3.230   1.615   1.528
 1057SOL    HW2 4071   3.233   1.463   1.470
 1058SOL     OW 4072   2.383   2.394   2.711
 1058SOL    HW1 4073   2.308   2.358   2.766
 1058SOL    HW2 4074   2.450   2.439   2.771
 1059SOL     OW 4075   2.506   6.125   1.528
 1059SOL    HW1 4076   2.489   6.209   1.580
 1059SOL    HW2 4077   2.532   6.148   1.434
 1060SOL     OW 4078   6.500   6.302   5.597
 1060SOL    HW1 4079   6.592   6.334   5.574
 1060SOL    HW2 4080   6.454   6.270   5.514
 1061SOL     OW 4081   6.743   3.918   0.150
 1061SOL    HW1 4082   6.791   4.006   0.142
 1061SOL    HW2 4083   6.699   3.912   0.240
 1062SOL     OW 4084   3.584   6.326   5.629
 1062SOL    HW1 4085   3.672   6.334   5.581
 1062SOL    HW2 4086   3.521   6.271   5.574
 1063SOL     OW 4087   1.859   6.368   5.806
 1063SOL    HW1 4088   1.865   6.346   5.709
 1063SOL    HW2 4089   1.849   6.283   5.859
 1064SOL     OW 4090   1.283   4.529   0.676
 1064SOL    HW1 4091   1.377   4.544   0.648
 1064SOL    HW2 4092   1.223   4.594   0.629
 1065SOL     OW 4093   4.532   0.370   4.391
 1065SOL    HW1 4094   4.437   0.357   4.362
 1065SOL    HW2 4095   4.575   0.440   4.335
 1066SOL     OW 4096   4.753   0.142   2.058
 1066SOL    HW1 4097   4.754   0.229   2.108
 1066SOL    HW2 4098   4.754   0.066   2.122
 1067SOL     OW 4099   2.803   0.954   0.327
 1067SOL    HW1 4100   2.811   1.045   0.368
 1067SOL    HW2 4101   2.892   0.926   0.291
 1068SOL     OW 4102   6.086   3.083   1.271
 1068SOL    HW1 4103   6.150   3.150   1.233
 1068SOL    HW2 4104   5.996   3.095   1.229
 1069SOL     OW 4105   6.531   4.027   1.944
 1069SOL    HW1 4106   6.590   4.107   1.955
 1069SOL    HW2 4107   6.530   3.999   1.848
 1070SOL     OW 4108   1.044   0.628   2.159
 1070SOL    HW1 4109   0.990   0.677   2.090
 1070SOL    HW2 4110   0.996   0.544   2.185
 1071SOL     OW 4111   6.632   2.465   5.442
 1071SOL    HW1 4112   6.688   2.530   5.494
 1071SOL    HW2 4113   6.547   2.509   5.415
 1072SOL     OW 4114   2.967   1.425   2.677
 1072SOL    HW1 4115   2.903   1.355   2.709
 1072SOL    HW2 4116   3.034   1.382   2.615
 1073SOL     OW 4117   5.215   1.440   3.479
 1073SOL    HW1 4118   5.231   1.419   3.382
 1073SOL    HW2 4119   5.297   1.420   3.531
 1074SOL     OW 4120   2.918   5.067   2.115
 1074SOL    HW1 4121   2.968   4.981   2.102
 1074SOL    HW2 4122   2.821   5.047   2.124
 1075SOL     OW 4123   5.874   3.384   5.293
 1075SOL    HW1 4124   5.805   3.387   5.366
 1075SOL    HW2 4125   5.924   3.298   5.298
 1076SOL     OW 4126   2.111   3.843   5.040
 1076SOL    HW1 4127   2.189   3.905   5.030
 1076SOL    HW2 4128   2.112   3.777   4.965
 1077SOL     OW 4129   6.944   6.954   0.163
 1077SOL    HW1 4130   6.892   6.991   0.086
 1077SOL    HW2 4131   0.007   7.008   0.176
 1078SOL     OW 4132   6.689   5.712   3.922
 1078SOL    HW1 4133   6.699   5.743   3.828
 1078SOL    HW2 4134   6.772   5.734   3.974
 1079SOL     OW 4135   0.873   5.869   2.703
 1079SOL    HW1 4136   0.842   5.932   2.774
 1079SOL    HW2 4137   0.972   5.858   2.709
 1080SOL     OW 4138   1.950   4.908   6.048
 1080SOL    HW1 4139   2.047   4.919   6.067
 1080SOL    HW2 4140   1.938   4.836   5.979
 1081SOL     OW 4141   6.154   5.723   4.450
 1081SOL    HW1 4142   6.201   5.674   4.377
 1081SOL    HW2 4143   6.200   5.705   4.537
 1082SOL     OW 4144   5.409   0.014   6.367
 1082SOL    HW1 4145   5.316   6.998   6.375
 1082SOL    HW2 4146   5.442   7.019   6.274
 1083SOL     OW 4147   5.390   4.640   0.733
 1083SOL    HW1 4148   5.366   4.720   0.678
 1083SOL    HW2 4149   5.311   4.579   0.739
 1084SOL     OW 4150   0.625   0.124   6.350
 1084SOL    HW1 4151   0.694   0.083   6.290
 1084SOL    HW2 4152   0.640   0.223   6.355
 1085SOL     OW 4153   2.144   3.891   4.051
 1085SOL    HW1 4154   2.123   3.857   4.143
 1085SOL    HW2 4155   2.218   3.958   4.056
 1086SOL     OW 4156   6.111   4.764   0.468
 1086SOL    HW1 4157   6.061   4.758   0.382
 1086SOL    HW2 4158   6.203   4.801   0.451
 1087SOL     OW 4159   2.060   0.672   5.347
 1087SOL    HW1 4160   2.080   0.591   5.401
 1087SOL    HW2 4161   1.984   0.722   5.389
 1088SOL     OW 4162   6.908   4.706   3.506
 1088SOL    HW1 4163   6.962   4.744   3.431
 1088SOL    HW2 4164   6.915   4.606   3.505
 1089SOL     OW 4165   6.332   4.322   4.768
 1089SOL    HW1 4166   6.399   4.354   4.835
 1089SOL    HW2 4167   6.301   4.230   4.792
 1090SOL     OW 4168   5.097   1.596   4.500
 1090SOL    HW1 4169   5.187   1.608   4.542
 1090SOL    HW2 4170   5.058   1.685   4.476
 1091SOL     OW 4171   2.311   2.936   3.301
 1091SOL    HW1 4172   2.324   2.936   3.202
 1091SOL    HW2 4173   2.348   2.851   3.340
 1092SOL     OW 4174   0.858   4.924   0.596
 1092SOL    HW1 4175   0.819   4.948   0.685
 1092SOL    HW2 4176   0.849   5.001   0.533
 1093SOL     OW 4177   2.574   0.013   1.192
 1093SOL    HW1 4178   2.581   6.984   1.279
 1093SOL    HW2 4179   2.609   6.975   1.118
 1094SOL     OW 4180   1.391   0.422   2.995
 1094SOL    HW1 4181   1.376   0.457   2.902
 1094SOL    HW2 4182   1.402   0.499   3.058
 1095SOL     OW 4183   0.200   3.574   0.355
 1095SOL    HW1 4184   0.220   3.502   0.421
 1095SOL    HW2 4185   0.149   3.647   0.400
 1096SOL     OW 4186   3.331   5.631   1.512
 1096SOL    HW1 4187   3.404   5.689   1.549
 1096SOL    HW2 4188   3.280   5.589   1.587
 1097SOL     OW 4189   2.877   5.107   3.581
 1097SOL    HW1 4190   2.798   5.167   3.596
 1097SOL    HW2 4191   2.899   5.059   3.666
 1098SOL     OW 4192   6.592   5.065   0.223
 1098SOL    HW1 4193   6.558   5.121   0.148
 1098SOL    HW2 4194   6.547   5.090   0.308
 1099SOL     OW 4195   4.536   0.982   6.287
 1099SOL    HW1 4196   4.515   1.069   6.330
 1099SOL    HW2 4197   4.632   0.981   6.258
 1100SOL     OW 4198   3.622   1.253   4.000
 1100SOL    HW1 4199   3.661   1.327   4.054
 1100SOL    HW2 4200   3.539   1.286   3.955
 1101SOL     OW 4201   6.568   2.687   5.844
 1101SOL    HW1 4202   6.491   2.649   5.793
 1101SOL    HW2 4203   6.594   2.625   5.917
 1102SOL     OW 4204   2.575   1.015   4.420
 1102SOL    HW1 4205   2.509   1.087   4.445
 1102SOL    HW2 4206   2.532   0.925   4.431
 1103SOL     OW 4207   3.344   0.649   6.884
 1103SOL    HW1 4208   3.410   0.670   6.811
 1103SOL    HW2 4209   3.276   0.585   6.849
 1104SOL     OW 4210   0.248   3.647   3.648
 1104SOL    HW1 4211   0.257   3.588   3.568
 1104SOL    HW2 4212   0.229   3.591   3.729
 1105SOL     OW 4213   5.177   1.105   4.735
 1105SOL    HW1 4214   5.172   1.042   4.657
 1105SOL    HW2 4215   5.253   1.169   4.721
 1106SOL     OW 4216   0.235   1.863   0.681
 1106SOL    HW1 4217   0.296   1.896   0.753
 1106SOL    HW2 4218   0.284   1.860   0.594
 1107SOL     OW 4219   0.787   0.980   0.451
 1107SOL    HW1 4220   0.696   0.939   0.453
 1107SOL    HW2 4221   0.779   1.079   0.440
 1108SOL     OW 4222   2.652   6.275   4.210
 1108SOL    HW1 4223   2.668   6.223   4.126
 1108SOL    HW2 4224   2.564   6.248   4.249
 1109SOL     OW 4225   5.315   1.610   4.641
 1109SOL    HW1 4226   5.289   1.569   4.728
 1109SOL    HW2 4227   5.415   1.614   4.635
 1110SOL     OW 4228   3.498   0.869   2.367
 1110SOL    HW1 4229   3.410   0.852   2.411
 1110SOL    HW2 4230   3.542   0.782   2.346
 1111SOL     OW 4231   4.973   3.599   6.131
 1111SOL    HW1 4232   5.023   3.616   6.047
 1111SOL    HW2 4233   4.903   3.670   6.143
 1112SOL     OW 4234   5.302   0.540   2.148
 1112SOL    HW1 4235   5.240   0.550   2.069
 1112SOL    HW2 4236   5.326   0.443   2.159
 1113SOL     OW 4237   5.947   4.537   2.526
 1113SOL    HW1 4238   6.000   4.585   2.596
 1113SOL    HW2 4239   5.849   4.553   2.542
 1114SOL     OW 4240   4.537   3.279   5.507
 1114SOL    HW1 4241   4.567   3.347   5.440
 1114SOL    HW2 4242   4.601   3.279   5.584
 1115SOL     OW 4243   3.222   4.392   5.887
 1115SOL    HW1 4244   3.180   4.307   5.857
 1115SOL    HW2 4245   3.221   4.458   5.812
 1116SOL     OW 4246   4.942   0.265   6.458
 1116SOL    HW1 4247   4.876   0.340   6.452
 1116SOL    HW2 4248   5.009   0.284   6.530
 1117SOL     OW 4249   1.189   2.921   1.826
 1117SOL    HW1 4250   1.232   3.003   1.787
 1117SOL    HW2 4251   1.104   2.947   1.873
 1118SOL     OW 4252   2.853   4.839   6.829
 1118SOL    HW1 4253   2.912   4.810   6.905
 1118SOL    HW2 4254   2.865   4.937   6.813
 1119SOL     OW 4255   3.488   5.092   3.598
 1119SOL    HW1 4256   3.508   5.002   3.636
 1119SOL    HW2 4257   3.574   5.139   3.576
 1120SOL     OW 4258   6.782   5.220   0.976
 1120SOL    HW1 4259   6.847   5.155   0.937
 1120SOL    HW2 4260   6.830   5.279   1.042
 1121SOL     OW 4261   7.018   5.207   4.643
 1121SOL    HW1 4262   6.923   5.201   4.612
 1121SOL    HW2 4263   0.006   5.280   4.710
 1122SOL     OW 4264   5.588   2.478   1.709
 1122SOL    HW1 4265   5.572   2.550   1.777
 1122SOL    HW2 4266   5.537   2.395   1.736
 1123SOL     OW 4267   4.060   2.244   3.293
 1123SOL    HW1 4268   3.970   2.205   3.312
 1123SOL    HW2 4269   4.058   2.342   3.311
 1124SOL     OW 4270   2.214   3.125   4.878
 1124SOL    HW1 4271   2.288   3.089   4.935
 1124SOL    HW2 4272   2.189   3.217   4.909
 1125SOL     OW 4273   1.000   3.844   3.846
 1125SOL    HW1 4274   1.006   3.759   3.897
 1125SOL    HW2 4275   1.091   3.886   3.841
 1126SOL     OW 4276   3.635   5.085   5.373
 1126SOL    HW1 4277   3.688   5.117   5.294
 1126SOL    HW2 4278   3.678   5.118   5.457
 1127SOL     OW 4279   5.814   6.590   3.198
 1127SOL    HW1 4280   5.782   6.623   3.287
 1127SOL    HW2 4281   5.805   6.663   3.130
 1128SOL     OW 4282   6.238   1.870   3.739
 1128SOL    HW1 4283   6.244   1.783   3.691
 1128SOL    HW2 4284   6.157   1.869   3.799
 1129SOL     OW 4285   1.917   0.680   1.312
 1129SOL    HW1 4286   1.874   0.666   1.223
 1129SOL    HW2 4287   2.008   0.718   1.299
 1130SOL     OW 4288   2.105   5.570   2.976
 1130SOL    HW1 4289   2.148   5.577   2.886
 1130SOL    HW2 4290   2.169   5.529   3.041
 1131SOL     OW 4291   1.660   6.474   4.453
 1131SOL    HW1 4292   1.743   6.418   4.443
 1131SOL    HW2 4293   1.587   6.417   4.491
 1132SOL     OW 4294   3.484   1.410   2.817
 1132SOL    HW1 4295   3.433   1.473   2.875
 1132SOL    HW2 4296   3.423   1.338   2.785
 1133SOL     OW 4297   1.275   6.619   5.215
 1133SOL    HW1 4298   1.202   6.562   5.254
 1133SOL    HW2 4299   1.244   6.713   5.208
 1134SOL     OW 4300   4.688   0.466   1.377
 1134SOL    HW1 4301   4.680   0.426   1.469
 1134SOL    HW2 4302   4.630   0.547   1.371
 1135SOL     OW 4303   2.070   5.819   3.876
 1135SOL    HW1 4304   2.078   5.795   3.973
 1135SOL    HW2 4305   2.118   5.751   3.821
 1136SOL     OW 4306   2.833   5.918   1.841
 1136SOL    HW1 4307   2.857   5.894   1.747
 1136SOL    HW2 4308   2.750   5.869   1.867
 1137SOL     OW 4309   0.470   5.362   6.048
 1137SOL    HW1 4310   0.388   5.354   5.991
 1137SOL    HW2 4311   0.527   5.437   6.014
 1138SOL     OW 4312   1.997   2.953   4.845
 1138SOL    HW1 4313   2.032   2.859   4.846
 1138SOL    HW2 4314   2.074   3.017   4.841
 1139SOL     OW 4315   2.831   5.051   4.102
 1139SOL    HW1 4316   2.903   5.007   4.156
 1139SOL    HW2 4317   2.872   5.099   4.024
 1140SOL     OW 4318   1.511   1.421   1.664
 1140SOL    HW1 4319   1.430   1.445   1.610
 1140SOL    HW2 4320   1.510   1.473   1.750
 1141SOL     OW 4321   6.270   4.327   6.351
 1141SOL    HW1 4322   6.322   4.281   6.424
 1141SOL    HW2 4323   6.253   4.262   6.277
 1142SOL     OW 4324   2.688   0.110   2.803
 1142SOL    HW1 4325   2.721   0.018   2.783
 1142SOL    HW2 4326   2.590   0.108   2.819
 1143SOL     OW 4327   0.998   3.615   1.856
 1143SOL    HW1 4328   0.953   3.623   1.767
 1143SOL    HW2 4329   1.012   3.519   1.878
 1144SOL     OW 4330   5.452   4.445   2.135
 1144SOL    HW1 4331   5.543   4.439   2.177
 1144SOL    HW2 4332   5.384   4.462   2.205
 1145SOL     OW 4333   0.539   1.544   0.307
 1145SOL    HW1 4334   0.532   1.450   0.273
 1145SOL    HW2 4335   0.542   1.543   0.406
 1146SOL     OW 4336   0.732   1.222   1.306
 1146SOL    HW1 4337   0.671   1.301   1.316
 1146SOL    HW2 4338   0.692   1.143   1.352
 1147SOL     OW 4339   3.250   6.703   0.794
 1147SOL    HW1 4340   3.188   6.752   0.855
 1147SOL    HW2 4341   3.298   6.769   0.736
 1148SOL     OW 4342   3.695   5.767   2.582
 1148SOL    HW1 4343   3.656   5.786   2.491
 1148SOL    HW2 4344   3.626   5.725   2.640
 1149SOL     OW 4345   4.989   2.207   1.496
 1149SOL    HW1 4346   5.073   2.243   1.536
 1149SOL    HW2 4347   4.911   2.230   1.555
 1150SOL     OW 4348   1.598   4.252   0.019
 1150SOL    HW1 4349   1.518   4.301   7.006
 1150SOL    HW2 4350   1.668   4.248   6.968
 1151SOL     OW 4351   6.444   5.471   3.812
 1151SOL    HW1 4352   6.449   5.571   3.818
 1151SOL    HW2 4353   6.362   5.445   3.760
 1152SOL     OW 4354   4.825   6.856   6.661
 1152SOL    HW1 4355   4.911   6.846   6.712
 1152SOL    HW2 4356   4.809   6.953   6.641
 1153SOL     OW 4357   6.318   0.524   1.346
 1153SOL    HW1 4358   6.351   0.562   1.432
 1153SOL    HW2 4359   6.382   0.454   1.314
 1154SOL     OW 4360   1.737   3.017   2.032
 1154SOL    HW1 4361   1.748   3.033   1.934
 1154SOL    HW2 4362   1.744   3.105   2.081
 1155SOL     OW 4363   2.478   6.551   4.765
 1155SOL    HW1 4364   2.557   6.519   4.713
 1155SOL    HW2 4365   2.454   6.484   4.834
 1156SOL     OW 4366   4.045   1.936   4.402
 1156SOL    HW1 4367   3.983   1.901   4.473
 1156SOL    HW2 4368   4.139   1.926   4.433
 1157SOL     OW 4369   3.589   0.808   5.672
 1157SOL    HW1 4370   3.685   0.806   5.699
 1157SOL    HW2 4371   3.580   0.847   5.580
 1158SOL     OW 4372   5.966   6.419   3.060
 1158SOL    HW1 4373   5.914   6.412   2.974
 1158SOL    HW2 4374   5.924   6.488   3.118
 1159SOL     OW 4375   6.367   6.281   2.427
 1159SOL    HW1 4376   6.427   6.310   2.502
 1159SOL    HW2 4377   6.421   6.236   2.356
 1160SOL     OW 4378   4.631   0.613   0.509
 1160SOL    HW1 4379   4.701   0.684   0.520
 1160SOL    HW2 4380   4.609   0.602   0.412
 1161SOL     OW 4381   0.739   5.345   6.659
 1161SOL    HW1 4382   0.666   5.408   6.630
 1161SOL    HW2 4383   0.803   5.394   6.717
 1162SOL     OW 4384   1.981   3.016   5.129
 1162SOL    HW1 4385   1.978   3.026   5.030
 1162SOL    HW2 4386   2.055   3.071   5.166
 1163SOL     OW 4387   6.024   4.019   1.960
 1163SOL    HW1 4388   6.098   4.079   1.928
 1163SOL    HW2 4389   5.960   4.002   1.885
 1164SOL     OW 4390   4.798   1.784   4.479
 1164SOL    HW1 4391   4.748   1.794   4.392
 1164SOL    HW2 4392   4.890   1.822   4.469
 1165SOL     OW 4393   3.743   6.131   3.501
 1165SOL    HW1 4394   3.743   6.168   3.593
 1165SOL    HW2 4395   3.670   6.062   3.493
 1166SOL     OW 4396   2.451   6.086   6.592
 1166SOL    HW1 4397   2.357   6.112   6.615
 1166SOL    HW2 4398   2.468   6.107   6.495
 1167SOL     OW 4399   5.376   4.716   2.430
 1167SOL    HW1 4400   5.347   4.770   2.509
 1167SOL    HW2 4401   5.334   4.755   2.347
 1168SOL     OW 4402   6.145   2.434   3.074
 1168SOL    HW1 4403   6.163   2.358   3.010
 1168SOL    HW2 4404   6.071   2.408   3.136
 1169SOL     OW 4405   5.600   0.433   4.724
 1169SOL    HW1 4406   5.531   0.432   4.796
 1169SOL    HW2 4407   5.689   0.411   4.763
 1170SOL     OW 4408   4.645   0.083   3.646
 1170SOL    HW1 4409   4.577   0.152   3.621
 1170SOL    HW2 4410   4.737   0.123   3.641
 1171SOL     OW 4411   1.410   0.567   1.642
 1171SOL    HW1 4412   1.379   0.662   1.642
 1171SOL    HW2 4413   1.479   0.554   1.570
 1172SOL     OW 4414   6.775   3.555   6.556
 1172SOL    HW1 4415   6.844   3.483   6.568
 1172SOL    HW2 4416   6.806   3.621   6.489
 1173SOL     OW 4417   3.150   1.696   1.164
 1173SOL    HW1 4418   3.101   1.650   1.090
 1173SOL    HW2 4419   3.222   1.637   1.198
 1174SOL     OW 4420   3.694   3.830   1.175
 1174SOL    HW1 4421   3.608   3.876   1.198
 1174SOL    HW2 4422   3.735   3.793   1.259
 1175SOL     OW 4423   3.474   3.164   4.864
 1175SOL    HW1 4424   3.548   3.227   4.837
 1175SOL    HW2 4425   3.442   3.116   4.783
 1176SOL     OW 4426   5.336   4.004   6.285
 1176SOL    HW1 4427   5.323   4.102   6.303
 1176SOL    HW2 4428   5.302   3.982   6.194
 1177SOL     OW 4429   6.563   2.547   4.698
 1177SOL    HW1 4430   6.580   2.522   4.793
 1177SOL    HW2 4431   6.580   2.645   4.685
 1178SOL     OW 4432   2.897   4.512   0.194
 1178SOL    HW1 4433   2.985   4.555   0.175
 1178SOL    HW2 4434   2.881   4.438   0.129
 1179SOL     OW 4435   2.596   4.938   0.501
 1179SOL    HW1 4436   2.603   5.033   0.533
 1179SOL    HW2 4437   2.678   4.915   0.447
 1180SOL     OW 4438   2.740   5.444   0.694
 1180SOL    HW1 4439   2.782   5.505   0.627
 1180SOL    HW2 4440   2.809   5.417   0.761
 1181SOL     OW 4441   0.251   5.622   6.408
 1181SOL    HW1 4442   0.217   5.536   6.368
 1181SOL    HW2 4443   0.187   5.696   6.385
 1182SOL     OW 4444   3.887   5.207   2.738
 1182SOL    HW1 4445   3.960   5.274   2.750
 1182SOL    HW2 4446   3.807   5.252   2.697
 1183SOL     OW 4447   1.996   3.937   6.435
 1183SOL    HW1 4448   1.942   3.935   6.351
 1183SOL    HW2 4449   2.065   3.865   6.432
 1184SOL     OW 4450   1.668   0.253   4.969
 1184SOL    HW1 4451   1.674   0.350   4.996
 1184SOL    HW2 4452   1.666   0.247   4.870
 1185SOL     OW 4453   6.907   1.052   6.796
 1185SOL    HW1 4454   6.959   1.065   6.712
 1185SOL    HW2 4455   6.850   1.133   6.814
 1186SOL     OW 4456   4.765   5.983   4.434
 1186SOL    HW1 4457   4.756   6.066   4.380
 1186SOL    HW2 4458   4.708   5.989   4.516
 1187SOL     OW 4459   6.543   6.972   5.707
 1187SOL    HW1 4460   6.504   6.886   5.674
 1187SOL    HW2 4461   6.626   6.954   5.759
 1188SOL     OW 4462   2.945   6.484   4.984
 1188SOL    HW1 4463   2.979   6.391   4.974
 1188SOL    HW2 4464   3.022   6.548   4.981
 1189SOL     OW 4465   6.343   3.487   3.031
 1189SOL    HW1 4466   6.290   3.409   3.062
 1189SOL    HW2 4467   6.371   3.542   3.109
 1190SOL     OW 4468   2.194   6.291   2.934
 1190SOL    HW1 4469   2.197   6.289   3.033
 1190SOL    HW2 4470   2.107   6.252   2.902
 1191SOL     OW 4471   4.298   5.454   3.291
 1191SOL    HW1 4472   4.272   5.514   3.215
 1191SOL    HW2 4473   4.305   5.360   3.258
 1192SOL     OW 4474   4.338   5.717   2.671
 1192SOL    HW1 4475   4.265   5.768   2.717
 1192SOL    HW2 4476   4.401   5.679   2.739
 1193SOL     OW 4477   6.056   5.110   4.271
 1193SOL    HW1 4478   6.083   5.063   4.187
 1193SOL    HW2 4479   6.126   5.178   4.295
 1194SOL     OW 4480   5.336   0.573   1.481
 1194SOL    HW1 4481   5.292   0.542   1.397
 1194SOL    HW2 4482   5.266   0.584   1.552
 1195SOL     OW 4483   6.077   3.791   2.084
 1195SOL    HW1 4484   6.177   3.780   2.083
 1195SOL    HW2 4485   6.053   3.877   2.039
 1196SOL     OW 4486   6.537   6.355   3.821
 1196SOL    HW1 4487   6.615   6.293   3.829
 1196SOL    HW2 4488   6.558   6.441   3.866
 1197SOL     OW 4489   3.594   0.158   0.108
 1197SOL    HW1 4490   3.635   0.190   0.022
 1197SOL    HW2 4491   3.631   0.068   0.131
 1198SOL     OW 4492   1.567   2.055   0.859
 1198SOL    HW1 4493   1.643   2.120   0.854
 1198SOL    HW2 4494   1.544   2.025   0.767
 1199SOL     OW 4495   5.042   5.102   1.322
 1199SOL    HW1 4496   5.128   5.140   1.290
 1199SOL    HW2 4497   5.002   5.045   1.250
 1200SOL     OW 4498   3.073   3.380   2.712
 1200SOL    HW1 4499   3.137   3.343   2.645
 1200SOL    HW2 4500   3.033   3.465   2.677
 1201SOL     OW 4501   1.240   1.420   4.970
 1201SOL    HW1 4502   1.214   1.415   4.874
 1201SOL    HW2 4503   1.229   1.330   5.012
 1202SOL     OW 4504   0.820   5.076   6.672
 1202SOL    HW1 4505   0.846   5.099   6.766
 1202SOL    HW2 4506   0.792   5.160   6.624
 1203SOL     OW 4507   4.708   6.143   5.852
 1203SOL    HW1 4508   4.666   6.052   5.853
 1203SOL    HW2 4509   4.696   6.186   5.941
 1204SOL     OW 4510   2.477   0.857   1.844
 1204SOL    HW1 4511   2.391   0.827   1.804
 1204SOL    HW2 4512   2.550   0.793   1.819
 1205SOL     OW 4513   5.187   4.050   1.579
 1205SOL    HW1 4514   5.092   4.057   1.548
 1205SOL    HW2 4515   5.249   4.061   1.501
 1206SOL     OW 4516   3.028   3.452   4.623
 1206SOL    HW1 4517   2.997   3.535   4.669
 1206SOL    HW2 4518   3.123   3.432   4.649
 1207SOL     OW 4519   2.384   6.654   1.557
 1207SOL    HW1 4520   2.426   6.638   1.646
 1207SOL    HW2 4521   2.317   6.582   1.538
 1208SOL     OW 4522   3.693   3.659   0.735
 1208SOL    HW1 4523   3.657   3.582   0.682
 1208SOL    HW2 4524   3.781   3.633   0.774
 1209SOL     OW 4525   3.797   0.290   5.568
 1209SOL    HW1 4526   3.848   0.230   5.629
 1209SOL    HW2 4527   3.860   0.336   5.506
 1210SOL     OW 4528   2.975   0.377   3.171
 1210SOL    HW1 4529   2.974   0.278   3.189
 1210SOL    HW2 4530   3.067   0.412   3.186
 1211SOL     OW 4531   0.721   3.864   1.231
 1211SOL    HW1 4532   0.720   3.786   1.170
 1211SOL    HW2 4533   0.707   3.948   1.179
 1212SOL     OW 4534   0.349   0.215   6.843
 1212SOL    HW1 4535   0.418   0.193   6.774
 1212SOL    HW2 4536   0.383   0.186   6.933
 1213SOL     OW 4537   5.712   2.759   0.782
 1213SOL    HW1 4538   5.770   2.718   0.712
 1213SOL    HW2 4539   5.769   2.806   0.849
 1214SOL     OW 4540   6.750   2.004   1.154
 1214SOL    HW1 4541   6.848   2.007   1.175
 1214SOL    HW2 4542   6.723   1.910   1.138
 1215SOL     OW 4543   1.398   4.958   4.612
 1215SOL    HW1 4544   1.482   5.010   4.601
 1215SOL    HW2 4545   1.381   4.903   4.530
 1216SOL     OW 4546   4.554   0.249   6.587
 1216SOL    HW1 4547   4.491   0.196   6.531
 1216SOL    HW2 4548   4.502   0.307   6.650
 1217SOL     OW 4549   2.322   4.640   0.583
 1217SOL    HW1 4550   2.347   4.545   0.600
 1217SOL    HW2 4551   2.365   4.700   0.650
 1218SOL     OW 4552   1.292   4.733   4.060
 1218SOL    HW1 4553   1.353   4.672   4.111
 1218SOL    HW2 4554   1.343   4.813   4.030
 1219SOL     OW 4555   4.471   6.456   1.780
 1219SOL    HW1 4556   4.469   6.356   1.785
 1219SOL    HW2 4557   4.431   6.486   1.693
 1220SOL     OW 4558   1.146   5.042   3.146
 1220SOL    HW1 4559   1.110   5.119   3.093
 1220SOL    HW2 4560   1.126   5.055   3.243
 1221SOL     OW 4561   6.043   2.833   5.545
 1221SOL    HW1 4562   6.125   2.885   5.518
 1221SOL    HW2 4563   5.985   2.891   5.603
 1222SOL     OW 4564   6.318   6.365   6.709
 1222SOL    HW1 4565   6.390   6.382   6.776
 1222SOL    HW2 4566   6.333   6.421   6.628
 1223SOL     OW 4567   3.424   0.158   0.771
 1223SOL    HW1 4568   3.401   0.255   0.760
 1223SOL    HW2 4569   3.462   0.143   0.863
 1224SOL     OW 4570   2.179   0.696   0.839
 1224SOL    HW1 4571   2.150   0.613   0.886
 1224SOL    HW2 4572   2.171   0.774   0.901
 1225SOL     OW 4573   3.542   3.951   6.299
 1225SOL    HW1 4574   3.532   4.045   6.332
 1225SOL    HW2 4575   3.462   3.926   6.244
 1226SOL     OW 4576   2.171   5.164   1.450
 1226SOL    HW1 4577   2.111   5.095   1.408
 1226SOL    HW2 4578   2.178   5.146   1.548
 1227SOL     OW 4579   6.975   3.775   6.721
 1227SOL    HW1 4580   6.905   3.838   6.754
 1227SOL    HW2 4581   0.040   3.825   6.706
 1228SOL     OW 4582   3.584   2.565   6.216
 1228SOL    HW1 4583   3.667   2.538   6.266
 1228SOL    HW2 4584   3.572   2.664   6.224
 1229SOL     OW 4585   4.228   4.426   6.641
 1229SOL    HW1 4586   4.155   4.424   6.573
 1229SOL    HW2 4587   4.284   4.508   6.627
 1230SOL     OW 4588   4.300   6.537   3.537
 1230SOL    HW1 4589   4.320   6.479   3.458
 1230SOL    HW2 4590   4.250   6.618   3.508
 1231SOL     OW 4591   2.127   3.338   5.034
 1231SOL    HW1 4592   2.041   3.377   5.068
 1231SOL    HW2 4593   2.171   3.286   5.107
 1232SOL     OW 4594   1.478   2.499   5.411
 1232SOL    HW1 4595   1.404   2.470   5.471
 1232SOL    HW2 4596   1.467   2.457   5.321
 1233SOL     OW 4597   0.777   2.978   5.676
 1233SOL    HW1 4598   0.720   2.999   5.755
 1233SOL    HW2 4599   0.736   2.903   5.624
 1234SOL     OW 4600   6.065   4.355   4.694
 1234SOL    HW1 4601   6.159   4.333   4.721
 1234SOL    HW2 4602   6.064   4.446   4.652
 1235SOL     OW 4603   6.368   5.975   3.428
 1235SOL    HW1 4604   6.442   5.937   3.372
 1235SOL    HW2 4605   6.346   5.911   3.502
 1236SOL     OW 4606   5.684   0.709   6.925
 1236SOL    HW1 4607   5.713   0.780   6.862
 1236SOL    HW2 4608   5.758   0.643   6.938
 1237SOL     OW 4609   2.859   4.445   6.797
 1237SOL    HW1 4610   2.837   4.402   6.885
 1237SOL    HW2 4611   2.796   4.520   6.780
 1238SOL     OW 4612   2.035   1.685   0.751
 1238SOL    HW1 4613   1.991   1.772   0.772
 1238SOL    HW2 4614   1.965   1.620   0.720
 1239SOL     OW 4615   6.798   6.139   6.788
 1239SOL    HW1 4616   6.750   6.067   6.737
 1239SOL    HW2 4617   6.815   6.217   6.727
 1240SOL     OW 4618   5.123   5.801   1.924
 1240SOL    HW1 4619   5.039   5.847   1.895
 1240SOL    HW2 4620   5.101   5.712   1.963
 1241SOL     OW 4621   6.633   3.852   4.427
 1241SOL    HW1 4622   6.643   3.779   4.360
 1241SOL    HW2 4623   6.677   3.825   4.513
 1242SOL     OW 4624   1.840   3.677   0.646
 1242SOL    HW1 4625   1.754   3.685   0.697
 1242SOL    HW2 4626   1.845   3.748   0.577
 1243SOL     OW 4627   2.141   5.251   5.806
 1243SOL    HW1 4628   2.061   5.196   5.831
 1243SOL    HW2 4629   2.145   5.261   5.707
 1244SOL     OW 4630   0.532   0.987   3.414
 1244SOL    HW1 4631   0.618   1.017   3.454
 1244SOL    HW2 4632   0.528   0.887   3.413
 1245SOL     OW 4633   3.107   3.698   0.127
 1245SOL    HW1 4634   3.107   3.605   0.165
 1245SOL    HW2 4635   3.034   3.706   0.060
 1246SOL     OW 4636   2.009   6.504   1.766
 1246SOL    HW1 4637   2.069   6.491   1.687
 1246SOL    HW2 4638   1.915   6.515   1.735
 1247SOL     OW 4639   2.355   6.533   5.835
 1247SOL    HW1 4640   2.343   6.632   5.845
 1247SOL    HW2 4641   2.386   6.495   5.922
 1248SOL     OW 4642   1.942   5.543   3.206
 1248SOL    HW1 4643   1.895   5.620   3.162
 1248SOL    HW2 4644   2.019   5.515   3.149
 1249SOL     OW 4645   5.776   3.514   3.345
 1249SOL    HW1 4646   5.697   3.467   3.384
 1249SOL    HW2 4647   5.834   3.548   3.419
 1250SOL     OW 4648   1.010   4.938   3.750
 1250SOL    HW1 4649   0.934   4.877   3.729
 1250SOL    HW2 4650   1.091   4.910   3.699
 1251SOL     OW 4651   3.699   0.715   4.715
 1251SOL    HW1 4652   3.631   0.698   4.644
 1251SOL    HW2 4653   3.762   0.786   4.685
 1252SOL     OW 4654   3.009   4.106   5.585
 1252SOL    HW1 4655   3.094   4.070   5.546
 1252SOL    HW2 4656   2.931   4.052   5.553
 1253SOL     OW 4657   4.117   5.149   2.352
 1253SOL    HW1 4658   4.101   5.093   2.434
 1253SOL    HW2 4659   4.085   5.242   2.368
 1254SOL     OW 4660   6.146   1.940   3.070
 1254SOL    HW1 4661   6.102   1.852   3.054
 1254SOL    HW2 4662   6.212   1.931   3.144
 1255SOL     OW 4663   0.083   6.839   5.924
 1255SOL    HW1 4664   0.068   6.927   5.970
 1255SOL    HW2 4665   0.058   6.765   5.987
 1256SOL     OW 4666   6.166   0.016   3.350
 1256SOL    HW1 4667   6.180   6.984   3.433
 1256SOL    HW2 4668   6.238   7.015   3.284
 1257SOL     OW 4669   6.841   0.806   3.655
 1257SOL    HW1 4670   6.920   0.774   3.603
 1257SOL    HW2 4671   6.871   0.865   3.729
 1258SOL     OW 4672   0.650   6.718   3.491
 1258SOL    HW1 4673   0.639   6.714   3.392
 1258SOL    HW2 4674   0.560   6.719   3.535
 1259SOL     OW 4675   3.923   1.842   4.951
 1259SOL    HW1 4676   3.998   1.847   5.017
 1259SOL    HW2 4677   3.938   1.908   4.877
 1260SOL     OW 4678   1.074   1.183   0.273
 1260SOL    HW1 4679   1.125   1.146   0.195
 1260SOL    HW2 4680   1.082   1.282   0.275
 1261SOL     OW 4681   0.345   5.137   0.258
 1261SOL    HW1 4682   0.320   5.072   0.186
 1261SOL    HW2 4683   0.340   5.230   0.222
 1262SOL     OW 4684   5.523   5.786   1.757
 1262SOL    HW1 4685   5.488   5.694   1.774
 1262SOL    HW2 4686   5.599   5.781   1.693
 1263SOL     OW 4687   1.396   2.260   3.900
 1263SOL    HW1 4688   1.448   2.209   3.831
 1263SOL    HW2 4689   1.350   2.337   3.856
 1264SOL     OW 4690   0.845   2.464   4.993
 1264SOL    HW1 4691   0.927   2.410   5.014
 1264SOL    HW2 4692   0.789   2.414   4.926
 1265SOL     OW 4693   6.006   6.283   5.149
 1265SOL    HW1 4694   6.033   6.364   5.096
 1265SOL    HW2 4695   5.925   6.305   5.204
 1266SOL     OW 4696   1.693   0.536   4.725
 1266SOL    HW1 4697   1.646   0.557   4.810
 1266SOL    HW2 4698   1.675   0.608   4.658
 1267SOL     OW 4699   4.539   0.179   2.428
 1267SOL    HW1 4700   4.530   0.221   2.337
 1267SOL    HW2 4701   4.633   0.151   2.442
 1268SOL     OW 4702   4.270   2.389   5.369
 1268SOL    HW1 4703   4.321   2.465   5.409
 1268SOL    HW2 4704   4.205   2.424   5.301
 1269SOL     OW 4705   6.297   2.688   4.233
 1269SOL    HW1 4706   6.393   2.715   4.242
 1269SOL    HW2 4707   6.279   2.660   4.139
 1270SOL     OW 4708   0.375   4.764   2.981
 1270SOL    HW1 4709   0.341   4.674   2.953
 1270SOL    HW2 4710   0.462   4.754   3.029
 1271SOL     OW 4711   1.290   1.481   1.545
 1271SOL    HW1 4712   1.294   1.433   1.458
 1271SOL    HW2 4713   1.238   1.426   1.611
 1272SOL     OW 4714   6.813   4.246   0.309
 1272SOL    HW1 4715   6.769   4.216   0.224
 1272SOL    HW2 4716   6.765   4.327   0.344
 1273SOL     OW 4717   1.641   4.593   5.268
 1273SOL    HW1 4718   1.594   4.517   5.224
 1273SOL    HW2 4719   1.723   4.617   5.215
 1274SOL     OW 4720   0.798   4.980   2.472
 1274SOL    HW1 4721   0.809   5.075   2.443
 1274SOL    HW2 4722   0.710   4.968   2.518
 1275SOL     OW 4723   2.989   0.679   2.894
 1275SOL    HW1 4724   2.988   0.767   2.943
 1275SOL    HW2 4725   3.041   0.612   2.947
 1276SOL     OW 4726   5.170   4.574   3.927
 1276SOL    HW1 4727   5.117   4.620   3.999
 1276SOL    HW2 4728   5.127   4.486   3.905
 1277SOL     OW 4729   0.324   5.875   0.393
 1277SOL    HW1 4730   0.366   5.911   0.310
 1277SOL    HW2 4731   0.231   5.912   0.402
 1278SOL     OW 4732   1.359   5.946   2.583
 1278SOL    HW1 4733   1.380   5.987   2.494
 1278SOL    HW2 4734   1.268   5.905   2.580
 1279SOL     OW 4735   2.560   2.063   6.699
 1279SOL    HW1 4736   2.530   1.968   6.704
 1279SOL    HW2 4737   2.497   2.115   6.641
 1280SOL     OW 4738   2.625   1.800   3.056
 1280SOL    HW1 4739   2.588   1.747   2.980
 1280SOL    HW2 4740   2.710   1.758   3.088
 1281SOL     OW 4741   4.106   5.634   4.141
 1281SOL    HW1 4742   4.092   5.616   4.044
 1281SOL    HW2 4743   4.204   5.647   4.159
 1282SOL     OW 4744   0.241   2.507   1.121
 1282SOL    HW1 4745   0.298   2.482   1.199
 1282SOL    HW2 4746   0.188   2.590   1.143
 1283SOL     OW 4747   6.913   3.096   5.188
 1283SOL    HW1 4748   7.000   3.050   5.203
 1283SOL    HW2 4749   6.921   3.157   5.108
 1284SOL     OW 4750   4.081   1.578   1.722
 1284SOL    HW1 4751   3.983   1.594   1.719
 1284SOL    HW2 4752   4.100   1.482   1.701
 1285SOL     OW 4753   3.464   1.247   4.896
 1285SOL    HW1 4754   3.507   1.158   4.880
 1285SOL    HW2 4755   3.507   1.292   4.974
 1286SOL     OW 4756   4.574   2.136   1.888
 1286SOL    HW1 4757   4.550   2.125   1.792
 1286SOL    HW2 4758   4.562   2.048   1.935
 1287SOL     OW 4759   6.700   4.500   4.935
 1287SOL    HW1 4760   6.673   4.421   4.990
 1287SOL    HW2 4761   6.656   4.583   4.970
 1288SOL     OW 4762   4.532   4.236   6.494
 1288SOL    HW1 4763   4.522   4.333   6.471
 1288SOL    HW2 4764   4.628   4.210   6.488
 1289SOL     OW 4765   6.970   0.656   1.545
 1289SOL    HW1 4766   6.895   0.596   1.571
 1289SOL    HW2 4767   7.007   0.701   1.627
 1290SOL     OW 4768   1.286   6.910   6.844
 1290SOL    HW1 4769   1.196   6.947   6.866
 1290SOL    HW2 4770   1.286   6.876   6.750
 1291SOL     OW 4771   6.335   5.292   3.250
 1291SOL    HW1 4772   6.324   5.377   3.302
 1291SOL    HW2 4773   6.245   5.256   3.224
 1292SOL     OW 4774   1.161   6.089   2.389
 1292SOL    HW1 4775   1.258   6.109   2.376
 1292SOL    HW2 4776   1.107   6.134   2.318
 1293SOL     OW 4777   3.083   1.314   6.743
 1293SOL    HW1 4778   3.049   1.297   6.836
 1293SOL    HW2 4779   3.044   1.399   6.709
 1294SOL     OW 4780   2.257   3.746   5.570
 1294SOL    HW1 4781   2.244   3.754   5.471
 1294SOL    HW2 4782   2.319   3.818   5.601
 1295SOL     OW 4783   6.569   4.064   0.618
 1295SOL    HW1 4784   6.503   4.051   0.691
 1295SOL    HW2 4785   6.526   4.111   0.541
 1296SOL     OW 4786   5.423   6.353   5.585
 1296SOL    HW1 4787   5.459   6.384   5.497
 1296SOL    HW2 4788   5.465   6.407   5.658
 1297SOL     OW 4789   0.600   0.248   2.066
 1297SOL    HW1 4790   0.523   0.260   2.003
 1297SOL    HW2 4791   0.663   0.325   2.056
 1298SOL     OW 4792   5.613   5.704   2.368
 1298SOL    HW1 4793   5.635   5.721   2.273
 1298SOL    HW2 4794   5.563   5.617   2.376
 1299SOL     OW 4795   1.800   3.300   4.473
 1299SOL    HW1 4796   1.794   3.272   4.569
 1299SOL    HW2 4797   1.719   3.269   4.424
 1300SOL     OW 4798   1.382   4.497   1.723
 1300SOL    HW1 4799   1.382   4.482   1.624
 1300SOL    HW2 4800   1.309   4.443   1.765
 1301SOL     OW 4801   1.103   0.802   1.879
 1301SOL    HW1 4802   1.070   0.859   1.955
 1301SOL    HW2 4803   1.154   0.859   1.815
 1302SOL     OW 4804   5.490   6.429   5.315
 1302SOL    HW1 4805   5.554   6.492   5.271
 1302SOL    HW2 4806   5.403   6.429   5.265
 1303SOL     OW 4807   4.353   6.796   1.375
 1303SOL    HW1 4808   4.445   6.820   1.346
 1303SOL    HW2 4809   4.286   6.856   1.331
 1304SOL     OW 4810   0.721   1.269   1.032
 1304SOL    HW1 4811   0.734   1.215   1.115
 1304SOL    HW2 4812   0.643   1.331   1.045
 1305SOL     OW 4813   5.212   4.245   0.268
 1305SOL    HW1 4814   5.278   4.217   0.337
 1305SOL    HW2 4815   5.245   4.219   0.177
 1306SOL     OW 4816   2.350   5.440   4.556
 1306SOL    HW1 4817   2.405   5.362   4.528
 1306SOL    HW2 4818   2.258   5.409   4.581
 1307SOL     OW 4819   2.236   2.476   4.119
 1307SOL    HW1 4820   2.333   2.498   4.114
 1307SOL    HW2 4821   2.186   2.530   4.051
 1308SOL     OW 4822   6.816   5.434   6.176
 1308SOL    HW1 4823   6.885   5.425   6.104
 1308SOL    HW2 4824   6.849   5.388   6.259
 1309SOL     OW 4825   5.225   4.549   6.533
 1309SOL    HW1 4826   5.252   4.584   6.444
 1309SOL    HW2 4827   5.125   4.546   6.539
 1310SOL     OW 4828   1.110   4.161   3.968
 1310SOL    HW1 4829   1.166   4.240   3.943
 1310SOL    HW2 4830   1.129   4.135   4.063
 1311SOL     OW 4831   6.700   5.760   0.420
 1311SOL    HW1 4832   6.695   5.790   0.515
 1311SOL    HW2 4833   6.621   5.703   0.398
 1312SOL     OW 4834   1.862   0.699   5.905
 1312SOL    HW1 4835   1.849   0.616   5.959
 1312SOL    HW2 4836   1.799   0.699   5.828
 1313SOL     OW 4837   6.568   5.567   3.467
 1313SOL    HW1 4838   6.620   5.500   3.519
 1313SOL    HW2 4839   6.604   5.573   3.374
 1314SOL     OW 4840   2.672   1.691   4.777
 1314SOL    HW1 4841   2.690   1.778   4.823
 1314SOL    HW2 4842   2.601   1.641   4.827
 1315SOL     OW 4843   5.904   0.836   4.787
 1315SOL    HW1 4844   5.890   0.847   4.688
 1315SOL    HW2 4845   5.818   0.855   4.835
 1316SOL     OW 4846   4.334   0.594   4.948
 1316SOL    HW1 4847   4.418   0.642   4.973
 1316SOL    HW2 4848   4.326   0.510   5.001
 1317SOL     OW 4849   2.717   2.977   5.616
 1317SOL    HW1 4850   2.718   2.929   5.528
 1317SOL    HW2 4851   2.702   3.075   5.599
 1318SOL     OW 4852   1.704   2.640   6.704
 1318SOL    HW1 4853   1.608   2.663   6.719
 1318SOL    HW2 4854   1.750   2.628   6.792
 1319SOL     OW 4855   0.053   6.433   0.785
 1319SOL    HW1 4856   6.974   6.432   0.794
 1319SOL    HW2 4857   0.080   6.373   0.710
 1320SOL     OW 4858   3.052   2.668   6.006
 1320SOL    HW1 4859   3.046   2.605   6.084
 1320SOL    HW2 4860   2.967   2.663   5.953
 1321SOL     OW 4861   5.948   2.218   6.722
 1321SOL    HW1 4862   5.955   2.317   6.714
 1321SOL    HW2 4863   6.034   2.176   6.692
 1322SOL     OW 4864   3.432   1.592   0.328
 1322SOL    HW1 4865   3.496   1.640   0.268
 1322SOL    HW2 4866   3.390   1.516   0.278
 1323SOL     OW 4867   3.798   0.237   0.431
 1323SOL    HW1 4868   3.706   0.232   0.392
 1323SOL    HW2 4869   3.798   0.298   0.510
 1324SOL     OW 4870   0.913   3.472   0.085
 1324SOL    HW1 4871   0.901   3.377   0.114
 1324SOL    HW2 4872   0.942   3.473   7.010
 1325SOL     OW 4873   3.001   5.009   6.394
 1325SOL    HW1 4874   3.075   4.964   6.444
 1325SOL    HW2 4875   2.919   5.013   6.452
 1326SOL     OW 4876   4.967   3.843   4.099
 1326SOL    HW1 4877   4.933   3.750   4.099
 1326SOL    HW2 4878   4.905   3.902   4.150
 1327SOL     OW 4879   0.158   6.606   1.029
 1327SOL    HW1 4880   0.209   6.545   1.090
 1327SOL    HW2 4881   0.113   6.552   0.958
 1328SOL     OW 4882   0.798   3.580   5.950
 1328SOL    HW1 4883   0.868   3.644   5.981
 1328SOL    HW2 4884   0.842   3.494   5.924
 1329SOL     OW 4885   0.509   3.013   3.307
 1329SOL    HW1 4886   0.501   3.035   3.405
 1329SOL    HW2 4887   0.464   2.926   3.288
 1330SOL     OW 4888   6.322   2.630   0.881
 1330SOL    HW1 4889   6.380   2.550   0.896
 1330SOL    HW2 4890   6.356   2.707   0.935
 1331SOL     OW 4891   4.479   1.635   3.062
 1331SOL    HW1 4892   4.518   1.659   3.151
 1331SOL    HW2 4893   4.407   1.700   3.038
 1332SOL     OW 4894   1.497   6.911   0.601
 1332SOL    HW1 4895   1.513   7.007   0.621
 1332SOL    HW2 4896   1.524   6.855   0.680
 1333SOL     OW 4897   3.221   4.068   2.975
 1333SOL    HW1 4898   3.195   4.144   3.034
 1333SOL    HW2 4899   3.297   4.095   2.916
 1334SOL     OW 4900   6.907   2.254   2.176
 1334SOL    HW1 4901   6.954   2.210   2.252
 1334SOL    HW2 4902   6.969   2.263   2.098
 1335SOL     OW 4903   1.545   3.662   2.254
 1335SOL    HW1 4904   1.492   3.663   2.338
 1335SOL    HW2 4905   1.592   3.573   2.245
 1336SOL     OW 4906   3.478   0.281   5.126
 1336SOL    HW1 4907   3.514   0.248   5.039
 1336SOL    HW2 4908   3.478   0.381   5.126
 1337SOL     OW 4909   6.512   1.523   3.895
 1337SOL    HW1 4910   6.504   1.534   3.796
 1337SOL    HW2 4911   6.443   1.579   3.941
 1338SOL     OW 4912   5.736   3.801   4.971
 1338SOL    HW1 4913   5.787   3.858   4.907
 1338SOL    HW2 4914   5.734   3.707   4.938
 1339SOL     OW 4915   0.347   0.453   6.995
 1339SOL    HW1 4916   0.357   0.370   6.941
 1339SOL    HW2 4917   0.297   0.522   6.941
 1340SOL     OW 4918   5.240   1.971   2.000
 1340SOL    HW1 4919   5.176   1.908   2.043
 1340SOL    HW2 4920   5.246   1.952   1.902
 1341SOL     OW 4921   4.859   6.522   6.592
 1341SOL    HW1 4922   4.952   6.486   6.604
 1341SOL    HW2 4923   4.860   6.593   6.522
 1342SOL     OW 4924   2.995   6.225   1.036
 1342SOL    HW1 4925   3.090   6.236   1.007
 1342SOL    HW2 4926   2.940   6.299   0.997
 1343SOL     OW 4927   5.531   5.501   2.724
 1343SOL    HW1 4928   5.543   5.524   2.628
 1343SOL    HW2 4929   5.535   5.585   2.779
 1344SOL     OW 4930   0.273   6.866   4.699
 1344SOL    HW1 4931   0.215   6.785   4.692
 1344SOL    HW2 4932   0.339   6.854   4.774
 1345SOL     OW 4933   0.369   5.747   1.909
 1345SOL    HW1 4934   0.432   5.818   1.941
 1345SOL    HW2 4935   0.368   5.746   1.809
 1346SOL     OW 4936   2.498   4.999   6.052
 1346SOL    HW1 4937   2.519   5.047   5.967
 1346SOL    HW2 4938   2.583   4.972   6.097
 1347SOL     OW 4939   1.501   0.300   6.743
 1347SOL    HW1 4940   1.520   0.322   6.839
 1347SOL    HW2 4941   1.405   0.276   6.733
 1348SOL     OW 4942   0.199   5.856   5.686
 1348SOL    HW1 4943   0.250   5.811   5.760
 1348SOL    HW2 4944   0.102   5.837   5.696
 1349SOL     OW 4945   5.230   3.741   4.246
 1349SOL    HW1 4946   5.160   3.771   4.180
 1349SOL    HW2 4947   5.269   3.655   4.215
 1350SOL     OW 4948   3.067   3.671   0.562
 1350SOL    HW1 4949   3.083   3.770   0.560
 1350SOL    HW2 4950   3.055   3.641   0.657
 1351SOL     OW 4951   6.717   2.852   5.168
 1351SOL    HW1 4952   6.789   2.917   5.143
 1351SOL    HW2 4953   6.655   2.839   5.091
 1352SOL     OW 4954   0.029   0.097   2.692
 1352SOL    HW1 4955   0.046   0.138   2.603
 1352SOL    HW2 4956   0.046   7.019   2.687
 1353SOL     OW 4957   0.984   1.215   0.961
 1353SOL    HW1 4958   0.885   1.201   0.971
 1353SOL    HW2 4959   1.033   1.135   0.996
 1354SOL     OW 4960   6.057   4.329   1.879
 1354SOL    HW1 4961   5.986   4.382   1.923
 1354SOL    HW2 4962   6.127   4.304   1.946
 1355SOL     OW 4963   6.263   3.604   4.760
 1355SOL    HW1 4964   6.332   3.644   4.819
 1355SOL    HW2 4965   6.274   3.505   4.758
 1356SOL     OW 4966   3.594   3.520   1.519
 1356SOL    HW1 4967   3.541   3.443   1.553
 1356SOL    HW2 4968   3.544   3.605   1.536
 1357SOL     OW 4969   6.545   2.890   5.548
 1357SOL    HW1 4970   6.465   2.840   5.581
 1357SOL    HW2 4971   6.529   2.988   5.558
 1358SOL     OW 4972   1.151   6.431   0.023
 1358SOL    HW1 4973   1.202   6.475   6.969
 1358SOL    HW2 4974   1.209   6.427   0.104
 1359SOL     OW 4975   6.294   4.158   1.915
 1359SOL    HW1 4976   6.315   4.217   1.838
 1359SOL    HW2 4977   6.374   4.102   1.938
 1360SOL     OW 4978   2.596   2.477   6.410
 1360SOL    HW1 4979   2.554   2.561   6.378
 1360SOL    HW2 4980   2.691   2.473   6.378
 1361SOL     OW 4981   6.808   4.826   4.362
 1361SOL    HW1 4982   6.837   4.772   4.441
 1361SOL    HW2 4983   6.886   4.843   4.303
 1362SOL     OW 4984   3.436   2.964   3.062
 1362SOL    HW1 4985   3.423   3.059   3.090
 1362SOL    HW2 4986   3.462   2.909   3.141
 1363SOL     OW 4987   0.540   5.491   5.207
 1363SOL    HW1 4988   0.449   5.488   5.164
 1363SOL    HW2 4989   0.532   5.522   5.301
 1364SOL     OW 4990   4.412   4.091   0.793
 1364SOL    HW1 4991   4.343   4.155   0.826
 1364SOL    HW2 4992   4.445   4.034   0.869
 1365SOL     OW 4993   0.692   3.631   6.980
 1365SOL    HW1 4994   0.677   3.622   6.882
 1365SOL    HW2 4995   0.764   3.567   7.008
 1366SOL     OW 4996   2.052   0.027   4.915
 1366SOL    HW1 4997   2.041   6.972   4.850
 1366SOL    HW2 4998   1.963   0.053   4.951
 1367SOL     OW 4999   2.537   1.148   2.672
 1367SOL    HW1 5000   2.447   1.150   2.717
 1367SOL    HW2 5001   2.524   1.143   2.573
 1368SOL     OW 5002   5.908   6.598   4.764
 1368SOL    HW1 5003   5.927   6.520   4.705
 1368SOL    HW2 5004   5.959   6.588   4.849
 1369SOL     OW 5005   1.076   0.704   3.217
 1369SOL    HW1 5006   1.044   0.775   3.154
 1369SOL    HW2 5007   1.175   0.695   3.208
 1370SOL     OW 5008   2.810   1.113   1.408
 1370SOL    HW1 5009   2.798   1.192   1.347
 1370SOL    HW2 5010   2.779   1.137   1.500
 1371SOL     OW 5011   3.562   0.651   6.074
 1371SOL    HW1 5012   3.463   0.653   6.062
 1371SOL    HW2 5013   3.605   0.714   6.010
 1372SOL     OW 5014   3.263   1.904   2.235
 1372SOL    HW1 5015   3.353   1.863   2.251
 1372SOL    HW2 5016   3.275   1.993   2.192
 1373SOL     OW 5017   1.080   6.275   0.974
 1373SOL    HW1 5018   1.037   6.220   0.903
 1373SOL    HW2 5019   1.179   6.274   0.961
 1374SOL     OW 5020   4.537   2.148   0.558
 1374SOL    HW1 5021   4.597   2.103   0.624
 1374SOL    HW2 5022   4.548   2.247   0.565
 1375SOL     OW 5023   0.582   4.260   5.950
 1375SOL    HW1 5024   0.530   4.300   6.025
 1375SOL    HW2 5025   0.567   4.161   5.947
 1376SOL     OW 5026   4.939   2.112   2.768
 1376SOL    HW1 5027   4.884   2.195   2.774
 1376SOL    HW2 5028   4.953   2.088   2.672
 1377SOL     OW 5029   6.950   5.792   4.713
 1377SOL    HW1 5030   6.912   5.820   4.801
 1377SOL    HW2 5031   0.024   5.764   4.726
 1378SOL     OW 5032   1.433   1.892   1.052
 1378SOL    HW1 5033   1.476   1.930   0.970
 1378SOL    HW2 5034   1.371   1.818   1.025
 1379SOL     OW 5035   4.106   6.459   1.904
 1379SOL    HW1 5036   4.044   6.403   1.960
 1379SOL    HW2 5037   4.140   6.404   1.828
 1380SOL     OW 5038   6.407   6.495   2.247
 1380SOL    HW1 5039   6.371   6.414   2.292
 1380SOL    HW2 5040   6.400   6.483   2.148
 1381SOL     OW 5041   5.989   1.491   1.310
 1381SOL    HW1 5042   5.941   1.500   1.223
 1381SOL    HW2 5043   5.925   1.460   1.380
 1382SOL     OW 5044   5.751   4.596   6.598
 1382SOL    HW1 5045   5.716   4.665   6.660
 1382SOL    HW2 5046   5.693   4.514   6.603
 1383SOL     OW 5047   2.667   0.628   0.336
 1383SOL    HW1 5048   2.627   0.537   0.322
 1383SOL    HW2 5049   2.740   0.643   0.270
 1384SOL     OW 5050   3.444   2.039   2.976
 1384SOL    HW1 5051   3.410   2.059   2.884
 1384SOL    HW2 5052   3.531   1.989   2.969
 1385SOL     OW 5053   6.561   3.258   2.534
 1385SOL    HW1 5054   6.624   3.218   2.601
 1385SOL    HW2 5055   6.470   3.219   2.549
 1386SOL     OW 5056   1.992   2.429   4.372
 1386SOL    HW1 5057   2.050   2.423   4.453
 1386SOL    HW2 5058   2.035   2.381   4.296
 1387SOL     OW 5059   2.288   0.512   5.108
 1387SOL    HW1 5060   2.224   0.500   5.031
 1387SOL    HW2 5061   2.285   0.607   5.139
 1388SOL     OW 5062   6.514   0.972   4.597
 1388SOL    HW1 5063   6.608   0.943   4.616
 1388SOL    HW2 5064   6.452   0.895   4.607
 1389SOL     OW 5065   6.461   0.445   4.576
 1389SOL    HW1 5066   6.516   0.403   4.648
 1389SOL    HW2 5067   6.379   0.391   4.561
 1390SOL     OW 5068   4.611   2.526   2.805
 1390SOL    HW1 5069   4.664   2.591   2.752
 1390SOL    HW2 5070   4.591   2.564   2.895
 1391SOL     OW 5071   5.389   0.862   4.954
 1391SOL    HW1 5072   5.336   0.830   4.876
 1391SOL    HW2 5073   5.348   0.825   5.038
 1392SOL     OW 5074   4.438   5.443   6.266
 1392SOL    HW1 5075   4.390   5.513   6.319
 1392SOL    HW2 5076   4.516   5.486   6.219
 1393SOL     OW 5077   5.957   0.344   6.871
 1393SOL    HW1 5078   5.998   0.341   6.780
 1393SOL    HW2 5079   5.934   0.439   6.894
 1394SOL     OW 5080   4.130   6.925   3.958
 1394SOL    HW1 5081   4.040   6.913   3.914
 1394SOL    HW2 5082   4.201   6.921   3.888
 1395SOL     OW 5083   0.929   5.220   1.984
 1395SOL    HW1 5084   1.017   5.267   1.992
 1395SOL    HW2 5085   0.915   5.192   1.889
 1396SOL     OW 5086   1.946   1.810   3.755
 1396SOL    HW1 5087   1.915   1.746   3.685
 1396SOL    HW2 5088   2.028   1.857   3.724
 1397SOL     OW 5089   0.240   5.286   4.945
 1397SOL    HW1 5090   0.224   5.208   5.006
 1397SOL    HW2 5091   0.153   5.316   4.906
 1398SOL     OW 5092   0.654   0.282   0.403
 1398SOL    HW1 5093   0.577   0.251   0.458
 1398SOL    HW2 5094   0.642   0.379   0.381
 1399SOL     OW 5095   4.514   0.270   0.591
 1399SOL    HW1 5096   4.605   0.309   0.577
 1399SOL    HW2 5097   4.484   0.224   0.508
 1400SOL     OW 5098   6.910   0.255   4.799
 1400SOL    HW1 5099   6.942   0.204   4.879
 1400SOL    HW2 5100   6.895   0.350   4.824
 1401SOL     OW 5101   5.717   0.118   3.516
 1401SOL    HW1 5102   5.759   0.209   3.519
 1401SOL    HW2 5103   5.763   0.063   3.446
 1402SOL     OW 5104   6.967   4.731   2.266
 1402SOL    HW1 5105   0.009   4.673   2.213
 1402SOL    HW2 5106   6.927   4.800   2.206
 1403SOL     OW 5107   3.460   3.293   6.513
 1403SOL    HW1 5108   3.383   3.241   6.549
 1403SOL    HW2 5109   3.471   3.377   6.566
 1404SOL     OW 5110   4.057   6.800   0.463
 1404SOL    HW1 5111   4.015   6.889   0.446
 1404SOL    HW2 5112   4.110   6.803   0.547
 1405SOL     OW 5113   1.383   3.777   1.353
 1405SOL    HW1 5114   1.388   3.765   1.452
 1405SOL    HW2 5115   1.299   3.827   1.329
 1406SOL     OW 5116   2.410   3.157   0.670
 1406SOL    HW1 5117   2.315   3.133   0.652
 1406SOL    HW2 5118   2.431   3.139   0.766
 1407SOL     OW 5119   0.309   3.436   1.406
 1407SOL    HW1 5120   0.390   3.494   1.404
 1407SOL    HW2 5121   0.326   3.352   1.354
 1408SOL     OW 5122   5.826   6.616   1.239
 1408SOL    HW1 5123   5.821   6.678   1.317
 1408SOL    HW2 5124   5.736   6.610   1.196
 1409SOL     OW 5125   6.607   1.712   5.906
 1409SOL    HW1 5126   6.535   1.644   5.922
 1409SOL    HW2 5127   6.617   1.728   5.808
 1410SOL     OW 5128   4.139   0.688   6.002
 1410SOL    HW1 5129   4.124   0.657   5.908
 1410SOL    HW2 5130   4.236   0.680   6.025
 1411SOL     OW 5131   3.778   5.408   0.175
 1411SOL    HW1 5132   3.728   5.396   0.089
 1411SOL    HW2 5133   3.761   5.500   0.211
 1412SOL     OW 5134   2.111   3.193   0.119
 1412SOL    HW1 5135   2.208   3.181   0.098
 1412SOL    HW2 5136   2.078   3.279   0.080
 1413SOL     OW 5137   1.174   1.447   4.712
 1413SOL    HW1 5138   1.246   1.506   4.676
 1413SOL    HW2 5139   1.085   1.484   4.686
 1414SOL     OW 5140   0.868   4.064   2.745
 1414SOL    HW1 5141   0.952   4.035   2.790
 1414SOL    HW2 5142   0.890   4.113   2.661
 1415SOL     OW 5143   2.213   1.849   4.479
 1415SOL    HW1 5144   2.216   1.945   4.452
 1415SOL    HW2 5145   2.141   1.802   4.429
 1416SOL     OW 5146   4.518   0.766   4.592
 1416SOL    HW1 5147   4.588   0.805   4.652
 1416SOL    HW2 5148   4.449   0.835   4.571
 1417SOL     OW 5149   3.698   3.386   5.740
 1417SOL    HW1 5150   3.611   3.342   5.718
 1417SOL    HW2 5151   3.708   3.393   5.839
 1418SOL     OW 5152   4.071   4.299   5.717
 1418SOL    HW1 5153   4.102   4.204   5.729
 1418SOL    HW2 5154   4.141   4.350   5.668
 1419SOL     OW 5155   1.696   5.275   2.575
 1419SOL    HW1 5156   1.606   5.317   2.569
 1419SOL    HW2 5157   1.729   5.252   2.484
 1420SOL     OW 5158   2.658   6.731   2.948
 1420SOL    HW1 5159   2.630   6.789   3.024
 1420SOL    HW2 5160   2.745   6.687   2.970
 1421SOL     OW 5161   1.430   4.803   5.615
 1421SOL    HW1 5162   1.427   4.764   5.523
 1421SOL    HW2 5163   1.349   4.773   5.666
 1422SOL     OW 5164   2.336   3.317   5.981
 1422SOL    HW1 5165   2.403   3.244   5.965
 1422SOL    HW2 5166   2.383   3.405   5.981
 1423SOL     OW 5167   4.456   0.510   4.635
 1423SOL    HW1 5168   4.450   0.456   4.551
 1423SOL    HW2 5169   4.478   0.605   4.613
 1424SOL     OW 5170   6.117   3.132   0.297
 1424SOL    HW1 5171   6.188   3.172   0.355
 1424SOL    HW2 5172   6.159   3.077   0.226
 1425SOL     OW 5173   4.935   6.911   3.581
 1425SOL    HW1 5174   4.913   7.009   3.581
 1425SOL    HW2 5175   5.034   6.900   3.572
 1426SOL     OW 5176   3.287   1.964   0.213
 1426SOL    HW1 5177   3.188   1.954   0.220
 1426SOL    HW2 5178   3.326   1.975   0.305
 1427SOL     OW 5179   1.958   0.226   3.851
 1427SOL    HW1 5180   1.950   0.127   3.862
 1427SOL    HW2 5181   2.049   0.249   3.816
 1428SOL     OW 5182   0.777   3.052   3.854
 1428SOL    HW1 5183   0.712   3.126   3.874
 1428SOL    HW2 5184   0.870   3.083   3.874
 1429SOL     OW 5185   6.485   1.248   1.529
 1429SOL    HW1 5186   6.486   1.156   1.568
 1429SOL    HW2 5187   6.439   1.246   1.440
 1430SOL     OW 5188   2.086   3.617   4.188
 1430SOL    HW1 5189   2.121   3.626   4.095
 1430SOL    HW2 5190   2.161   3.595   4.250
 1431SOL     OW 5191   2.766   1.225   6.594
 1431SOL    HW1 5192   2.703   1.263   6.526
 1431SOL    HW2 5193   2.804   1.139   6.559
 1432SOL     OW 5194   3.367   0.676   2.095
 1432SOL    HW1 5195   3.330   0.769   2.089
 1432SOL    HW2 5196   3.443   0.675   2.159
 1433SOL     OW 5197   2.598   0.178   3.756
 1433SOL    HW1 5198   2.541   0.186   3.837
 1433SOL    HW2 5199   2.583   0.257   3.697
 1434SOL     OW 5200   0.140   3.214   0.729
 1434SOL    HW1 5201   0.194   3.282   0.682
 1434SOL    HW2 5202   0.043   3.232   0.715
 1435SOL     OW 5203   2.014   6.824   4.148
 1435SOL    HW1 5204   1.930   6.788   4.188
 1435SOL    HW2 5205   2.044   6.764   4.073
 1436SOL     OW 5206   5.227   1.269   6.896
 1436SOL    HW1 5207   5.187   1.361   6.903
 1436SOL    HW2 5208   5.171   1.205   6.949
 1437SOL     OW 5209   3.866   0.219   6.258
 1437SOL    HW1 5210   3.822   0.276   6.188
 1437SOL    HW2 5211   3.799   0.193   6.327
 1438SOL     OW 5212   2.695   0.699   1.841
 1438SOL    HW1 5213   2.653   0.611   1.862
 1438SOL    HW2 5214   2.793   0.688   1.828
 1439SOL     OW 5215   0.066   4.392   0.051
 1439SOL    HW1 5216   0.164   4.373   0.051
 1439SOL    HW2 5217   0.016   4.306   0.059
 1440SOL     OW 5218   3.515   3.405   2.874
 1440SOL    HW1 5219   3.515   3.413   2.775
 1440SOL    HW2 5220   3.605   3.432   2.909
 1441SOL     OW 5221   6.597   3.212   3.724
 1441SOL    HW1 5222   6.637   3.122   3.708
 1441SOL    HW2 5223   6.529   3.206   3.797
 1442SOL     OW 5224   5.961   6.064   6.834
 1442SOL    HW1 5225   6.000   6.131   6.771
 1442SOL    HW2 5226   6.033   6.031   6.896
 1443SOL     OW 5227   1.167   2.971   3.695
 1443SOL    HW1 5228   1.093   2.904   3.693
 1443SOL    HW2 5229   1.241   2.940   3.635
 1444SOL     OW 5230   5.163   1.111   4.340
 1444SOL    HW1 5231   5.135   1.194   4.390
 1444SOL    HW2 5232   5.081   1.058   4.316
 1445SOL     OW 5233   5.914   2.443   1.027
 1445SOL    HW1 5234   5.964   2.484   1.104
 1445SOL    HW2 5235   5.967   2.367   0.990
 1446SOL     OW 5236   4.628   0.779   1.225
 1446SOL    HW1 5237   4.677   0.749   1.143
 1446SOL    HW2 5238   4.588   0.870   1.208
 1447SOL     OW 5239   5.581   1.011   5.586
 1447SOL    HW1 5240   5.639   0.966   5.518
 1447SOL    HW2 5241   5.490   0.970   5.586
 1448SOL     OW 5242   5.429   0.163   6.851
 1448SOL    HW1 5243   5.470   0.213   6.775
 1448SOL    HW2 5244   5.495   0.094   6.884
 1449SOL     OW 5245   4.790   5.590   0.849
 1449SOL    HW1 5246   4.836   5.647   0.917
 1449SOL    HW2 5247   4.745   5.649   0.782
 1450SOL     OW 5248   5.503   2.635   3.764
 1450SOL    HW1 5249   5.486   2.541   3.793
 1450SOL    HW2 5250   5.592   2.664   3.799
 1451SOL     OW 5251   1.627   0.022   2.529
 1451SOL    HW1 5252   1.706   0.079   2.509
 1451SOL    HW2 5253   1.656   6.960   2.578
 1452SOL     OW 5254   4.590   0.719   5.049
 1452SOL    HW1 5255   4.544   0.707   5.137
 1452SOL    HW2 5256   4.672   0.775   5.061
 1453SOL     OW 5257   4.607   4.773   4.059
 1453SOL    HW1 5258   4.672   4.749   3.987
 1453SOL    HW2 5259   4.618   4.711   4.137
 1454SOL     OW 5260   4.300   3.908   1.342
 1454SOL    HW1 5261   4.364   3.836   1.316
 1454SOL    HW2 5262   4.347   3.996   1.340
 1455SOL     OW 5263   2.004   2.747   1.516
 1455SOL    HW1 5264   2.028   2.669   1.574
 1455SOL    HW2 5265   2.047   2.737   1.427
 1456SOL     OW 5266   6.622   5.512   4.105
 1456SOL    HW1 5267   6.631   5.579   4.032
 1456SOL    HW2 5268   6.711   5.500   4.150
 1457SOL     OW 5269   1.901   6.971   3.099
 1457SOL    HW1 5270   1.938   0.005   3.023
 1457SOL    HW2 5271   1.862   0.012   3.168
 1458SOL     OW 5272   6.343   5.331   6.793
 1458SOL    HW1 5273   6.368   5.428   6.784
 1458SOL    HW2 5274   6.354   5.285   6.704
 1459SOL     OW 5275   2.290   6.863   0.647
 1459SOL    HW1 5276   2.210   6.899   0.598
 1459SOL    HW2 5277   2.324   6.781   0.600
 1460SOL     OW 5278   0.537   6.254   0.064
 1460SOL    HW1 5279   0.457   6.309   0.039
 1460SOL    HW2 5280   0.614   6.315   0.084
 1461SOL     OW 5281   4.989   4.916   1.578
 1461SOL    HW1 5282   4.896   4.910   1.544
 1461SOL    HW2 5283   5.025   5.008   1.561
 1462SOL     OW 5284   5.280   0.406   6.095
 1462SOL    HW1 5285   5.256   0.351   6.014
 1462SOL    HW2 5286   5.327   0.489   6.065
 1463SOL     OW 5287   0.504   0.997   5.233
 1463SOL    HW1 5288   0.552   0.928   5.180
 1463SOL    HW2 5289   0.513   1.086   5.189
 1464SOL     OW 5290   0.233   6.452   1.262
 1464SOL    HW1 5291   0.322   6.420   1.227
 1464SOL    HW2 5292   0.240   6.471   1.360
 1465SOL     OW 5293   0.498   0.001   4.590
 1465SOL    HW1 5294   0.503   6.933   4.636
 1465SOL    HW2 5295   0.408   0.041   4.605
 1466SOL     OW 5296   5.822   5.379   4.079
 1466SOL    HW1 5297   5.725   5.400   4.083
 1466SOL    HW2 5298   5.841   5.322   4.000
 1467SOL     OW 5299   6.785   3.550   2.707
 1467SOL    HW1 5300   6.817   3.455   2.700
 1467SOL    HW2 5301   6.701   3.553   2.762
 1468SOL     OW 5302   5.349   6.383   2.634
 1468SOL    HW1 5303   5.362   6.299   2.582
 1468SOL    HW2 5304   5.253   6.392   2.661
 1469SOL     OW 5305   0.257   0.835   3.005
 1469SOL    HW1 5306   0.340   0.890   2.997
 1469SOL    HW2 5307   0.281   0.738   2.996
 1470SOL     OW 5308   0.234   0.881   3.424
 1470SOL    HW1 5309   0.326   0.846   3.405
 1470SOL    HW2 5310   0.235   0.935   3.507
 1471SOL     OW 5311   6.670   0.218   0.018
 1471SOL    HW1 5312   6.592   0.174   0.063
 1471SOL    HW2 5313   6.642   0.307   7.004
 1472SOL     OW 5314   4.455   0.018   5.140
 1472SOL    HW1 5315   4.371   0.001   5.088
 1472SOL    HW2 5316   4.491   0.109   5.118
 1473SOL     OW 5317   6.041   4.349   4.116
 1473SOL    HW1 5318   6.010   4.398   4.035
 1473SOL    HW2 5319   5.965   4.298   4.155
 1474SOL     OW 5320   4.838   5.072   3.248
 1474SOL    HW1 5321   4.746   5.092   3.215
 1474SOL    HW2 5322   4.894   5.155   3.243
 1475SOL     OW 5323   6.942   0.778   3.057
 1475SOL    HW1 5324   6.990   0.861   3.030
 1475SOL    HW2 5325   6.931   0.776   3.157
 1476SOL     OW 5326   6.452   2.366   1.568
 1476SOL    HW1 5327   6.487   2.274   1.587
 1476SOL    HW2 5328   6.359   2.374   1.603
 1477SOL     OW 5329   3.086   6.360   2.995
 1477SOL    HW1 5330   3.148   6.438   2.984
 1477SOL    HW2 5331   3.092   6.302   2.913
 1478SOL     OW 5332   6.606   4.521   1.848
 1478SOL    HW1 5333   6.654   4.584   1.909
 1478SOL    HW2 5334   6.536   4.571   1.796
 1479SOL     OW 5335   1.742   5.668   0.373
 1479SOL    HW1 5336   1.757   5.628   0.463
 1479SOL    HW2 5337   1.743   5.596   0.304
 1480SOL     OW 5338   2.856   0.835   7.005
 1480SOL    HW1 5339   2.860   0.743   0.022
 1480SOL    HW2 5340   2.775   0.882   0.021
 1481SOL     OW 5341   6.770   2.282   6.251
 1481SOL    HW1 5342   6.860   2.314   6.224
 1481SOL    HW2 5343   6.706   2.358   6.252
 1482SOL     OW 5344   5.769   0.657   6.488
 1482SOL    HW1 5345   5.804   0.568   6.460
 1482SOL    HW2 5346   5.694   0.684   6.427
 1483SOL     OW 5347   6.204   2.572   6.502
 1483SOL    HW1 5348   6.143   2.494   6.490
 1483SOL    HW2 5349   6.177   2.646   6.440
 1484SOL     OW 5350   6.275   6.351   2.735
 1484SOL    HW1 5351   6.190   6.353   2.684
 1484SOL    HW2 5352   6.304   6.445   2.756
 1485SOL     OW 5353   5.843   3.051   4.037
 1485SOL    HW1 5354   5.844   3.007   3.947
 1485SOL    HW2 5355   5.794   3.138   4.030
 1486SOL     OW 5356   4.733   2.301   2.643
 1486SOL    HW1 5357   4.769   2.310   2.550
 1486SOL    HW2 5358   4.678   2.381   2.665
 1487SOL     OW 5359   6.395   1.277   5.436
 1487SOL    HW1 5360   6.386   1.178   5.431
 1487SOL    HW2 5361   6.326   1.320   5.377
 1488SOL     OW 5362   3.841   1.872   2.806
 1488SOL    HW1 5363   3.834   1.863   2.707
 1488SOL    HW2 5364   3.917   1.816   2.840
 1489SOL     OW 5365   3.656   5.414   4.646
 1489SOL    HW1 5366   3.647   5.316   4.627
 1489SOL    HW2 5367   3.749   5.434   4.676
 1490SOL     OW 5368   1.893   2.649   0.479
 1490SOL    HW1 5369   1.967   2.660   0.412
 1490SOL    HW2 5370   1.929   2.606   0.561
 1491SOL     OW 5371   6.888   2.585   5.144
 1491SOL    HW1 5372   6.893   2.572   5.045
 1491SOL    HW2 5373   6.794   2.611   5.169
 1492SOL     OW 5374   5.334   2.936   2.692
 1492SOL    HW1 5375   5.425   2.974   2.705
 1492SOL    HW2 5376   5.336   2.869   2.618
 1493SOL     OW 5377   5.402   0.486   4.935
 1493SOL    HW1 5378   5.368   0.409   4.989
 1493SOL    HW2 5379   5.488   0.519   4.974
 1494SOL     OW 5380   4.930   2.974   4.889
 1494SOL    HW1 5381   4.860   2.955   4.957
 1494SOL    HW2 5382   5.016   2.929   4.917
 1495SOL     OW 5383   1.854   2.964   2.897
 1495SOL    HW1 5384   1.778   2.949   2.961
 1495SOL    HW2 5385   1.905   2.879   2.886
 1496SOL     OW 5386   0.927   1.089   2.862
 1496SOL    HW1 5387   0.848   1.101   2.803
 1496SOL    HW2 5388   0.949   1.175   2.907
 1497SOL     OW 5389   4.969   4.544   5.248
 1497SOL    HW1 5390   4.965   4.445   5.263
 1497SOL    HW2 5391   5.021   4.563   5.165
 1498SOL     OW 5392   2.424   6.083   0.511
 1498SOL    HW1 5393   2.393   6.053   0.420
 1498SOL    HW2 5394   2.516   6.048   0.529
 1499SOL     OW 5395   0.564   4.693   5.313
 1499SOL    HW1 5396   0.610   4.687   5.402
 1499SOL    HW2 5397   0.627   4.731   5.245
 1500SOL     OW 5398   4.482   6.742   5.589
 1500SOL    HW1 5399   4.419   6.794   5.533
 1500SOL    HW2 5400   4.537   6.681   5.531
 1501SOL     OW 5401   4.269   6.847   6.463
 1501SOL    HW1 5402   4.349   6.830   6.520
 1501SOL    HW2 5403   4.187   6.818   6.512
 1502SOL     OW 5404   6.339   6.098   0.321
 1502SOL    HW1 5405   6.295   6.170   0.269
 1502SOL    HW2 5406   6.434   6.124   0.339
 1503SOL     OW 5407   3.158   3.518   5.731
 1503SOL    HW1 5408   3.189   3.469   5.813
 1503SOL    HW2 5409   3.237   3.546   5.677
 1504SOL     OW 5410   2.773   5.868   4.312
 1504SOL    HW1 5411   2.867   5.837   4.296
 1504SOL    HW2 5412   2.775   5.957   4.358
 1505SOL     OW 5413   4.536   5.453   1.027
 1505SOL    HW1 5414   4.602   5.392   0.981
 1505SOL    HW2 5415   4.541   5.438   1.126
 1506SOL     OW 5416   0.601   6.274   3.031
 1506SOL    HW1 5417   0.700   6.288   3.041
 1506SOL    HW2 5418   0.555   6.362   3.027
 1507SOL     OW 5419   1.857   1.306   6.066
 1507SOL    HW1 5420   1.844   1.290   5.968
 1507SOL    HW2 5421   1.931   1.247   6.100
 1508SOL     OW 5422   4.722   0.056   0.427
 1508SOL    HW1 5423   4.766   0.129   0.376
 1508SOL    HW2 5424   4.623   0.060   0.414
 1509SOL     OW 5425   5.115   1.697   0.096
 1509SOL    HW1 5426   5.142   1.702   0.192
 1509SOL    HW2 5427   5.195   1.710   0.038
 1510SOL     OW 5428   0.492   1.452   3.819
 1510SOL    HW1 5429   0.533   1.543   3.830
 1510SOL    HW2 5430   0.538   1.404   3.745
 1511SOL     OW 5431   2.337   2.534   0.697
 1511SOL    HW1 5432   2.332   2.434   0.699
 1511SOL    HW2 5433   2.422   2.563   0.653
 1512SOL     OW 5434   6.046   0.581   2.550
 1512SOL    HW1 5435   5.981   0.648   2.587
 1512SOL    HW2 5436   6.088   0.617   2.467
 1513SOL     OW 5437   3.873   1.355   2.166
 1513SOL    HW1 5438   3.852   1.273   2.113
 1513SOL    HW2 5439   3.850   1.436   2.112
 1514SOL     OW 5440   5.264   1.721   5.431
 1514SOL    HW1 5441   5.313   1.634   5.428
 1514SOL    HW2 5442   5.285   1.768   5.517
 1515SOL     OW 5443   6.653   4.919   4.582
 1515SOL    HW1 5444   6.624   4.835   4.629
 1515SOL    HW2 5445   6.690   4.896   4.492
 1516SOL     OW 5446   0.736   1.734   1.121
 1516SOL    HW1 5447   0.780   1.782   1.197
 1516SOL    HW2 5448   0.782   1.646   1.106
 1517SOL     OW 5449   3.875   5.358   3.135
 1517SOL    HW1 5450   3.778   5.355   3.158
 1517SOL    HW2 5451   3.904   5.269   3.099
 1518SOL     OW 5452   1.099   4.952   1.344
 1518SOL    HW1 5453   1.049   4.889   1.286
 1518SOL    HW2 5454   1.049   4.965   1.430
 1519SOL     OW 5455   6.791   4.655   0.858
 1519SOL    HW1 5456   6.783   4.724   0.786
 1519SOL    HW2 5457   6.875   4.671   0.910
 1520SOL     OW 5458   1.213   3.271   3.420
 1520SOL    HW1 5459   1.190   3.368   3.431
 1520SOL    HW2 5460   1.296   3.251   3.472
 1521SOL     OW 5461   2.410   4.145   6.062
 1521SOL    HW1 5462   2.391   4.075   5.994
 1521SOL    HW2 5463   2.360   4.124   6.146
 1522SOL     OW 5464   6.623   2.385   6.695
 1522SOL    HW1 5465   6.628   2.292   6.658
 1522SOL    HW2 5466   6.658   2.386   6.789
 1523SOL     OW 5467   6.546   1.261   0.886
 1523SOL    HW1 5468   6.583   1.176   0.848
 1523SOL    HW2 5469   6.465   1.288   0.834
 1524SOL     OW 5470   6.778   1.099   2.634
 1524SOL    HW1 5471   6.835   1.018   2.647
 1524SOL    HW2 5472   6.788   1.159   2.714
 1525SOL     OW 5473   4.293   1.782   6.133
 1525SOL    HW1 5474   4.384   1.755   6.101
 1525SOL    HW2 5475   4.231   1.786   6.056
 1526SOL     OW 5476   7.019   1.886   1.585
 1526SOL    HW1 5477   6.969   1.866   1.669
 1526SOL    HW2 5478   6.975   1.841   1.508
 1527SOL     OW 5479   2.947   1.780   5.609
 1527SOL    HW1 5480   2.910   1.727   5.685
 1527SOL    HW2 5481   2.982   1.868   5.644
 1528SOL     OW 5482   5.081   6.412   3.455
 1528SOL    HW1 5483   5.155   6.360   3.414
 1528SOL    HW2 5484   4.999   6.356   3.461
 1529SOL     OW 5485   3.275   0.245   5.538
 1529SOL    HW1 5486   3.316   0.175   5.597
 1529SOL    HW2 5487   3.178   0.256   5.561
 1530SOL     OW 5488   3.628   6.743   1.609
 1530SOL    HW1 5489   3.647   6.830   1.564
 1530SOL    HW2 5490   3.640   6.753   1.707
 1531SOL     OW 5491   6.941   0.105   4.564
 1531SOL    HW1 5492   6.917   0.117   4.661
 1531SOL    HW2 5493   6.965   0.194   4.525
 1532SOL     OW 5494   3.077   2.053   5.018
 1532SOL    HW1 5495   3.119   2.134   5.058
 1532SOL    HW2 5496   3.081   1.977   5.083
 1533SOL     OW 5497   5.660   2.994   6.619
 1533SOL    HW1 5498   5.698   3.024   6.531
 1533SOL    HW2 5499   5.730   2.948   6.672
 1534SOL     OW 5500   0.449   6.712   1.315
 1534SOL    HW1 5501   0.450   6.678   1.221
 1534SOL    HW2 5502   0.538   6.697   1.357
 1535SOL     OW 5503   5.206   5.267   4.417
 1535SOL    HW1 5504   5.173   5.321   4.495
 1535SOL    HW2 5505   5.286   5.312   4.377
 1536SOL     OW 5506   2.770   5.891   3.922
 1536SOL    HW1 5507   2.698   5.926   3.982
 1536SOL    HW2 5508   2.859   5.904   3.966
 1537SOL     OW 5509   2.450   5.200   4.472
 1537SOL    HW1 5510   2.453   5.113   4.520
 1537SOL    HW2 5511   2.522   5.260   4.506
 1538SOL     OW 5512   2.467   5.077   6.457
 1538SOL    HW1 5513   2.388   5.019   6.439
 1538SOL    HW2 5514   2.551   5.023   6.447
 1539SOL     OW 5515   2.873   5.007   1.675
 1539SOL    HW1 5516   2.871   4.907   1.684
 1539SOL    HW2 5517   2.968   5.038   1.670
 1540SOL     OW 5518   0.099   6.792   4.973
 1540SOL    HW1 5519   0.051   6.875   4.943
 1540SOL    HW2 5520   0.197   6.805   4.964
 1541SOL     OW 5521   5.352   2.248   1.276
 1541SOL    HW1 5522   5.377   2.337   1.313
 1541SOL    HW2 5523   5.344   2.182   1.351
 1542SOL     OW 5524   0.872   6.410   0.803
 1542SOL    HW1 5525   0.867   6.510   0.813
 1542SOL    HW2 5526   0.925   6.372   0.878
 1543SOL     OW 5527   3.259   4.128   4.555
 1543SOL    HW1 5528   3.306   4.164   4.636
 1543SOL    HW2 5529   3.312   4.149   4.473
 1544SOL     OW 5530   3.589   3.857   2.913
 1544SOL    HW1 5531   3.672   3.907   2.886
 1544SOL    HW2 5532   3.594   3.834   3.010
 1545SOL     OW 5533   6.165   0.791   4.809
 1545SOL    HW1 5534   6.070   0.819   4.798
 1545SOL    HW2 5535   6.205   0.837   4.888
 1546SOL     OW 5536   0.506   6.402   5.870
 1546SOL    HW1 5537   0.526   6.419   5.967
 1546SOL    HW2 5538   0.523   6.306   5.848
 1547SOL     OW 5539   3.934   5.704   6.993
 1547SOL    HW1 5540   3.931   5.731   0.068
 1547SOL    HW2 5541   4.002   5.631   6.981
 1548SOL     OW 5542   5.880   4.394   4.399
 1548SOL    HW1 5543   5.957   4.425   4.455
 1548SOL    HW2 5544   5.845   4.471   4.346
 1549SOL     OW 5545   6.895   1.574   1.647
 1549SOL    HW1 5546   6.796   1.564   1.636
 1549SOL    HW2 5547   6.914   1.657   1.700
 1550SOL     OW 5548   2.707   5.586   4.320
 1550SOL    HW1 5549   2.684   5.682   4.335
 1550SOL    HW2 5550   2.789   5.580   4.264
 1551SOL     OW 5551   1.413   3.083   0.612
 1551SOL    HW1 5552   1.379   2.990   0.626
 1551SOL    HW2 5553   1.365   3.146   0.672
 1552SOL     OW 5554   0.683   0.505   0.215
 1552SOL    HW1 5555   0.762   0.567   0.214
 1552SOL    HW2 5556   0.700   0.430   0.152
 1553SOL     OW 5557   5.848   1.133   6.430
 1553SOL    HW1 5558   5.843   1.231   6.412
 1553SOL    HW2 5559   5.770   1.105   6.486
 1554SOL     OW 5560   3.470   1.579   1.120
 1554SOL    HW1 5561   3.460   1.486   1.156
 1554SOL    HW2 5562   3.436   1.583   1.027
 1555SOL     OW 5563   4.570   1.112   5.575
 1555SOL    HW1 5564   4.512   1.044   5.531
 1555SOL    HW2 5565   4.543   1.121   5.671
 1556SOL     OW 5566   3.669   1.747   0.247
 1556SOL    HW1 5567   3.668   1.844   0.221
 1556SOL    HW2 5568   3.702   1.692   0.171
 1557SOL     OW 5569   1.722   2.957   0.446
 1557SOL    HW1 5570   1.713   2.945   0.545
 1557SOL    HW2 5571   1.819   2.962   0.422
 1558SOL     OW 5572   5.709   2.736   6.334
 1558SOL    HW1 5573   5.666   2.648   6.315
 1558SOL    HW2 5574   5.678   2.804   6.267
 1559SOL     OW 5575   2.398   5.194   3.691
 1559SOL    HW1 5576   2.399   5.204   3.790
 1559SOL    HW2 5577   2.492   5.196   3.656
 1560SOL     OW 5578   3.951   1.708   1.000
 1560SOL    HW1 5579   4.020   1.748   1.061
 1560SOL    HW2 5580   3.881   1.662   1.055
 1561SOL     OW 5581   6.139   6.049   0.972
 1561SOL    HW1 5582   6.236   6.044   0.947
 1561SOL    HW2 5583   6.125   6.003   1.059
 1562SOL     OW 5584   3.658   6.528   2.183
 1562SOL    HW1 5585   3.637   6.513   2.087
 1562SOL    HW2 5586   3.605   6.465   2.240
 1563SOL     OW 5587   3.542   2.112   4.562
 1563SOL    HW1 5588   3.462   2.121   4.622
 1563SOL    HW2 5589   3.623   2.091   4.617
 1564SOL     OW 5590   1.210   2.113   3.637
 1564SOL    HW1 5591   1.286   2.088   3.578
 1564SOL    HW2 5592   1.205   2.049   3.714
 1565SOL     OW 5593   3.771   1.446   4.539
 1565SOL    HW1 5594   3.859   1.425   4.579
 1565SOL    HW2 5595   3.734   1.530   4.580
 1566SOL     OW 5596   4.889   4.857   3.440
 1566SOL    HW1 5597   4.850   4.923   3.376
 1566SOL    HW2 5598   4.933   4.783   3.390
 1567SOL     OW 5599   5.201   0.677   4.777
 1567SOL    HW1 5600   5.109   0.639   4.779
 1567SOL    HW2 5601   5.261   0.621   4.836
 1568SOL     OW 5602   2.669   5.043   1.880
 1568SOL    HW1 5603   2.706   5.066   1.971
 1568SOL    HW2 5604   2.738   5.065   1.811
 1569SOL     OW 5605   3.158   0.303   2.886
 1569SOL    HW1 5606   3.076   0.246   2.883
 1569SOL    HW2 5607   3.142   0.386   2.833
 1570SOL     OW 5608   3.210   5.923   6.138
 1570SOL    HW1 5609   3.211   5.922   6.238
 1570SOL    HW2 5610   3.304   5.927   6.104
 1571SOL     OW 5611   0.655   2.526   4.186
 1571SOL    HW1 5612   0.701   2.461   4.246
 1571SOL    HW2 5613   0.557   2.505   4.182
 1572SOL     OW 5614   2.303   5.123   2.365
 1572SOL    HW1 5615   2.359   5.070   2.429
 1572SOL    HW2 5616   2.358   5.195   2.323
 1573SOL     OW 5617   5.795   6.154   0.548
 1573SOL    HW1 5618   5.791   6.072   0.605
 1573SOL    HW2 5619   5.853   6.137   0.469
 1574SOL     OW 5620   6.549   3.858   3.601
 1574SOL    HW1 5621   6.459   3.846   3.642
 1574SOL    HW2 5622   6.571   3.778   3.545
 1575SOL     OW 5623   6.565   1.611   0.142
 1575SOL    HW1 5624   6.470   1.615   0.172
 1575SOL    HW2 5625   6.620   1.673   0.198
 1576SOL     OW 5626   0.925   0.590   1.865
 1576SOL    HW1 5627   1.009   0.640   1.841
 1576SOL    HW2 5628   0.880   0.559   1.781
 1577SOL     OW 5629   3.996   5.343   5.595
 1577SOL    HW1 5630   4.090   5.308   5.597
 1577SOL    HW2 5631   3.972   5.379   5.685
 1578SOL     OW 5632   4.854   1.450   1.448
 1578SOL    HW1 5633   4.929   1.418   1.507
 1578SOL    HW2 5634   4.774   1.471   1.504
 1579SOL     OW 5635   1.876   2.785   1.074
 1579SOL    HW1 5636   1.842   2.731   0.996
 1579SOL    HW2 5637   1.966   2.751   1.101
 1580SOL     OW 5638   3.247   3.556   2.549
 1580SOL    HW1 5639   3.229   3.469   2.504
 1580SOL    HW2 5640   3.161   3.604   2.566
 1581SOL     OW 5641   6.100   4.476   6.191
 1581SOL    HW1 5642   6.135   4.433   6.275
 1581SOL    HW2 5643   6.002   4.494   6.202
 1582SOL     OW 5644   4.487   6.459   5.357
 1582SOL    HW1 5645   4.560   6.496   5.300
 1582SOL    HW2 5646   4.504   6.362   5.374
 1583SOL     OW 5647   1.269   5.305   5.178
 1583SOL    HW1 5648   1.202   5.377   5.159
 1583SOL    HW2 5649   1.310   5.275   5.092
 1584SOL     OW 5650   0.108   4.780   0.734
 1584SOL    HW1 5651   0.045   4.750   0.663
 1584SOL    HW2 5652   0.186   4.827   0.692
 1585SOL     OW 5653   3.828   6.667   3.234
 1585SOL    HW1 5654   3.792   6.600   3.169
 1585SOL    HW2 5655   3.801   6.642   3.326
 1586SOL     OW 5656   3.324   5.587   3.500
 1586SOL    HW1 5657   3.409   5.596   3.447
 1586SOL    HW2 5658   3.314   5.665   3.561
 1587SOL     OW 5659   2.729   5.919   6.334
 1587SOL    HW1 5660   2.725   5.957   6.427
 1587SOL    HW2 5661   2.654   5.855   6.321
 1588SOL     OW 5662   6.242   1.604   3.665
 1588SOL    HW1 5663   6.301   1.549   3.606
 1588SOL    HW2 5664   6.152   1.561   3.673
 1589SOL     OW 5665   6.165   4.537   4.296
 1589SOL    HW1 5666   6.107   4.478   4.239
 1589SOL    HW2 5667   6.243   4.485   4.330
 1590SOL     OW 5668   6.360   2.571   3.445
 1590SOL    HW1 5669   6.315   2.557   3.533
 1590SOL    HW2 5670   6.453   2.604   3.460
 1591SOL     OW 5671   1.546   6.867   1.795
 1591SOL    HW1 5672   1.603   6.788   1.776
 1591SOL    HW2 5673   1.574   6.908   1.882
 1592SOL     OW 5674   7.015   4.132   6.377
 1592SOL    HW1 5675   0.079   4.162   6.332
 1592SOL    HW2 5676   6.974   4.059   6.323
 1593SOL     OW 5677   3.478   0.626   0.341
 1593SOL    HW1 5678   3.523   0.712   0.317
 1593SOL    HW2 5679   3.462   0.573   0.257
 1594SOL     OW 5680   6.286   0.030   2.501
 1594SOL    HW1 5681   6.197   0.066   2.530
 1594SOL    HW2 5682   6.340   0.103   2.460
 1595SOL     OW 5683   0.436   4.048   0.523
 1595SOL    HW1 5684   0.479   3.967   0.561
 1595SOL    HW2 5685   0.339   4.031   0.507
 1596SOL     OW 5686   4.643   4.706   2.716
 1596SOL    HW1 5687   4.616   4.773   2.785
 1596SOL    HW2 5688   4.564   4.650   2.692
 1597SOL     OW 5689   3.781   6.094   6.944
 1597SOL    HW1 5690   3.850   6.139   6.888
 1597SOL    HW2 5691   3.702   6.154   6.956
 1598SOL     OW 5692   1.838   4.973   0.177
 1598SOL    HW1 5693   1.814   4.894   0.121
 1598SOL    HW2 5694   1.841   4.946   0.273
 1599SOL     OW 5695   4.709   5.588   3.432
 1599SOL    HW1 5696   4.710   5.517   3.503
 1599SOL    HW2 5697   4.646   5.562   3.360
 1600SOL     OW 5698   4.639   6.837   2.365
 1600SOL    HW1 5699   4.564   6.892   2.403
 1600SOL    HW2 5700   4.607   6.791   2.282
 1601SOL     OW 5701   6.861   6.854   4.506
 1601SOL    HW1 5702   6.888   6.950   4.510
 1601SOL    HW2 5703   6.853   6.825   4.411
 1602SOL     OW 5704   3.350   5.260   4.072
 1602SOL    HW1 5705   3.366   5.320   3.994
 1602SOL    HW2 5706   3.437   5.239   4.117
 1603SOL     OW 5707   3.182   5.271   2.929
 1603SOL    HW1 5708   3.186   5.191   2.869
 1603SOL    HW2 5709   3.086   5.298   2.941
 1604SOL     OW 5710   4.137   5.399   1.819
 1604SOL    HW1 5711   4.075   5.466   1.859
 1604SOL    HW2 5712   4.230   5.417   1.850
 1605SOL     OW 5713   4.863   5.838   0.991
 1605SOL    HW1 5714   4.818   5.905   0.933
 1605SOL    HW2 5715   4.798   5.803   1.058
 1606SOL     OW 5716   3.419   6.135   4.810
 1606SOL    HW1 5717   3.451   6.210   4.868
 1606SOL    HW2 5718   3.374   6.172   4.729
 1607SOL     OW 5719   4.699   5.883   3.044
 1607SOL    HW1 5720   4.780   5.878   3.102
 1607SOL    HW2 5721   4.719   5.941   2.965
 1608SOL     OW 5722   5.948   1.264   3.304
 1608SOL    HW1 5723   6.038   1.262   3.261
 1608SOL    HW2 5724   5.910   1.171   3.305
 1609SOL     OW 5725   2.733   6.818   0.144
 1609SOL    HW1 5726   2.684   6.866   0.216
 1609SOL    HW2 5727   2.808   6.876   0.110
 1610SOL     OW 5728   5.498   0.354   0.642
 1610SOL    HW1 5729   5.527   0.308   0.559
 1610SOL    HW2 5730   5.466   0.286   0.708
 1611SOL     OW 5731   1.270   4.168   1.588
 1611SOL    HW1 5732   1.173   4.159   1.608
 1611SOL    HW2 5733   1.283   4.188   1.491
 1612SOL     OW 5734   3.773   0.209   2.184
 1612SOL    HW1 5735   3.711   0.215   2.106
 1612SOL    HW2 5736   3.721   0.214   2.269
 1613SOL     OW 5737   6.813   5.456   2.541
 1613SOL    HW1 5738   6.794   5.553   2.560
 1613SOL    HW2 5739   6.880   5.422   2.606
 1614SOL     OW 5740   6.472   1.699   6.308
 1614SOL    HW1 5741   6.539   1.744   6.249
 1614SOL    HW2 5742   6.386   1.686   6.258
 1615SOL     OW 5743   1.195   4.593   6.318
 1615SOL    HW1 5744   1.224   4.600   6.223
 1615SOL    HW2 5745   1.275   4.573   6.376
 1616SOL     OW 5746   2.013   1.567   4.581
 1616SOL    HW1 5747   1.986   1.607   4.493
 1616SOL    HW2 5748   1.965   1.614   4.655
 1617SOL     OW 5749   5.657   6.104   3.223
 1617SOL    HW1 5750   5.713   6.055   3.290
 1617SOL    HW2 5751   5.717   6.146   3.154
 1618SOL     OW 5752   2.907   5.308   2.967
 1618SOL    HW1 5753   2.834   5.298   2.899
 1618SOL    HW2 5754   2.896   5.238   3.038
 1619SOL     OW 5755   1.096   4.571   6.707
 1619SOL    HW1 5756   1.182   4.622   6.715
 1619SOL    HW2 5757   1.112   4.476   6.735
 1620SOL     OW 5758   3.704   5.151   6.340
 1620SOL    HW1 5759   3.636   5.106   6.282
 1620SOL    HW2 5760   3.671   5.243   6.364
 1621SOL     OW 5761   4.968   6.014   1.336
 1621SOL    HW1 5762   4.901   6.087   1.327
 1621SOL    HW2 5763   5.028   6.013   1.256
 1622SOL     OW 5764   0.445   4.819   4.256
 1622SOL    HW1 5765   0.382   4.787   4.185
 1622SOL    HW2 5766   0.468   4.915   4.240
 1623SOL     OW 5767   0.661   2.208   4.046
 1623SOL    HW1 5768   0.592   2.261   3.997
 1623SOL    HW2 5769   0.665   2.238   4.141
 1624SOL     OW 5770   4.204   1.764   0.661
 1624SOL    HW1 5771   4.235   1.672   0.684
 1624SOL    HW2 5772   4.196   1.818   0.745
 1625SOL     OW 5773   0.777   5.806   0.843
 1625SOL    HW1 5774   0.704   5.787   0.909
 1625SOL    HW2 5775   0.737   5.845   0.760
 1626SOL     OW 5776   2.889   1.905   1.209
 1626SOL    HW1 5777   2.979   1.894   1.166
 1626SOL    HW2 5778   2.899   1.953   1.296
 1627SOL     OW 5779   4.232   1.676   4.836
 1627SOL    HW1 5780   4.135   1.695   4.828
 1627SOL    HW2 5781   4.262   1.624   4.756
 1628SOL     OW 5782   5.598   6.665   0.331
 1628SOL    HW1 5783   5.673   6.728   0.350
 1628SOL    HW2 5784   5.622   6.574   0.363
 1629SOL     OW 5785   1.867   0.200   3.507
 1629SOL    HW1 5786   1.787   0.181   3.564
 1629SOL    HW2 5787   1.888   0.297   3.509
 1630SOL     OW 5788   0.154   3.806   6.970
 1630SOL    HW1 5789   0.200   3.741   0.010
 1630SOL    HW2 5790   0.107   3.757   6.897
 1631SOL     OW 5791   6.911   3.459   0.266
 1631SOL    HW1 5792   6.880   3.546   0.304
 1631SOL    HW2 5793   6.952   3.475   0.176
 1632SOL     OW 5794   6.854   5.421   2.924
 1632SOL    HW1 5795   6.816   5.513   2.928
 1632SOL    HW2 5796   6.780   5.354   2.935
 1633SOL     OW 5797   5.374   3.226   3.806
 1633SOL    HW1 5798   5.286   3.270   3.786
 1633SOL    HW2 5799   5.358   3.145   3.862
 1634SOL     OW 5800   6.264   0.825   4.409
 1634SOL    HW1 5801   6.347   0.829   4.353
 1634SOL    HW2 5802   6.289   0.835   4.506
 1635SOL     OW 5803   3.556   5.962   3.378
 1635SOL    HW1 5804   3.550   5.955   3.279
 1635SOL    HW2 5805   3.474   6.009   3.413
 1636SOL     OW 5806   6.007   6.569   1.780
 1636SOL    HW1 5807   6.102   6.558   1.809
 1636SOL    HW2 5808   5.948   6.573   1.861
 1637SOL     OW 5809   0.702   0.041   1.904
 1637SOL    HW1 5810   0.644   0.094   1.966
 1637SOL    HW2 5811   0.776   0.100   1.871
 1638SOL     OW 5812   5.971   3.112   1.519
 1638SOL    HW1 5813   5.885   3.061   1.514
 1638SOL    HW2 5814   6.023   3.097   1.435
 1639SOL     OW 5815   5.248   2.620   2.626
 1639SOL    HW1 5816   5.181   2.620   2.700
 1639SOL    HW2 5817   5.230   2.699   2.566
 1640SOL     OW 5818   6.436   0.392   6.605
 1640SOL    HW1 5819   6.421   0.310   6.660
 1640SOL    HW2 5820   6.377   0.466   6.639
 1641SOL     OW 5821   6.613   2.658   3.449
 1641SOL    HW1 5822   6.672   2.594   3.498
 1641SOL    HW2 5823   6.661   2.745   3.436
 1642SOL     OW 5824   6.443   2.329   5.842
 1642SOL    HW1 5825   6.365   2.388   5.862
 1642SOL    HW2 5826   6.526   2.371   5.877
 1643SOL     OW 5827   2.428   6.108   3.361
 1643SOL    HW1 5828   2.394   6.111   3.455
 1643SOL    HW2 5829   2.413   6.017   3.323
 1644SOL     OW 5830   6.227   2.938   1.496
 1644SOL    HW1 5831   6.274   2.973   1.577
 1644SOL    HW2 5832   6.215   3.012   1.430
 1645SOL     OW 5833   1.926   1.177   5.550
 1645SOL    HW1 5834   1.930   1.189   5.649
 1645SOL    HW2 5835   2.018   1.155   5.516
 1646SOL     OW 5836   1.256   5.322   1.181
 1646SOL    HW1 5837   1.343   5.307   1.229
 1646SOL    HW2 5838   1.223   5.414   1.199
 1647SOL     OW 5839   5.876   2.970   3.769
 1647SOL    HW1 5840   5.877   3.066   3.739
 1647SOL    HW2 5841   5.920   2.913   3.700
 1648SOL     OW 5842   5.300   5.859   1.224
 1648SOL    HW1 5843   5.232   5.788   1.238
 1648SOL    HW2 5844   5.257   5.949   1.229
 1649SOL     OW 5845   3.590   0.545   3.554
 1649SOL    HW1 5846   3.542   0.615   3.605
 1649SOL    HW2 5847   3.672   0.584   3.513
 1650SOL     OW 5848   3.218   4.074   6.565
 1650SOL    HW1 5849   3.120   4.067   6.546
 1650SOL    HW2 5850   3.270   4.061   6.481
 1651SOL     OW 5851   0.745   2.710   3.521
 1651SOL    HW1 5852   0.784   2.687   3.432
 1651SOL    HW2 5853   0.716   2.806   3.521
 1652SOL     OW 5854   0.933   2.511   1.711
 1652SOL    HW1 5855   0.999   2.570   1.756
 1652SOL    HW2 5856   0.981   2.435   1.667
 1653SOL     OW 5857   0.101   4.527   3.208
 1653SOL    HW1 5858   0.090   4.430   3.188
 1653SOL    HW2 5859   0.197   4.553   3.193
 1654SOL     OW 5860   0.228   3.323   2.111
 1654SOL    HW1 5861   0.173   3.317   2.194
 1654SOL    HW2 5862   0.236   3.419   2.083
 1655SOL     OW 5863   0.084   6.697   4.544
 1655SOL    HW1 5864   0.083   6.661   4.451
 1655SOL    HW2 5865   7.012   6.700   4.580
 1656SOL     OW 5866   2.004   4.655   3.247
 1656SOL    HW1 5867   1.932   4.723   3.236
 1656SOL    HW2 5868   1.990   4.604   3.331
 1657SOL     OW 5869   1.096   6.546   5.662
 1657SOL    HW1 5870   1.011   6.599   5.668
 1657SOL    HW2 5871   1.076   6.455   5.628
 1658SOL     OW 5872   6.283   0.046   6.579
 1658SOL    HW1 5873   6.294   0.081   6.672
 1658SOL    HW2 5874   6.368   0.060   6.528
 1659SOL     OW 5875   4.596   6.466   6.706
 1659SOL    HW1 5876   4.692   6.491   6.693
 1659SOL    HW2 5877   4.538   6.524   6.648
 1660SOL     OW 5878   2.553   0.296   2.351
 1660SOL    HW1 5879   2.465   0.341   2.332
 1660SOL    HW2 5880   2.546   0.243   2.435
 1661SOL     OW 5881   4.155   4.739   2.446
 1661SOL    HW1 5882   4.234   4.699   2.400
 1661SOL    HW2 5883   4.075   4.734   2.386
 1662SOL     OW 5884   6.978   1.346   4.918
 1662SOL    HW1 5885   6.938   1.434   4.893
 1662SOL    HW2 5886   0.024   1.359   4.992
 1663SOL     OW 5887   4.721   4.692   0.629
 1663SOL    HW1 5888   4.757   4.601   0.652
 1663SOL    HW2 5889   4.681   4.734   0.710
 1664SOL     OW 5890   1.204   0.021   5.755
 1664SOL    HW1 5891   1.143   0.100   5.751
 1664SOL    HW2 5892   1.166   6.966   5.702
 1665SOL     OW 5893   2.371   3.959   0.383
 1665SOL    HW1 5894   2.288   3.922   0.423
 1665SOL    HW2 5895   2.450   3.928   0.436
 1666SOL     OW 5896   5.729   6.620   6.206
 1666SOL    HW1 5897   5.751   6.707   6.251
 1666SOL    HW2 5898   5.753   6.544   6.266
 1667SOL     OW 5899   0.776   6.143   1.255
 1667SOL    HW1 5900   0.713   6.201   1.203
 1667SOL    HW2 5901   0.813   6.072   1.195
 1668SOL     OW 5902   5.330   4.517   3.189
 1668SOL    HW1 5903   5.250   4.575   3.199
 1668SOL    HW2 5904   5.391   4.556   3.120
 1669SOL     OW 5905   6.518   3.327   5.288
 1669SOL    HW1 5906   6.523   3.367   5.380
 1669SOL    HW2 5907   6.593   3.361   5.233
 1670SOL     OW 5908   1.822   5.281   6.132
 1670SOL    HW1 5909   1.884   5.281   6.210
 1670SOL    HW2 5910   1.852   5.213   6.065
 1671SOL     OW 5911   5.930   2.066   1.118
 1671SOL    HW1 5912   5.994   2.035   1.187
 1671SOL    HW2 5913   5.859   2.123   1.161
 1672SOL     OW 5914   0.793   3.888   0.294
 1672SOL    HW1 5915   0.772   3.819   0.363
 1672SOL    HW2 5916   0.864   3.854   0.233
 1673SOL     OW 5917   2.233   1.509   4.743
 1673SOL    HW1 5918   2.177   1.485   4.822
 1673SOL    HW2 5919   2.174   1.526   4.664
 1674SOL     OW 5920   4.864   2.071   3.094
 1674SOL    HW1 5921   4.878   2.071   2.995
 1674SOL    HW2 5922   4.872   2.164   3.129
 1675SOL     OW 5923   5.544   0.751   1.433
 1675SOL    HW1 5924   5.562   0.794   1.522
 1675SOL    HW2 5925   5.468   0.687   1.442
 1676SOL     OW 5926   0.924   1.803   2.627
 1676SOL    HW1 5927   0.825   1.813   2.624
 1676SOL    HW2 5928   0.960   1.842   2.711
 1677SOL     OW 5929   4.065   3.793   2.996
 1677SOL    HW1 5930   4.061   3.834   3.087
 1677SOL    HW2 5931   4.064   3.693   3.004
 1678SOL     OW 5932   0.868   0.043   0.854
 1678SOL    HW1 5933   0.806   6.984   0.851
 1678SOL    HW2 5934   0.962   0.011   0.843
 1679SOL     OW 5935   1.241   2.820   5.888
 1679SOL    HW1 5936   1.178   2.762   5.940
 1679SOL    HW2 5937   1.256   2.906   5.937
 1680SOL     OW 5938   5.213   2.364   3.775
 1680SOL    HW1 5939   5.227   2.386   3.872
 1680SOL    HW2 5940   5.168   2.442   3.730
 1681SOL     OW 5941   2.322   5.912   4.274
 1681SOL    HW1 5942   2.283   5.917   4.366
 1681SOL    HW2 5943   2.261   5.858   4.216
 1682SOL     OW 5944   3.019   0.243   4.680
 1682SOL    HW1 5945   2.976   0.152   4.681
 1682SOL    HW2 5946   3.077   0.251   4.599
 1683SOL     OW 5947   5.740   4.802   2.639
 1683SOL    HW1 5948   5.833   4.820   2.607
 1683SOL    HW2 5949   5.698   4.888   2.668
 1684SOL     OW 5950   2.493   4.523   1.825
 1684SOL    HW1 5951   2.476   4.449   1.759
 1684SOL    HW2 5952   2.582   4.564   1.807
 1685SOL     OW 5953   7.016   1.195   5.191
 1685SOL    HW1 5954   0.045   1.108   5.184
 1685SOL    HW2 5955   6.940   1.185   5.255
 1686SOL     OW 5956   4.821   5.769   2.734
 1686SOL    HW1 5957   4.874   5.708   2.792
 1686SOL    HW2 5958   4.779   5.841   2.790
 1687SOL     OW 5959   5.793   3.973   2.818
 1687SOL    HW1 5960   5.771   3.892   2.764
 1687SOL    HW2 5961   5.841   4.039   2.761
 1688SOL     OW 5962   2.059   1.395   3.289
 1688SOL    HW1 5963   2.142   1.345   3.314
 1688SOL    HW2 5964   1.985   1.330   3.269
 1689SOL     OW 5965   4.761   1.075   1.611
 1689SOL    HW1 5966   4.683   1.096   1.552
 1689SOL    HW2 5967   4.841   1.055   1.556
 1690SOL     OW 5968   0.701   4.656   4.186
 1690SOL    HW1 5969   0.761   4.579   4.205
 1690SOL    HW2 5970   0.756   4.735   4.157
 1691SOL     OW 5971   4.672   2.832   5.402
 1691SOL    HW1 5972   4.694   2.764   5.472
 1691SOL    HW2 5973   4.578   2.818   5.371
 1692SOL     OW 5974   5.557   5.160   1.340
 1692SOL    HW1 5975   5.526   5.218   1.265
 1692SOL    HW2 5976   5.504   5.075   1.340
 1693SOL     OW 5977   5.297   6.753   5.595
 1693SOL    HW1 5978   5.354   6.780   5.517
 1693SOL    HW2 5979   5.330   6.667   5.632
 1694SOL     OW 5980   5.178   1.224   5.089
 1694SOL    HW1 5981   5.165   1.322   5.105
 1694SOL    HW2 5982   5.274   1.201   5.101
 1695SOL     OW 5983   4.056   0.511   6.405
 1695SOL    HW1 5984   3.960   0.481   6.410
 1695SOL    HW2 5985   4.106   0.453   6.341
 1696SOL     OW 5986   5.104   6.029   0.426
 1696SOL    HW1 5987   5.043   6.007   0.502
 1696SOL    HW2 5988   5.145   5.945   0.391
 1697SOL     OW 5989   5.714   2.358   2.275
 1697SOL    HW1 5990   5.639   2.403   2.325
 1697SOL    HW2 5991   5.801   2.377   2.321
 1698SOL     OW 5992   4.227   1.130   1.464
 1698SOL    HW1 5993   4.135   1.160   1.441
 1698SOL    HW2 5994   4.294   1.186   1.414
 1699SOL     OW 5995   2.560   0.032   6.955
 1699SOL    HW1 5996   2.627   6.984   6.983
 1699SOL    HW2 5997   2.468   7.012   6.957
 1700SOL     OW 5998   6.533   2.857   2.551
 1700SOL    HW1 5999   6.479   2.935   2.519
 1700SOL    HW2 6000   6.543   2.790   2.477
 1701SOL     OW 6001   0.644   6.205   4.614
 1701SOL    HW1 6002   0.655   6.211   4.713
 1701SOL    HW2 6003   0.549   6.180   4.592
 1702SOL     OW 6004   2.003   2.365   6.042
 1702SOL    HW1 6005   2.031   2.424   6.118
 1702SOL    HW2 6006   1.909   2.334   6.057
 1703SOL     OW 6007   3.038   2.075   0.674
 1703SOL    HW1 6008   3.066   2.170   0.667
 1703SOL    HW2 6009   3.111   2.016   0.640
 1704SOL     OW 6010   2.793   2.298   0.927
 1704SOL    HW1 6011   2.765   2.203   0.914
 1704SOL    HW2 6012   2.877   2.301   0.981
 1705SOL     OW 6013   4.096   2.097   0.381
 1705SOL    HW1 6014   4.060   2.174   0.328
 1705SOL    HW2 6015   4.026   2.064   0.444
 1706SOL     OW 6016   4.347   2.177   6.696
 1706SOL    HW1 6017   4.384   2.167   6.788
 1706SOL    HW2 6018   4.393   2.253   6.650
 1707SOL     OW 6019   4.522   2.152   2.282
 1707SOL    HW1 6020   4.477   2.193   2.362
 1707SOL    HW2 6021   4.486   2.195   2.199
 1708SOL     OW 6022   3.274   5.118   1.759
 1708SOL    HW1 6023   3.267   5.019   1.774
 1708SOL    HW2 6024   3.217   5.165   1.826
 1709SOL     OW 6025   4.638   5.194   0.599
 1709SOL    HW1 6026   4.669   5.176   0.506
 1709SOL    HW2 6027   4.688   5.272   0.637
 1710SOL     OW 6028   4.127   5.069   3.227
 1710SOL    HW1 6029   4.089   4.990   3.275
 1710SOL    HW2 6030   4.059   5.105   3.164
 1711SOL     OW 6031   4.172   4.192   6.081
 1711SOL    HW1 6032   4.152   4.094   6.071
 1711SOL    HW2 6033   4.092   4.245   6.055
 1712SOL     OW 6034   0.101   1.680   3.048
 1712SOL    HW1 6035   0.174   1.747   3.059
 1712SOL    HW2 6036   0.132   1.607   2.987
 1713SOL     OW 6037   3.837   0.635   2.972
 1713SOL    HW1 6038   3.796   0.709   2.919
 1713SOL    HW2 6039   3.934   0.656   2.989
 1714SOL     OW 6040   4.005   3.080   0.524
 1714SOL    HW1 6041   4.062   3.149   0.569
 1714SOL    HW2 6042   3.922   3.123   0.490
 1715SOL     OW 6043   1.953   6.955   2.645
 1715SOL    HW1 6044   1.874   6.914   2.692
 1715SOL    HW2 6045   1.952   6.928   2.549
 1716SOL     OW 6046   5.257   0.830   3.735
 1716SOL    HW1 6047   5.192   0.902   3.760
 1716SOL    HW2 6048   5.350   0.866   3.735
 1717SOL     OW 6049   3.328   6.053   5.772
 1717SOL    HW1 6050   3.337   6.152   5.782
 1717SOL    HW2 6051   3.232   6.030   5.759
 1718SOL     OW 6052   1.731   3.025   1.754
 1718SOL    HW1 6053   1.676   3.104   1.726
 1718SOL    HW2 6054   1.812   3.018   1.695
 1719SOL     OW 6055   1.191   5.358   2.076
 1719SOL    HW1 6056   1.285   5.338   2.047
 1719SOL    HW2 6057   1.165   5.295   2.150
 1720SOL     OW 6058   0.281   3.016   5.782
 1720SOL    HW1 6059   0.282   3.004   5.882
 1720SOL    HW2 6060   0.339   3.093   5.757
 1721SOL     OW 6061   1.367   2.066   0.616
 1721SOL    HW1 6062   1.464   2.078   0.596
 1721SOL    HW2 6063   1.337   2.139   0.677
 1722SOL     OW 6064   2.587   2.505   3.391
 1722SOL    HW1 6065   2.564   2.498   3.488
 1722SOL    HW2 6066   2.637   2.423   3.363
 1723SOL     OW 6067   5.319   3.185   0.336
 1723SOL    HW1 6068   5.361   3.098   0.309
 1723SOL    HW2 6069   5.364   3.220   0.418
 1724SOL     OW 6070   6.542   2.073   1.512
 1724SOL    HW1 6071   6.546   2.029   1.602
 1724SOL    HW2 6072   6.634   2.086   1.477
 1725SOL     OW 6073   1.308   5.896   7.020
 1725SOL    HW1 6074   1.369   5.975   7.014
 1725SOL    HW2 6075   1.234   5.915   0.064
 1726SOL     OW 6076   5.358   4.033   3.308
 1726SOL    HW1 6077   5.324   4.020   3.215
 1726SOL    HW2 6078   5.340   4.126   3.338
 1727SOL     OW 6079   2.925   3.608   3.888
 1727SOL    HW1 6080   2.907   3.573   3.796
 1727SOL    HW2 6081   2.919   3.533   3.954
 1728SOL     OW 6082   4.637   2.331   4.189
 1728SOL    HW1 6083   4.540   2.343   4.172
 1728SOL    HW2 6084   4.685   2.316   4.102
 1729SOL     OW 6085   1.619   3.324   2.550
 1729SOL    HW1 6086   1.549   3.351   2.484
 1729SOL    HW2 6087   1.645   3.229   2.533
 1730SOL     OW 6088   2.463   4.851   5.080
 1730SOL    HW1 6089   2.403   4.927   5.054
 1730SOL    HW2 6090   2.432   4.813   5.167
 1731SOL     OW 6091   6.301   4.587   3.766
 1731SOL    HW1 6092   6.232   4.629   3.825
 1731SOL    HW2 6093   6.271   4.593   3.670
 1732SOL     OW 6094   1.985   3.860   5.682
 1732SOL    HW1 6095   2.079   3.826   5.683
 1732SOL    HW2 6096   1.926   3.800   5.736
 1733SOL     OW 6097   2.545   3.585   6.354
 1733SOL    HW1 6098   2.525   3.682   6.367
 1733SOL    HW2 6099   2.474   3.544   6.296
 1734SOL     OW 6100   0.208   2.915   1.771
 1734SOL    HW1 6101   0.255   2.914   1.682
 1734SOL    HW2 6102   0.274   2.925   1.844
 1735SOL     OW 6103   3.935   5.065   6.210
 1735SOL    HW1 6104   3.858   5.126   6.228
 1735SOL    HW2 6105   3.916   4.974   6.246
 1736SOL     OW 6106   4.995   3.025   0.906
 1736SOL    HW1 6107   4.926   2.988   0.968
 1736SOL    HW2 6108   4.950   3.085   0.840
 1737SOL     OW 6109   4.692   1.854   5.481
 1737SOL    HW1 6110   4.770   1.893   5.433
 1737SOL    HW2 6111   4.665   1.769   5.436
 1738SOL     OW 6112   1.658   3.288   4.090
 1738SOL    HW1 6113   1.611   3.332   4.013
 1738SOL    HW2 6114   1.751   3.323   4.097
 1739SOL     OW 6115   5.846   0.300   4.078
 1739SOL    HW1 6116   5.898   0.232   4.026
 1739SOL    HW2 6117   5.836   0.383   4.023
 1740SOL     OW 6118   6.338   2.922   4.558
 1740SOL    HW1 6119   6.382   3.001   4.601
 1740SOL    HW2 6120   6.275   2.880   4.623
 1741SOL     OW 6121   0.811   1.852   4.611
 1741SOL    HW1 6122   0.857   1.769   4.645
 1741SOL    HW2 6123   0.862   1.932   4.641
 1742SOL     OW 6124   5.779   6.723   5.933
 1742SOL    HW1 6125   5.754   6.671   6.015
 1742SOL    HW2 6126   5.813   6.813   5.959
 1743SOL     OW 6127   1.430   1.115   2.527
 1743SOL    HW1 6128   1.487   1.197   2.525
 1743SOL    HW2 6129   1.334   1.140   2.510
 1744SOL     OW 6130   3.634   1.686   4.589
 1744SOL    HW1 6131   3.545   1.732   4.578
 1744SOL    HW2 6132   3.666   1.698   4.683
 1745SOL     OW 6133   6.317   6.693   1.419
 1745SOL    HW1 6134   6.314   6.600   1.455
 1745SOL    HW2 6135   6.409   6.714   1.387
 1746SOL     OW 6136   2.295   4.319   4.002
 1746SOL    HW1 6137   2.230   4.394   4.006
 1746SOL    HW2 6138   2.278   4.264   3.920
 1747SOL     OW 6139   4.341   0.235   2.622
 1747SOL    HW1 6140   4.406   0.224   2.547
 1747SOL    HW2 6141   4.382   0.289   2.695
 1748SOL     OW 6142   6.744   2.985   4.855
 1748SOL    HW1 6143   6.838   2.956   4.873
 1748SOL    HW2 6144   6.745   3.065   4.794
 1749SOL     OW 6145   1.610   4.569   0.923
 1749SOL    HW1 6146   1.578   4.517   1.002
 1749SOL    HW2 6147   1.705   4.597   0.936
 1750SOL     OW 6148   3.633   6.915   5.764
 1750SOL    HW1 6149   3.681   6.918   5.851
 1750SOL    HW2 6150   3.685   6.966   5.695
 1751SOL     OW 6151   5.078   2.967   5.198
 1751SOL    HW1 6152   5.091   2.956   5.296
 1751SOL    HW2 6153   4.996   2.917   5.169
 1752SOL     OW 6154   0.069   0.654   1.882
 1752SOL    HW1 6155   0.114   0.592   1.946
 1752SOL    HW2 6156   0.115   0.742   1.883
 1753SOL     OW 6157   6.286   1.708   1.725
 1753SOL    HW1 6158   6.269   1.675   1.633
 1753SOL    HW2 6159   6.254   1.802   1.734
 1754SOL     OW 6160   2.890   5.504   4.099
 1754SOL    HW1 6161   2.874   5.559   4.017
 1754SOL    HW2 6162   2.981   5.523   4.136
 1755SOL     OW 6163   6.556   6.636   4.993
 1755SOL    HW1 6164   6.513   6.723   4.966
 1755SOL    HW2 6165   6.487   6.564   4.992
 1756SOL     OW 6166   4.616   6.649   6.352
 1756SOL    HW1 6167   4.711   6.676   6.368
 1756SOL    HW2 6168   4.568   6.723   6.304
 1757SOL     OW 6169   2.277   4.766   5.295
 1757SOL    HW1 6170   2.293   4.784   5.392
 1757SOL    HW2 6171   2.183   4.792   5.272
 1758SOL     OW 6172   1.995   6.073   4.387
 1758SOL    HW1 6173   2.075   6.030   4.429
 1758SOL    HW2 6174   1.971   6.023   4.304
 1759SOL     OW 6175   1.612   6.884   0.284
 1759SOL    HW1 6176   1.599   6.810   0.350
 1759SOL    HW2 6177   1.530   6.940   0.282
 1760SOL     OW 6178   6.924   0.699   4.632
 1760SOL    HW1 6179   6.903   0.664   4.723
 1760SOL    HW2 6180   7.001   0.648   4.593
 1761SOL     OW 6181   5.914   1.633   2.638
 1761SOL    HW1 6182   5.834   1.574   2.648
 1761SOL    HW2 6183   5.991   1.595   2.690
 1762SOL     OW 6184   0.524   1.598   5.858
 1762SOL    HW1 6185   0.543   1.628   5.765
 1762SOL    HW2 6186   0.609   1.597   5.911
 1763SOL     OW 6187   0.486   4.073   3.972
 1763SOL    HW1 6188   0.546   4.001   3.937
 1763SOL    HW2 6189   0.476   4.145   3.903
 1764SOL     OW 6190   1.197   5.423   2.858
 1764SOL    HW1 6191   1.211   5.494   2.926
 1764SOL    HW2 6192   1.261   5.348   2.874
 1765SOL     OW 6193   5.672   3.403   2.075
 1765SOL    HW1 6194   5.584   3.452   2.079
 1765SOL    HW2 6195   5.747   3.467   2.091
 1766SOL     OW 6196   4.494   4.498   3.763
 1766SOL    HW1 6197   4.582   4.532   3.731
 1766SOL    HW2 6198   4.428   4.574   3.765
 1767SOL     OW 6199   0.911   4.315   2.609
 1767SOL    HW1 6200   0.908   4.374   2.528
 1767SOL    HW2 6201   0.831   4.333   2.666
 1768SOL     OW 6202   5.009   6.446   2.402
 1768SOL    HW1 6203   4.986   6.421   2.308
 1768SOL    HW2 6204   5.085   6.511   2.402
 1769SOL     OW 6205   5.720   0.647   0.496
 1769SOL    HW1 6206   5.726   0.578   0.568
 1769SOL    HW2 6207   5.706   0.601   0.408
 1770SOL     OW 6208   2.157   5.605   0.106
 1770SOL    HW1 6209   2.116   5.676   0.048
 1770SOL    HW2 6210   2.241   5.640   0.147
 1771SOL     OW 6211   1.373   3.165   5.788
 1771SOL    HW1 6212   1.333   3.100   5.852
 1771SOL    HW2 6213   1.443   3.119   5.732
 1772SOL     OW 6214   2.095   4.468   3.055
 1772SOL    HW1 6215   2.189   4.438   3.039
 1772SOL    HW2 6216   2.092   4.524   3.138
 1773SOL     OW 6217   1.329   6.377   6.417
 1773SOL    HW1 6218   1.316   6.314   6.341
 1773SOL    HW2 6219   1.383   6.456   6.388
 1774SOL     OW 6220   4.817   5.368   0.683
 1774SOL    HW1 6221   4.886   5.388   0.613
 1774SOL    HW2 6222   4.818   5.440   0.752
 1775SOL     OW 6223   2.273   5.475   6.701
 1775SOL    HW1 6224   2.209   5.463   6.777
 1775SOL    HW2 6225   2.291   5.386   6.659
 1776SOL     OW 6226   4.820   2.112   5.726
 1776SOL    HW1 6227   4.850   2.204   5.697
 1776SOL    HW2 6228   4.738   2.120   5.782
 1777SOL     OW 6229   4.978   6.216   6.476
 1777SOL    HW1 6230   5.023   6.269   6.403
 1777SOL    HW2 6231   4.933   6.278   6.540
 1778SOL     OW 6232   5.393   6.853   4.180
 1778SOL    HW1 6233   5.374   6.900   4.266
 1778SOL    HW2 6234   5.327   6.882   4.111
 1779SOL     OW 6235   5.691   6.146   4.509
 1779SOL    HW1 6236   5.622   6.092   4.461
 1779SOL    HW2 6237   5.653   6.237   4.528
 1780SOL     OW 6238   2.493   6.071   4.778
 1780SOL    HW1 6239   2.428   5.998   4.755
 1780SOL    HW2 6240   2.467   6.155   4.731
 1781SOL     OW 6241   4.201   0.740   4.019
 1781SOL    HW1 6242   4.137   0.814   4.040
 1781SOL    HW2 6243   4.268   0.733   4.093
 1782SOL     OW 6244   0.374   1.745   2.808
 1782SOL    HW1 6245   0.472   1.765   2.812
 1782SOL    HW2 6246   0.323   1.822   2.844
 1783SOL     OW 6247   2.185   3.996   6.654
 1783SOL    HW1 6248   2.126   3.948   6.589
 1783SOL    HW2 6249   2.235   4.068   6.606
 1784SOL     OW 6250   2.537   0.254   1.464
 1784SOL    HW1 6251   2.570   0.319   1.395
 1784SOL    HW2 6252   2.454   0.209   1.430
 1785SOL     OW 6253   1.364   6.493   4.980
 1785SOL    HW1 6254   1.303   6.420   4.949
 1785SOL    HW2 6255   1.317   6.551   5.047
 1786SOL     OW 6256   0.961   6.679   0.741
 1786SOL    HW1 6257   1.034   6.612   0.735
 1786SOL    HW2 6258   0.919   6.690   0.651
 1787SOL     OW 6259   3.096   3.622   6.351
 1787SOL    HW1 6260   3.077   3.525   6.338
 1787SOL    HW2 6261   3.089   3.669   6.263
 1788SOL     OW 6262   4.779   3.861   1.315
 1788SOL    HW1 6263   4.737   3.911   1.391
 1788SOL    HW2 6264   4.877   3.881   1.313
 1789SOL     OW 6265   5.762   3.878   1.884
 1789SOL    HW1 6266   5.838   3.822   1.850
 1789SOL    HW2 6267   5.697   3.895   1.810
 1790SOL     OW 6268   2.396   2.091   4.507
 1790SOL    HW1 6269   2.334   2.133   4.574
 1790SOL    HW2 6270   2.469   2.155   4.483
 1791SOL     OW 6271   4.909   0.200   3.612
 1791SOL    HW1 6272   4.925   0.272   3.679
 1791SOL    HW2 6273   4.952   0.224   3.525
 1792SOL     OW 6274   0.061   1.457   5.178
 1792SOL    HW1 6275   0.006   1.502   5.249
 1792SOL    HW2 6276   0.039   1.360   5.176
 1793SOL     OW 6277   0.143   1.018   5.765
 1793SOL    HW1 6278   0.072   1.071   5.812
 1793SOL    HW2 6279   0.230   1.030   5.813
 1794SOL     OW 6280   0.943   0.115   6.333
 1794SOL    HW1 6281   0.919   0.212   6.327
 1794SOL    HW2 6282   1.033   0.101   6.292
 1795SOL     OW 6283   5.772   4.509   1.279
 1795SOL    HW1 6284   5.689   4.455   1.288
 1795SOL    HW2 6285   5.842   4.455   1.231
 1796SOL     OW 6286   0.724   0.432   6.706
 1796SOL    HW1 6287   0.816   0.449   6.671
 1796SOL    HW2 6288   0.700   0.504   6.771
 1797SOL     OW 6289   1.849   5.149   5.889
 1797SOL    HW1 6290   1.837   5.055   5.923
 1797SOL    HW2 6291   1.827   5.151   5.791
 1798SOL     OW 6292   2.926   3.381   5.030
 1798SOL    HW1 6293   2.987   3.328   5.088
 1798SOL    HW2 6294   2.920   3.475   5.065
 1799SOL     OW 6295   3.171   1.681   0.386
 1799SOL    HW1 6296   3.264   1.698   0.351
 1799SOL    HW2 6297   3.166   1.589   0.425
 1800SOL     OW 6298   6.419   3.638   5.189
 1800SOL    HW1 6299   6.421   3.685   5.278
 1800SOL    HW2 6300   6.340   3.577   5.186
 1801SOL     OW 6301   1.166   1.038   3.294
 1801SOL    HW1 6302   1.206   1.063   3.206
 1801SOL    HW2 6303   1.237   1.003   3.355
 1802SOL     OW 6304   0.247   4.878   3.532
 1802SOL    HW1 6305   0.156   4.895   3.494
 1802SOL    HW2 6306   0.275   4.785   3.512
 1803SOL     OW 6307   0.273   6.919   3.153
 1803SOL    HW1 6308   0.303   6.825   3.142
 1803SOL    HW2 6309   0.182   6.930   3.112
 1804SOL     OW 6310   2.229   3.266   5.714
 1804SOL    HW1 6311   2.251   3.351   5.666
 1804SOL    HW2 6312   2.309   3.233   5.763
 1805SOL     OW 6313   0.439   5.427   7.006
 1805SOL    HW1 6314   0.365   5.423   0.053
 1805SOL    HW2 6315   0.466   5.523   6.994
 1806SOL     OW 6316   0.209   1.610   2.027
 1806SOL    HW1 6317   0.228   1.604   2.125
 1806SOL    HW2 6318   0.226   1.703   1.994
 1807SOL     OW 6319   0.294   2.672   2.849
 1807SOL    HW1 6320   0.310   2.770   2.863
 1807SOL    HW2 6321   0.380   2.626   2.829
 1808SOL     OW 6322   4.587   2.150   6.134
 1808SOL    HW1 6323   4.504   2.186   6.092
 1808SOL    HW2 6324   4.566   2.110   6.223
 1809SOL     OW 6325   4.627   0.474   5.269
 1809SOL    HW1 6326   4.581   0.563   5.279
 1809SOL    HW2 6327   4.716   0.487   5.225
 1810SOL     OW 6328   0.698   0.539   4.109
 1810SOL    HW1 6329   0.662   0.446   4.107
 1810SOL    HW2 6330   0.774   0.545   4.173
 1811SOL     OW 6331   4.104   5.452   1.495
 1811SOL    HW1 6332   4.149   5.420   1.578
 1811SOL    HW2 6333   4.145   5.538   1.466
 1812SOL     OW 6334   4.780   6.259   6.102
 1812SOL    HW1 6335   4.832   6.194   6.158
 1812SOL    HW2 6336   4.844   6.320   6.056
 1813SOL     OW 6337   4.803   4.378   2.257
 1813SOL    HW1 6338   4.885   4.407   2.306
 1813SOL    HW2 6339   4.829   4.324   2.176
 1814SOL     OW 6340   6.563   6.080   0.510
 1814SOL    HW1 6341   6.635   6.077   0.579
 1814SOL    HW2 6342   6.601   6.057   0.421
 1815SOL     OW 6343   5.597   6.364   1.408
 1815SOL    HW1 6344   5.685   6.372   1.360
 1815SOL    HW2 6345   5.574   6.267   1.417
 1816SOL     OW 6346   3.841   4.687   5.363
 1816SOL    HW1 6347   3.885   4.745   5.433
 1816SOL    HW2 6348   3.910   4.627   5.322
 1817SOL     OW 6349   6.961   2.002   3.658
 1817SOL    HW1 6350   6.970   1.914   3.611
 1817SOL    HW2 6351   6.976   2.076   3.593
 1818SOL     OW 6352   2.401   1.140   0.124
 1818SOL    HW1 6353   2.420   1.084   0.044
 1818SOL    HW2 6354   2.412   1.237   0.100
 1819SOL     OW 6355   1.806   4.844   3.260
 1819SOL    HW1 6356   1.795   4.869   3.163
 1819SOL    HW2 6357   1.796   4.925   3.317
 1820SOL     OW 6358   3.554   6.947   5.189
 1820SOL    HW1 6359   3.474   6.915   5.138
 1820SOL    HW2 6360   3.603   7.016   5.135
 1821SOL     OW 6361   3.630   2.080   2.728
 1821SOL    HW1 6362   3.544   2.115   2.691
 1821SOL    HW2 6363   3.664   2.142   2.799
 1822SOL     OW 6364   0.021   3.296   2.299
 1822SOL    HW1 6365   6.981   3.336   2.231
 1822SOL    HW2 6366   7.009   3.320   2.391
 1823SOL     OW 6367   4.267   6.080   2.211
 1823SOL    HW1 6368   4.250   6.030   2.127
 1823SOL    HW2 6369   4.290   6.175   2.190
 1824SOL     OW 6370   4.473   3.035   1.689
 1824SOL    HW1 6371   4.424   3.120   1.665
 1824SOL    HW2 6372   4.533   3.052   1.767
 1825SOL     OW 6373   1.291   1.961   4.822
 1825SOL    HW1 6374   1.293   2.006   4.733
 1825SOL    HW2 6375   1.365   1.892   4.826
 1826SOL     OW 6376   3.724   2.076   1.738
 1826SOL    HW1 6377   3.707   2.167   1.775
 1826SOL    HW2 6378   3.721   2.009   1.813
 1827SOL     OW 6379   5.474   5.462   0.832
 1827SOL    HW1 6380   5.482   5.546   0.886
 1827SOL    HW2 6381   5.519   5.387   0.881
 1828SOL     OW 6382   1.475   3.218   5.016
 1828SOL    HW1 6383   1.478   3.318   5.025
 1828SOL    HW2 6384   1.565   3.185   4.987
 1829SOL     OW 6385   3.953   0.722   2.646
 1829SOL    HW1 6386   3.873   0.772   2.679
 1829SOL    HW2 6387   3.924   0.649   2.585
 1830SOL     OW 6388   5.388   0.075   5.528
 1830SOL    HW1 6389   5.310   0.043   5.473
 1830SOL    HW2 6390   5.473   0.059   5.478
 1831SOL     OW 6391   3.829   4.591   0.675
 1831SOL    HW1 6392   3.776   4.514   0.638
 1831SOL    HW2 6393   3.834   4.664   0.606
 1832SOL     OW 6394   2.666   3.070   0.348
 1832SOL    HW1 6395   2.627   2.979   0.336
 1832SOL    HW2 6396   2.650   3.124   0.265
 1833SOL     OW 6397   5.999   0.861   6.891
 1833SOL    HW1 6398   6.098   0.872   6.902
 1833SOL    HW2 6399   5.954   0.949   6.904
 1834SOL     OW 6400   0.424   2.699   5.435
 1834SOL    HW1 6401   0.404   2.603   5.412
 1834SOL    HW2 6402   0.451   2.748   5.352
 1835SOL     OW 6403   0.354   6.787   1.664
 1835SOL    HW1 6404   0.445   6.815   1.696
 1835SOL    HW2 6405   0.292   6.865   1.670
 1836SOL     OW 6406   4.885   2.551   2.420
 1836SOL    HW1 6407   4.934   2.480   2.470
 1836SOL    HW2 6408   4.818   2.509   2.358
 1837SOL     OW 6409   2.951   2.338   5.775
 1837SOL    HW1 6410   2.874   2.376   5.825
 1837SOL    HW2 6411   3.031   2.397   5.788
 1838SOL     OW 6412   5.559   0.827   0.651
 1838SOL    HW1 6413   5.618   0.776   0.588
 1838SOL    HW2 6414   5.570   0.792   0.744
 1839SOL     OW 6415   0.144   0.769   0.075
 1839SOL    HW1 6416   0.074   0.839   0.062
 1839SOL    HW2 6417   0.146   0.741   0.170
 1840SOL     OW 6418   4.585   6.078   3.422
 1840SOL    HW1 6419   4.634   6.051   3.505
 1840SOL    HW2 6420   4.533   6.161   3.440
 1841SOL     OW 6421   2.093   0.948   2.622
 1841SOL    HW1 6422   2.108   0.852   2.646
 1841SOL    HW2 6423   2.059   0.954   2.528
 1842SOL     OW 6424   1.519   5.492   0.787
 1842SOL    HW1 6425   1.441   5.540   0.745
 1842SOL    HW2 6426   1.495   5.395   0.800
 1843SOL     OW 6427   2.446   1.144   5.235
 1843SOL    HW1 6428   2.378   1.217   5.246
 1843SOL    HW2 6429   2.451   1.117   5.139
 1844SOL     OW 6430   6.112   2.397   6.223
 1844SOL    HW1 6431   6.150   2.341   6.297
 1844SOL    HW2 6432   6.020   2.364   6.201
 1845SOL     OW 6433   1.456   2.232   3.213
 1845SOL    HW1 6434   1.448   2.330   3.194
 1845SOL    HW2 6435   1.448   2.181   3.127
 1846SOL     OW 6436   4.075   1.137   1.873
 1846SOL    HW1 6437   4.140   1.061   1.869
 1846SOL    HW2 6438   4.015   1.126   1.952
 1847SOL     OW 6439   1.694   5.717   5.196
 1847SOL    HW1 6440   1.654   5.625   5.189
 1847SOL    HW2 6441   1.709   5.740   5.292
 1848SOL     OW 6442   3.149   6.203   3.209
 1848SOL    HW1 6443   3.249   6.195   3.207
 1848SOL    HW2 6444   3.118   6.254   3.129
 1849SOL     OW 6445   4.994   2.748   2.229
 1849SOL    HW1 6446   5.080   2.717   2.189
 1849SOL    HW2 6447   4.958   2.677   2.289
 1850SOL     OW 6448   4.703   1.244   1.180
 1850SOL    HW1 6449   4.692   1.343   1.179
 1850SOL    HW2 6450   4.794   1.221   1.213
 1851SOL     OW 6451   0.661   4.567   4.918
 1851SOL    HW1 6452   0.588   4.636   4.916
 1851SOL    HW2 6453   0.662   4.522   5.007
 1852SOL     OW 6454   0.417   0.137   3.037
 1852SOL    HW1 6455   0.348   0.199   3.000
 1852SOL    HW2 6456   0.372   0.060   3.081
 1853SOL     OW 6457   0.111   2.496   5.526
 1853SOL    HW1 6458   0.184   2.557   5.497
 1853SOL    HW2 6459   0.043   2.547   5.577
 1854SOL     OW 6460   0.621   7.014   3.245
 1854SOL    HW1 6461   0.547   7.017   3.177
 1854SOL    HW2 6462   0.698   6.962   3.208
 1855SOL     OW 6463   4.926   3.095   4.275
 1855SOL    HW1 6464   4.864   3.022   4.302
 1855SOL    HW2 6465   4.914   3.173   4.336
 1856SOL     OW 6466   3.557   2.591   0.983
 1856SOL    HW1 6467   3.620   2.515   1.001
 1856SOL    HW2 6468   3.608   2.669   0.948
 1857SOL     OW 6469   4.144   1.517   0.044
 1857SOL    HW1 6470   4.232   1.524   0.092
 1857SOL    HW2 6471   4.071   1.507   0.111
 1858SOL     OW 6472   4.891   2.546   4.005
 1858SOL    HW1 6473   4.848   2.468   3.961
 1858SOL    HW2 6474   4.880   2.539   4.104
 1859SOL     OW 6475   6.960   1.739   4.275
 1859SOL    HW1 6476   6.970   1.757   4.177
 1859SOL    HW2 6477   0.017   1.684   4.306
 1860SOL     OW 6478   1.703   1.494   5.538
 1860SOL    HW1 6479   1.699   1.482   5.638
 1860SOL    HW2 6480   1.651   1.421   5.494
 1861SOL     OW 6481   6.874   6.824   3.814
 1861SOL    HW1 6482   6.825   6.784   3.737
 1861SOL    HW2 6483   6.901   6.752   3.878
 1862SOL     OW 6484   3.173   5.440   5.824
 1862SOL    HW1 6485   3.142   5.385   5.901
 1862SOL    HW2 6486   3.146   5.396   5.738
 1863SOL     OW 6487   6.909   2.658   0.673
 1863SOL    HW1 6488   6.992   2.610   0.702
 1863SOL    HW2 6489   6.931   2.717   0.594
 1864SOL     OW 6490   4.080   5.685   2.129
 1864SOL    HW1 6491   4.141   5.608   2.150
 1864SOL    HW2 6492   4.037   5.717   2.213
 1865SOL     OW 6493   5.879   1.887   5.507
 1865SOL    HW1 6494   5.799   1.947   5.507
 1865SOL    HW2 6495   5.913   1.875   5.600
 1866SOL     OW 6496   0.789   4.962   3.478
 1866SOL    HW1 6497   0.696   4.961   3.513
 1866SOL    HW2 6498   0.847   4.903   3.534
 1867SOL     OW 6499   1.707   2.554   1.467
 1867SOL    HW1 6500   1.742   2.647   1.455
 1867SOL    HW2 6501   1.607   2.555   1.459
 1868SOL     OW 6502   5.881   3.455   6.463
 1868SOL    HW1 6503   5.834   3.397   6.395
 1868SOL    HW2 6504   5.863   3.419   6.554
 1869SOL     OW 6505   4.065   0.975   4.224
 1869SOL    HW1 6506   4.104   1.064   4.249
 1869SOL    HW2 6507   4.028   0.981   4.131
 1870SOL     OW 6508   6.731   6.156   4.866
 1870SOL    HW1 6509   6.761   6.109   4.783
 1870SOL    HW2 6510   6.678   6.093   4.923
 1871SOL     OW 6511   0.013   6.750   6.903
 1871SOL    HW1 6512   0.055   6.732   6.992
 1871SOL    HW2 6513   0.084   6.770   6.836
 1872SOL     OW 6514   2.700   2.588   1.770
 1872SOL    HW1 6515   2.649   2.550   1.847
 1872SOL    HW2 6516   2.797   2.571   1.782
 1873SOL     OW 6517   6.420   1.525   0.701
 1873SOL    HW1 6518   6.351   1.465   0.742
 1873SOL    HW2 6519   6.474   1.474   0.635
 1874SOL     OW 6520   0.743   5.107   0.410
 1874SOL    HW1 6521   0.703   5.066   0.328
 1874SOL    HW2 6522   0.788   5.193   0.387
 1875SOL     OW 6523   6.997   5.031   0.154
 1875SOL    HW1 6524   6.951   5.118   0.174
 1875SOL    HW2 6525   6.943   4.956   0.191
 1876SOL     OW 6526   0.338   5.559   0.816
 1876SOL    HW1 6527   0.424   5.610   0.815
 1876SOL    HW2 6528   0.285   5.582   0.734
 1877SOL     OW 6529   0.820   1.373   2.730
 1877SOL    HW1 6530   0.818   1.396   2.632
 1877SOL    HW2 6531   0.765   1.291   2.746
 1878SOL     OW 6532   6.114   3.862   3.844
 1878SOL    HW1 6533   6.057   3.833   3.921
 1878SOL    HW2 6534   6.071   3.941   3.799
 1879SOL     OW 6535   4.691   5.669   4.646
 1879SOL    HW1 6536   4.722   5.760   4.673
 1879SOL    HW2 6537   4.748   5.600   4.689
 1880SOL     OW 6538   6.880   2.021   4.366
 1880SOL    HW1 6539   6.947   1.949   4.382
 1880SOL    HW2 6540   6.789   1.989   4.392
 1881SOL     OW 6541   1.822   1.538   3.927
 1881SOL    HW1 6542   1.832   1.449   3.884
 1881SOL    HW2 6543   1.890   1.601   3.891
 1882SOL     OW 6544   1.521   5.437   0.381
 1882SOL    HW1 6545   1.595   5.429   0.314
 1882SOL    HW2 6546   1.485   5.530   0.379
 1883SOL     OW 6547   1.376   2.835   3.110
 1883SOL    HW1 6548   1.427   2.763   3.157
 1883SOL    HW2 6549   1.350   2.906   3.175
 1884SOL     OW 6550   3.793   0.885   6.976
 1884SOL    HW1 6551   3.874   0.858   0.008
 1884SOL    HW2 6552   3.737   0.948   0.010
 1885SOL     OW 6553   0.247   2.159   1.011
 1885SOL    HW1 6554   0.159   2.196   0.984
 1885SOL    HW2 6555   0.281   2.210   1.090
 1886SOL     OW 6556   2.934   2.546   5.537
 1886SOL    HW1 6557   2.869   2.539   5.612
 1886SOL    HW2 6558   3.010   2.482   5.553
 1887SOL     OW 6559   0.966   6.254   5.100
 1887SOL    HW1 6560   0.982   6.352   5.104
 1887SOL    HW2 6561   1.014   6.210   5.176
 1888SOL     OW 6562   2.078   2.012   5.781
 1888SOL    HW1 6563   2.079   1.970   5.690
 1888SOL    HW2 6564   2.172   2.018   5.815
 1889SOL     OW 6565   3.230   2.705   0.173
 1889SOL    HW1 6566   3.249   2.658   0.087
 1889SOL    HW2 6567   3.182   2.644   0.235
 1890SOL     OW 6568   6.442   5.803   6.777
 1890SOL    HW1 6569   6.451   5.718   6.724
 1890SOL    HW2 6570   6.386   5.868   6.727
 1891SOL     OW 6571   5.683   3.999   5.965
 1891SOL    HW1 6572   5.689   3.928   6.035
 1891SOL    HW2 6573   5.690   4.089   6.008
 1892SOL     OW 6574   3.951   6.654   1.821
 1892SOL    HW1 6575   3.979   6.650   1.725
 1892SOL    HW2 6576   3.993   6.579   1.871
 1893SOL     OW 6577   3.157   1.856   5.177
 1893SOL    HW1 6578   3.216   1.906   5.241
 1893SOL    HW2 6579   3.086   1.808   5.229
 1894SOL     OW 6580   4.650   3.335   0.948
 1894SOL    HW1 6581   4.579   3.270   0.924
 1894SOL    HW2 6582   4.663   3.335   1.047
 1895SOL     OW 6583   4.857   1.074   3.000
 1895SOL    HW1 6584   4.949   1.045   3.024
 1895SOL    HW2 6585   4.791   1.029   3.059
 1896SOL     OW 6586   6.000   1.884   5.754
 1896SOL    HW1 6587   6.092   1.861   5.724
 1896SOL    HW2 6588   5.995   1.878   5.854
 1897SOL     OW 6589   5.795   5.046   3.697
 1897SOL    HW1 6590   5.790   5.052   3.597
 1897SOL    HW2 6591   5.717   4.994   3.732
 1898SOL     OW 6592   5.851   6.186   0.041
 1898SOL    HW1 6593   5.842   6.279   0.005
 1898SOL    HW2 6594   5.877   6.124   6.988
 1899SOL     OW 6595   0.956   2.266   3.681
 1899SOL    HW1 6596   0.972   2.363   3.660
 1899SOL    HW2 6597   1.037   2.213   3.657
 1900SOL     OW 6598   2.271   6.270   1.000
 1900SOL    HW1 6599   2.366   6.244   1.017
 1900SOL    HW2 6600   2.223   6.279   1.088
 1901SOL     OW 6601   1.411   1.660   6.475
 1901SOL    HW1 6602   1.322   1.616   6.469
 1901SOL    HW2 6603   1.404   1.755   6.445
 1902SOL     OW 6604   1.744   2.457   5.408
 1902SOL    HW1 6605   1.782   2.389   5.469
 1902SOL    HW2 6606   1.644   2.446   5.404
 1903SOL     OW 6607   6.817   4.221   3.937
 1903SOL    HW1 6608   6.801   4.311   3.977
 1903SOL    HW2 6609   6.832   4.154   4.010
 1904SOL     OW 6610   0.741   0.287   4.817
 1904SOL    HW1 6611   0.732   0.203   4.763
 1904SOL    HW2 6612   0.801   0.351   4.769
 1905SOL     OW 6613   6.412   3.303   4.208
 1905SOL    HW1 6614   6.474   3.352   4.269
 1905SOL    HW2 6615   6.337   3.263   4.261
 1906SOL     OW 6616   2.108   6.981   0.480
 1906SOL    HW1 6617   2.033   6.955   0.420
 1906SOL    HW2 6618   2.167   0.027   0.434
 1907SOL     OW 6619   3.557   6.018   3.106
 1907SOL    HW1 6620   3.487   5.946   3.100
 1907SOL    HW2 6621   3.643   5.984   3.069
 1908SOL     OW 6622   4.902   1.079   6.579
 1908SOL    HW1 6623   4.915   1.024   6.496
 1908SOL    HW2 6624   4.838   1.033   6.640
 1909SOL     OW 6625   4.113   4.793   4.437
 1909SOL    HW1 6626   4.209   4.765   4.448
 1909SOL    HW2 6627   4.068   4.791   4.526
 1910SOL     OW 6628   4.754   2.409   5.116
 1910SOL    HW1 6629   4.704   2.372   5.194
 1910SOL    HW2 6630   4.688   2.437   5.045
 1911SOL     OW 6631   0.282   3.907   6.258
 1911SOL    HW1 6632   0.378   3.902   6.229
 1911SOL    HW2 6633   0.223   3.878   6.182
 1912SOL     OW 6634   3.426   6.250   3.207
 1912SOL    HW1 6635   3.460   6.156   3.205
 1912SOL    HW2 6636   3.476   6.305   3.141
 1913SOL     OW 6637   1.326   4.374   5.336
 1913SOL    HW1 6638   1.293   4.464   5.306
 1913SOL    HW2 6639   1.422   4.363   5.310
 1914SOL     OW 6640   4.525   1.125   5.102
 1914SOL    HW1 6641   4.426   1.115   5.092
 1914SOL    HW2 6642   4.569   1.117   5.013
 1915SOL     OW 6643   3.930   0.232   5.173
 1915SOL    HW1 6644   3.946   0.330   5.161
 1915SOL    HW2 6645   3.842   0.218   5.218
 1916SOL     OW 6646   4.385   6.552   1.537
 1916SOL    HW1 6647   4.309   6.488   1.522
 1916SOL    HW2 6648   4.387   6.619   1.463
 1917SOL     OW 6649   3.287   3.438   4.261
 1917SOL    HW1 6650   3.207   3.385   4.289
 1917SOL    HW2 6651   3.261   3.504   4.191
 1918SOL     OW 6652   5.786   6.705   3.962
 1918SOL    HW1 6653   5.785   6.805   3.971
 1918SOL    HW2 6654   5.692   6.671   3.960
 1919SOL     OW 6655   6.484   6.506   1.979
 1919SOL    HW1 6656   6.532   6.593   1.990
 1919SOL    HW2 6657   6.546   6.438   1.940
 1920SOL     OW 6658   6.671   6.173   4.159
 1920SOL    HW1 6659   6.619   6.088   4.168
 1920SOL    HW2 6660   6.669   6.203   4.063
 1921SOL     OW 6661   0.802   6.679   6.043
 1921SOL    HW1 6662   0.748   6.713   6.120
 1921SOL    HW2 6663   0.824   6.583   6.057
 1922SOL     OW 6664   3.461   4.362   1.035
 1922SOL    HW1 6665   3.444   4.392   1.129
 1922SOL    HW2 6666   3.385   4.305   1.004
 1923SOL     OW 6667   2.152   2.288   0.526
 1923SOL    HW1 6668   2.173   2.200   0.484
 1923SOL    HW2 6669   2.217   2.308   0.598
 1924SOL     OW 6670   0.907   3.841   1.992
 1924SOL    HW1 6671   0.907   3.918   1.927
 1924SOL    HW2 6672   0.922   3.756   1.943
 1925SOL     OW 6673   3.859   4.156   0.319
 1925SOL    HW1 6674   3.770   4.130   0.356
 1925SOL    HW2 6675   3.846   4.221   0.244
 1926SOL     OW 6676   0.636   0.096   3.512
 1926SOL    HW1 6677   0.609   0.045   3.431
 1926SOL    HW2 6678   0.735   0.105   3.515
 1927SOL     OW 6679   4.086   3.704   0.031
 1927SOL    HW1 6680   4.120   3.792   0.063
 1927SOL    HW2 6681   4.118   3.687   6.959
 1928SOL     OW 6682   6.473   4.882   5.649
 1928SOL    HW1 6683   6.475   4.816   5.574
 1928SOL    HW2 6684   6.456   4.974   5.613
 1929SOL     OW 6685   1.481   0.218   2.834
 1929SOL    HW1 6686   1.424   0.264   2.902
 1929SOL    HW2 6687   1.435   0.135   2.803
 1930SOL     OW 6688   6.003   4.712   0.221
 1930SOL    HW1 6689   6.060   4.789   0.193
 1930SOL    HW2 6690   6.017   4.635   0.158
 1931SOL     OW 6691   1.139   2.428   5.244
 1931SOL    HW1 6692   1.167   2.444   5.339
 1931SOL    HW2 6693   1.086   2.505   5.211
 1932SOL     OW 6694   5.866   3.455   2.433
 1932SOL    HW1 6695   5.881   3.515   2.355
 1932SOL    HW2 6696   5.891   3.361   2.408
 1933SOL     OW 6697   2.774   4.349   1.480
 1933SOL    HW1 6698   2.704   4.307   1.421
 1933SOL    HW2 6699   2.761   4.317   1.574
 1934SOL     OW 6700   0.470   6.069   4.420
 1934SOL    HW1 6701   0.407   6.133   4.376
 1934SOL    HW2 6702   0.536   6.035   4.352
 1935SOL     OW 6703   2.211   0.590   4.006
 1935SOL    HW1 6704   2.199   0.571   3.909
 1935SOL    HW2 6705   2.176   0.513   4.060
 1936SOL     OW 6706   6.629   5.680   5.883
 1936SOL    HW1 6707   6.632   5.602   5.946
 1936SOL    HW2 6708   6.616   5.647   5.790
 1937SOL     OW 6709   4.401   6.951   2.436
 1937SOL    HW1 6710   4.432   0.017   2.396
 1937SOL    HW2 6711   4.315   6.965   2.483
 1938SOL     OW 6712   4.888   0.369   3.865
 1938SOL    HW1 6713   4.851   0.423   3.941
 1938SOL    HW2 6714   4.983   0.346   3.883
 1939SOL     OW 6715   2.209   0.130   3.774
 1939SOL    HW1 6716   2.140   0.059   3.759
 1939SOL    HW2 6717   2.300   0.092   3.759
 1940SOL     OW 6718   0.058   4.809   0.016
 1940SOL    HW1 6719   0.042   4.902   0.050
 1940SOL    HW2 6720   0.139   4.770   0.059
 1941SOL     OW 6721   5.100   4.689   3.172
 1941SOL    HW1 6722   5.112   4.704   3.270
 1941SOL    HW2 6723   5.049   4.765   3.132
 1942SOL     OW 6724   5.875   5.785   3.096
 1942SOL    HW1 6725   5.845   5.875   3.063
 1942SOL    HW2 6726   5.796   5.735   3.132
 1943SOL     OW 6727   2.597   5.295   2.407
 1943SOL    HW1 6728   2.616   5.387   2.372
 1943SOL    HW2 6729   2.647   5.228   2.353
 1944SOL     OW 6730   6.847   1.171   1.616
 1944SOL    HW1 6731   6.785   1.096   1.640
 1944SOL    HW2 6732   6.796   1.257   1.619
 1945SOL     OW 6733   3.162   5.303   4.264
 1945SOL    HW1 6734   3.129   5.218   4.304
 1945SOL    HW2 6735   3.221   5.283   4.186
 1946SOL     OW 6736   1.525   0.681   0.041
 1946SOL    HW1 6737   1.454   0.729   0.092
 1946SOL    HW2 6738   1.533   0.587   0.075
 1947SOL     OW 6739   5.625   5.787   4.625
 1947SOL    HW1 6740   5.596   5.709   4.681
 1947SOL    HW2 6741   5.707   5.762   4.573
 1948SOL     OW 6742   6.266   4.493   5.434
 1948SOL    HW1 6743   6.360   4.509   5.466
 1948SOL    HW2 6744   6.229   4.412   5.479
 1949SOL     OW 6745   5.175   4.257   6.673
 1949SOL    HW1 6746   5.133   4.339   6.713
 1949SOL    HW2 6747   5.118   4.178   6.694
 1950SOL     OW 6748   3.103   3.907   0.329
 1950SOL    HW1 6749   3.191   3.919   0.376
 1950SOL    HW2 6750   3.114   3.848   0.250
 1951SOL     OW 6751   0.045   2.206   0.144
 1951SOL    HW1 6752   0.048   2.149   0.227
 1951SOL    HW2 6753   0.002   2.293   0.166
 1952SOL     OW 6754   4.012   1.654   5.699
 1952SOL    HW1 6755   4.064   1.717   5.757
 1952SOL    HW2 6756   3.926   1.631   5.743
 1953SOL     OW 6757   0.205   3.365   5.704
 1953SOL    HW1 6758   0.286   3.314   5.675
 1953SOL    HW2 6759   0.232   3.456   5.735
 1954SOL     OW 6760   3.386   2.054   3.989
 1954SOL    HW1 6761   3.316   2.111   4.032
 1954SOL    HW2 6762   3.344   1.996   3.919
 1955SOL     OW 6763   6.754   6.110   2.736
 1955SOL    HW1 6764   6.756   6.126   2.637
 1955SOL    HW2 6765   6.674   6.156   2.775
 1956SOL     OW 6766   5.855   5.698   2.705
 1956SOL    HW1 6767   5.774   5.757   2.700
 1956SOL    HW2 6768   5.848   5.638   2.784
 1957SOL     OW 6769   1.078   6.993   4.902
 1957SOL    HW1 6770   1.144   6.943   4.957
 1957SOL    HW2 6771   1.083   6.961   4.807
 1958SOL     OW 6772   5.512   3.910   5.780
 1958SOL    HW1 6773   5.511   3.810   5.781
 1958SOL    HW2 6774   5.587   3.943   5.837
 1959SOL     OW 6775   1.535   2.039   6.694
 1959SOL    HW1 6776   1.569   1.975   6.763
 1959SOL    HW2 6777   1.456   1.999   6.647
 1960SOL     OW 6778   5.606   6.116   1.171
 1960SOL    HW1 6779   5.632   6.044   1.235
 1960SOL    HW2 6780   5.678   6.185   1.168
 1961SOL     OW 6781   5.771   4.642   4.279
 1961SOL    HW1 6782   5.783   4.622   4.182
 1961SOL    HW2 6783   5.831   4.717   4.305
 1962SOL     OW 6784   0.015   6.327   2.960
 1962SOL    HW1 6785   6.941   6.307   2.988
 1962SOL    HW2 6786   0.033   6.424   2.970
 1963SOL     OW 6787   1.729   0.306   2.940
 1963SOL    HW1 6788   1.642   0.257   2.942
 1963SOL    HW2 6789   1.737   0.357   2.855
 1964SOL     OW 6790   5.743   3.310   2.803
 1964SOL    HW1 6791   5.827   3.287   2.754
 1964SOL    HW2 6792   5.767   3.357   2.888
 1965SOL     OW 6793   1.969   4.909   3.609
 1965SOL    HW1 6794   1.934   4.943   3.521
 1965SOL    HW2 6795   2.065   4.936   3.618
 1966SOL     OW 6796   6.584   5.449   6.039
 1966SOL    HW1 6797   6.532   5.365   6.052
 1966SOL    HW2 6798   6.669   5.444   6.092
 1967SOL     OW 6799   4.971   2.152   4.732
 1967SOL    HW1 6800   4.945   2.244   4.703
 1967SOL    HW2 6801   4.890   2.093   4.733
 1968SOL     OW 6802   3.077   5.519   6.424
 1968SOL    HW1 6803   3.114   5.517   6.331
 1968SOL    HW2 6804   3.060   5.426   6.455
 1969SOL     OW 6805   6.547   2.767   1.554
 1969SOL    HW1 6806   6.475   2.717   1.602
 1969SOL    HW2 6807   6.525   2.770   1.456
 1970SOL     OW 6808   1.699   0.311   3.864
 1970SOL    HW1 6809   1.642   0.242   3.910
 1970SOL    HW2 6810   1.794   0.279   3.862
 1971SOL     OW 6811   0.429   6.198   6.597
 1971SOL    HW1 6812   0.469   6.191   6.688
 1971SOL    HW2 6813   0.356   6.130   6.587
 1972SOL     OW 6814   0.534   5.064   4.128
 1972SOL    HW1 6815   0.621   5.048   4.174
 1972SOL    HW2 6816   0.530   5.009   4.044
 1973SOL     OW 6817   3.076   3.106   0.746
 1973SOL    HW1 6818   2.981   3.075   0.753
 1973SOL    HW2 6819   3.132   3.055   0.811
 1974SOL     OW 6820   5.320   0.597   4.420
 1974SOL    HW1 6821   5.256   0.637   4.486
 1974SOL    HW2 6822   5.414   0.621   4.446
 1975SOL     OW 6823   3.467   0.381   3.339
 1975SOL    HW1 6824   3.467   0.285   3.366
 1975SOL    HW2 6825   3.536   0.431   3.391
 1976SOL     OW 6826   0.469   5.115   0.523
 1976SOL    HW1 6827   0.565   5.089   0.526
 1976SOL    HW2 6828   0.433   5.101   0.431
 1977SOL     OW 6829   1.397   2.811   5.066
 1977SOL    HW1 6830   1.489   2.847   5.050
 1977SOL    HW2 6831   1.401   2.711   5.070
 1978SOL     OW 6832   6.515   1.392   5.044
 1978SOL    HW1 6833   6.551   1.485   5.035
 1978SOL    HW2 6834   6.578   1.327   5.003
 1979SOL     OW 6835   5.719   5.012   3.414
 1979SOL    HW1 6836   5.695   4.919   3.441
 1979SOL    HW2 6837   5.783   5.010   3.338
 1980SOL     OW 6838   4.291   0.405   1.591
 1980SOL    HW1 6839   4.356   0.470   1.551
 1980SOL    HW2 6840   4.202   0.416   1.546
 1981SOL     OW 6841   4.663   3.319   1.715
 1981SOL    HW1 6842   4.679   3.238   1.772
 1981SOL    HW2 6843   4.564   3.336   1.709
 1982SOL     OW 6844   5.546   6.186   4.908
 1982SOL    HW1 6845   5.546   6.176   5.007
 1982SOL    HW2 6846   5.498   6.108   4.866
 1983SOL     OW 6847   0.632   3.712   3.110
 1983SOL    HW1 6848   0.710   3.669   3.155
 1983SOL    HW2 6849   0.587   3.644   3.051
 1984SOL     OW 6850   4.179   0.127   5.662
 1984SOL    HW1 6851   4.147   0.131   5.567
 1984SOL    HW2 6852   4.102   0.104   5.722
 1985SOL     OW 6853   1.569   1.075   1.511
 1985SOL    HW1 6854   1.516   1.011   1.566
 1985SOL    HW2 6855   1.666   1.054   1.519
 1986SOL     OW 6856   1.604   1.529   5.828
 1986SOL    HW1 6857   1.567   1.540   5.920
 1986SOL    HW2 6858   1.554   1.589   5.765
 1987SOL     OW 6859   2.700   3.023   6.800
 1987SOL    HW1 6860   2.785   2.972   6.813
 1987SOL    HW2 6861   2.716   3.102   6.741
 1988SOL     OW 6862   4.206   3.508   0.801
 1988SOL    HW1 6863   4.282   3.491   0.738
 1988SOL    HW2 6864   4.238   3.500   0.895
 1989SOL     OW 6865   2.425   0.483   4.544
 1989SOL    HW1 6866   2.450   0.518   4.453
 1989SOL    HW2 6867   2.460   0.390   4.555
 1990SOL     OW 6868   2.967   0.673   1.814
 1990SOL    HW1 6869   3.007   0.661   1.904
 1990SOL    HW2 6870   3.028   0.728   1.757
 1991SOL     OW 6871   3.091   5.554   4.471
 1991SOL    HW1 6872   3.131   5.467   4.442
 1991SOL    HW2 6873   3.087   5.616   4.392
 1992SOL     OW 6874   2.065   7.019   5.313
 1992SOL    HW1 6875   2.158   7.020   5.275
 1992SOL    HW2 6876   2.002   0.041   5.248
 1993SOL     OW 6877   4.002   3.262   5.132
 1993SOL    HW1 6878   3.914   3.231   5.167
 1993SOL    HW2 6879   4.069   3.264   5.206
 1994SOL     OW 6880   6.425   2.294   2.240
 1994SOL    HW1 6881   6.374   2.209   2.230
 1994SOL    HW2 6882   6.497   2.298   2.171
 1995SOL     OW 6883   5.451   2.252   1.810
 1995SOL    HW1 6884   5.518   2.260   1.884
 1995SOL    HW2 6885   5.364   2.219   1.847
 1996SOL     OW 6886   3.309   4.430   0.277
 1996SOL    HW1 6887   3.305   4.397   0.371
 1996SOL    HW2 6888   3.217   4.446   0.243
 1997SOL     OW 6889   5.530   0.907   3.732
 1997SOL    HW1 6890   5.594   0.849   3.682
 1997SOL    HW2 6891   5.568   0.931   3.821
 1998SOL     OW 6892   2.976   4.747   5.276
 1998SOL    HW1 6893   3.057   4.690   5.294
 1998SOL    HW2 6894   2.908   4.693   5.226
 1999SOL     OW 6895   2.217   1.030   1.842
 1999SOL    HW1 6896   2.219   0.944   1.894
 1999SOL    HW2 6897   2.239   1.012   1.746
 2000SOL     OW 6898   3.969   1.590   4.867
 2000SOL    HW1 6899   3.889   1.533   4.847
 2000SOL    HW2 6900   3.939   1.679   4.900
 2001SOL     OW 6901   3.081   2.052   0.944
 2001SOL    HW1 6902   3.037   2.054   0.854
 2001SOL    HW2 6903   3.143   1.974   0.949
 2002SOL     OW 6904   2.111   5.106   5.329
 2002SOL    HW1 6905   2.166   5.027   5.302
 2002SOL    HW2 6906   2.019   5.075   5.354
 2003SOL     OW 6907   5.888   6.042   4.075
 2003SOL    HW1 6908   5.806   6.001   4.116
 2003SOL    HW2 6909   5.916   6.121   4.129
 2004SOL     OW 6910   2.809   0.816   5.587
 2004SOL    HW1 6911   2.889   0.779   5.540
 2004SOL    HW2 6912   2.822   0.915   5.601
 2005SOL     OW 6913   2.655   5.957   5.724
 2005SOL    HW1 6914   2.584   6.016   5.763
 2005SOL    HW2 6915   2.618   5.866   5.708
 2006SOL     OW 6916   3.844   4.933   3.961
 2006SOL    HW1 6917   3.912   4.986   3.910
 2006SOL    HW2 6918   3.891   4.874   4.026
 2007SOL     OW 6919   5.428   5.989   0.714
 2007SOL    HW1 6920   5.373   6.073   0.712
 2007SOL    HW2 6921   5.479   5.981   0.628
 2008SOL     OW 6922   0.358   5.786   4.230
 2008SOL    HW1 6923   0.406   5.873   4.243
 2008SOL    HW2 6924   0.386   5.745   4.144
 2009SOL     OW 6925   0.036   0.103   2.106
 2009SOL    HW1 6926   0.106   0.060   2.048
 2009SOL    HW2 6927   6.987   0.036   2.131
 2010SOL     OW 6928   1.491   0.624   0.450
 2010SOL    HW1 6929   1.462   0.706   0.402
 2010SOL    HW2 6930   1.589   0.630   0.471
 2011SOL     OW 6931   6.997   1.919   5.076
 2011SOL    HW1 6932   6.940   1.993   5.113
 2011SOL    HW2 6933   0.071   1.935   5.102
 2012SOL     OW 6934   1.080   3.937   0.986
 2012SOL    HW1 6935   1.168   3.982   0.973
 2012SOL    HW2 6936   1.063   3.874   0.910
 2013SOL     OW 6937   5.120   1.653   2.307
 2013SOL    HW1 6938   5.030   1.614   2.326
 2013SOL    HW2 6939   5.131   1.738   2.360
 2014SOL     OW 6940   2.151   5.559   2.693
 2014SOL    HW1 6941   2.118   5.653   2.679
 2014SOL    HW2 6942   2.080   5.495   2.663
 2015SOL     OW 6943   3.356   0.492   0.109
 2015SOL    HW1 6944   3.401   0.403   0.107
 2015SOL    HW2 6945   3.365   0.536   0.020
 2016SOL     OW 6946   0.187   5.146   4.450
 2016SOL    HW1 6947   0.155   5.110   4.362
 2016SOL    HW2 6948   0.108   5.160   4.511
 2017SOL     OW 6949   2.661   5.685   2.728
 2017SOL    HW1 6950   2.730   5.730   2.672
 2017SOL    HW2 6951   2.660   5.726   2.820
 2018SOL     OW 6952   0.697   5.580   5.641
 2018SOL    HW1 6953   0.775   5.574   5.579
 2018SOL    HW2 6954   0.647   5.494   5.640
 2019SOL     OW 6955   6.320   2.133   2.475
 2019SOL    HW1 6956   6.414   2.111   2.500
 2019SOL    HW2 6957   6.279   2.054   2.429
 2020SOL     OW 6958   2.973   6.006   3.209
 2020SOL    HW1 6959   3.053   6.065   3.212
 2020SOL    HW2 6960   2.906   6.042   3.144
 2021SOL     OW 6961   1.253   0.776   2.245
 2021SOL    HW1 6962   1.208   0.804   2.329
 2021SOL    HW2 6963   1.184   0.750   2.177
 2022SOL     OW 6964   2.020   3.772   1.415
 2022SOL    HW1 6965   2.072   3.780   1.330
 2022SOL    HW2 6966   1.943   3.709   1.402
 2023SOL     OW 6967   6.863   0.973   6.007
 2023SOL    HW1 6968   6.906   1.041   5.947
 2023SOL    HW2 6969   6.907   0.884   5.994
 2024SOL     OW 6970   5.770   1.224   3.972
 2024SOL    HW1 6971   5.670   1.235   3.972
 2024SOL    HW2 6972   5.812   1.298   4.024
 2025SOL     OW 6973   0.078   1.217   1.717
 2025SOL    HW1 6974   0.066   1.271   1.800
 2025SOL    HW2 6975   7.010   1.198   1.676
 2026SOL     OW 6976   1.558   1.574   5.252
 2026SOL    HW1 6977   1.592   1.494   5.302
 2026SOL    HW2 6978   1.617   1.592   5.174
 2027SOL     OW 6979   0.678   1.581   2.847
 2027SOL    HW1 6980   0.732   1.504   2.810
 2027SOL    HW2 6981   0.690   1.661   2.788
 2028SOL     OW 6982   4.157   3.137   0.021
 2028SOL    HW1 6983   4.178   3.104   0.113
 2028SOL    HW2 6984   4.068   3.182   0.020
 2029SOL     OW 6985   0.801   1.183   0.194
 2029SOL    HW1 6986   0.784   1.280   0.206
 2029SOL    HW2 6987   0.899   1.164   0.204
 2030SOL     OW 6988   1.705   1.112   3.436
 2030SOL    HW1 6989   1.712   1.147   3.343
 2030SOL    HW2 6990   1.795   1.083   3.468
 2031SOL     OW 6991   5.927   6.977   1.831
 2031SOL    HW1 6992   5.950   6.905   1.765
 2031SOL    HW2 6993   5.919   6.937   1.922
 2032SOL     OW 6994   5.277   7.003   1.393
 2032SOL    HW1 6995   5.342   6.937   1.431
 2032SOL    HW2 6996   5.197   6.955   1.358
 2033SOL     OW 6997   5.759   5.161   6.591
 2033SOL    HW1 6998   5.676   5.126   6.547
 2033SOL    HW2 6999   5.744   5.256   6.618
 2034SOL     OW 7000   2.016   0.140   2.929
 2034SOL    HW1 7001   2.112   0.165   2.935
 2034SOL    HW2 7002   1.959   0.215   2.963
 2035SOL     OW 7003   1.471   2.314   2.384
 2035SOL    HW1 7004   1.506   2.226   2.417
 2035SOL    HW2 7005   1.372   2.317   2.397
 2036SOL     OW 7006   1.725   4.507   0.406
 2036SOL    HW1 7007   1.675   4.437   0.355
 2036SOL    HW2 7008   1.808   4.466   0.445
 2037SOL     OW 7009   0.015   1.453   5.830
 2037SOL    HW1 7010   0.111   1.427   5.817
 2037SOL    HW2 7011   7.018   1.540   5.784
 2038SOL     OW 7012   0.610   0.867   3.926
 2038SOL    HW1 7013   0.570   0.855   3.835
 2038SOL    HW2 7014   0.677   0.795   3.943
 2039SOL     OW 7015   0.234   5.050   2.254
 2039SOL    HW1 7016   0.140   5.083   2.243
 2039SOL    HW2 7017   0.282   5.056   2.166
 2040SOL     OW 7018   3.987   3.216   4.064
 2040SOL    HW1 7019   4.004   3.137   4.123
 2040SOL    HW2 7020   3.917   3.192   3.997
 2041SOL     OW 7021   6.204   4.135   5.857
 2041SOL    HW1 7022   6.268   4.201   5.816
 2041SOL    HW2 7023   6.201   4.052   5.802
 2042SOL     OW 7024   4.371   5.559   6.837
 2042SOL    HW1 7025   4.429   5.546   6.917
 2042SOL    HW2 7026   4.399   5.494   6.765
 2043SOL     OW 7027   5.840   4.451   1.969
 2043SOL    HW1 7028   5.827   4.460   2.068
 2043SOL    HW2 7029   5.791   4.526   1.923
 2044SOL     OW 7030   6.672   6.741   2.020
 2044SOL    HW1 7031   6.654   6.815   2.084
 2044SOL    HW2 7032   6.738   6.771   1.951
 2045SOL     OW 7033   2.316   5.137   6.180
 2045SOL    HW1 7034   2.283   5.092   6.263
 2045SOL    HW2 7035   2.381   5.077   6.133
 2046SOL     OW 7036   6.521   0.062   4.756
 2046SOL    HW1 7037   6.579   0.139   4.731
 2046SOL    HW2 7038   6.558   6.999   4.717
 2047SOL     OW 7039   5.439   2.576   0.182
 2047SOL    HW1 7040   5.353   2.558   0.231
 2047SOL    HW2 7041   5.437   2.531   0.093
 2048SOL     OW 7042   4.864   0.086   6.010
 2048SOL    HW1 7043   4.950   0.044   5.983
 2048SOL    HW2 7044   4.881   0.157   6.079
 2049SOL     OW 7045   4.668   0.674   0.227
 2049SOL    HW1 7046   4.612   0.633   0.154
 2049SOL    HW2 7047   4.747   0.616   0.246
 2050SOL     OW 7048   5.518   2.987   3.744
 2050SOL    HW1 7049   5.561   3.074   3.719
 2050SOL    HW2 7050   5.555   2.915   3.685
 2051SOL     OW 7051   1.752   5.941   0.445
 2051SOL    HW1 7052   1.657   5.966   0.463
 2051SOL    HW2 7053   1.755   5.850   0.402
 2052SOL     OW 7054   1.060   2.854   0.585
 2052SOL    HW1 7055   0.994   2.795   0.631
 2052SOL    HW2 7056   1.146   2.855   0.636
 2053SOL     OW 7057   6.118   0.519   0.168
 2053SOL    HW1 7058   6.216   0.526   0.152
 2053SOL    HW2 7059   6.090   0.423   0.162
 2054SOL     OW 7060   5.777   2.193   0.465
 2054SOL    HW1 7061   5.801   2.286   0.434
 2054SOL    HW2 7062   5.678   2.186   0.475
 2055SOL     OW 7063   5.613   2.602   4.434
 2055SOL    HW1 7064   5.675   2.653   4.374
 2055SOL    HW2 7065   5.584   2.661   4.510
 2056SOL     OW 7066   2.388   0.594   3.340
 2056SOL    HW1 7067   2.391   0.537   3.258
 2056SOL    HW2 7068   2.477   0.590   3.386
 2057SOL     OW 7069   0.097   3.340   4.082
 2057SOL    HW1 7070   0.081   3.305   4.175
 2057SOL    HW2 7071   0.018   3.321   4.025
 2058SOL     OW 7072   6.748   1.937   2.146
 2058SOL    HW1 7073   6.831   1.890   2.117
 2058SOL    HW2 7074   6.758   1.967   2.241
 2059SOL     OW 7075   1.851   1.649   6.793
 2059SOL    HW1 7076   1.870   1.665   6.696
 2059SOL    HW2 7077   1.776   1.709   6.822
 2060SOL     OW 7078   7.007   5.040   2.498
 2060SOL    HW1 7079   0.049   5.114   2.522
 2060SOL    HW2 7080   7.019   4.964   2.562
 2061SOL     OW 7081   6.797   1.638   2.237
 2061SOL    HW1 7082   6.872   1.692   2.200
 2061SOL    HW2 7083   6.717   1.696   2.250
 2062SOL     OW 7084   4.976   0.472   3.133
 2062SOL    HW1 7085   4.911   0.486   3.208
 2062SOL    HW2 7086   5.029   0.389   3.150
 2063SOL     OW 7087   1.928   2.724   6.258
 2063SOL    HW1 7088   2.025   2.702   6.260
 2063SOL    HW2 7089   1.875   2.644   6.286
 2064SOL     OW 7090   1.032   2.684   0.131
 2064SOL    HW1 7091   1.031   2.756   0.199
 2064SOL    HW2 7092   1.048   2.596   0.176
 2065SOL     OW 7093   6.146   4.056   1.591
 2065SOL    HW1 7094   6.176   4.150   1.606
 2065SOL    HW2 7095   6.059   4.041   1.640
 2066SOL     OW 7096   0.984   0.170   4.327
 2066SOL    HW1 7097   1.008   0.204   4.236
 2066SOL    HW2 7098   0.920   0.232   4.370
 2067SOL     OW 7099   6.605   6.722   1.370
 2067SOL    HW1 7100   6.649   6.713   1.281
 2067SOL    HW2 7101   6.619   6.816   1.404
 2068SOL     OW 7102   1.481   1.813   5.380
 2068SOL    HW1 7103   1.502   1.734   5.322
 2068SOL    HW2 7104   1.435   1.883   5.325
 2069SOL     OW 7105   0.811   2.350   2.070
 2069SOL    HW1 7106   0.885   2.309   2.017
 2069SOL    HW2 7107   0.795   2.444   2.039
 2070SOL     OW 7108   1.000   1.539   2.586
 2070SOL    HW1 7109   0.963   1.629   2.567
 2070SOL    HW2 7110   0.969   1.474   2.517
 2071SOL     OW 7111   1.475   6.885   4.427
 2071SOL    HW1 7112   1.575   6.892   4.417
 2071SOL    HW2 7113   1.445   6.794   4.399
 2072SOL     OW 7114   5.010   5.463   1.685
 2072SOL    HW1 7115   5.027   5.376   1.637
 2072SOL    HW2 7116   5.065   5.535   1.643
 2073SOL     OW 7117   3.012   6.887   5.832
 2073SOL    HW1 7118   2.961   6.940   5.900
 2073SOL    HW2 7119   3.020   6.793   5.863
 2074SOL     OW 7120   6.023   1.567   1.777
 2074SOL    HW1 7121   6.045   1.664   1.767
 2074SOL    HW2 7122   6.099   1.512   1.742
 2075SOL     OW 7123   4.406   3.408   0.607
 2075SOL    HW1 7124   4.339   3.360   0.552
 2075SOL    HW2 7125   4.491   3.355   0.609
 2076SOL     OW 7126   5.577   6.674   1.131
 2076SOL    HW1 7127   5.518   6.729   1.072
 2076SOL    HW2 7128   5.530   6.657   1.218
 2077SOL     OW 7129   5.203   0.998   2.661
 2077SOL    HW1 7130   5.138   1.073   2.642
 2077SOL    HW2 7131   5.293   1.037   2.681
 2078SOL     OW 7132   3.313   4.607   6.048
 2078SOL    HW1 7133   3.253   4.529   6.028
 2078SOL    HW2 7134   3.292   4.641   6.140
 2079SOL     OW 7135   5.265   1.220   4.107
 2079SOL    HW1 7136   5.258   1.317   4.126
 2079SOL    HW2 7137   5.236   1.168   4.188
 2080SOL     OW 7138   2.754   2.194   4.703
 2080SOL    HW1 7139   2.792   2.230   4.787
 2080SOL    HW2 7140   2.654   2.190   4.710
 2081SOL     OW 7141   0.519   6.369   5.195
 2081SOL    HW1 7142   0.454   6.303   5.233
 2081SOL    HW2 7143   0.480   6.461   5.200
 2082SOL     OW 7144   6.027   1.047   1.088
 2082SOL    HW1 7145   6.119   1.052   1.050
 2082SOL    HW2 7146   6.019   1.110   1.166
 2083SOL     OW 7147   3.723   4.788   6.049
 2083SOL    HW1 7148   3.735   4.870   5.993
 2083SOL    HW2 7149   3.695   4.711   5.992
 2084SOL     OW 7150   0.066   2.915   3.027
 2084SOL    HW1 7151   0.032   2.993   3.081
 2084SOL    HW2 7152   7.014   2.881   2.968
 2085SOL     OW 7153   4.791   0.676   5.849
 2085SOL    HW1 7154   4.766   0.584   5.881
 2085SOL    HW2 7155   4.712   0.737   5.858
 2086SOL     OW 7156   2.585   5.292   0.316
 2086SOL    HW1 7157   2.563   5.253   0.405
 2086SOL    HW2 7158   2.562   5.390   0.315
 2087SOL     OW 7159   5.254   0.273   3.338
 2087SOL    HW1 7160   5.272   0.267   3.436
 2087SOL    HW2 7161   5.163   0.235   3.319
 2088SOL     OW 7162   3.570   0.143   0.996
 2088SOL    HW1 7163   3.558   0.056   1.044
 2088SOL    HW2 7164   3.663   0.176   1.011
 2089SOL     OW 7165   4.755   0.758   6.591
 2089SOL    HW1 7166   4.807   0.742   6.675
 2089SOL    HW2 7167   4.659   0.771   6.614
 2090SOL     OW 7168   3.689   3.839   4.839
 2090SOL    HW1 7169   3.630   3.760   4.850
 2090SOL    HW2 7170   3.710   3.852   4.742
 2091SOL     OW 7171   1.864   5.011   1.516
 2091SOL    HW1 7172   1.929   4.976   1.583
 2091SOL    HW2 7173   1.880   4.966   1.428
 2092SOL     OW 7174   6.667   6.213   1.005
 2092SOL    HW1 7175   6.629   6.217   1.097
 2092SOL    HW2 7176   6.690   6.305   0.975
 2093SOL     OW 7177   0.922   3.033   1.964
 2093SOL    HW1 7178   0.981   3.107   1.997
 2093SOL    HW2 7179   0.829   3.068   1.954
 2094SOL     OW 7180   6.117   0.212   2.192
 2094SOL    HW1 7181   6.128   0.115   2.212
 2094SOL    HW2 7182   6.172   0.237   2.112
 2095SOL     OW 7183   5.594   5.573   4.784
 2095SOL    HW1 7184   5.587   5.532   4.693
 2095SOL    HW2 7185   5.640   5.509   4.846
 2096SOL     OW 7186   4.822   4.168   2.433
 2096SOL    HW1 7187   4.769   4.215   2.503
 2096SOL    HW2 7188   4.799   4.206   2.343
 2097SOL     OW 7189   0.152   2.774   0.145
 2097SOL    HW1 7190   0.078   2.797   0.082
 2097SOL    HW2 7191   0.239   2.809   0.110
 2098SOL     OW 7192   4.260   0.273   4.339
 2098SOL    HW1 7193   4.202   0.319   4.273
 2098SOL    HW2 7194   4.290   0.185   4.302
 2099SOL     OW 7195   3.114   1.032   4.099
 2099SOL    HW1 7196   3.125   1.117   4.151
 2099SOL    HW2 7197   3.200   0.980   4.101
 2100SOL     OW 7198   4.849   4.253   6.374
 2100SOL    HW1 7199   4.824   4.252   6.471
 2100SOL    HW2 7200   4.827   4.341   6.334
 2101SOL     OW 7201   0.134   6.966   3.407
 2101SOL    HW1 7202   0.075   0.026   3.415
 2101SOL    HW2 7203   0.178   6.966   3.317
 2102SOL     OW 7204   6.726   5.353   3.543
 2102SOL    HW1 7205   6.683   5.265   3.565
 2102SOL    HW2 7206   6.760   5.395   3.627
 2103SOL     OW 7207   3.469   3.529   6.645
 2103SOL    HW1 7208   3.543   3.586   6.610
 2103SOL    HW2 7209   3.383   3.580   6.642
 2104SOL     OW 7210   1.599   3.218   5.485
 2104SOL    HW1 7211   1.680   3.228   5.426
 2104SOL    HW2 7212   1.517   3.212   5.428
 2105SOL     OW 7213   6.022   5.970   2.039
 2105SOL    HW1 7214   6.011   6.069   2.048
 2105SOL    HW2 7215   6.045   5.931   2.128
 2106SOL     OW 7216   4.995   5.434   6.719
 2106SOL    HW1 7217   5.023   5.523   6.756
 2106SOL    HW2 7218   4.896   5.426   6.725
 2107SOL     OW 7219   4.367   4.317   5.813
 2107SOL    HW1 7220   4.280   4.281   5.846
 2107SOL    HW2 7221   4.378   4.411   5.843
 2108SOL     OW 7222   5.807   5.175   5.584
 2108SOL    HW1 7223   5.896   5.151   5.622
 2108SOL    HW2 7224   5.777   5.103   5.521
 2109SOL     OW 7225   5.677   6.192   2.421
 2109SOL    HW1 7226   5.713   6.117   2.366
 2109SOL    HW2 7227   5.690   6.279   2.373
 2110SOL     OW 7228   2.802   4.138   6.318
 2110SOL    HW1 7229   2.779   4.219   6.372
 2110SOL    HW2 7230   2.727   4.117   6.255
 2111SOL     OW 7231   1.334   2.991   0.004
 2111SOL    HW1 7232   1.371   3.062   6.965
 2111SOL    HW2 7233   1.398   2.975   0.080
 2112SOL     OW 7234   4.785   2.973   1.373
 2112SOL    HW1 7235   4.817   2.921   1.452
 2112SOL    HW2 7236   4.767   2.910   1.297
 2113SOL     OW 7237   0.915   0.438   2.872
 2113SOL    HW1 7238   0.856   0.411   2.948
 2113SOL    HW2 7239   0.922   0.363   2.806
 2114SOL     OW 7240   1.855   3.916   0.115
 2114SOL    HW1 7241   1.907   3.907   0.030
 2114SOL    HW2 7242   1.765   3.956   0.095
 2115SOL     OW 7243   1.867   4.555   2.339
 2115SOL    HW1 7244   1.774   4.575   2.367
 2115SOL    HW2 7245   1.908   4.635   2.295
 2116SOL     OW 7246   0.479   4.583   3.676
 2116SOL    HW1 7247   0.399   4.524   3.688
 2116SOL    HW2 7248   0.522   4.599   3.764
 2117SOL     OW 7249   0.942   5.029   1.039
 2117SOL    HW1 7250   0.851   4.995   1.063
 2117SOL    HW2 7251   0.952   5.124   1.070
 2118SOL     OW 7252   0.365   4.105   2.391
 2118SOL    HW1 7253   0.461   4.133   2.398
 2118SOL    HW2 7254   0.346   4.034   2.460
 2119SOL     OW 7255   1.876   5.836   1.215
 2119SOL    HW1 7256   1.944   5.847   1.287
 2119SOL    HW2 7257   1.915   5.864   1.127
 2120SOL     OW 7258   6.429   4.816   2.269
 2120SOL    HW1 7259   6.389   4.726   2.282
 2120SOL    HW2 7260   6.491   4.836   2.346
 2121SOL     OW 7261   0.277   5.504   5.099
 2121SOL    HW1 7262   0.269   5.445   5.179
 2121SOL    HW2 7263   0.251   5.453   5.017
 2122SOL     OW 7264   4.587   4.356   4.740
 2122SOL    HW1 7265   4.599   4.384   4.835
 2122SOL    HW2 7266   4.507   4.402   4.701
 2123SOL     OW 7267   6.400   4.828   3.072
 2123SOL    HW1 7268   6.425   4.754   3.009
 2123SOL    HW2 7269   6.371   4.908   3.019
 2124SOL     OW 7270   2.059   2.072   1.023
 2124SOL    HW1 7271   2.051   2.076   0.923
 2124SOL    HW2 7272   2.010   1.992   1.057
 2125SOL     OW 7273   2.994   0.835   0.580
 2125SOL    HW1 7274   3.092   0.825   0.598
 2125SOL    HW2 7275   2.961   0.756   0.529
 2126SOL     OW 7276   3.151   0.708   6.283
 2126SOL    HW1 7277   3.124   0.685   6.377
 2126SOL    HW2 7278   3.090   0.779   6.248
 2127SOL     OW 7279   5.694   3.040   4.705
 2127SOL    HW1 7280   5.694   2.982   4.787
 2127SOL    HW2 7281   5.672   3.134   4.731
 2128SOL     OW 7282   0.698   4.817   4.405
 2128SOL    HW1 7283   0.619   4.789   4.352
 2128SOL    HW2 7284   0.742   4.736   4.445
 2129SOL     OW 7285   4.319   1.880   5.812
 2129SOL    HW1 7286   4.307   1.915   5.719
 2129SOL    HW2 7287   4.412   1.900   5.843
 2130SOL     OW 7288   4.726   6.574   2.221
 2130SOL    HW1 7289   4.737   6.599   2.317
 2130SOL    HW2 7290   4.656   6.632   2.180
 2131SOL     OW 7291   6.773   1.281   0.481
 2131SOL    HW1 7292   6.778   1.371   0.524
 2131SOL    HW2 7293   6.853   1.227   0.507
 2132SOL     OW 7294   1.983   2.996   0.386
 2132SOL    HW1 7295   2.035   3.049   0.320
 2132SOL    HW2 7296   1.996   2.898   0.368
 2133SOL     OW 7297   2.715   2.601   5.721
 2133SOL    HW1 7298   2.723   2.591   5.821
 2133SOL    HW2 7299   2.620   2.621   5.698
 2134SOL     OW 7300   0.766   0.890   0.935
 2134SOL    HW1 7301   0.835   0.874   0.864
 2134SOL    HW2 7302   0.683   0.925   0.894
 2135SOL     OW 7303   0.624   4.016   4.320
 2135SOL    HW1 7304   0.532   4.034   4.284
 2135SOL    HW2 7305   0.692   4.038   4.249
 2136SOL     OW 7306   2.259   5.659   1.728
 2136SOL    HW1 7307   2.263   5.729   1.656
 2136SOL    HW2 7308   2.310   5.691   1.808
 2137SOL     OW 7309   2.356   5.253   4.217
 2137SOL    HW1 7310   2.368   5.352   4.209
 2137SOL    HW2 7311   2.383   5.222   4.308
 2138SOL     OW 7312   5.511   1.407   2.324
 2138SOL    HW1 7313   5.568   1.485   2.300
 2138SOL    HW2 7314   5.537   1.373   2.415
 2139SOL     OW 7315   3.301   1.127   5.288
 2139SOL    HW1 7316   3.339   1.186   5.359
 2139SOL    HW2 7317   3.264   1.183   5.214
 2140SOL     OW 7318   2.285   1.373   5.234
 2140SOL    HW1 7319   2.325   1.434   5.166
 2140SOL    HW2 7320   2.192   1.404   5.255
 2141SOL     OW 7321   6.427   4.412   2.121
 2141SOL    HW1 7322   6.497   4.482   2.107
 2141SOL    HW2 7323   6.399   4.375   2.033
 2142SOL     OW 7324   2.038   2.095   3.396
 2142SOL    HW1 7325   1.952   2.130   3.435
 2142SOL    HW2 7326   2.101   2.072   3.469
 2143SOL     OW 7327   2.179   4.392   0.819
 2143SOL    HW1 7328   2.193   4.455   0.896
 2143SOL    HW2 7329   2.267   4.362   0.784
 2144SOL     OW 7330   6.571   5.927   4.547
 2144SOL    HW1 7331   6.490   5.957   4.597
 2144SOL    HW2 7332   6.651   5.979   4.580
 2145SOL     OW 7333   4.168   6.285   3.965
 2145SOL    HW1 7334   4.146   6.198   4.007
 2145SOL    HW2 7335   4.218   6.343   4.029
 2146SOL     OW 7336   2.212   2.942   0.857
 2146SOL    HW1 7337   2.270   2.861   0.861
 2146SOL    HW2 7338   2.123   2.917   0.818
 2147SOL     OW 7339   5.922   1.146   5.410
 2147SOL    HW1 7340   5.834   1.098   5.411
 2147SOL    HW2 7341   5.990   1.091   5.460
 2148SOL     OW 7342   0.137   3.256   6.975
 2148SOL    HW1 7343   0.174   3.223   0.041
 2148SOL    HW2 7344   0.090   3.343   6.990
 2149SOL     OW 7345   0.651   0.314   0.013
 2149SOL    HW1 7346   0.673   0.296   6.938
 2149SOL    HW2 7347   0.635   0.227   0.061
 2150SOL     OW 7348   2.455   3.568   1.485
 2150SOL    HW1 7349   2.391   3.574   1.562
 2150SOL    HW2 7350   2.404   3.554   1.400
 2151SOL     OW 7351   1.282   5.381   0.059
 2151SOL    HW1 7352   1.335   5.464   0.041
 2151SOL    HW2 7353   1.341   5.313   0.102
 2152SOL     OW 7354   4.317   6.016   3.519
 2152SOL    HW1 7355   4.404   5.986   3.481
 2152SOL    HW2 7356   4.262   6.059   3.447
 2153SOL     OW 7357   4.960   1.311   3.478
 2153SOL    HW1 7358   4.972   1.213   3.487
 2153SOL    HW2 7359   5.049   1.356   3.482
 2154SOL     OW 7360   2.957   6.672   2.879
 2154SOL    HW1 7361   3.049   6.634   2.888
 2154SOL    HW2 7362   2.909   6.627   2.803
 2155SOL     OW 7363   4.832   0.053   1.211
 2155SOL    HW1 7364   4.834   0.100   1.299
 2155SOL    HW2 7365   4.745   0.004   1.201
 2156SOL     OW 7366   5.701   1.820   4.206
 2156SOL    HW1 7367   5.643   1.888   4.250
 2156SOL    HW2 7368   5.782   1.865   4.168
 2157SOL     OW 7369   3.342   5.279   3.728
 2157SOL    HW1 7370   3.258   5.290   3.675
 2157SOL    HW2 7371   3.393   5.200   3.694
 2158SOL     OW 7372   3.272   0.994   0.271
 2158SOL    HW1 7373   3.231   1.039   0.192
 2158SOL    HW2 7374   3.371   1.013   0.272
 2159SOL     OW 7375   1.224   0.380   5.990
 2159SOL    HW1 7376   1.290   0.321   5.944
 2159SOL    HW2 7377   1.257   0.400   6.083
 2160SOL     OW 7378   5.511   6.135   0.514
 2160SOL    HW1 7379   5.556   6.089   0.437
 2160SOL    HW2 7380   5.581   6.176   0.573
 2161SOL     OW 7381   1.447   2.965   2.523
 2161SOL    HW1 7382   1.500   2.998   2.602
 2161SOL    HW2 7383   1.360   3.014   2.519
 2162SOL     OW 7384   1.805   0.406   2.709
 2162SOL    HW1 7385   1.727   0.399   2.647
 2162SOL    HW2 7386   1.865   0.327   2.697
 2163SOL     OW 7387   1.541   3.241   1.730
 2163SOL    HW1 7388   1.461   3.188   1.700
 2163SOL    HW2 7389   1.569   3.303   1.656
 2164SOL     OW 7390   1.718   2.606   2.879
 2164SOL    HW1 7391   1.719   2.514   2.842
 2164SOL    HW2 7392   1.630   2.650   2.860
 2165SOL     OW 7393   0.005   1.816   4.026
 2165SOL    HW1 7394   6.995   1.910   4.043
 2165SOL    HW2 7395   0.056   1.813   3.940
 2166SOL     OW 7396   6.904   3.973   3.431
 2166SOL    HW1 7397   6.885   3.942   3.338
 2166SOL    HW2 7398   6.903   4.073   3.434
 2167SOL     OW 7399   2.009   2.105   4.439
 2167SOL    HW1 7400   1.944   2.051   4.493
 2167SOL    HW2 7401   2.063   2.162   4.500
 2168SOL     OW 7402   1.473   1.869   3.131
 2168SOL    HW1 7403   1.535   1.882   3.208
 2168SOL    HW2 7404   1.435   1.777   3.134
 2169SOL     OW 7405   0.208   0.887   1.904
 2169SOL    HW1 7406   0.296   0.877   1.858
 2169SOL    HW2 7407   0.200   0.980   1.940
 2170SOL     OW 7408   1.025   4.317   5.973
 2170SOL    HW1 7409   0.988   4.261   6.047
 2170SOL    HW2 7410   0.972   4.401   5.965
 2171SOL     OW 7411   0.559   5.321   1.069
 2171SOL    HW1 7412   0.605   5.312   1.157
 2171SOL    HW2 7413   0.460   5.322   1.084
 2172SOL     OW 7414   0.525   1.800   4.898
 2172SOL    HW1 7415   0.529   1.740   4.818
 2172SOL    HW2 7416   0.430   1.829   4.912
 2173SOL     OW 7417   5.487   0.410   5.531
 2173SOL    HW1 7418   5.481   0.437   5.627
 2173SOL    HW2 7419   5.583   0.401   5.504
 2174SOL     OW 7420   0.098   6.108   5.157
 2174SOL    HW1 7421   0.049   6.023   5.177
 2174SOL    HW2 7422   0.195   6.097   5.177
 2175SOL     OW 7423   3.107   3.692   5.272
 2175SOL    HW1 7424   3.180   3.747   5.232
 2175SOL    HW2 7425   3.041   3.667   5.201
 2176SOL     OW 7426   5.482   2.099   1.052
 2176SOL    HW1 7427   5.444   2.119   1.142
 2176SOL    HW2 7428   5.491   2.184   1.000
 2177SOL     OW 7429   0.533   0.376   3.562
 2177SOL    HW1 7430   0.540   0.290   3.612
 2177SOL    HW2 7431   0.450   0.425   3.591
 2178SOL     OW 7432   0.855   2.203   2.612
 2178SOL    HW1 7433   0.851   2.161   2.521
 2178SOL    HW2 7434   0.951   2.206   2.642
 2179SOL     OW 7435   1.668   4.466   6.442
 2179SOL    HW1 7436   1.614   4.428   6.517
 2179SOL    HW2 7437   1.750   4.410   6.428
 2180SOL     OW 7438   0.770   5.436   1.734
 2180SOL    HW1 7439   0.814   5.348   1.750
 2180SOL    HW2 7440   0.818   5.508   1.785
 2181SOL     OW 7441   4.237   4.936   3.884
 2181SOL    HW1 7442   4.322   4.958   3.836
 2181SOL    HW2 7443   4.254   4.864   3.951
 2182SOL     OW 7444   0.305   5.428   2.787
 2182SOL    HW1 7445   0.225   5.390   2.739
 2182SOL    HW2 7446   0.281   5.444   2.883
 2183SOL     OW 7447   3.650   3.005   0.167
 2183SOL    HW1 7448   3.716   2.959   0.226
 2183SOL    HW2 7449   3.562   2.957   0.171
 2184SOL     OW 7450   6.391   0.528   0.096
 2184SOL    HW1 7451   6.420   0.489   0.184
 2184SOL    HW2 7452   6.472   0.551   0.041
 2185SOL     OW 7453   0.381   1.340   6.615
 2185SOL    HW1 7454   0.376   1.439   6.600
 2185SOL    HW2 7455   0.333   1.317   6.699
 2186SOL     OW 7456   0.010   5.417   4.816
 2186SOL    HW1 7457   6.948   5.442   4.865
 2186SOL    HW2 7458   0.028   5.484   4.744
 2187SOL     OW 7459   0.560   5.600   2.975
 2187SOL    HW1 7460   0.555   5.697   2.998
 2187SOL    HW2 7461   0.656   5.571   2.977
 2188SOL     OW 7462   1.777   0.383   0.807
 2188SOL    HW1 7463   1.846   0.355   0.740
 2188SOL    HW2 7464   1.734   0.468   0.776
 2189SOL     OW 7465   2.765   1.705   1.491
 2189SOL    HW1 7466   2.722   1.715   1.401
 2189SOL    HW2 7467   2.759   1.791   1.540
 2190SOL     OW 7468   6.474   4.362   2.447
 2190SOL    HW1 7469   6.481   4.271   2.407
 2190SOL    HW2 7470   6.378   4.386   2.460
 2191SOL     OW 7471   2.674   0.786   6.279
 2191SOL    HW1 7472   2.592   0.840   6.261
 2191SOL    HW2 7473   2.689   0.722   6.203
 2192SOL     OW 7474   4.503   0.890   2.164
 2192SOL    HW1 7475   4.461   0.820   2.106
 2192SOL    HW2 7476   4.577   0.849   2.217
 2193SOL     OW 7477   0.325   6.967   6.331
 2193SOL    HW1 7478   0.406   6.985   6.275
 2193SOL    HW2 7479   0.280   6.884   6.299
 2194SOL     OW 7480   0.917   4.811   5.759
 2194SOL    HW1 7481   0.817   4.812   5.761
 2194SOL    HW2 7482   0.948   4.744   5.693
 2195SOL     OW 7483   0.359   4.279   6.606
 2195SOL    HW1 7484   0.423   4.206   6.581
 2195SOL    HW2 7485   0.406   4.367   6.600
 2196SOL     OW 7486   2.827   5.794   5.521
 2196SOL    HW1 7487   2.767   5.734   5.573
 2196SOL    HW2 7488   2.878   5.853   5.584
 2197SOL     OW 7489   2.681   4.612   5.482
 2197SOL    HW1 7490   2.630   4.668   5.548
 2197SOL    HW2 7491   2.680   4.656   5.393
 2198SOL     OW 7492   0.550   0.642   6.495
 2198SOL    HW1 7493   0.557   0.710   6.569
 2198SOL    HW2 7494   0.455   0.635   6.465
 2199SOL     OW 7495   4.092   6.896   4.466
 2199SOL    HW1 7496   4.002   6.939   4.455
 2199SOL    HW2 7497   4.125   6.864   4.377
 2200SOL     OW 7498   2.906   1.477   4.306
 2200SOL    HW1 7499   2.968   1.539   4.354
 2200SOL    HW2 7500   2.819   1.473   4.354
 2201SOL     OW 7501   6.337   3.813   3.999
 2201SOL    HW1 7502   6.322   3.847   4.092
 2201SOL    HW2 7503   6.261   3.840   3.940
 2202SOL     OW 7504   3.924   5.561   1.937
 2202SOL    HW1 7505   3.876   5.600   1.859
 2202SOL    HW2 7506   3.978   5.632   1.983
 2203SOL     OW 7507   2.031   3.765   1.156
 2203SOL    HW1 7508   1.998   3.678   1.119
 2203SOL    HW2 7509   2.031   3.834   1.084
 2204SOL     OW 7510   4.574   3.005   1.102
 2204SOL    HW1 7511   4.518   3.010   1.185
 2204SOL    HW2 7512   4.651   2.944   1.118
 2205SOL     OW 7513   1.749   5.718   0.028
 2205SOL    HW1 7514   1.665   5.737   0.079
 2205SOL    HW2 7515   1.772   5.621   0.037
 2206SOL     OW 7516   2.381   3.171   6.343
 2206SOL    HW1 7517   2.314   3.113   6.297
 2206SOL    HW2 7518   2.474   3.143   6.317
 2207SOL     OW 7519   4.509   6.049   0.865
 2207SOL    HW1 7520   4.430   6.092   0.822
 2207SOL    HW2 7521   4.478   5.975   0.925
 2208SOL     OW 7522   0.823   5.674   3.752
 2208SOL    HW1 7523   0.880   5.686   3.671
 2208SOL    HW2 7524   0.748   5.740   3.750
 2209SOL     OW 7525   2.930   5.355   5.068
 2209SOL    HW1 7526   2.893   5.283   5.010
 2209SOL    HW2 7527   3.030   5.355   5.062
 2210SOL     OW 7528   5.436   6.122   1.413
 2210SOL    HW1 7529   5.338   6.109   1.428
 2210SOL    HW2 7530   5.453   6.134   1.315
 2211SOL     OW 7531   6.553   0.643   0.828
 2211SOL    HW1 7532   6.617   0.698   0.881
 2211SOL    HW2 7533   6.564   0.547   0.851
 2212SOL     OW 7534   2.817   6.182   6.485
 2212SOL    HW1 7535   2.885   6.114   6.511
 2212SOL    HW2 7536   2.856   6.273   6.493
 2213SOL     OW 7537   3.671   1.984   4.264
 2213SOL    HW1 7538   3.724   2.024   4.339
 2213SOL    HW2 7539   3.630   1.898   4.294
 2214SOL     OW 7540   4.422   3.022   5.571
 2214SOL    HW1 7541   4.483   3.095   5.540
 2214SOL    HW2 7542   4.396   3.039   5.666
 2215SOL     OW 7543   4.967   0.518   6.674
 2215SOL    HW1 7544   5.040   0.451   6.663
 2215SOL    HW2 7545   4.883   0.483   6.631
 2216SOL     OW 7546   0.419   6.723   6.545
 2216SOL    HW1 7547   0.444   6.641   6.494
 2216SOL    HW2 7548   0.481   6.798   6.521
 2217SOL     OW 7549   4.095   0.558   2.824
 2217SOL    HW1 7550   4.138   0.524   2.741
 2217SOL    HW2 7551   4.031   0.631   2.801
 2218SOL     OW 7552   0.407   5.035   5.855
 2218SOL    HW1 7553   0.340   5.108   5.869
 2218SOL    HW2 7554   0.390   4.961   5.920
 2219SOL     OW 7555   5.199   1.426   0.415
 2219SOL    HW1 7556   5.259   1.412   0.337
 2219SOL    HW2 7557   5.167   1.337   0.449
 2220SOL     OW 7558   0.748   6.390   5.716
 2220SOL    HW1 7559   0.676   6.396   5.785
 2220SOL    HW2 7560   0.726   6.319   5.650
 2221SOL     OW 7561   6.962   0.840   4.915
 2221SOL    HW1 7562   6.936   0.864   4.822
 2221SOL    HW2 7563   6.999   0.920   4.962
 2222SOL     OW 7564   5.279   6.218   1.185
 2222SOL    HW1 7565   5.344   6.237   1.111
 2222SOL    HW2 7566   5.200   6.169   1.148
 2223SOL     OW 7567   6.745   0.129   5.645
 2223SOL    HW1 7568   6.685   0.049   5.639
 2223SOL    HW2 7569   6.690   0.212   5.638
 2224SOL     OW 7570   5.311   4.176   1.363
 2224SOL    HW1 7571   5.365   4.127   1.295
 2224SOL    HW2 7572   5.357   4.262   1.387
 2225SOL     OW 7573   0.684   6.564   3.204
 2225SOL    HW1 7574   0.602   6.534   3.155
 2225SOL    HW2 7575   0.750   6.489   3.208
 2226SOL     OW 7576   2.607   5.200   0.570
 2226SOL    HW1 7577   2.680   5.256   0.611
 2226SOL    HW2 7578   2.534   5.188   0.637
 2227SOL     OW 7579   4.253   2.314   1.800
 2227SOL    HW1 7580   4.233   2.387   1.735
 2227SOL    HW2 7581   4.276   2.231   1.749
 2228SOL     OW 7582   4.857   4.542   0.187
 2228SOL    HW1 7583   4.872   4.444   0.178
 2228SOL    HW2 7584   4.855   4.584   0.096
 2229SOL     OW 7585   3.389   3.570   4.503
 2229SOL    HW1 7586   3.393   3.670   4.497
 2229SOL    HW2 7587   3.413   3.530   4.415
 2230SOL     OW 7588   5.198   6.591   0.395
 2230SOL    HW1 7589   5.250   6.530   0.336
 2230SOL    HW2 7590   5.226   6.578   0.490
 2231SOL     OW 7591   0.618   0.977   0.153
 2231SOL    HW1 7592   0.615   0.990   0.054
 2231SOL    HW2 7593   0.683   1.042   0.193
 2232SOL     OW 7594   1.398   0.606   5.773
 2232SOL    HW1 7595   1.360   0.525   5.727
 2232SOL    HW2 7596   1.325   0.669   5.795
 2233SOL     OW 7597   3.413   3.214   1.113
 2233SOL    HW1 7598   3.451   3.292   1.162
 2233SOL    HW2 7599   3.318   3.234   1.088
 2234SOL     OW 7600   3.917   1.403   0.211
 2234SOL    HW1 7601   3.910   1.457   0.295
 2234SOL    HW2 7602   3.829   1.403   0.164
 2235SOL     OW 7603   2.654   0.942   2.322
 2235SOL    HW1 7604   2.672   1.036   2.294
 2235SOL    HW2 7605   2.677   0.880   2.247
 2236SOL     OW 7606   1.835   4.087   5.557
 2236SOL    HW1 7607   1.882   4.128   5.479
 2236SOL    HW2 7608   1.883   4.003   5.584
 2237SOL     OW 7609   5.411   5.021   5.084
 2237SOL    HW1 7610   5.379   4.929   5.061
 2237SOL    HW2 7611   5.500   5.037   5.042
 2238SOL     OW 7612   5.018   4.524   2.354
 2238SOL    HW1 7613   5.036   4.617   2.385
 2238SOL    HW2 7614   5.105   4.474   2.346
 2239SOL     OW 7615   3.914   6.748   3.542
 2239SOL    HW1 7616   3.911   6.820   3.611
 2239SOL    HW2 7617   3.827   6.698   3.541
 2240SOL     OW 7618   5.213   6.024   2.957
 2240SOL    HW1 7619   5.255   6.115   2.964
 2240SOL    HW2 7620   5.192   6.005   2.861
 2241SOL     OW 7621   0.600   6.876   1.736
 2241SOL    HW1 7622   0.665   6.852   1.664
 2241SOL    HW2 7623   0.644   6.939   1.801
 2242SOL     OW 7624   4.875   3.107   3.106
 2242SOL    HW1 7625   4.874   3.090   3.007
 2242SOL    HW2 7626   4.852   3.022   3.154
 2243SOL     OW 7627   1.711   6.522   0.667
 2243SOL    HW1 7628   1.750   6.518   0.759
 2243SOL    HW2 7629   1.776   6.482   0.602
 2244SOL     OW 7630   2.371   0.782   0.644
 2244SOL    HW1 7631   2.414   0.868   0.669
 2244SOL    HW2 7632   2.302   0.758   0.711
 2245SOL     OW 7633   0.630   1.226   0.765
 2245SOL    HW1 7634   0.567   1.286   0.715
 2245SOL    HW2 7635   0.657   1.270   0.850
 2246SOL     OW 7636   2.537   0.739   5.013
 2246SOL    HW1 7637   2.460   0.749   5.076
 2246SOL    HW2 7638   2.611   0.690   5.059
 2247SOL     OW 7639   3.344   4.164   2.524
 2247SOL    HW1 7640   3.441   4.187   2.515
 2247SOL    HW2 7641   3.301   4.162   2.434
 2248SOL     OW 7642   5.661   4.401   5.049
 2248SOL    HW1 7643   5.578   4.395   5.104
 2248SOL    HW2 7644   5.724   4.328   5.076
 2249SOL     OW 7645   2.775   6.538   4.057
 2249SOL    HW1 7646   2.818   6.542   4.148
 2249SOL    HW2 7647   2.685   6.581   4.061
 2250SOL     OW 7648   3.980   3.600   5.938
 2250SOL    HW1 7649   3.895   3.634   5.899
 2250SOL    HW2 7650   4.019   3.530   5.878
 2251SOL     OW 7651   5.382   6.294   6.211
 2251SOL    HW1 7652   5.469   6.254   6.239
 2251SOL    HW2 7653   5.395   6.392   6.196
 2252SOL     OW 7654   5.107   1.411   2.747
 2252SOL    HW1 7655   5.043   1.436   2.819
 2252SOL    HW2 7656   5.187   1.472   2.750
 2253SOL     OW 7657   0.567   3.286   0.855
 2253SOL    HW1 7658   0.658   3.268   0.819
 2253SOL    HW2 7659   0.503   3.215   0.824
 2254SOL     OW 7660   3.787   4.030   2.639
 2254SOL    HW1 7661   3.805   4.070   2.729
 2254SOL    HW2 7662   3.873   4.005   2.595
 2255SOL     OW 7663   2.684   4.171   5.476
 2255SOL    HW1 7664   2.746   4.101   5.512
 2255SOL    HW2 7665   2.738   4.246   5.436
 2256SOL     OW 7666   5.220   6.068   2.069
 2256SOL    HW1 7667   5.143   6.006   2.081
 2256SOL    HW2 7668   5.194   6.143   2.008
 2257SOL     OW 7669   0.258   1.836   4.493
 2257SOL    HW1 7670   0.177   1.796   4.536
 2257SOL    HW2 7671   0.264   1.804   4.398
 2258SOL     OW 7672   2.028   6.790   4.784
 2258SOL    HW1 7673   2.122   6.757   4.786
 2258SOL    HW2 7674   1.966   6.715   4.807
 2259SOL     OW 7675   6.610   2.853   4.424
 2259SOL    HW1 7676   6.571   2.861   4.332
 2259SOL    HW2 7677   6.544   2.885   4.492
 2260SOL     OW 7678   0.987   3.981   1.747
 2260SOL    HW1 7679   0.973   3.965   1.649
 2260SOL    HW2 7680   1.084   3.973   1.768
 2261SOL     OW 7681   5.777   3.486   0.186
 2261SOL    HW1 7682   5.799   3.573   0.231
 2261SOL    HW2 7683   5.679   3.469   0.194
 2262SOL     OW 7684   6.642   0.637   3.971
 2262SOL    HW1 7685   6.664   0.563   4.034
 2262SOL    HW2 7686   6.709   0.711   3.982
 2263SOL     OW 7687   1.277   4.940   0.623
 2263SOL    HW1 7688   1.369   4.971   0.649
 2263SOL    HW2 7689   1.209   4.983   0.682
 2264SOL     OW 7690   2.128   6.771   6.328
 2264SOL    HW1 7691   2.190   6.847   6.310
 2264SOL    HW2 7692   2.073   6.753   6.246
 2265SOL     OW 7693   1.377   6.996   4.059
 2265SOL    HW1 7694   1.457   6.999   4.000
 2265SOL    HW2 7695   1.367   6.904   4.098
 2266SOL     OW 7696   5.161   1.391   6.376
 2266SOL    HW1 7697   5.202   1.337   6.302
 2266SOL    HW2 7698   5.207   1.371   6.462
 2267SOL     OW 7699   4.764   2.554   4.825
 2267SOL    HW1 7700   4.697   2.486   4.794
 2267SOL    HW2 7701   4.719   2.621   4.884
 2268SOL     OW 7702   6.527   4.030   6.410
 2268SOL    HW1 7703   6.471   4.003   6.331
 2268SOL    HW2 7704   6.485   4.108   6.456
 2269SOL     OW 7705   1.059   3.179   5.098
 2269SOL    HW1 7706   1.128   3.132   5.043
 2269SOL    HW2 7707   1.081   3.169   5.195
 2270SOL     OW 7708   4.277   3.029   5.807
 2270SOL    HW1 7709   4.248   3.121   5.833
 2270SOL    HW2 7710   4.339   2.992   5.877
 2271SOL     OW 7711   5.847   4.222   6.544
 2271SOL    HW1 7712   5.781   4.262   6.608
 2271SOL    HW2 7713   5.798   4.169   6.474
 2272SOL     OW 7714   6.254   0.670   6.049
 2272SOL    HW1 7715   6.156   0.648   6.056
 2272SOL    HW2 7716   6.283   0.721   6.130
 2273SOL     OW 7717   1.960   2.633   2.562
 2273SOL    HW1 7718   1.912   2.557   2.606
 2273SOL    HW2 7719   1.942   2.631   2.463
 2274SOL     OW 7720   0.543   1.283   0.225
 2274SOL    HW1 7721   0.497   1.319   0.144
 2274SOL    HW2 7722   0.625   1.233   0.198
 2275SOL     OW 7723   5.967   4.844   2.477
 2275SOL    HW1 7724   6.032   4.768   2.485
 2275SOL    HW2 7725   6.000   4.909   2.409
 2276SOL     OW 7726   1.539   1.230   1.279
 2276SOL    HW1 7727   1.617   1.283   1.311
 2276SOL    HW2 7728   1.510   1.167   1.351
 2277SOL     OW 7729   3.561   4.114   3.677
 2277SOL    HW1 7730   3.568   4.016   3.694
 2277SOL    HW2 7731   3.469   4.146   3.702
 2278SOL     OW 7732   0.556   3.223   3.833
 2278SOL    HW1 7733   0.474   3.184   3.874
 2278SOL    HW2 7734   0.542   3.233   3.734
 2279SOL     OW 7735   0.030   5.813   6.354
 2279SOL    HW1 7736   6.960   5.801   6.394
 2279SOL    HW2 7737   0.084   5.877   6.409
 2280SOL     OW 7738   5.072   0.944   5.632
 2280SOL    HW1 7739   4.972   0.949   5.633
 2280SOL    HW2 7740   5.107   0.987   5.549
 2281SOL     OW 7741   4.656   6.302   2.429
 2281SOL    HW1 7742   4.654   6.218   2.375
 2281SOL    HW2 7743   4.649   6.381   2.368
 2282SOL     OW 7744   4.684   5.325   5.575
 2282SOL    HW1 7745   4.624   5.345   5.652
 2282SOL    HW2 7746   4.637   5.265   5.510
 2283SOL     OW 7747   1.687   0.642   3.257
 2283SOL    HW1 7748   1.667   0.707   3.331
 2283SOL    HW2 7749   1.690   0.691   3.170
 2284SOL     OW 7750   0.603   3.196   6.230
 2284SOL    HW1 7751   0.507   3.195   6.260
 2284SOL    HW2 7752   0.663   3.184   6.308
 2285SOL     OW 7753   0.984   3.671   0.242
 2285SOL    HW1 7754   0.963   3.606   0.170
 2285SOL    HW2 7755   1.081   3.698   0.235
 2286SOL     OW 7756   5.010   6.909   3.246
 2286SOL    HW1 7757   5.093   6.855   3.260
 2286SOL    HW2 7758   4.955   6.866   3.174
 2287SOL     OW 7759   2.652   1.203   3.465
 2287SOL    HW1 7760   2.636   1.191   3.563
 2287SOL    HW2 7761   2.600   1.134   3.414
 2288SOL     OW 7762   0.334   5.178   3.620
 2288SOL    HW1 7763   0.297   5.167   3.712
 2288SOL    HW2 7764   0.386   5.263   3.615
 2289SOL     OW 7765   0.289   5.460   1.750
 2289SOL    HW1 7766   0.308   5.489   1.657
 2289SOL    HW2 7767   0.211   5.512   1.786
 2290SOL     OW 7768   1.214   4.411   0.912
 2290SOL    HW1 7769   1.238   4.476   0.840
 2290SOL    HW2 7770   1.116   4.392   0.909
 2291SOL     OW 7771   3.012   1.666   6.016
 2291SOL    HW1 7772   2.973   1.742   6.067
 2291SOL    HW2 7773   2.939   1.617   5.968
 2292SOL     OW 7774   1.283   0.925   4.672
 2292SOL    HW1 7775   1.278   0.866   4.752
 2292SOL    HW2 7776   1.245   1.015   4.694
 2293SOL     OW 7777   5.079   5.226   1.559
 2293SOL    HW1 7778   5.068   5.190   1.466
 2293SOL    HW2 7779   5.170   5.266   1.569
 2294SOL     OW 7780   3.954   0.001   6.692
 2294SOL    HW1 7781   4.018   0.059   6.742
 2294SOL    HW2 7782   3.918   6.951   6.753
 2295SOL     OW 7783   0.205   1.885   1.989
 2295SOL    HW1 7784   0.151   1.955   2.035
 2295SOL    HW2 7785   0.290   1.925   1.955
 2296SOL     OW 7786   3.371   1.061   0.752
 2296SOL    HW1 7787   3.295   0.997   0.740
 2296SOL    HW2 7788   3.347   1.149   0.711
 2297SOL     OW 7789   4.653   4.378   5.462
 2297SOL    HW1 7790   4.654   4.279   5.475
 2297SOL    HW2 7791   4.618   4.400   5.371
 2298SOL     OW 7792   3.510   2.230   1.382
 2298SOL    HW1 7793   3.447   2.176   1.439
 2298SOL    HW2 7794   3.596   2.180   1.371
 2299SOL     OW 7795   5.149   6.199   6.871
 2299SOL    HW1 7796   5.193   6.134   6.932
 2299SOL    HW2 7797   5.170   6.292   6.901
 2300SOL     OW 7798   1.733   5.317   1.572
 2300SOL    HW1 7799   1.793   5.241   1.596
 2300SOL    HW2 7800   1.765   5.360   1.487
 2301SOL     OW 7801   3.259   3.454   3.129
 2301SOL    HW1 7802   3.171   3.413   3.108
 2301SOL    HW2 7803   3.256   3.552   3.108
 2302SOL     OW 7804   3.728   6.092   2.295
 2302SOL    HW1 7805   3.826   6.106   2.307
 2302SOL    HW2 7806   3.713   6.015   2.233
 2303SOL     OW 7807   1.209   3.431   5.137
 2303SOL    HW1 7808   1.135   3.398   5.079
 2303SOL    HW2 7809   1.188   3.523   5.169
 2304SOL     OW 7810   2.482   0.278   3.307
 2304SOL    HW1 7811   2.552   0.313   3.244
 2304SOL    HW2 7812   2.521   0.270   3.399
 2305SOL     OW 7813   3.977   5.767   2.382
 2305SOL    HW1 7814   4.053   5.820   2.419
 2305SOL    HW2 7815   3.902   5.765   2.449
 2306SOL     OW 7816   2.221   4.742   1.855
 2306SOL    HW1 7817   2.129   4.704   1.843
 2306SOL    HW2 7818   2.275   4.726   1.772
 2307SOL     OW 7819   1.494   3.689   3.157
 2307SOL    HW1 7820   1.529   3.686   3.063
 2307SOL    HW2 7821   1.419   3.755   3.162
 2308SOL     OW 7822   0.960   1.003   6.764
 2308SOL    HW1 7823   1.021   0.968   6.692
 2308SOL    HW2 7824   0.877   1.040   6.723
 2309SOL     OW 7825   3.413   5.541   0.177
 2309SOL    HW1 7826   3.464   5.465   0.137
 2309SOL    HW2 7827   3.449   5.562   0.268
 2310SOL     OW 7828   6.223   0.044   1.893
 2310SOL    HW1 7829   6.232   7.003   1.814
 2310SOL    HW2 7830   6.185   0.131   1.862
 2311SOL     OW 7831   2.938   6.949   2.517
 2311SOL    HW1 7832   2.871   6.922   2.586
 2311SOL    HW2 7833   2.892   6.969   2.431
 2312SOL     OW 7834   3.547   6.985   2.761
 2312SOL    HW1 7835   3.571   7.019   2.852
 2312SOL    HW2 7836   3.614   6.918   2.732
 2313SOL     OW 7837   5.093   4.022   2.126
 2313SOL    HW1 7838   5.138   4.091   2.070
 2313SOL    HW2 7839   4.997   4.014   2.099
 2314SOL     OW 7840   5.937   0.540   3.662
 2314SOL    HW1 7841   5.887   0.539   3.749
 2314SOL    HW2 7842   6.000   0.619   3.661
 2315SOL     OW 7843   4.783   3.806   5.932
 2315SOL    HW1 7844   4.850   3.879   5.941
 2315SOL    HW2 7845   4.733   3.796   6.018
 2316SOL     OW 7846   2.777   1.034   6.019
 2316SOL    HW1 7847   2.871   1.069   6.011
 2316SOL    HW2 7848   2.776   0.937   5.999
 2317SOL     OW 7849   6.368   6.054   3.880
 2317SOL    HW1 7850   6.400   6.148   3.867
 2317SOL    HW2 7851   6.312   6.049   3.963
 2318SOL     OW 7852   2.116   3.548   4.597
 2318SOL    HW1 7853   2.135   3.634   4.551
 2318SOL    HW2 7854   2.138   3.557   4.694
 2319SOL     OW 7855   2.668   5.206   4.827
 2319SOL    HW1 7856   2.765   5.181   4.820
 2319SOL    HW2 7857   2.618   5.166   4.750
 2320SOL     OW 7858   1.154   3.054   5.338
 2320SOL    HW1 7859   1.067   3.068   5.385
 2320SOL    HW2 7860   1.191   2.964   5.362
 2321SOL     OW 7861   2.789   4.635   6.519
 2321SOL    HW1 7862   2.884   4.605   6.523
 2321SOL    HW2 7863   2.747   4.601   6.435
 2322SOL     OW 7864   2.169   3.688   2.206
 2322SOL    HW1 7865   2.171   3.626   2.285
 2322SOL    HW2 7866   2.161   3.636   2.122
 2323SOL     OW 7867   3.432   5.243   2.243
 2323SOL    HW1 7868   3.480   5.195   2.170
 2323SOL    HW2 7869   3.359   5.299   2.204
 2324SOL     OW 7870   6.956   6.100   1.923
 2324SOL    HW1 7871   6.875   6.042   1.923
 2324SOL    HW2 7872   0.010   6.055   1.875
 2325SOL     OW 7873   6.758   5.060   1.765
 2325SOL    HW1 7874   6.724   5.001   1.838
 2325SOL    HW2 7875   6.774   5.005   1.683
 2326SOL     OW 7876   1.597   6.038   6.494
 2326SOL    HW1 7877   1.609   5.970   6.566
 2326SOL    HW2 7878   1.632   6.126   6.526
 2327SOL     OW 7879   0.057   0.560   2.947
 2327SOL    HW1 7880   0.013   0.641   2.987
 2327SOL    HW2 7881   0.156   0.566   2.961
 2328SOL     OW 7882   1.585   1.689   2.193
 2328SOL    HW1 7883   1.637   1.770   2.165
 2328SOL    HW2 7884   1.487   1.709   2.190
 2329SOL     OW 7885   0.500   4.295   4.429
 2329SOL    HW1 7886   0.562   4.218   4.446
 2329SOL    HW2 7887   0.406   4.261   4.424
 2330SOL     OW 7888   0.096   2.987   0.546
 2330SOL    HW1 7889   0.128   3.025   0.634
 2330SOL    HW2 7890   0.032   3.050   0.504
 2331SOL     OW 7891   3.459   5.320   0.045
 2331SOL    HW1 7892   3.533   5.348   7.005
 2331SOL    HW2 7893   3.371   5.341   0.002
 2332SOL     OW 7894   5.770   0.049   5.645
 2332SOL    HW1 7895   5.721   6.983   5.651
 2332SOL    HW2 7896   5.776   0.091   5.735
 2333SOL     OW 7897   6.708   5.140   2.907
 2333SOL    HW1 7898   6.746   5.053   2.877
 2333SOL    HW2 7899   6.657   5.127   2.992
 2334SOL     OW 7900   1.288   1.291   6.710
 2334SOL    HW1 7901   1.276   1.267   6.614
 2334SOL    HW2 7902   1.219   1.360   6.735
 2335SOL     OW 7903   5.807   0.700   4.457
 2335SOL    HW1 7904   5.829   0.793   4.486
 2335SOL    HW2 7905   5.892   0.651   4.434
 2336SOL     OW 7906   2.883   2.016   3.637
 2336SOL    HW1 7907   2.813   1.966   3.687
 2336SOL    HW2 7908   2.889   1.982   3.544
 2337SOL     OW 7909   4.181   1.324   1.689
 2337SOL    HW1 7910   4.215   1.265   1.616
 2337SOL    HW2 7911   4.157   1.268   1.768
 2338SOL     OW 7912   0.865   4.036   4.185
 2338SOL    HW1 7913   0.920   3.956   4.210
 2338SOL    HW2 7914   0.905   4.079   4.104
 2339SOL     OW 7915   2.958   3.691   3.613
 2339SOL    HW1 7916   3.010   3.755   3.669
 2339SOL    HW2 7917   2.950   3.727   3.520
 2340SOL     OW 7918   0.274   4.712   0.147
 2340SOL    HW1 7919   0.363   4.754   0.165
 2340SOL    HW2 7920   0.283   4.613   0.147
 2341SOL     OW 7921   2.356   4.793   2.471
 2341SOL    HW1 7922   2.373   4.729   2.395
 2341SOL    HW2 7923   2.257   4.803   2.484
 2342SOL     OW 7924   2.006   6.844   4.514
 2342SOL    HW1 7925   1.986   6.938   4.489
 2342SOL    HW2 7926   2.017   6.837   4.614
 2343SOL     OW 7927   2.631   6.036   2.826
 2343SOL    HW1 7928   2.631   6.001   2.733
 2343SOL    HW2 7929   2.560   6.106   2.836
 2344SOL     OW 7930   7.003   5.403   0.061
 2344SOL    HW1 7931   6.952   5.436   7.002
 2344SOL    HW2 7932   6.945   5.340   0.113
 2345SOL     OW 7933   2.888   5.606   4.646
 2345SOL    HW1 7934   2.883   5.705   4.658
 2345SOL    HW2 7935   2.964   5.583   4.586
 2346SOL     OW 7936   4.006   3.055   5.432
 2346SOL    HW1 7937   3.963   3.090   5.515
 2346SOL    HW2 7938   4.065   3.125   5.393
 2347SOL     OW 7939   1.563   1.999   1.561
 2347SOL    HW1 7940   1.556   1.943   1.644
 2347SOL    HW2 7941   1.658   2.026   1.547
 2348SOL     OW 7942   2.095   6.353   3.937
 2348SOL    HW1 7943   2.032   6.304   3.876
 2348SOL    HW2 7944   2.120   6.294   4.013
 2349SOL     OW 7945   0.883   4.133   6.681
 2349SOL    HW1 7946   0.788   4.124   6.713
 2349SOL    HW2 7947   0.888   4.108   6.584
 2350SOL     OW 7948   6.224   4.221   6.116
 2350SOL    HW1 7949   6.238   4.198   6.020
 2350SOL    HW2 7950   6.146   4.282   6.126
 2351SOL     OW 7951   3.372   4.871   3.921
 2351SOL    HW1 7952   3.447   4.901   3.862
 2351SOL    HW2 7953   3.301   4.941   3.923
 2352SOL     OW 7954   6.786   3.230   3.347
 2352SOL    HW1 7955   6.863   3.203   3.405
 2352SOL    HW2 7956   6.779   3.330   3.346
 2353SOL     OW 7957   4.363   4.693   4.416
 2353SOL    HW1 7958   4.406   4.783   4.425
 2353SOL    HW2 7959   4.406   4.629   4.480
 2354SOL     OW 7960   2.176   2.232   4.629
 2354SOL    HW1 7961   2.177   2.332   4.623
 2354SOL    HW2 7962   2.095   2.203   4.680
 2355SOL     OW 7963   1.820   6.291   5.260
 2355SOL    HW1 7964   1.808   6.389   5.273
 2355SOL    HW2 7965   1.735   6.243   5.282
 2356SOL     OW 7966   0.927   3.036   6.606
 2356SOL    HW1 7967   0.974   3.021   6.519
 2356SOL    HW2 7968   0.888   3.129   6.606
 2357SOL     OW 7969   3.960   0.781   2.247
 2357SOL    HW1 7970   3.933   0.693   2.287
 2357SOL    HW2 7971   4.035   0.767   2.182
 2358SOL     OW 7972   2.844   5.118   5.554
 2358SOL    HW1 7973   2.882   5.068   5.476
 2358SOL    HW2 7974   2.744   5.120   5.545
 2359SOL     OW 7975   0.625   0.856   5.956
 2359SOL    HW1 7976   0.660   0.881   6.046
 2359SOL    HW2 7977   0.698   0.817   5.901
 2360SOL     OW 7978   6.193   3.776   0.629
 2360SOL    HW1 7979   6.230   3.836   0.558
 2360SOL    HW2 7980   6.117   3.822   0.675
 2361SOL     OW 7981   3.202   1.294   6.487
 2361SOL    HW1 7982   3.172   1.301   6.582
 2361SOL    HW2 7983   3.181   1.203   6.452
 2362SOL     OW 7984   3.124   6.211   3.736
 2362SOL    HW1 7985   3.031   6.196   3.770
 2362SOL    HW2 7986   3.168   6.123   3.719
 2363SOL     OW 7987   3.520   1.836   3.665
 2363SOL    HW1 7988   3.444   1.831   3.729
 2363SOL    HW2 7989   3.606   1.824   3.714
 2364SOL     OW 7990   1.864   2.704   2.310
 2364SOL    HW1 7991   1.949   2.683   2.261
 2364SOL    HW2 7992   1.799   2.746   2.247
 2365SOL     OW 7993   6.393   1.868   6.520
 2365SOL    HW1 7994   6.429   1.812   6.445
 2365SOL    HW2 7995   6.293   1.862   6.521
 2366SOL     OW 7996   2.957   5.296   7.001
 2366SOL    HW1 7997   2.924   5.380   0.024
 2366SOL    HW2 7998   2.889   5.224   7.011
 2367SOL     OW 7999   2.082   3.411   0.935
 2367SOL    HW1 8000   2.137   3.346   0.988
 2367SOL    HW2 8001   2.137   3.450   0.862
 2368SOL     OW 8002   5.443   6.553   4.797
 2368SOL    HW1 8003   5.469   6.498   4.717
 2368SOL    HW2 8004   5.519   6.613   4.822
 2369SOL     OW 8005   1.905   0.292   4.457
 2369SOL    HW1 8006   1.877   0.268   4.550
 2369SOL    HW2 8007   1.945   0.212   4.412
 2370SOL     OW 8008   5.631   3.195   0.293
 2370SOL    HW1 8009   5.638   3.111   0.346
 2370SOL    HW2 8010   5.712   3.206   0.236
 2371SOL     OW 8011   2.458   6.788   2.392
 2371SOL    HW1 8012   2.396   6.739   2.331
 2371SOL    HW2 8013   2.417   6.875   2.419
 2372SOL     OW 8014   6.649   2.298   2.092
 2372SOL    HW1 8015   6.747   2.284   2.111
 2372SOL    HW2 8016   6.639   2.344   2.004
 2373SOL     OW 8017   1.210   3.521   5.885
 2373SOL    HW1 8018   1.181   3.426   5.885
 2373SOL    HW2 8019   1.310   3.525   5.883
 2374SOL     OW 8020   6.806   2.257   4.951
 2374SOL    HW1 8021   6.761   2.194   4.888
 2374SOL    HW2 8022   6.830   2.341   4.904
 2375SOL     OW 8023   3.235   5.128   6.063
 2375SOL    HW1 8024   3.285   5.175   6.135
 2375SOL    HW2 8025   3.275   5.149   5.974
 2376SOL     OW 8026   6.230   3.490   4.067
 2376SOL    HW1 8027   6.316   3.446   4.095
 2376SOL    HW2 8028   6.249   3.579   4.027
 2377SOL     OW 8029   3.858   3.959   3.812
 2377SOL    HW1 8030   3.778   3.899   3.807
 2377SOL    HW2 8031   3.885   3.971   3.907
 2378SOL     OW 8032   4.936   1.777   0.376
 2378SOL    HW1 8033   4.910   1.830   0.295
 2378SOL    HW2 8034   4.856   1.726   0.409
 2379SOL     OW 8035   6.606   0.801   0.359
 2379SOL    HW1 8036   6.564   0.722   0.404
 2379SOL    HW2 8037   6.541   0.878   0.359
 2380SOL     OW 8038   6.640   2.357   0.260
 2380SOL    HW1 8039   6.612   2.436   0.205
 2380SOL    HW2 8040   6.611   2.273   0.215
 2381SOL     OW 8041   2.606   5.737   3.064
 2381SOL    HW1 8042   2.506   5.746   3.066
 2381SOL    HW2 8043   2.648   5.826   3.077
 2382SOL     OW 8044   1.805   3.991   4.271
 2382SOL    HW1 8045   1.886   3.938   4.296
 2382SOL    HW2 8046   1.833   4.073   4.221
 2383SOL     OW 8047   6.769   0.254   1.122
 2383SOL    HW1 8048   6.830   0.258   1.043
 2383SOL    HW2 8049   6.751   0.159   1.146
 2384SOL     OW 8050   5.323   1.507   2.634
 2384SOL    HW1 8051   5.416   1.516   2.600
 2384SOL    HW2 8052   5.271   1.589   2.612
 2385SOL     OW 8053   0.080   0.262   6.894
 2385SOL    HW1 8054   0.173   0.269   6.859
 2385SOL    HW2 8055   0.083   0.242   6.992
 2386SOL     OW 8056   4.980   6.152   4.367
 2386SOL    HW1 8057   4.941   6.064   4.396
 2386SOL    HW2 8058   4.930   6.186   4.287
 2387SOL     OW 8059   2.081   1.224   4.013
 2387SOL    HW1 8060   2.120   1.132   4.023
 2387SOL    HW2 8061   2.008   1.221   3.945
 2388SOL     OW 8062   6.945   2.226   3.452
 2388SOL    HW1 8063   6.848   2.222   3.473
 2388SOL    HW2 8064   6.957   2.243   3.354
 2389SOL     OW 8065   4.159   4.748   3.179
 2389SOL    HW1 8066   4.128   4.786   3.092
 2389SOL    HW2 8067   4.245   4.698   3.165
 2390SOL     OW 8068   3.818   2.913   3.190
 2390SOL    HW1 8069   3.912   2.909   3.155
 2390SOL    HW2 8070   3.782   3.006   3.178
 2391SOL     OW 8071   5.545   4.742   6.338
 2391SOL    HW1 8072   5.527   4.743   6.436
 2391SOL    HW2 8073   5.571   4.649   6.310
 2392SOL     OW 8074   3.073   6.627   5.931
 2392SOL    HW1 8075   3.129   6.629   5.849
 2392SOL    HW2 8076   3.108   6.557   5.994
 2393SOL     OW 8077   5.392   3.658   6.476
 2393SOL    HW1 8078   5.334   3.696   6.404
 2393SOL    HW2 8079   5.418   3.565   6.453
 2394SOL     OW 8080   0.589   3.802   4.840
 2394SOL    HW1 8081   0.598   3.805   4.740
 2394SOL    HW2 8082   0.512   3.858   4.869
 2395SOL     OW 8083   5.052   0.092   6.276
 2395SOL    HW1 8084   5.090   0.143   6.199
 2395SOL    HW2 8085   5.000   0.155   6.335
 2396SOL     OW 8086   3.598   4.993   1.070
 2396SOL    HW1 8087   3.631   5.065   1.009
 2396SOL    HW2 8088   3.500   5.004   1.085
 2397SOL     OW 8089   0.611   4.197   4.899
 2397SOL    HW1 8090   0.563   4.233   4.979
 2397SOL    HW2 8091   0.706   4.177   4.923
 2398SOL     OW 8092   4.607   4.267   6.976
 2398SOL    HW1 8093   4.530   4.227   0.005
 2398SOL    HW2 8094   4.651   4.197   6.920
 2399SOL     OW 8095   4.864   0.965   0.879
 2399SOL    HW1 8096   4.900   1.039   0.936
 2399SOL    HW2 8097   4.806   1.003   0.808
 2400SOL     OW 8098   3.021   3.590   0.828
 2400SOL    HW1 8099   3.088   3.591   0.902
 2400SOL    HW2 8100   3.040   3.513   0.767
 2401SOL     OW 8101   5.341   6.386   0.287
 2401SOL    HW1 8102   5.280   6.309   0.270
 2401SOL    HW2 8103   5.436   6.359   0.268
 2402SOL     OW 8104   0.760   0.301   4.429
 2402SOL    HW1 8105   0.768   0.264   4.522
 2402SOL    HW2 8106   0.675   0.267   4.387
 2403SOL     OW 8107   1.426   2.274   6.252
 2403SOL    HW1 8108   1.385   2.191   6.215
 2403SOL    HW2 8109   1.524   2.276   6.229
 2404SOL     OW 8110   2.716   1.293   1.190
 2404SOL    HW1 8111   2.673   1.379   1.163
 2404SOL    HW2 8112   2.719   1.231   1.112
 2405SOL     OW 8113   3.385   3.829   2.527
 2405SOL    HW1 8114   3.484   3.816   2.534
 2405SOL    HW2 8115   3.339   3.745   2.558
 2406SOL     OW 8116   3.346   0.870   1.208
 2406SOL    HW1 8117   3.446   0.870   1.208
 2406SOL    HW2 8118   3.312   0.917   1.289
 2407SOL     OW 8119   5.680   2.194   3.326
 2407SOL    HW1 8120   5.595   2.213   3.276
 2407SOL    HW2 8121   5.758   2.206   3.264
 2408SOL     OW 8122   4.537   4.434   2.223
 2408SOL    HW1 8123   4.525   4.371   2.146
 2408SOL    HW2 8124   4.634   4.440   2.247
 2409SOL     OW 8125   2.337   4.560   2.039
 2409SOL    HW1 8126   2.301   4.650   2.016
 2409SOL    HW2 8127   2.391   4.525   1.962
 2410SOL     OW 8128   3.421   2.919   4.404
 2410SOL    HW1 8129   3.400   2.859   4.482
 2410SOL    HW2 8130   3.401   3.014   4.430
 2411SOL     OW 8131   5.327   6.176   4.681
 2411SOL    HW1 8132   5.353   6.082   4.703
 2411SOL    HW2 8133   5.264   6.211   4.751
 2412SOL     OW 8134   5.413   4.452   1.534
 2412SOL    HW1 8135   5.375   4.434   1.625
 2412SOL    HW2 8136   5.501   4.498   1.543
 2413SOL     OW 8137   6.322   0.898   1.464
 2413SOL    HW1 8138   6.397   0.881   1.400
 2413SOL    HW2 8139   6.250   0.830   1.450
 2414SOL     OW 8140   4.792   4.179   3.361
 2414SOL    HW1 8141   4.726   4.254   3.366
 2414SOL    HW2 8142   4.864   4.202   3.295
 2415SOL     OW 8143   5.975   1.664   2.999
 2415SOL    HW1 8144   6.038   1.611   2.943
 2415SOL    HW2 8145   5.951   1.749   2.951
 2416SOL     OW 8146   5.113   2.429   5.303
 2416SOL    HW1 8147   5.169   2.419   5.385
 2416SOL    HW2 8148   5.061   2.345   5.288
 2417SOL     OW 8149   3.274   3.428   4.728
 2417SOL    HW1 8150   3.258   3.496   4.798
 2417SOL    HW2 8151   3.320   3.470   4.650
 2418SOL     OW 8152   3.440   3.005   3.827
 2418SOL    HW1 8153   3.348   2.973   3.852
 2418SOL    HW2 8154   3.487   3.035   3.910
 2419SOL     OW 8155   0.125   6.404   3.659
 2419SOL    HW1 8156   0.047   6.344   3.643
 2419SOL    HW2 8157   0.121   6.440   3.752
 2420SOL     OW 8158   3.269   0.327   2.196
 2420SOL    HW1 8159   3.173   0.324   2.223
 2420SOL    HW2 8160   3.278   0.295   2.101
 2421SOL     OW 8161   1.976   2.706   4.727
 2421SOL    HW1 8162   1.895   2.764   4.732
 2421SOL    HW2 8163   1.971   2.636   4.798
 2422SOL     OW 8164   4.825   1.318   0.671
 2422SOL    HW1 8165   4.774   1.280   0.593
 2422SOL    HW2 8166   4.912   1.269   0.681
 2423SOL     OW 8167   2.088   6.524   2.039
 2423SOL    HW1 8168   2.025   6.452   2.067
 2423SOL    HW2 8169   2.078   6.540   1.941
 2424SOL     OW 8170   6.486   0.424   0.330
 2424SOL    HW1 8171   6.501   0.497   0.397
 2424SOL    HW2 8172   6.398   0.380   0.347
 2425SOL     OW 8173   5.570   0.037   4.012
 2425SOL    HW1 8174   5.512   6.991   4.059
 2425SOL    HW2 8175   5.548   0.038   3.915
 2426SOL     OW 8176   1.977   5.086   5.624
 2426SOL    HW1 8177   1.907   5.073   5.554
 2426SOL    HW2 8178   2.037   5.006   5.626
 2427SOL     OW 8179   5.878   5.606   5.026
 2427SOL    HW1 8180   5.849   5.701   5.025
 2427SOL    HW2 8181   5.870   5.570   5.119
 2428SOL     OW 8182   0.853   0.939   1.787
 2428SOL    HW1 8183   0.853   0.933   1.887
 2428SOL    HW2 8184   0.793   0.868   1.750
 2429SOL     OW 8185   5.717   5.704   2.102
 2429SOL    HW1 8186   5.754   5.765   2.032
 2429SOL    HW2 8187   5.786   5.636   2.126
 2430SOL     OW 8188   6.123   1.001   2.685
 2430SOL    HW1 8189   6.194   0.953   2.633
 2430SOL    HW2 8190   6.062   0.934   2.727
 2431SOL     OW 8191   4.482   1.286   2.426
 2431SOL    HW1 8192   4.473   1.250   2.333
 2431SOL    HW2 8193   4.442   1.377   2.430
 2432SOL     OW 8194   4.706   6.388   2.000
 2432SOL    HW1 8195   4.704   6.449   2.079
 2432SOL    HW2 8196   4.801   6.364   1.978
 2433SOL     OW 8197   4.481   0.823   6.720
 2433SOL    HW1 8198   4.427   0.758   6.666
 2433SOL    HW2 8199   4.441   0.914   6.711
 2434SOL     OW 8200   4.101   0.568   5.754
 2434SOL    HW1 8201   4.110   0.555   5.656
 2434SOL    HW2 8202   4.089   0.479   5.798
 2435SOL     OW 8203   6.053   5.987   5.151
 2435SOL    HW1 8204   5.992   5.952   5.080
 2435SOL    HW2 8205   6.028   6.081   5.173
 2436SOL     OW 8206   2.398   5.877   6.820
 2436SOL    HW1 8207   2.459   5.891   6.742
 2436SOL    HW2 8208   2.327   5.947   6.820
 2437SOL     OW 8209   6.309   6.727   6.041
 2437SOL    HW1 8210   6.397   6.697   6.003
 2437SOL    HW2 8211   6.297   6.688   6.133
 2438SOL     OW 8212   2.695   2.292   0.627
 2438SOL    HW1 8213   2.772   2.304   0.690
 2438SOL    HW2 8214   2.693   2.197   0.596
 2439SOL     OW 8215   6.823   4.334   6.107
 2439SOL    HW1 8216   6.831   4.265   6.035
 2439SOL    HW2 8217   6.726   4.349   6.128
 2440SOL     OW 8218   5.223   5.180   5.725
 2440SOL    HW1 8219   5.235   5.090   5.684
 2440SOL    HW2 8220   5.284   5.189   5.804
 2441SOL     OW 8221   6.254   1.976   1.302
 2441SOL    HW1 8222   6.160   1.952   1.330
 2441SOL    HW2 8223   6.315   1.901   1.329
 2442SOL     OW 8224   0.965   3.781   5.140
 2442SOL    HW1 8225   1.010   3.724   5.210
 2442SOL    HW2 8226   1.032   3.804   5.069
 2443SOL     OW 8227   3.048   4.078   6.161
 2443SOL    HW1 8228   2.985   4.139   6.209
 2443SOL    HW2 8229   3.009   3.986   6.158
 2444SOL     OW 8230   2.202   3.864   6.107
 2444SOL    HW1 8231   2.174   3.770   6.094
 2444SOL    HW2 8232   2.211   3.883   6.205
 2445SOL     OW 8233   0.552   0.767   0.721
 2445SOL    HW1 8234   0.527   0.816   0.804
 2445SOL    HW2 8235   0.604   0.685   0.745
 2446SOL     OW 8236   6.386   4.834   5.211
 2446SOL    HW1 8237   6.354   4.928   5.221
 2446SOL    HW2 8238   6.327   4.773   5.264
 2447SOL     OW 8239   0.671   1.623   0.616
 2447SOL    HW1 8240   0.736   1.607   0.691
 2447SOL    HW2 8241   0.625   1.710   0.630
 2448SOL     OW 8242   1.164   6.972   4.658
 2448SOL    HW1 8243   1.099   6.944   4.587
 2448SOL    HW2 8244   1.161   0.051   4.667
 2449SOL     OW 8245   0.152   3.782   6.029
 2449SOL    HW1 8246   0.138   3.683   6.019
 2449SOL    HW2 8247   0.063   3.827   6.036
 2450SOL     OW 8248   2.437   4.493   2.752
 2450SOL    HW1 8249   2.397   4.401   2.759
 2450SOL    HW2 8250   2.366   4.561   2.769
 2451SOL     OW 8251   2.389   5.951   3.594
 2451SOL    HW1 8252   2.367   5.968   3.690
 2451SOL    HW2 8253   2.353   5.861   3.568
 2452SOL     OW 8254   1.337   2.836   3.516
 2452SOL    HW1 8255   1.352   2.897   3.439
 2452SOL    HW2 8256   1.281   2.759   3.488
 2453SOL     OW 8257   6.315   4.600   1.505
 2453SOL    HW1 8258   6.392   4.536   1.495
 2453SOL    HW2 8259   6.307   4.627   1.600
 2454SOL     OW 8260   3.181   0.626   1.523
 2454SOL    HW1 8261   3.250   0.585   1.462
 2454SOL    HW2 8262   3.113   0.557   1.546
 2455SOL     OW 8263   5.299   5.867   0.258
 2455SOL    HW1 8264   5.322   5.928   0.182
 2455SOL    HW2 8265   5.231   5.800   0.227
 2456SOL     OW 8266   5.278   5.896   1.679
 2456SOL    HW1 8267   5.218   5.898   1.759
 2456SOL    HW2 8268   5.367   5.861   1.705
 2457SOL     OW 8269   5.460   6.612   1.363
 2457SOL    HW1 8270   5.376   6.560   1.346
 2457SOL    HW2 8271   5.531   6.549   1.394
 2458SOL     OW 8272   0.872   5.385   2.767
 2458SOL    HW1 8273   0.909   5.476   2.782
 2458SOL    HW2 8274   0.780   5.379   2.807
 2459SOL     OW 8275   2.013   0.383   0.650
 2459SOL    HW1 8276   2.065   0.317   0.703
 2459SOL    HW2 8277   2.049   0.475   0.666
 2460SOL     OW 8278   3.185   5.919   1.303
 2460SOL    HW1 8279   3.232   5.961   1.226
 2460SOL    HW2 8280   3.197   5.820   1.299
 2461SOL     OW 8281   5.219   0.664   2.389
 2461SOL    HW1 8282   5.131   0.619   2.397
 2461SOL    HW2 8283   5.273   0.620   2.317
 2462SOL     OW 8284   1.656   5.441   6.553
 2462SOL    HW1 8285   1.681   5.531   6.517
 2462SOL    HW2 8286   1.609   5.389   6.482
 2463SOL     OW 8287   6.184   2.076   4.137
 2463SOL    HW1 8288   6.198   2.175   4.133
 2463SOL    HW2 8289   6.264   2.029   4.100
 2464SOL     OW 8290   1.151   3.143   1.376
 2464SOL    HW1 8291   1.185   3.232   1.347
 2464SOL    HW2 8292   1.051   3.146   1.382
 2465SOL     OW 8293   6.515   5.963   2.997
 2465SOL    HW1 8294   6.435   5.928   3.046
 2465SOL    HW2 8295   6.597   5.952   3.053
 2466SOL     OW 8296   3.334   1.877   2.554
 2466SOL    HW1 8297   3.283   1.910   2.634
 2466SOL    HW2 8298   3.430   1.863   2.581
 2467SOL     OW 8299   6.750   1.057   6.467
 2467SOL    HW1 8300   6.723   1.043   6.562
 2467SOL    HW2 8301   6.750   0.970   6.418
 2468SOL     OW 8302   0.161   5.266   1.310
 2468SOL    HW1 8303   0.190   5.176   1.343
 2468SOL    HW2 8304   0.133   5.323   1.387
 2469SOL     OW 8305   2.454   2.864   5.696
 2469SOL    HW1 8306   2.371   2.829   5.652
 2469SOL    HW2 8307   2.529   2.863   5.630
 2470SOL     OW 8308   5.219   2.535   0.322
 2470SOL    HW1 8309   5.232   2.453   0.376
 2470SOL    HW2 8310   5.121   2.553   0.312
 2471SOL     OW 8311   1.294   0.475   2.693
 2471SOL    HW1 8312   1.350   0.530   2.632
 2471SOL    HW2 8313   1.218   0.530   2.728
 2472SOL     OW 8314   5.976   1.967   3.472
 2472SOL    HW1 8315   5.976   2.055   3.423
 2472SOL    HW2 8316   5.965   1.893   3.406
 2473SOL     OW 8317   1.082   5.978   4.557
 2473SOL    HW1 8318   1.143   6.058   4.555
 2473SOL    HW2 8319   0.988   6.009   4.570
 2474SOL     OW 8320   6.941   4.715   5.158
 2474SOL    HW1 8321   6.891   4.719   5.072
 2474SOL    HW2 8322   6.927   4.801   5.208
 2475SOL     OW 8323   4.407   1.891   0.013
 2475SOL    HW1 8324   4.393   1.948   0.094
 2475SOL    HW2 8325   4.320   1.878   6.986
 2476SOL     OW 8326   1.230   1.875   4.494
 2476SOL    HW1 8327   1.313   1.927   4.474
 2476SOL    HW2 8328   1.162   1.936   4.533
 2477SOL     OW 8329   4.327   5.125   0.884
 2477SOL    HW1 8330   4.229   5.127   0.908
 2477SOL    HW2 8331   4.351   5.206   0.832
 2478SOL     OW 8332   6.739   0.003   2.998
 2478SOL    HW1 8333   6.729   6.953   3.069
 2478SOL    HW2 8334   6.775   0.087   3.040
 2479SOL     OW 8335   0.282   3.401   0.579
 2479SOL    HW1 8336   0.334   3.485   0.592
 2479SOL    HW2 8337   0.331   3.341   0.516
 2480SOL     OW 8338   0.194   3.199   1.297
 2480SOL    HW1 8339   0.121   3.254   1.336
 2480SOL    HW2 8340   0.164   3.160   1.209
 2481SOL     OW 8341   4.651   5.055   2.172
 2481SOL    HW1 8342   4.697   4.972   2.202
 2481SOL    HW2 8343   4.555   5.036   2.153
 2482SOL     OW 8344   5.177   2.385   4.332
 2482SOL    HW1 8345   5.157   2.300   4.381
 2482SOL    HW2 8346   5.275   2.400   4.329
 2483SOL     OW 8347   1.002   2.098   6.404
 2483SOL    HW1 8348   1.051   2.155   6.469
 2483SOL    HW2 8349   0.928   2.050   6.451
 2484SOL     OW 8350   3.330   2.234   6.389
 2484SOL    HW1 8351   3.295   2.271   6.303
 2484SOL    HW2 8352   3.367   2.308   6.445
 2485SOL     OW 8353   0.260   5.940   2.097
 2485SOL    HW1 8354   0.241   5.863   2.037
 2485SOL    HW2 8355   0.258   6.025   2.044
 2486SOL     OW 8356   1.358   5.487   3.293
 2486SOL    HW1 8357   1.332   5.567   3.348
 2486SOL    HW2 8358   1.353   5.405   3.349
 2487SOL     OW 8359   3.398   1.215   0.970
 2487SOL    HW1 8360   3.379   1.132   0.917
 2487SOL    HW2 8361   3.494   1.216   0.997
 2488SOL     OW 8362   2.680   6.368   6.964
 2488SOL    HW1 8363   2.765   6.316   6.951
 2488SOL    HW2 8364   2.695   6.440   0.011
 2489SOL     OW 8365   0.419   5.688   4.528
 2489SOL    HW1 8366   0.394   5.597   4.496
 2489SOL    HW2 8367   0.376   5.756   4.469
 2490SOL     OW 8368   4.988   3.315   1.644
 2490SOL    HW1 8369   4.916   3.363   1.594
 2490SOL    HW2 8370   4.956   3.296   1.737
 2491SOL     OW 8371   1.500   4.501   2.298
 2491SOL    HW1 8372   1.527   4.407   2.277
 2491SOL    HW2 8373   1.450   4.503   2.385
 2492SOL     OW 8374   4.157   3.035   6.507
 2492SOL    HW1 8375   4.225   3.090   6.458
 2492SOL    HW2 8376   4.193   3.010   6.597
 2493SOL     OW 8377   6.693   2.232   3.573
 2493SOL    HW1 8378   6.680   2.149   3.628
 2493SOL    HW2 8379   6.619   2.240   3.506
 2494SOL     OW 8380   5.127   3.563   1.776
 2494SOL    HW1 8381   5.173   3.645   1.741
 2494SOL    HW2 8382   5.155   3.483   1.722
 2495SOL     OW 8383   6.137   1.337   4.630
 2495SOL    HW1 8384   6.213   1.271   4.627
 2495SOL    HW2 8385   6.096   1.336   4.721
 2496SOL     OW 8386   0.726   6.447   0.103
 2496SOL    HW1 8387   0.819   6.413   0.112
 2496SOL    HW2 8388   0.724   6.545   0.119
 2497SOL     OW 8389   5.298   2.002   6.074
 2497SOL    HW1 8390   5.369   2.065   6.106
 2497SOL    HW2 8391   5.298   1.920   6.131
 2498SOL     OW 8392   1.583   3.725   4.935
 2498SOL    HW1 8393   1.552   3.744   4.842
 2498SOL    HW2 8394   1.569   3.806   4.993
 2499SOL     OW 8395   5.988   0.096   5.366
 2499SOL    HW1 8396   5.903   0.045   5.375
 2499SOL    HW2 8397   5.969   0.188   5.332
 2500SOL     OW 8398   4.906   3.329   6.459
 2500SOL    HW1 8399   5.005   3.312   6.459
 2500SOL    HW2 8400   4.878   3.362   6.370
 2501SOL     OW 8401   6.441   4.341   0.165
 2501SOL    HW1 8402   6.351   4.338   0.123
 2501SOL    HW2 8403   6.463   4.436   0.189
 2502SOL     OW 8404   2.081   6.570   2.928
 2502SOL    HW1 8405   2.024   6.613   2.998
 2502SOL    HW2 8406   2.130   6.493   2.968
 2503SOL     OW 8407   4.564   5.454   4.976
 2503SOL    HW1 8408   4.475   5.453   5.023
 2503SOL    HW2 8409   4.597   5.548   4.970
 2504SOL     OW 8410   1.959   4.222   3.921
 2504SOL    HW1 8411   1.962   4.226   4.021
 2504SOL    HW2 8412   2.036   4.169   3.887
 2505SOL     OW 8413   4.533   5.578   3.845
 2505SOL    HW1 8414   4.441   5.617   3.836
 2505SOL    HW2 8415   4.531   5.503   3.911
 2506SOL     OW 8416   0.547   2.158   6.591
 2506SOL    HW1 8417   0.530   2.101   6.671
 2506SOL    HW2 8418   0.490   2.240   6.595
 2507SOL     OW 8419   0.188   5.683   0.635
 2507SOL    HW1 8420   0.243   5.765   0.651
 2507SOL    HW2 8421   0.112   5.704   0.574
 2508SOL     OW 8422   2.470   2.530   2.501
 2508SOL    HW1 8423   2.428   2.497   2.585
 2508SOL    HW2 8424   2.452   2.628   2.490
 2509SOL     OW 8425   5.398   2.018   3.648
 2509SOL    HW1 8426   5.459   1.957   3.597
 2509SOL    HW2 8427   5.388   2.104   3.598
 2510SOL     OW 8428   3.538   5.732   1.192
 2510SOL    HW1 8429   3.490   5.799   1.248
 2510SOL    HW2 8430   3.539   5.763   1.097
 2511SOL     OW 8431   1.667   0.213   4.304
 2511SOL    HW1 8432   1.567   0.221   4.304
 2511SOL    HW2 8433   1.693   0.118   4.318
 2512SOL     OW 8434   4.961   2.845   4.618
 2512SOL    HW1 8435   5.027   2.771   4.616
 2512SOL    HW2 8436   4.965   2.891   4.706
 2513SOL     OW 8437   0.189   3.949   1.021
 2513SOL    HW1 8438   0.169   3.960   0.924
 2513SOL    HW2 8439   0.165   4.033   1.070
 2514SOL     OW 8440   1.031   1.611   3.670
 2514SOL    HW1 8441   1.111   1.645   3.620
 2514SOL    HW2 8442   1.010   1.674   3.745
 2515SOL     OW 8443   1.401   4.976   0.342
 2515SOL    HW1 8444   1.437   4.885   0.320
 2515SOL    HW2 8445   1.362   4.975   0.434
 2516SOL     OW 8446   4.844   6.575   3.974
 2516SOL    HW1 8447   4.879   6.630   3.898
 2516SOL    HW2 8448   4.905   6.497   3.990
 2517SOL     OW 8449   2.439   4.833   0.281
 2517SOL    HW1 8450   2.471   4.891   0.356
 2517SOL    HW2 8451   2.439   4.737   0.311
 2518SOL     OW 8452   2.447   2.257   6.518
 2518SOL    HW1 8453   2.481   2.348   6.494
 2518SOL    HW2 8454   2.347   2.256   6.509
 2519SOL     OW 8455   5.075   3.862   4.456
 2519SOL    HW1 8456   5.022   3.789   4.499
 2519SOL    HW2 8457   5.145   3.822   4.396
 2520SOL     OW 8458   2.005   4.564   2.011
 2520SOL    HW1 8459   2.073   4.491   2.018
 2520SOL    HW2 8460   1.929   4.532   1.954
 2521SOL     OW 8461   5.378   6.672   5.130
 2521SOL    HW1 8462   5.397   6.598   5.066
 2521SOL    HW2 8463   5.298   6.724   5.099
 2522SOL     OW 8464   1.328   2.962   4.689
 2522SOL    HW1 8465   1.408   2.987   4.634
 2522SOL    HW2 8466   1.336   3.004   4.779
 2523SOL     OW 8467   0.419   2.989   6.758
 2523SOL    HW1 8468   0.346   2.920   6.761
 2523SOL    HW2 8469   0.500   2.954   6.804
 2524SOL     OW 8470   1.086   6.409   5.337
 2524SOL    HW1 8471   1.012   6.457   5.291
 2524SOL    HW2 8472   1.052   6.368   5.422
 2525SOL     OW 8473   1.811   4.398   3.317
 2525SOL    HW1 8474   1.888   4.368   3.373
 2525SOL    HW2 8475   1.838   4.400   3.221
 2526SOL     OW 8476   6.645   1.512   5.368
 2526SOL    HW1 8477   6.657   1.554   5.277
 2526SOL    HW2 8478   6.556   1.468   5.373
 2527SOL     OW 8479   6.477   6.745   3.715
 2527SOL    HW1 8480   6.428   6.795   3.787
 2527SOL    HW2 8481   6.525   6.668   3.756
 2528SOL     OW 8482   6.317   5.812   0.313
 2528SOL    HW1 8483   6.338   5.910   0.306
 2528SOL    HW2 8484   6.219   5.798   0.303
 2529SOL     OW 8485   5.236   3.439   4.742
 2529SOL    HW1 8486   5.306   3.488   4.690
 2529SOL    HW2 8487   5.167   3.503   4.775
 2530SOL     OW 8488   0.599   0.288   4.176
 2530SOL    HW1 8489   0.582   0.371   4.229
 2530SOL    HW2 8490   0.541   0.214   4.211
 2531SOL     OW 8491   4.152   0.777   6.402
 2531SOL    HW1 8492   4.107   0.688   6.395
 2531SOL    HW2 8493   4.116   0.826   6.481
 2532SOL     OW 8494   1.648   4.604   6.070
 2532SOL    HW1 8495   1.639   4.631   5.974
 2532SOL    HW2 8496   1.579   4.652   6.125
 2533SOL     OW 8497   5.766   6.981   5.297
 2533SOL    HW1 8498   5.719   0.047   5.278
 2533SOL    HW2 8499   5.736   6.912   5.230
 2534SOL     OW 8500   0.575   1.664   4.183
 2534SOL    HW1 8501   0.663   1.695   4.218
 2534SOL    HW2 8502   0.539   1.591   4.242
 2535SOL     OW 8503   2.423   1.400   2.593
 2535SOL    HW1 8504   2.424   1.325   2.527
 2535SOL    HW2 8505   2.426   1.364   2.686
 2536SOL     OW 8506   6.588   0.831   3.756
 2536SOL    HW1 8507   6.586   0.757   3.824
 2536SOL    HW2 8508   6.678   0.834   3.713
 2537SOL     OW 8509   3.727   5.228   0.922
 2537SOL    HW1 8510   3.704   5.308   0.977
 2537SOL    HW2 8511   3.824   5.206   0.934
 2538SOL     OW 8512   1.808   4.257   5.071
 2538SOL    HW1 8513   1.903   4.277   5.048
 2538SOL    HW2 8514   1.785   4.165   5.041
 2539SOL     OW 8515   2.672   0.296   5.623
 2539SOL    HW1 8516   2.604   0.239   5.577
 2539SOL    HW2 8517   2.763   0.276   5.586
 2540SOL     OW 8518   5.895   1.967   2.133
 2540SOL    HW1 8519   5.844   1.951   2.218
 2540SOL    HW2 8520   5.952   1.888   2.112
 2541SOL     OW 8521   1.037   6.278   5.578
 2541SOL    HW1 8522   1.106   6.206   5.572
 2541SOL    HW2 8523   0.952   6.241   5.615
 2542SOL     OW 8524   3.351   1.832   4.362
 2542SOL    HW1 8525   3.269   1.833   4.419
 2542SOL    HW2 8526   3.394   1.922   4.364
 2543SOL     OW 8527   6.949   1.915   4.772
 2543SOL    HW1 8528   6.992   2.001   4.747
 2543SOL    HW2 8529   6.938   1.911   4.872
 2544SOL     OW 8530   6.268   5.692   2.212
 2544SOL    HW1 8531   6.305   5.688   2.119
 2544SOL    HW2 8532   6.188   5.632   2.218
 2545SOL     OW 8533   6.545   1.806   1.428
 2545SOL    HW1 8534   6.524   1.900   1.456
 2545SOL    HW2 8535   6.631   1.805   1.376
 2546SOL     OW 8536   6.630   4.040   2.800
 2546SOL    HW1 8537   6.709   4.097   2.822
 2546SOL    HW2 8538   6.557   4.098   2.762
 2547SOL     OW 8539   5.882   3.610   1.055
 2547SOL    HW1 8540   5.791   3.613   1.095
 2547SOL    HW2 8541   5.876   3.577   0.961
 2548SOL     OW 8542   0.338   6.562   5.312
 2548SOL    HW1 8543   0.268   6.604   5.370
 2548SOL    HW2 8544   0.320   6.464   5.304
 2549SOL     OW 8545   2.964   2.877   0.082
 2549SOL    HW1 8546   3.011   2.955   0.123
 2549SOL    HW2 8547   3.019   2.794   0.093
 2550SOL     OW 8548   3.906   6.304   6.566
 2550SOL    HW1 8549   3.948   6.321   6.655
 2550SOL    HW2 8550   3.879   6.208   6.559
 2551SOL     OW 8551   3.110   5.574   0.516
 2551SOL    HW1 8552   3.019   5.563   0.556
 2551SOL    HW2 8553   3.121   5.510   0.441
 2552SOL     OW 8554   2.090   5.872   1.353
 2552SOL    HW1 8555   2.129   5.791   1.395
 2552SOL    HW2 8556   2.162   5.926   1.310
 2553SOL     OW 8557   4.299   1.387   6.649
 2553SOL    HW1 8558   4.331   1.385   6.554
 2553SOL    HW2 8559   4.228   1.319   6.662
 2554SOL     OW 8560   1.752   5.764   1.656
 2554SOL    HW1 8561   1.716   5.740   1.566
 2554SOL    HW2 8562   1.835   5.710   1.674
 2555SOL     OW 8563   5.007   6.669   5.211
 2555SOL    HW1 8564   5.067   6.712   5.144
 2555SOL    HW2 8565   4.957   6.595   5.168
 2556SOL     OW 8566   4.027   0.391   0.442
 2556SOL    HW1 8567   4.064   0.435   0.360
 2556SOL    HW2 8568   3.946   0.338   0.418
 2557SOL     OW 8569   3.072   0.107   6.574
 2557SOL    HW1 8570   3.042   0.178   6.637
 2557SOL    HW2 8571   2.998   0.040   6.562
 2558SOL     OW 8572   5.473   3.510   0.170
 2558SOL    HW1 8573   5.430   3.427   0.135
 2558SOL    HW2 8574   5.505   3.565   0.094
 2559SOL     OW 8575   0.883   4.537   4.770
 2559SOL    HW1 8576   0.792   4.556   4.808
 2559SOL    HW2 8577   0.884   4.560   4.673
 2560SOL     OW 8578   4.877   2.214   3.703
 2560SOL    HW1 8579   4.837   2.184   3.616
 2560SOL    HW2 8580   4.969   2.177   3.712
 2561SOL     OW 8581   3.726   0.429   4.852
 2561SOL    HW1 8582   3.825   0.444   4.842
 2561SOL    HW2 8583   3.681   0.517   4.865
 2562SOL     OW 8584   3.156   6.501   3.742
 2562SOL    HW1 8585   3.095   6.541   3.810
 2562SOL    HW2 8586   3.159   6.401   3.754
 2563SOL     OW 8587   3.474   1.843   6.629
 2563SOL    HW1 8588   3.399   1.791   6.671
 2563SOL    HW2 8589   3.462   1.940   6.649
 2564SOL     OW 8590   1.847   1.862   0.167
 2564SOL    HW1 8591   1.803   1.782   0.128
 2564SOL    HW2 8592   1.902   1.908   0.097
 2565SOL     OW 8593   0.661   1.928   0.394
 2565SOL    HW1 8594   0.620   1.913   0.484
 2565SOL    HW2 8595   0.647   1.847   0.337
 2566SOL     OW 8596   2.114   0.993   0.810
 2566SOL    HW1 8597   2.135   1.091   0.805
 2566SOL    HW2 8598   2.017   0.981   0.829
 2567SOL     OW 8599   2.275   0.567   0.256
 2567SOL    HW1 8600   2.189   0.555   0.206
 2567SOL    HW2 8601   2.273   0.654   0.305
 2568SOL     OW 8602   3.052   6.018   0.684
 2568SOL    HW1 8603   3.130   6.076   0.707
 2568SOL    HW2 8604   3.045   6.008   0.585
 2569SOL     OW 8605   1.956   0.252   0.962
 2569SOL    HW1 8606   1.891   0.317   0.921
 2569SOL    HW2 8607   1.959   0.169   0.908
 2570SOL     OW 8608   6.807   6.672   5.656
 2570SOL    HW1 8609   6.764   6.692   5.744
 2570SOL    HW2 8610   6.737   6.653   5.587
 2571SOL     OW 8611   3.709   3.017   3.466
 2571SOL    HW1 8612   3.731   2.969   3.551
 2571SOL    HW2 8613   3.771   3.094   3.455
 2572SOL     OW 8614   1.963   5.947   1.805
 2572SOL    HW1 8615   1.907   5.871   1.773
 2572SOL    HW2 8616   1.976   5.940   1.904
 2573SOL     OW 8617   6.697   2.095   4.762
 2573SOL    HW1 8618   6.621   2.069   4.703
 2573SOL    HW2 8619   6.767   2.024   4.760
 2574SOL     OW 8620   0.741   3.730   2.389
 2574SOL    HW1 8621   0.796   3.754   2.309
 2574SOL    HW2 8622   0.723   3.812   2.443
 2575SOL     OW 8623   5.809   3.692   0.361
 2575SOL    HW1 8624   5.854   3.781   0.363
 2575SOL    HW2 8625   5.734   3.691   0.427
 2576SOL     OW 8626   2.540   6.645   4.097
 2576SOL    HW1 8627   2.502   6.732   4.065
 2576SOL    HW2 8628   2.473   6.572   4.081
 2577SOL     OW 8629   2.718   6.135   1.697
 2577SOL    HW1 8630   2.686   6.100   1.610
 2577SOL    HW2 8631   2.724   6.059   1.763
 2578SOL     OW 8632   4.934   2.090   4.068
 2578SOL    HW1 8633   4.971   2.157   4.133
 2578SOL    HW2 8634   4.898   2.138   3.988
 2579SOL     OW 8635   6.674   1.850   6.160
 2579SOL    HW1 8636   6.648   1.800   6.077
 2579SOL    HW2 8637   6.706   1.941   6.136
 2580SOL     OW 8638   1.373   2.316   6.563
 2580SOL    HW1 8639   1.360   2.328   6.465
 2580SOL    HW2 8640   1.299   2.261   6.601
 2581SOL     OW 8641   6.624   6.594   3.921
 2581SOL    HW1 8642   6.722   6.602   3.904
 2581SOL    HW2 8643   6.603   6.623   4.014
 2582SOL     OW 8644   0.423   5.751   2.746
 2582SOL    HW1 8645   0.406   5.652   2.746
 2582SOL    HW2 8646   0.409   5.788   2.838
 2583SOL     OW 8647   1.991   0.799   0.549
 2583SOL    HW1 8648   2.024   0.774   0.640
 2583SOL    HW2 8649   2.068   0.827   0.492
 2584SOL     OW 8650   5.109   6.765   1.851
 2584SOL    HW1 8651   5.050   6.705   1.905
 2584SOL    HW2 8652   5.079   6.860   1.862
 2585SOL     OW 8653   3.702   1.287   1.811
 2585SOL    HW1 8654   3.691   1.229   1.891
 2585SOL    HW2 8655   3.628   1.270   1.746
 2586SOL     OW 8656   6.847   2.687   4.430
 2586SOL    HW1 8657   6.879   2.668   4.337
 2586SOL    HW2 8658   6.749   2.707   4.428
 2587SOL     OW 8659   5.495   6.332   2.861
 2587SOL    HW1 8660   5.439   6.352   2.781
 2587SOL    HW2 8661   5.455   6.256   2.912
 2588SOL     OW 8662   5.716   1.030   1.363
 2588SOL    HW1 8663   5.787   1.036   1.433
 2588SOL    HW2 8664   5.735   0.953   1.302
 2589SOL     OW 8665   6.590   6.570   0.988
 2589SOL    HW1 8666   6.523   6.571   0.914
 2589SOL    HW2 8667   6.574   6.648   1.049
 2590SOL     OW 8668   4.012   6.128   2.292
 2590SOL    HW1 8669   4.103   6.108   2.254
 2590SOL    HW2 8670   4.022   6.182   2.375
 2591SOL     OW 8671   5.974   0.496   1.817
 2591SOL    HW1 8672   6.053   0.518   1.760
 2591SOL    HW2 8673   5.894   0.481   1.760
 2592SOL     OW 8674   3.957   5.796   1.284
 2592SOL    HW1 8675   3.963   5.876   1.343
 2592SOL    HW2 8676   3.878   5.741   1.310
 2593SOL     OW 8677   3.098   6.369   2.598
 2593SOL    HW1 8678   3.059   6.390   2.509
 2593SOL    HW2 8679   3.043   6.299   2.643
 2594SOL     OW 8680   1.023   6.268   6.292
 2594SOL    HW1 8681   1.121   6.261   6.270
 2594SOL    HW2 8682   0.987   6.177   6.313
 2595SOL     OW 8683   6.278   3.948   4.242
 2595SOL    HW1 8684   6.356   3.961   4.303
 2595SOL    HW2 8685   6.205   3.899   4.291
 2596SOL     OW 8686   3.901   2.088   2.152
 2596SOL    HW1 8687   3.819   2.126   2.194
 2596SOL    HW2 8688   3.906   2.117   2.056
 2597SOL     OW 8689   2.104   3.010   6.802
 2597SOL    HW1 8690   2.158   3.095   6.802
 2597SOL    HW2 8691   2.012   3.029   6.768
 2598SOL     OW 8692   6.715   3.125   3.091
 2598SOL    HW1 8693   6.721   3.171   3.180
 2598SOL    HW2 8694   6.806   3.122   3.049
 2599SOL     OW 8695   4.628   4.774   6.951
 2599SOL    HW1 8696   4.669   4.746   0.017
 2599SOL    HW2 8697   4.537   4.735   6.942
 2600SOL     OW 8698   6.606   3.578   3.506
 2600SOL    HW1 8699   6.691   3.562   3.456
 2600SOL    HW2 8700   6.557   3.492   3.517
 2601SOL     OW 8701   3.840   2.938   5.867
 2601SOL    HW1 8702   3.906   2.920   5.940
 2601SOL    HW2 8703   3.828   2.855   5.812
 2602SOL     OW 8704   6.352   5.994   4.692
 2602SOL    HW1 8705   6.270   5.978   4.637
 2602SOL    HW2 8706   6.333   6.065   4.760
 2603SOL     OW 8707   3.253   2.960   0.931
 2603SOL    HW1 8708   3.343   2.999   0.953
 2603SOL    HW2 8709   3.262   2.861   0.919
 2604SOL     OW 8710   6.098   1.071   1.529
 2604SOL    HW1 8711   6.175   1.016   1.500
 2604SOL    HW2 8712   6.066   1.041   1.618
 2605SOL     OW 8713   4.342   5.086   4.195
 2605SOL    HW1 8714   4.386   5.111   4.109
 2605SOL    HW2 8715   4.302   4.995   4.187
 2606SOL     OW 8716   6.986   4.425   1.436
 2606SOL    HW1 8717   7.014   4.329   1.443
 2606SOL    HW2 8718   6.921   4.445   1.509
 2607SOL     OW 8719   0.833   1.364   4.326
 2607SOL    HW1 8720   0.873   1.303   4.257
 2607SOL    HW2 8721   0.896   1.374   4.402
 2608SOL     OW 8722   5.227   0.674   0.834
 2608SOL    HW1 8723   5.251   0.762   0.792
 2608SOL    HW2 8724   5.182   0.616   0.766
 2609SOL     OW 8725   0.452   2.047   3.925
 2609SOL    HW1 8726   0.388   2.117   3.959
 2609SOL    HW2 8727   0.543   2.065   3.961
 2610SOL     OW 8728   6.231   5.705   4.712
 2610SOL    HW1 8729   6.201   5.797   4.737
 2610SOL    HW2 8730   6.270   5.660   4.792
 2611SOL     OW 8731   4.098   6.405   1.504
 2611SOL    HW1 8732   4.072   6.376   1.412
 2611SOL    HW2 8733   4.081   6.330   1.568
 2612SOL     OW 8734   6.362   6.602   4.163
 2612SOL    HW1 8735   6.307   6.540   4.219
 2612SOL    HW2 8736   6.301   6.661   4.109
 2613SOL     OW 8737   4.056   0.487   1.453
 2613SOL    HW1 8738   4.043   0.586   1.455
 2613SOL    HW2 8739   3.968   0.441   1.461
 2614SOL     OW 8740   0.097   6.247   6.913
 2614SOL    HW1 8741   0.019   6.272   6.972
 2614SOL    HW2 8742   0.085   6.154   6.880
 2615SOL     OW 8743   6.022   4.896   1.987
 2615SOL    HW1 8744   6.097   4.881   1.923
 2615SOL    HW2 8745   5.976   4.982   1.966
 2616SOL     OW 8746   3.514   3.175   2.628
 2616SOL    HW1 8747   3.441   3.128   2.679
 2616SOL    HW2 8748   3.537   3.122   2.547
 2617SOL     OW 8749   4.032   0.339   1.207
 2617SOL    HW1 8750   4.032   0.389   1.294
 2617SOL    HW2 8751   4.113   0.363   1.154
 2618SOL     OW 8752   1.157   0.610   1.081
 2618SOL    HW1 8753   1.113   0.639   0.995
 2618SOL    HW2 8754   1.131   0.516   1.102
 2619SOL     OW 8755   4.815   1.945   1.831
 2619SOL    HW1 8756   4.748   1.871   1.831
 2619SOL    HW2 8757   4.902   1.912   1.796
 2620SOL     OW 8758   1.617   4.093   4.458
 2620SOL    HW1 8759   1.691   4.048   4.408
 2620SOL    HW2 8760   1.613   4.189   4.432
 2621SOL     OW 8761   0.880   5.096   3.917
 2621SOL    HW1 8762   0.786   5.112   3.889
 2621SOL    HW2 8763   0.929   5.049   3.844
 2622SOL     OW 8764   2.677   3.163   6.316
 2622SOL    HW1 8765   2.675   3.168   6.416
 2622SOL    HW2 8766   2.684   3.256   6.279
 2623SOL     OW 8767   2.884   1.074   5.613
 2623SOL    HW1 8768   2.900   1.149   5.677
 2623SOL    HW2 8769   2.940   1.087   5.531
 2624SOL     OW 8770   6.553   2.200   3.929
 2624SOL    HW1 8771   6.595   2.114   3.900
 2624SOL    HW2 8772   6.577   2.219   4.024
 2625SOL     OW 8773   4.011   1.170   5.213
 2625SOL    HW1 8774   3.923   1.162   5.259
 2625SOL    HW2 8775   4.020   1.261   5.173
 2626SOL     OW 8776   2.261   6.504   2.471
 2626SOL    HW1 8777   2.161   6.508   2.481
 2626SOL    HW2 8778   2.303   6.566   2.537
 2627SOL     OW 8779   0.085   6.809   4.163
 2627SOL    HW1 8780   0.124   6.807   4.071
 2627SOL    HW2 8781   0.106   6.898   4.206
 2628SOL     OW 8782   3.850   6.005   6.300
 2628SOL    HW1 8783   3.806   5.916   6.290
 2628SOL    HW2 8784   3.882   6.037   6.211
 2629SOL     OW 8785   3.485   4.007   1.242
 2629SOL    HW1 8786   3.444   3.960   1.164
 2629SOL    HW2 8787   3.420   4.073   1.279
 2630SOL     OW 8788   2.824   2.246   2.567
 2630SOL    HW1 8789   2.865   2.235   2.476
 2630SOL    HW2 8790   2.724   2.250   2.558
 2631SOL     OW 8791   4.715   6.198   4.272
 2631SOL    HW1 8792   4.616   6.190   4.286
 2631SOL    HW2 8793   4.742   6.294   4.284
 2632SOL     OW 8794   4.553   2.208   0.152
 2632SOL    HW1 8795   4.484   2.201   0.223
 2632SOL    HW2 8796   4.619   2.133   0.162
 2633SOL     OW 8797   6.228   2.191   6.680
 2633SOL    HW1 8798   6.280   2.276   6.687
 2633SOL    HW2 8799   6.254   2.130   6.756
 2634SOL     OW 8800   2.585   4.916   1.015
 2634SOL    HW1 8801   2.651   4.941   1.086
 2634SOL    HW2 8802   2.625   4.931   0.925
 2635SOL     OW 8803   5.137   4.429   4.497
 2635SOL    HW1 8804   5.103   4.383   4.580
 2635SOL    HW2 8805   5.226   4.470   4.515
 2636SOL     OW 8806   5.830   0.373   4.877
 2636SOL    HW1 8807   5.883   0.370   4.792
 2636SOL    HW2 8808   5.873   0.312   4.945
 2637SOL     OW 8809   4.931   6.734   2.687
 2637SOL    HW1 8810   4.876   6.792   2.748
 2637SOL    HW2 8811   4.995   6.790   2.636
 2638SOL     OW 8812   5.476   6.227   0.956
 2638SOL    HW1 8813   5.516   6.178   1.033
 2638SOL    HW2 8814   5.549   6.256   0.894
 2639SOL     OW 8815   6.437   6.292   0.657
 2639SOL    HW1 8816   6.487   6.213   0.622
 2639SOL    HW2 8817   6.345   6.264   0.685
 2640SOL     OW 8818   0.025   6.465   5.538
 2640SOL    HW1 8819   0.090   6.390   5.541
 2640SOL    HW2 8820   0.048   6.527   5.463
 2641SOL     OW 8821   5.622   4.997   0.332
 2641SOL    HW1 8822   5.536   4.983   0.282
 2641SOL    HW2 8823   5.628   5.092   0.362
 2642SOL     OW 8824   5.503   6.680   3.964
 2642SOL    HW1 8825   5.432   6.710   3.901
 2642SOL    HW2 8826   5.470   6.689   4.058
 2643SOL     OW 8827   0.908   0.425   2.230
 2643SOL    HW1 8828   0.920   0.326   2.233
 2643SOL    HW2 8829   0.823   0.447   2.182
 2644SOL     OW 8830   0.224   4.633   6.121
 2644SOL    HW1 8831   0.147   4.576   6.093
 2644SOL    HW2 8832   0.195   4.694   6.194
 2645SOL     OW 8833   5.524   5.840   5.661
 2645SOL    HW1 8834   5.576   5.779   5.602
 2645SOL    HW2 8835   5.433   5.855   5.622
 2646SOL     OW 8836   6.527   6.460   0.423
 2646SOL    HW1 8837   6.445   6.465   0.366
 2646SOL    HW2 8838   6.516   6.390   0.493
 2647SOL     OW 8839   3.769   1.567   1.174
 2647SOL    HW1 8840   3.677   1.593   1.147
 2647SOL    HW2 8841   3.781   1.468   1.161
 2648SOL     OW 8842   4.712   0.479   2.286
 2648SOL    HW1 8843   4.809   0.503   2.292
 2648SOL    HW2 8844   4.669   0.490   2.375
 2649SOL     OW 8845   3.304   1.776   6.028
 2649SOL    HW1 8846   3.265   1.868   6.039
 2649SOL    HW2 8847   3.242   1.721   5.972
 2650SOL     OW 8848   0.474   6.165   2.413
 2650SOL    HW1 8849   0.451   6.181   2.317
 2650SOL    HW2 8850   0.570   6.137   2.421
 2651SOL     OW 8851   6.652   0.914   3.189
 2651SOL    HW1 8852   6.715   0.843   3.222
 2651SOL    HW2 8853   6.705   0.995   3.163
 2652SOL     OW 8854   3.025   3.348   3.027
 2652SOL    HW1 8855   3.048   3.250   3.027
 2652SOL    HW2 8856   3.004   3.378   2.934
 2653SOL     OW 8857   6.445   6.532   6.526
 2653SOL    HW1 8858   6.536   6.498   6.551
 2653SOL    HW2 8859   6.431   6.622   6.568
 2654SOL     OW 8860   5.571   2.833   6.117
 2654SOL    HW1 8861   5.472   2.832   6.102
 2654SOL    HW2 8862   5.616   2.780   6.045
 2655SOL     OW 8863   4.653   6.286   4.875
 2655SOL    HW1 8864   4.744   6.267   4.837
 2655SOL    HW2 8865   4.658   6.285   4.975
 2656SOL     OW 8866   5.613   3.206   4.049
 2656SOL    HW1 8867   5.541   3.142   4.020
 2656SOL    HW2 8868   5.604   3.223   4.148
 2657SOL     OW 8869   1.924   3.580   6.503
 2657SOL    HW1 8870   2.006   3.628   6.533
 2657SOL    HW2 8871   1.936   3.547   6.410
 2658SOL     OW 8872   5.996   3.934   6.031
 2658SOL    HW1 8873   5.984   3.967   6.125
 2658SOL    HW2 8874   6.079   3.974   5.992
 2659SOL     OW 8875   6.881   2.909   3.762
 2659SOL    HW1 8876   6.797   2.916   3.709
 2659SOL    HW2 8877   6.907   2.813   3.772
 2660SOL     OW 8878   6.953   2.360   2.984
 2660SOL    HW1 8879   6.856   2.377   3.004
 2660SOL    HW2 8880   6.982   2.419   2.909
 2661SOL     OW 8881   4.197   6.306   0.928
 2661SOL    HW1 8882   4.125   6.352   0.875
 2661SOL    HW2 8883   4.235   6.370   0.995
 2662SOL     OW 8884   3.269   6.792   4.240
 2662SOL    HW1 8885   3.233   6.861   4.304
 2662SOL    HW2 8886   3.369   6.795   4.241
 2663SOL     OW 8887   1.173   4.269   2.634
 2663SOL    HW1 8888   1.075   4.283   2.639
 2663SOL    HW2 8889   1.208   4.244   2.724
 2664SOL     OW 8890   4.053   3.587   2.240
 2664SOL    HW1 8891   4.089   3.546   2.324
 2664SOL    HW2 8892   3.954   3.598   2.248
 2665SOL     OW 8893   3.844   1.287   4.324
 2665SOL    HW1 8894   3.823   1.324   4.415
 2665SOL    HW2 8895   3.941   1.300   4.305
 2666SOL     OW 8896   5.230   5.304   1.248
 2666SOL    HW1 8897   5.326   5.319   1.226
 2666SOL    HW2 8898   5.174   5.318   1.167
 2667SOL     OW 8899   2.029   5.208   3.784
 2667SOL    HW1 8900   2.116   5.162   3.806
 2667SOL    HW2 8901   1.953   5.146   3.803
 2668SOL     OW 8902   0.466   2.827   5.680
 2668SOL    HW1 8903   0.442   2.786   5.592
 2668SOL    HW2 8904   0.393   2.889   5.709
 2669SOL     OW 8905   4.204   4.790   4.946
 2669SOL    HW1 8906   4.257   4.706   4.940
 2669SOL    HW2 8907   4.263   4.863   4.983
 2670SOL     OW 8908   1.507   1.286   6.858
 2670SOL    HW1 8909   1.420   1.297   6.810
 2670SOL    HW2 8910   1.582   1.309   6.795
 2671SOL     OW 8911   1.967   3.234   6.291
 2671SOL    HW1 8912   1.867   3.231   6.295
 2671SOL    HW2 8913   1.996   3.322   6.255
 2672SOL     OW 8914   1.483   5.289   1.358
 2672SOL    HW1 8915   1.540   5.369   1.377
 2672SOL    HW2 8916   1.410   5.282   1.426
 2673SOL     OW 8917   3.801   2.123   2.934
 2673SOL    HW1 8918   3.885   2.125   2.987
 2673SOL    HW2 8919   3.800   2.042   2.876
 2674SOL     OW 8920   5.160   4.864   5.301
 2674SOL    HW1 8921   5.099   4.832   5.374
 2674SOL    HW2 8922   5.219   4.788   5.272
 2675SOL     OW 8923   0.377   4.405   5.551
 2675SOL    HW1 8924   0.279   4.386   5.549
 2675SOL    HW2 8925   0.392   4.504   5.545
 2676SOL     OW 8926   4.166   0.689   2.057
 2676SOL    HW1 8927   4.209   0.762   2.005
 2676SOL    HW2 8928   4.121   0.626   1.994
 2677SOL     OW 8929   2.369   5.002   1.942
 2677SOL    HW1 8930   2.465   5.029   1.955
 2677SOL    HW2 8931   2.361   4.950   1.858
 2678SOL     OW 8932   0.632   4.801   5.775
 2678SOL    HW1 8933   0.640   4.900   5.787
 2678SOL    HW2 8934   0.590   4.761   5.856
 2679SOL     OW 8935   3.011   4.445   0.726
 2679SOL    HW1 8936   3.014   4.394   0.640
 2679SOL    HW2 8937   3.036   4.385   0.802
 2680SOL     OW 8938   1.156   1.961   1.566
 2680SOL    HW1 8939   1.214   1.879   1.565
 2680SOL    HW2 8940   1.189   2.026   1.497
 2681SOL     OW 8941   1.566   2.718   3.298
 2681SOL    HW1 8942   1.553   2.730   3.396
 2681SOL    HW2 8943   1.663   2.726   3.275
 2682SOL     OW 8944   5.508   2.650   2.649
 2682SOL    HW1 8945   5.527   2.697   2.735
 2682SOL    HW2 8946   5.409   2.654   2.631
 2683SOL     OW 8947   1.147   6.032   1.218
 2683SOL    HW1 8948   1.228   6.027   1.277
 2683SOL    HW2 8949   1.096   6.116   1.237
 2684SOL     OW 8950   2.527   6.552   2.764
 2684SOL    HW1 8951   2.572   6.608   2.835
 2684SOL    HW2 8952   2.428   6.567   2.769
 2685SOL     OW 8953   5.512   5.404   5.118
 2685SOL    HW1 8954   5.506   5.392   5.217
 2685SOL    HW2 8955   5.420   5.399   5.079
 2686SOL     OW 8956   2.272   2.815   4.590
 2686SOL    HW1 8957   2.273   2.777   4.682
 2686SOL    HW2 8958   2.260   2.914   4.595
 2687SOL     OW 8959   4.274   5.391   2.638
 2687SOL    HW1 8960   4.263   5.488   2.616
 2687SOL    HW2 8961   4.205   5.364   2.705
 2688SOL     OW 8962   3.966   4.495   6.290
 2688SOL    HW1 8963   3.934   4.439   6.214
 2688SOL    HW2 8964   4.014   4.438   6.356
 2689SOL     OW 8965   6.946   3.600   4.108
 2689SOL    HW1 8966   6.912   3.674   4.049
 2689SOL    HW2 8967   0.016   3.573   4.078
 2690SOL     OW 8968   3.943   3.919   3.560
 2690SOL    HW1 8969   3.922   3.924   3.658
 2690SOL    HW2 8970   4.029   3.870   3.547
 2691SOL     OW 8971   1.777   6.183   1.860
 2691SOL    HW1 8972   1.777   6.257   1.792
 2691SOL    HW2 8973   1.852   6.121   1.840
 2692SOL     OW 8974   0.391   6.475   4.180
 2692SOL    HW1 8975   0.377   6.551   4.117
 2692SOL    HW2 8976   0.367   6.504   4.273
 2693SOL     OW 8977   1.828   4.088   3.021
 2693SOL    HW1 8978   1.735   4.086   3.056
 2693SOL    HW2 8979   1.853   3.998   2.986
 2694SOL     OW 8980   1.725   6.625   3.296
 2694SOL    HW1 8981   1.729   6.584   3.388
 2694SOL    HW2 8982   1.655   6.696   3.294
 2695SOL     OW 8983   4.322   2.114   3.313
 2695SOL    HW1 8984   4.352   2.100   3.219
 2695SOL    HW2 8985   4.233   2.159   3.313
 2696SOL     OW 8986   4.114   3.934   5.529
 2696SOL    HW1 8987   4.155   3.950   5.619
 2696SOL    HW2 8988   4.097   4.021   5.484
 2697SOL     OW 8989   2.891   1.777   4.120
 2697SOL    HW1 8990   2.811   1.778   4.180
 2697SOL    HW2 8991   2.966   1.728   4.164
 2698SOL     OW 8992   1.962   3.442   0.602
 2698SOL    HW1 8993   1.916   3.528   0.626
 2698SOL    HW2 8994   2.061   3.455   0.609
 2699SOL     OW 8995   3.464   6.103   1.656
 2699SOL    HW1 8996   3.546   6.157   1.674
 2699SOL    HW2 8997   3.421   6.136   1.572
 2700SOL     OW 8998   2.104   3.528   2.454
 2700SOL    HW1 8999   2.116   3.469   2.535
 2700SOL    HW2 9000   2.089   3.622   2.484
 2701SOL     OW 9001   4.027   6.788   6.579
 2701SOL    HW1 9002   3.967   6.781   6.500
 2701SOL    HW2 9003   4.005   6.871   6.630
 2702SOL     OW 9004   6.889   0.479   3.708
 2702SOL    HW1 9005   6.865   0.576   3.712
 2702SOL    HW2 9006   6.831   0.433   3.640
 2703SOL     OW 9007   1.894   1.861   2.570
 2703SOL    HW1 9008   1.957   1.798   2.616
 2703SOL    HW2 9009   1.942   1.907   2.495
 2704SOL     OW 9010   2.329   4.770   1.262
 2704SOL    HW1 9011   2.234   4.748   1.281
 2704SOL    HW2 9012   2.384   4.686   1.262
 2705SOL     OW 9013   6.110   5.153   3.516
 2705SOL    HW1 9014   6.056   5.227   3.477
 2705SOL    HW2 9015   6.109   5.074   3.454
 2706SOL     OW 9016   6.795   1.236   1.966
 2706SOL    HW1 9017   6.882   1.260   1.924
 2706SOL    HW2 9018   6.799   1.143   2.001
 2707SOL     OW 9019   1.951   1.216   5.809
 2707SOL    HW1 9020   1.960   1.127   5.853
 2707SOL    HW2 9021   2.019   1.279   5.846
 2708SOL     OW 9022   1.799   2.924   1.451
 2708SOL    HW1 9023   1.892   2.895   1.472
 2708SOL    HW2 9024   1.802   3.011   1.402
 2709SOL     OW 9025   4.397   6.302   0.507
 2709SOL    HW1 9026   4.376   6.211   0.543
 2709SOL    HW2 9027   4.385   6.370   0.579
 2710SOL     OW 9028   6.755   4.176   3.122
 2710SOL    HW1 9029   6.722   4.221   3.205
 2710SOL    HW2 9030   6.741   4.238   3.044
 2711SOL     OW 9031   1.655   0.637   2.365
 2711SOL    HW1 9032   1.729   0.679   2.417
 2711SOL    HW2 9033   1.641   0.688   2.280
 2712SOL     OW 9034   3.034   4.172   0.277
 2712SOL    HW1 9035   3.059   4.076   0.291
 2712SOL    HW2 9036   3.068   4.203   0.188
 2713SOL     OW 9037   2.092   3.141   5.507
 2713SOL    HW1 9038   2.130   3.172   5.594
 2713SOL    HW2 9039   2.002   3.100   5.522
 2714SOL     OW 9040   5.101   7.018   5.864
 2714SOL    HW1 9041   5.190   0.042   5.849
 2714SOL    HW2 9042   5.114   6.919   5.862
 2715SOL     OW 9043   6.059   1.059   6.607
 2715SOL    HW1 9044   5.982   1.087   6.550
 2715SOL    HW2 9045   6.036   1.073   6.704
 2716SOL     OW 9046   0.372   6.597   2.411
 2716SOL    HW1 9047   0.295   6.581   2.350
 2716SOL    HW2 9048   0.381   6.695   2.427
 2717SOL     OW 9049   0.922   0.704   2.545
 2717SOL    HW1 9050   0.897   0.607   2.538
 2717SOL    HW2 9051   0.840   0.760   2.549
 2718SOL     OW 9052   2.328   4.724   3.779
 2718SOL    HW1 9053   2.396   4.717   3.705
 2718SOL    HW2 9054   2.241   4.688   3.747
 2719SOL     OW 9055   4.054   5.198   1.635
 2719SOL    HW1 9056   3.974   5.158   1.682
 2719SOL    HW2 9057   4.091   5.272   1.691
 2720SOL     OW 9058   1.860   6.200   3.935
 2720SOL    HW1 9059   1.803   6.282   3.931
 2720SOL    HW2 9060   1.847   6.146   3.851
 2721SOL     OW 9061   3.747   0.007   3.983
 2721SOL    HW1 9062   3.753   6.943   4.036
 2721SOL    HW2 9063   3.837   0.051   3.982
 2722SOL     OW 9064   1.422   6.127   2.336
 2722SOL    HW1 9065   1.441   6.103   2.241
 2722SOL    HW2 9066   1.507   6.129   2.388
 2723SOL     OW 9067   1.625   1.856   5.837
 2723SOL    HW1 9068   1.630   1.801   5.753
 2723SOL    HW2 9069   1.700   1.922   5.839
 2724SOL     OW 9070   3.839   5.731   6.342
 2724SOL    HW1 9071   3.936   5.723   6.319
 2724SOL    HW2 9072   3.822   5.692   6.432
 2725SOL     OW 9073   3.551   4.901   4.124
 2725SOL    HW1 9074   3.649   4.887   4.139
 2725SOL    HW2 9075   3.522   4.849   4.044
 2726SOL     OW 9076   4.410   5.409   1.923
 2726SOL    HW1 9077   4.458   5.434   2.007
 2726SOL    HW2 9078   4.465   5.342   1.872
 2727SOL     OW 9079   1.938   5.383   2.663
 2727SOL    HW1 9080   1.988   5.301   2.691
 2727SOL    HW2 9081   1.851   5.356   2.623
 2728SOL     OW 9082   3.096   6.784   5.468
 2728SOL    HW1 9083   3.093   6.845   5.389
 2728SOL    HW2 9084   3.021   6.718   5.463
 2729SOL     OW 9085   5.633   5.195   2.926
 2729SOL    HW1 9086   5.713   5.136   2.915
 2729SOL    HW2 9087   5.663   5.290   2.937
 2730SOL     OW 9088   1.677   6.225   1.076
 2730SOL    HW1 9089   1.686   6.160   1.000
 2730SOL    HW2 9090   1.581   6.247   1.090
 2731SOL     OW 9091   3.239   3.897   1.831
 2731SOL    HW1 9092   3.293   3.978   1.854
 2731SOL    HW2 9093   3.242   3.832   1.907
 2732SOL     OW 9094   5.892   1.858   2.481
 2732SOL    HW1 9095   5.917   1.782   2.541
 2732SOL    HW2 9096   5.935   1.942   2.513
 2733SOL     OW 9097   1.474   6.915   6.018
 2733SOL    HW1 9098   1.537   6.860   6.073
 2733SOL    HW2 9099   1.381   6.880   6.030
 2734SOL     OW 9100   2.292   5.533   4.271
 2734SOL    HW1 9101   2.312   5.529   4.368
 2734SOL    HW2 9102   2.378   5.536   4.219
 2735SOL     OW 9103   1.466   5.046   2.462
 2735SOL    HW1 9104   1.492   5.076   2.370
 2735SOL    HW2 9105   1.503   4.955   2.480
 2736SOL     OW 9106   4.263   0.414   5.185
 2736SOL    HW1 9107   4.334   0.405   5.255
 2736SOL    HW2 9108   4.269   0.337   5.121
 2737SOL     OW 9109   4.805   3.790   6.264
 2737SOL    HW1 9110   4.847   3.879   6.247
 2737SOL    HW2 9111   4.840   3.752   6.350
 2738SOL     OW 9112   5.583   5.052   4.371
 2738SOL    HW1 9113   5.653   5.113   4.409
 2738SOL    HW2 9114   5.616   5.013   4.285
 2739SOL     OW 9115   5.903   3.453   0.778
 2739SOL    HW1 9116   5.941   3.498   0.697
 2739SOL    HW2 9117   5.970   3.388   0.814
 2740SOL     OW 9118   5.849   2.563   3.254
 2740SOL    HW1 9119   5.885   2.613   3.176
 2740SOL    HW2 9120   5.925   2.533   3.312
 2741SOL     OW 9121   0.350   2.330   6.360
 2741SOL    HW1 9122   0.337   2.377   6.273
 2741SOL    HW2 9123   0.353   2.231   6.345
 2742SOL     OW 9124   2.042   6.528   6.421
 2742SOL    HW1 9125   2.033   6.475   6.337
 2742SOL    HW2 9126   2.077   6.619   6.399
 2743SOL     OW 9127   5.491   5.070   0.800
 2743SOL    HW1 9128   5.433   5.020   0.864
 2743SOL    HW2 9129   5.549   5.006   0.751
 2744SOL     OW 9130   4.025   1.101   5.953
 2744SOL    HW1 9131   3.986   1.155   5.878
 2744SOL    HW2 9132   3.951   1.071   6.014
 2745SOL     OW 9133   2.683   6.492   0.787
 2745SOL    HW1 9134   2.679   6.589   0.763
 2745SOL    HW2 9135   2.722   6.440   0.711
 2746SOL     OW 9136   1.712   2.104   6.303
 2746SOL    HW1 9137   1.712   2.132   6.399
 2746SOL    HW2 9138   1.683   2.009   6.295
 2747SOL     OW 9139   4.210   6.433   4.429
 2747SOL    HW1 9140   4.194   6.349   4.377
 2747SOL    HW2 9141   4.307   6.458   4.423
 2748SOL     OW 9142   3.870   1.210   3.262
 2748SOL    HW1 9143   3.780   1.168   3.254
 2748SOL    HW2 9144   3.907   1.225   3.170
 2749SOL     OW 9145   4.598   5.418   3.650
 2749SOL    HW1 9146   4.509   5.394   3.610
 2749SOL    HW2 9147   4.584   5.481   3.726
 2750SOL     OW 9148   0.488   5.838   2.499
 2750SOL    HW1 9149   0.468   5.827   2.596
 2750SOL    HW2 9150   0.584   5.817   2.482
 2751SOL     OW 9151   1.543   0.150   6.281
 2751SOL    HW1 9152   1.588   0.071   6.322
 2751SOL    HW2 9153   1.577   0.163   6.188
 2752SOL     OW 9154   6.042   6.163   5.698
 2752SOL    HW1 9155   6.083   6.122   5.617
 2752SOL    HW2 9156   6.041   6.097   5.773
 2753SOL     OW 9157   2.872   5.503   5.787
 2753SOL    HW1 9158   2.969   5.491   5.803
 2753SOL    HW2 9159   2.824   5.504   5.875
 2754SOL     OW 9160   1.357   0.510   4.276
 2754SOL    HW1 9161   1.368   0.518   4.375
 2754SOL    HW2 9162   1.403   0.427   4.243
 2755SOL     OW 9163   3.474   6.231   2.008
 2755SOL    HW1 9164   3.374   6.228   2.000
 2755SOL    HW2 9165   3.499   6.284   2.089
 2756SOL     OW 9166   0.313   2.977   6.047
 2756SOL    HW1 9167   0.288   3.050   6.110
 2756SOL    HW2 9168   0.336   2.894   6.099
 2757SOL     OW 9169   4.460   3.188   6.636
 2757SOL    HW1 9170   4.546   3.140   6.651
 2757SOL    HW2 9171   4.420   3.157   6.550
 2758SOL     OW 9172   6.668   5.945   2.373
 2758SOL    HW1 9173   6.569   5.929   2.373
 2758SOL    HW2 9174   6.711   5.883   2.439
 2759SOL     OW 9175   3.176   3.823   5.884
 2759SOL    HW1 9176   3.268   3.861   5.875
 2759SOL    HW2 9177   3.156   3.764   5.805
 2760SOL     OW 9178   5.265   6.268   3.034
 2760SOL    HW1 9179   5.271   6.364   3.007
 2760SOL    HW2 9180   5.266   6.261   3.134
 2761SOL     OW 9181   1.314   3.034   3.271
 2761SOL    HW1 9182   1.362   3.119   3.291
 2761SOL    HW2 9183   1.232   3.029   3.329
 2762SOL     OW 9184   2.572   2.547   0.542
 2762SOL    HW1 9185   2.610   2.457   0.563
 2762SOL    HW2 9186   2.645   2.615   0.538
 2763SOL     OW 9187   5.572   2.125   4.670
 2763SOL    HW1 9188   5.651   2.082   4.625
 2763SOL    HW2 9189   5.593   2.141   4.766
 2764SOL     OW 9190   0.816   3.495   2.543
 2764SOL    HW1 9191   0.784   3.576   2.493
 2764SOL    HW2 9192   0.831   3.420   2.478
 2765SOL     OW 9193   6.601   6.547   6.819
 2765SOL    HW1 9194   6.528   6.615   6.827
 2765SOL    HW2 9195   6.682   6.579   6.869
 2766SOL     OW 9196   5.206   1.079   6.451
 2766SOL    HW1 9197   5.255   1.150   6.503
 2766SOL    HW2 9198   5.117   1.063   6.493
 2767SOL     OW 9199   6.481   5.359   6.354
 2767SOL    HW1 9200   6.490   5.458   6.370
 2767SOL    HW2 9201   6.422   5.319   6.424
 2768SOL     OW 9202   4.424   0.086   1.149
 2768SOL    HW1 9203   4.331   0.107   1.179
 2768SOL    HW2 9204   4.478   0.171   1.148
 2769SOL     OW 9205   0.922   4.575   5.948
 2769SOL    HW1 9206   0.885   4.634   6.019
 2769SOL    HW2 9207   1.022   4.584   5.947
 2770SOL     OW 9208   3.182   6.922   0.528
 2770SOL    HW1 9209   3.113   6.885   0.465
 2770SOL    HW2 9210   3.258   6.858   0.534
 2771SOL     OW 9211   4.705   6.951   4.752
 2771SOL    HW1 9212   4.749   6.914   4.833
 2771SOL    HW2 9213   4.695   6.879   4.683
 2772SOL     OW 9214   4.533   0.299   3.508
 2772SOL    HW1 9215   4.443   0.335   3.484
 2772SOL    HW2 9216   4.581   0.365   3.565
 2773SOL     OW 9217   5.682   3.075   5.230
 2773SOL    HW1 9218   5.727   3.120   5.152
 2773SOL    HW2 9219   5.588   3.106   5.236
 2774SOL     OW 9220   5.961   1.943   4.415
 2774SOL    HW1 9221   6.061   1.953   4.406
 2774SOL    HW2 9222   5.939   1.847   4.434
 2775SOL     OW 9223   0.437   3.620   3.995
 2775SOL    HW1 9224   0.523   3.608   4.044
 2775SOL    HW2 9225   0.384   3.694   4.037
 2776SOL     OW 9226   4.832   4.584   6.165
 2776SOL    HW1 9227   4.826   4.683   6.173
 2776SOL    HW2 9228   4.777   4.554   6.086
 2777SOL     OW 9229   2.854   2.465   6.292
 2777SOL    HW1 9230   2.888   2.378   6.328
 2777SOL    HW2 9231   2.932   2.524   6.268
 2778SOL     OW 9232   3.167   6.992   5.640
 2778SOL    HW1 9233   3.114   6.967   5.721
 2778SOL    HW2 9234   3.154   6.921   5.570
 2779SOL     OW 9235   5.786   0.467   1.626
 2779SOL    HW1 9236   5.792   0.499   1.532
 2779SOL    HW2 9237   5.694   0.486   1.662
 2780SOL     OW 9238   6.687   1.848   4.532
 2780SOL    HW1 9239   6.669   1.811   4.623
 2780SOL    HW2 9240   6.627   1.926   4.515
 2781SOL     OW 9241   5.584   1.540   3.283
 2781SOL    HW1 9242   5.584   1.477   3.205
 2781SOL    HW2 9243   5.623   1.494   3.362
 2782SOL     OW 9244   5.056   0.498   6.226
 2782SOL    HW1 9245   5.139   0.478   6.174
 2782SOL    HW2 9246   5.021   0.588   6.198
 2783SOL     OW 9247   5.613   4.120   1.469
 2783SOL    HW1 9248   5.705   4.100   1.435
 2783SOL    HW2 9249   5.569   4.187   1.409
 2784SOL     OW 9250   1.450   1.874   1.322
 2784SOL    HW1 9251   1.492   1.904   1.408
 2784SOL    HW2 9252   1.507   1.902   1.245
 2785SOL     OW 9253   6.001   2.997   1.782
 2785SOL    HW1 9254   5.999   3.044   1.694
 2785SOL    HW2 9255   5.922   2.936   1.790
 2786SOL     OW 9256   0.012   5.899   0.041
 2786SOL    HW1 9257   6.934   5.912   0.047
 2786SOL    HW2 9258   0.059   5.971   0.092
 2787SOL     OW 9259   6.315   5.196   6.516
 2787SOL    HW1 9260   6.225   5.191   6.473
 2787SOL    HW2 9261   6.358   5.105   6.515
 2788SOL     OW 9262   3.124   5.855   5.793
 2788SOL    HW1 9263   3.063   5.926   5.759
 2788SOL    HW2 9264   3.096   5.827   5.885
 2789SOL     OW 9265   0.904   2.257   5.267
 2789SOL    HW1 9266   0.900   2.258   5.367
 2789SOL    HW2 9267   0.994   2.289   5.238
 2790SOL     OW 9268   1.573   5.572   2.157
 2790SOL    HW1 9269   1.672   5.569   2.169
 2790SOL    HW2 9270   1.543   5.488   2.111
 2791SOL     OW 9271   0.186   4.134   3.079
 2791SOL    HW1 9272   0.185   4.040   3.043
 2791SOL    HW2 9273   0.115   4.187   3.032
 2792SOL     OW 9274   3.511   1.214   5.979
 2792SOL    HW1 9275   3.591   1.191   6.034
 2792SOL    HW2 9276   3.539   1.262   5.897
 2793SOL     OW 9277   3.639   4.135   0.490
 2793SOL    HW1 9278   3.645   4.045   0.533
 2793SOL    HW2 9279   3.562   4.137   0.426
 2794SOL     OW 9280   0.985   2.914   0.274
 2794SOL    HW1 9281   1.003   2.874   0.364
 2794SOL    HW2 9282   0.903   2.971   0.278
 2795SOL     OW 9283   0.949   5.177   1.719
 2795SOL    HW1 9284   0.880   5.124   1.668
 2795SOL    HW2 9285   1.032   5.122   1.730
 2796SOL     OW 9286   1.980   5.726   6.270
 2796SOL    HW1 9287   1.933   5.725   6.359
 2796SOL    HW2 9288   2.031   5.811   6.260
 2797SOL     OW 9289   5.136   6.087   3.531
 2797SOL    HW1 9290   5.130   5.987   3.521
 2797SOL    HW2 9291   5.082   6.115   3.611
 2798SOL     OW 9292   5.084   0.805   1.896
 2798SOL    HW1 9293   4.996   0.800   1.849
 2798SOL    HW2 9294   5.127   0.893   1.876
 2799SOL     OW 9295   3.589   6.250   5.007
 2799SOL    HW1 9296   3.688   6.250   4.995
 2799SOL    HW2 9297   3.559   6.159   5.038
 2800SOL     OW 9298   6.046   6.771   6.806
 2800SOL    HW1 9299   5.995   6.780   6.720
 2800SOL    HW2 9300   6.043   6.677   6.837
 2801SOL     OW 9301   0.458   4.775   4.904
 2801SOL    HW1 9302   0.454   4.870   4.935
 2801SOL    HW2 9303   0.467   4.773   4.805
 2802SOL     OW 9304   1.701   5.396   5.305
 2802SOL    HW1 9305   1.761   5.392   5.385
 2802SOL    HW2 9306   1.681   5.303   5.273
 2803SOL     OW 9307   3.611   2.126   5.971
 2803SOL    HW1 9308   3.630   2.035   6.007
 2803SOL    HW2 9309   3.577   2.185   6.045
 2804SOL     OW 9310   0.278   2.519   3.905
 2804SOL    HW1 9311   0.338   2.559   3.975
 2804SOL    HW2 9312   0.314   2.429   3.880
 2805SOL     OW 9313   3.747   3.371   0.993
 2805SOL    HW1 9314   3.826   3.395   1.050
 2805SOL    HW2 9315   3.778   3.353   0.900
 2806SOL     OW 9316   0.514   4.083   6.338
 2806SOL    HW1 9317   0.513   4.063   6.436
 2806SOL    HW2 9318   0.551   4.174   6.323
 2807SOL     OW 9319   3.819   6.957   3.707
 2807SOL    HW1 9320   3.784   6.946   3.801
 2807SOL    HW2 9321   3.751   7.006   3.653
 2808SOL     OW 9322   0.368   5.299   5.770
 2808SOL    HW1 9323   0.445   5.305   5.707
 2808SOL    HW2 9324   0.288   5.342   5.728
 2809SOL     OW 9325   6.814   5.533   1.845
 2809SOL    HW1 9326   6.890   5.548   1.908
 2809SOL    HW2 9327   6.728   5.534   1.895
 2810SOL     OW 9328   2.422   6.576   3.162
 2810SOL    HW1 9329   2.356   6.646   3.135
 2810SOL    HW2 9330   2.452   6.594   3.256
 2811SOL     OW 9331   1.106   1.030   1.480
 2811SOL    HW1 9332   1.072   0.943   1.442
 2811SOL    HW2 9333   1.136   1.089   1.405
 2812SOL     OW 9334   0.372   1.940   0.895
 2812SOL    HW1 9335   0.329   1.858   0.932
 2812SOL    HW2 9336   0.319   2.020   0.921
 2813SOL     OW 9337   0.778   2.451   1.270
 2813SOL    HW1 9338   0.786   2.351   1.269
 2813SOL    HW2 9339   0.709   2.478   1.338
 2814SOL     OW 9340   2.491   4.574   0.294
 2814SOL    HW1 9341   2.459   4.479   0.301
 2814SOL    HW2 9342   2.506   4.597   0.198
 2815SOL     OW 9343   0.720   4.822   5.138
 2815SOL    HW1 9344   0.816   4.805   5.118
 2815SOL    HW2 9345   0.679   4.875   5.064
 2816SOL     OW 9346   0.780   6.147   5.931
 2816SOL    HW1 9347   0.717   6.121   5.857
 2816SOL    HW2 9348   0.855   6.081   5.934
 2817SOL     OW 9349   4.175   0.318   2.153
 2817SOL    HW1 9350   4.187   0.299   2.055
 2817SOL    HW2 9351   4.225   0.401   2.177
 2818SOL     OW 9352   1.545   0.454   0.212
 2818SOL    HW1 9353   1.633   0.407   0.211
 2818SOL    HW2 9354   1.515   0.468   0.306
 2819SOL     OW 9355   0.945   0.845   0.618
 2819SOL    HW1 9356   0.957   0.763   0.563
 2819SOL    HW2 9357   0.888   0.911   0.568
 2820SOL     OW 9358   1.763   2.557   0.234
 2820SOL    HW1 9359   1.822   2.580   0.312
 2820SOL    HW2 9360   1.756   2.637   0.173
 2821SOL     OW 9361   2.982   3.204   6.077
 2821SOL    HW1 9362   2.916   3.197   6.002
 2821SOL    HW2 9363   3.050   3.131   6.069
 2822SOL     OW 9364   4.507   2.396   0.696
 2822SOL    HW1 9365   4.456   2.463   0.641
 2822SOL    HW2 9366   4.530   2.436   0.784
 2823SOL     OW 9367   5.188   2.304   1.619
 2823SOL    HW1 9368   5.199   2.284   1.716
 2823SOL    HW2 9369   5.239   2.386   1.594
 2824SOL     OW 9370   1.570   3.428   4.712
 2824SOL    HW1 9371   1.566   3.496   4.640
 2824SOL    HW2 9372   1.562   3.473   4.801
 2825SOL     OW 9373   5.225   2.026   5.811
 2825SOL    HW1 9374   5.252   2.008   5.906
 2825SOL    HW2 9375   5.202   2.122   5.800
 2826SOL     OW 9376   2.508   2.823   6.939
 2826SOL    HW1 9377   2.553   2.819   6.850
 2826SOL    HW2 9378   2.577   2.816   7.011
 2827SOL     OW 9379   5.958   0.975   6.251
 2827SOL    HW1 9380   6.011   1.047   6.205
 2827SOL    HW2 9381   5.915   1.013   6.333
 2828SOL     OW 9382   1.457   3.435   0.698
 2828SOL    HW1 9383   1.527   3.394   0.639
 2828SOL    HW2 9384   1.476   3.532   0.712
 2829SOL     OW 9385   3.145   3.968   2.573
 2829SOL    HW1 9386   3.237   3.998   2.548
 2829SOL    HW2 9387   3.128   3.992   2.669
 2830SOL     OW 9388   3.548   5.409   5.724
 2830SOL    HW1 9389   3.623   5.372   5.670
 2830SOL    HW2 9390   3.543   5.508   5.713
 2831SOL     OW 9391   5.752   1.994   1.801
 2831SOL    HW1 9392   5.759   2.090   1.826
 2831SOL    HW2 9393   5.760   1.937   1.883
 2832SOL     OW 9394   0.700   3.985   2.132
 2832SOL    HW1 9395   0.628   4.014   2.068
 2832SOL    HW2 9396   0.785   3.970   2.081
 2833SOL     OW 9397   2.172   2.493   1.928
 2833SOL    HW1 9398   2.241   2.464   1.994
 2833SOL    HW2 9399   2.197   2.583   1.892
 2834SOL     OW 9400   3.531   5.925   5.620
 2834SOL    HW1 9401   3.461   5.980   5.665
 2834SOL    HW2 9402   3.527   5.939   5.521
 2835SOL     OW 9403   6.809   0.522   0.737
 2835SOL    HW1 9404   6.748   0.598   0.758
 2835SOL    HW2 9405   6.797   0.494   0.642
 2836SOL     OW 9406   3.733   5.858   2.142
 2836SOL    HW1 9407   3.807   5.812   2.190
 2836SOL    HW2 9408   3.646   5.812   2.160
 2837SOL     OW 9409   5.321   4.215   2.043
 2837SOL    HW1 9410   5.337   4.180   1.951
 2837SOL    HW2 9411   5.396   4.277   2.069
 2838SOL     OW 9412   5.968   4.768   6.467
 2838SOL    HW1 9413   6.041   4.701   6.454
 2838SOL    HW2 9414   5.893   4.726   6.517
 2839SOL     OW 9415   6.485   3.131   4.912
 2839SOL    HW1 9416   6.451   3.065   4.845
 2839SOL    HW2 9417   6.574   3.101   4.946
 2840SOL     OW 9418   6.922   6.354   3.916
 2840SOL    HW1 9419   6.919   6.263   3.959
 2840SOL    HW2 9420   6.906   6.345   3.818
 2841SOL     OW 9421   6.164   4.155   2.637
 2841SOL    HW1 9422   6.072   4.174   2.672
 2841SOL    HW2 9423   6.162   4.072   2.582
 2842SOL     OW 9424   1.279   0.116   3.637
 2842SOL    HW1 9425   1.234   0.200   3.604
 2842SOL    HW2 9426   1.222   0.074   3.707
 2843SOL     OW 9427   1.958   2.877   3.812
 2843SOL    HW1 9428   1.892   2.815   3.771
 2843SOL    HW2 9429   2.016   2.917   3.741
 2844SOL     OW 9430   5.037   4.108   0.056
 2844SOL    HW1 9431   5.057   4.101   0.153
 2844SOL    HW2 9432   5.122   4.122   0.005
 2845SOL     OW 9433   3.038   2.226   2.759
 2845SOL    HW1 9434   2.947   2.207   2.796
 2845SOL    HW2 9435   3.029   2.254   2.663
 2846SOL     OW 9436   6.074   0.160   0.054
 2846SOL    HW1 9437   6.026   0.215   7.006
 2846SOL    HW2 9438   6.011   0.095   0.095
 2847SOL     OW 9439   4.286   4.501   1.352
 2847SOL    HW1 9440   4.207   4.444   1.374
 2847SOL    HW2 9441   4.363   4.475   1.411
 2848SOL     OW 9442   0.437   3.845   5.606
 2848SOL    HW1 9443   0.402   3.759   5.568
 2848SOL    HW2 9444   0.496   3.889   5.538
 2849SOL     OW 9445   4.873   0.365   1.803
 2849SOL    HW1 9446   4.853   0.397   1.896
 2849SOL    HW2 9447   4.952   0.415   1.768
 2850SOL     OW 9448   2.051   0.411   2.024
 2850SOL    HW1 9449   2.085   0.413   1.931
 2850SOL    HW2 9450   2.020   0.503   2.051
 2851SOL     OW 9451   3.500   3.035   1.524
 2851SOL    HW1 9452   3.436   3.099   1.567
 2851SOL    HW2 9453   3.513   2.956   1.583
 2852SOL     OW 9454   6.295   4.653   6.887
 2852SOL    HW1 9455   6.373   4.677   6.829
 2852SOL    HW2 9456   6.215   4.636   6.829
 2853SOL     OW 9457   0.092   4.149   5.940
 2853SOL    HW1 9458   0.147   4.148   6.024
 2853SOL    HW2 9459   0.147   4.186   5.865
 2854SOL     OW 9460   4.188   0.669   5.430
 2854SOL    HW1 9461   4.178   0.698   5.525
 2854SOL    HW2 9462   4.152   0.741   5.370
 2855SOL     OW 9463   2.063   1.942   5.538
 2855SOL    HW1 9464   1.970   1.914   5.514
 2855SOL    HW2 9465   2.085   2.028   5.491
 2856SOL     OW 9466   1.013   5.246   4.107
 2856SOL    HW1 9467   1.031   5.332   4.059
 2856SOL    HW2 9468   0.935   5.200   4.065
 2857SOL     OW 9469   6.854   4.105   0.949
 2857SOL    HW1 9470   6.846   4.059   0.860
 2857SOL    HW2 9471   6.766   4.101   0.996
 2858SOL     OW 9472   4.767   4.770   2.175
 2858SOL    HW1 9473   4.714   4.784   2.091
 2858SOL    HW2 9474   4.840   4.704   2.158
 2859SOL     OW 9475   5.246   5.217   0.730
 2859SOL    HW1 9476   5.237   5.312   0.761
 2859SOL    HW2 9477   5.271   5.159   0.807
 2860SOL     OW 9478   0.866   0.145   2.184
 2860SOL    HW1 9479   0.831   0.188   2.101
 2860SOL    HW2 9480   0.791   0.104   2.235
 2861SOL     OW 9481   4.605   5.192   5.959
 2861SOL    HW1 9482   4.599   5.122   5.888
 2861SOL    HW2 9483   4.559   5.275   5.927
 2862SOL     OW 9484   4.244   2.790   0.351
 2862SOL    HW1 9485   4.179   2.740   0.407
 2862SOL    HW2 9486   4.324   2.733   0.332
 2863SOL     OW 9487   5.941   0.328   5.251
 2863SOL    HW1 9488   5.865   0.392   5.247
 2863SOL    HW2 9489   6.007   0.349   5.179
 2864SOL     OW 9490   3.721   4.771   0.307
 2864SOL    HW1 9491   3.648   4.824   0.263
 2864SOL    HW2 9492   3.739   4.809   0.398
 2865SOL     OW 9493   5.583   5.447   4.553
 2865SOL    HW1 9494   5.503   5.409   4.600
 2865SOL    HW2 9495   5.556   5.479   4.462
 2866SOL     OW 9496   4.607   4.195   0.573
 2866SOL    HW1 9497   4.542   4.143   0.630
 2866SOL    HW2 9498   4.682   4.135   0.547
 2867SOL     OW 9499   5.198   6.292   1.913
 2867SOL    HW1 9500   5.289   6.328   1.934
 2867SOL    HW2 9501   5.174   6.315   1.819
 2868SOL     OW 9502   1.174   0.610   5.520
 2868SOL    HW1 9503   1.190   0.542   5.591
 2868SOL    HW2 9504   1.090   0.587   5.470
 2869SOL     OW 9505   6.367   5.412   4.445
 2869SOL    HW1 9506   6.431   5.481   4.412
 2869SOL    HW2 9507   6.298   5.395   4.375
 2870SOL     OW 9508   6.787   2.091   1.935
 2870SOL    HW1 9509   6.870   2.145   1.946
 2870SOL    HW2 9510   6.765   2.046   2.021
 2871SOL     OW 9511   5.572   1.827   2.674
 2871SOL    HW1 9512   5.585   1.878   2.589
 2871SOL    HW2 9513   5.505   1.875   2.732
 2872SOL     OW 9514   3.074   2.077   2.420
 2872SOL    HW1 9515   3.136   2.026   2.360
 2872SOL    HW2 9516   3.007   2.126   2.364
 2873SOL     OW 9517   1.012   6.976   1.270
 2873SOL    HW1 9518   1.067   6.967   1.353
 2873SOL    HW2 9519   0.968   6.888   1.251
 2874SOL     OW 9520   2.830   1.204   2.725
 2874SOL    HW1 9521   2.737   1.180   2.699
 2874SOL    HW2 9522   2.849   1.170   2.818
 2875SOL     OW 9523   2.263   6.625   2.710
 2875SOL    HW1 9524   2.253   6.716   2.670
 2875SOL    HW2 9525   2.182   6.604   2.765
 2876SOL     OW 9526   1.747   0.436   2.215
 2876SOL    HW1 9527   1.699   0.494   2.282
 2876SOL    HW2 9528   1.838   0.474   2.198
 2877SOL     OW 9529   1.480   2.392   6.808
 2877SOL    HW1 9530   1.421   2.353   6.879
 2877SOL    HW2 9531   1.457   2.352   6.720
 2878SOL     OW 9532   4.064   3.286   3.711
 2878SOL    HW1 9533   3.984   3.230   3.727
 2878SOL    HW2 9534   4.133   3.268   3.781
 2879SOL     OW 9535   4.462   3.945   0.333
 2879SOL    HW1 9536   4.450   3.858   0.285
 2879SOL    HW2 9537   4.554   3.981   0.314
 2880SOL     OW 9538   2.309   1.072   3.855
 2880SOL    HW1 9539   2.403   1.064   3.888
 2880SOL    HW2 9540   2.247   1.028   3.920
 2881SOL     OW 9541   4.543   5.758   6.510
 2881SOL    HW1 9542   4.624   5.701   6.503
 2881SOL    HW2 9543   4.542   5.805   6.599
 2882SOL     OW 9544   4.688   6.060   0.297
 2882SOL    HW1 9545   4.668   6.012   0.382
 2882SOL    HW2 9546   4.670   6.158   0.309
 2883SOL     OW 9547   5.748   5.679   4.062
 2883SOL    HW1 9548   5.688   5.722   3.994
 2883SOL    HW2 9549   5.842   5.683   4.030
 2884SOL     OW 9550   6.931   5.222   3.743
 2884SOL    HW1 9551   6.840   5.259   3.761
 2884SOL    HW2 9552   6.927   5.122   3.739
 2885SOL     OW 9553   1.071   2.535   3.689
 2885SOL    HW1 9554   1.023   2.620   3.666
 2885SOL    HW2 9555   1.139   2.553   3.760
 2886SOL     OW 9556   2.230   4.022   5.875
 2886SOL    HW1 9557   2.221   3.954   5.948
 2886SOL    HW2 9558   2.157   4.090   5.883
 2887SOL     OW 9559   0.407   5.788   3.282
 2887SOL    HW1 9560   0.490   5.732   3.288
 2887SOL    HW2 9561   0.327   5.728   3.287
 2888SOL     OW 9562   6.389   6.828   0.296
 2888SOL    HW1 9563   6.305   6.833   0.350
 2888SOL    HW2 9564   6.375   6.767   0.217
 2889SOL     OW 9565   3.273   6.343   2.300
 2889SOL    HW1 9566   3.363   6.300   2.304
 2889SOL    HW2 9567   3.282   6.439   2.328
 2890SOL     OW 9568   1.672   1.657   1.306
 2890SOL    HW1 9569   1.648   1.630   1.213
 2890SOL    HW2 9570   1.594   1.702   1.349
 2891SOL     OW 9571   0.430   2.348   4.448
 2891SOL    HW1 9572   0.476   2.425   4.491
 2891SOL    HW2 9573   0.421   2.364   4.350
 2892SOL     OW 9574   6.407   4.315   2.987
 2892SOL    HW1 9575   6.455   4.358   3.063
 2892SOL    HW2 9576   6.387   4.220   3.009
 2893SOL     OW 9577   6.305   5.305   4.743
 2893SOL    HW1 9578   6.404   5.306   4.728
 2893SOL    HW2 9579   6.258   5.311   4.655
 2894SOL     OW 9580   2.081   6.053   2.583
 2894SOL    HW1 9581   2.006   6.117   2.597
 2894SOL    HW2 9582   2.076   6.016   2.490
 2895SOL     OW 9583   4.423   6.595   6.527
 2895SOL    HW1 9584   4.379   6.512   6.494
 2895SOL    HW2 9585   4.481   6.633   6.456
 2896SOL     OW 9586   5.820   5.892   5.005
 2896SOL    HW1 9587   5.822   5.899   4.905
 2896SOL    HW2 9588   5.725   5.889   5.037
 2897SOL     OW 9589   3.897   5.114   3.018
 2897SOL    HW1 9590   3.854   5.051   3.082
 2897SOL    HW2 9591   3.910   5.069   2.930
 2898SOL     OW 9592   5.280   2.839   2.942
 2898SOL    HW1 9593   5.268   2.869   2.848
 2898SOL    HW2 9594   5.266   2.740   2.948
 2899SOL     OW 9595   6.945   3.739   1.066
 2899SOL    HW1 9596   6.974   3.835   1.070
 2899SOL    HW2 9597   0.003   3.681   1.045
 2900SOL     OW 9598   2.440   2.532   5.701
 2900SOL    HW1 9599   2.358   2.584   5.722
 2900SOL    HW2 9600   2.454   2.462   5.771
 2901SOL     OW 9601   0.875   4.114   3.567
 2901SOL    HW1 9602   0.801   4.176   3.542
 2901SOL    HW2 9603   0.887   4.115   3.666
 2902SOL     OW 9604   6.813   6.029   3.620
 2902SOL    HW1 9605   6.913   6.018   3.619
 2902SOL    HW2 9606   6.778   6.018   3.527
 2903SOL     OW 9607   4.645   4.803   0.320
 2903SOL    HW1 9608   4.613   4.895   0.341
 2903SOL    HW2 9609   4.712   4.807   0.246
 2904SOL     OW 9610   2.406   4.050   5.435
 2904SOL    HW1 9611   2.488   4.101   5.457
 2904SOL    HW2 9612   2.411   4.016   5.341
 2905SOL     OW 9613   1.082   5.999   1.810
 2905SOL    HW1 9614   1.118   5.938   1.739
 2905SOL    HW2 9615   1.049   6.083   1.768
 2906SOL     OW 9616   6.277   6.327   3.984
 2906SOL    HW1 9617   6.351   6.386   4.016
 2906SOL    HW2 9618   6.274   6.244   4.038
 2907SOL     OW 9619   0.369   1.010   4.020
 2907SOL    HW1 9620   0.310   0.930   4.022
 2907SOL    HW2 9621   0.462   0.982   3.997
 2908SOL     OW 9622   4.400   6.164   2.955
 2908SOL    HW1 9623   4.365   6.129   2.868
 2908SOL    HW2 9624   4.390   6.094   3.025
 2909SOL     OW 9625   0.539   6.352   1.507
 2909SOL    HW1 9626   0.560   6.378   1.412
 2909SOL    HW2 9627   0.462   6.407   1.540
 2910SOL     OW 9628   6.913   0.768   3.944
 2910SOL    HW1 9629   6.996   0.792   3.893
 2910SOL    HW2 9630   6.879   0.848   3.991
 2911SOL     OW 9631   0.077   4.450   5.627
 2911SOL    HW1 9632   0.080   4.526   5.563
 2911SOL    HW2 9633   7.014   4.398   5.613
 2912SOL     OW 9634   0.691   0.758   1.649
 2912SOL    HW1 9635   0.640   0.775   1.564
 2912SOL    HW2 9636   0.731   0.667   1.646
 2913SOL     OW 9637   2.703   0.057   1.493
 2913SOL    HW1 9638   2.651   0.142   1.485
 2913SOL    HW2 9639   2.639   7.001   1.504
 2914SOL     OW 9640   4.553   5.545   0.544
 2914SOL    HW1 9641   4.633   5.515   0.492
 2914SOL    HW2 9642   4.474   5.549   0.484
 2915SOL     OW 9643   2.381   0.300   2.726
 2915SOL    HW1 9644   2.427   0.387   2.744
 2915SOL    HW2 9645   2.430   0.251   2.654
 2916SOL     OW 9646   1.281   6.505   0.302
 2916SOL    HW1 9647   1.272   6.602   0.280
 2916SOL    HW2 9648   1.375   6.476   0.287
 2917SOL     OW 9649   2.538   5.942   4.139
 2917SOL    HW1 9650   2.443   5.919   4.162
 2917SOL    HW2 9651   2.597   5.920   4.217
 2918SOL     OW 9652   5.045   2.706   1.881
 2918SOL    HW1 9653   5.077   2.664   1.966
 2918SOL    HW2 9654   5.014   2.799   1.900
 2919SOL     OW 9655   0.866   5.780   4.847
 2919SOL    HW1 9656   0.781   5.777   4.795
 2919SOL    HW2 9657   0.940   5.738   4.795
 2920SOL     OW 9658   1.160   2.784   2.706
 2920SOL    HW1 9659   1.209   2.734   2.634
 2920SOL    HW2 9660   1.137   2.720   2.780
 2921SOL     OW 9661   1.171   0.063   3.888
 2921SOL    HW1 9662   1.197   0.157   3.912
 2921SOL    HW2 9663   1.246   0.001   3.912
 2922SOL     OW 9664   3.736   6.540   3.457
 2922SOL    HW1 9665   3.648   6.494   3.447
 2922SOL    HW2 9666   3.805   6.473   3.486
 2923SOL     OW 9667   6.674   5.925   5.011
 2923SOL    HW1 9668   6.708   5.928   5.105
 2923SOL    HW2 9669   6.581   5.888   5.010
 2924SOL     OW 9670   5.731   1.830   4.896
 2924SOL    HW1 9671   5.780   1.916   4.909
 2924SOL    HW2 9672   5.663   1.818   4.968
 2925SOL     OW 9673   4.973   6.578   6.116
 2925SOL    HW1 9674   5.042   6.594   6.045
 2925SOL    HW2 9675   4.934   6.666   6.144
 2926SOL     OW 9676   6.784   2.710   3.992
 2926SOL    HW1 9677   6.765   2.807   4.009
 2926SOL    HW2 9678   6.699   2.658   3.999
 2927SOL     OW 9679   0.984   1.828   1.869
 2927SOL    HW1 9680   1.030   1.916   1.856
 2927SOL    HW2 9681   1.029   1.758   1.813
 2928SOL     OW 9682   6.705   2.858   0.238
 2928SOL    HW1 9683   6.680   2.917   0.162
 2928SOL    HW2 9684   6.798   2.880   0.268
 2929SOL     OW 9685   2.565   2.273   4.404
 2929SOL    HW1 9686   2.580   2.325   4.320
 2929SOL    HW2 9687   2.634   2.201   4.411
 2930SOL     OW 9688   0.070   4.291   4.686
 2930SOL    HW1 9689   0.018   4.322   4.766
 2930SOL    HW2 9690   0.153   4.345   4.678
 2931SOL     OW 9691   5.160   3.683   5.576
 2931SOL    HW1 9692   5.250   3.650   5.604
 2931SOL    HW2 9693   5.092   3.611   5.589
 2932SOL     OW 9694   6.604   5.424   0.867
 2932SOL    HW1 9695   6.537   5.383   0.928
 2932SOL    HW2 9696   6.694   5.382   0.882
 2933SOL     OW 9697   1.160   0.304   0.331
 2933SOL    HW1 9698   1.204   0.322   0.419
 2933SOL    HW2 9699   1.148   0.390   0.282
 2934SOL     OW 9700   3.735   4.502   0.351
 2934SOL    HW1 9701   3.759   4.599   0.354
 2934SOL    HW2 9702   3.698   4.474   0.440
 2935SOL     OW 9703   0.384   2.044   6.355
 2935SOL    HW1 9704   0.472   2.081   6.325
 2935SOL    HW2 9705   0.332   2.011   6.276
 2936SOL     OW 9706   4.777   6.316   0.609
 2936SOL    HW1 9707   4.869   6.352   0.598
 2936SOL    HW2 9708   4.732   6.309   0.520
 2937SOL     OW 9709   5.048   4.768   2.433
 2937SOL    HW1 9710   5.092   4.823   2.362
 2937SOL    HW2 9711   4.962   4.812   2.461
 2938SOL     OW 9712   6.779   5.548   6.565
 2938SOL    HW1 9713   6.814   5.458   6.536
 2938SOL    HW2 9714   6.783   5.611   6.488
 2939SOL     OW 9715   0.399   6.110   1.607
 2939SOL    HW1 9716   0.444   6.169   1.674
 2939SOL    HW2 9717   0.432   6.132   1.515
 2940SOL     OW 9718   4.160   6.426   3.306
 2940SOL    HW1 9719   4.139   6.419   3.208
 2940SOL    HW2 9720   4.100   6.494   3.348
 2941SOL     OW 9721   1.866   4.281   3.684
 2941SOL    HW1 9722   1.767   4.279   3.671
 2941SOL    HW2 9723   1.887   4.267   3.781
 2942SOL     OW 9724   3.512   1.830   1.302
 2942SOL    HW1 9725   3.491   1.743   1.257
 2942SOL    HW2 9726   3.499   1.905   1.238
 2943SOL     OW 9727   5.971   3.920   3.021
 2943SOL    HW1 9728   6.049   3.934   2.960
 2943SOL    HW2 9729   5.886   3.930   2.969
 2944SOL     OW 9730   2.307   6.105   2.453
 2944SOL    HW1 9731   2.357   6.184   2.488
 2944SOL    HW2 9732   2.223   6.093   2.506
 2945SOL     OW 9733   5.018   4.134   1.200
 2945SOL    HW1 9734   5.118   4.133   1.201
 2945SOL    HW2 9735   4.983   4.117   1.292
 2946SOL     OW 9736   4.039   3.505   5.355
 2946SOL    HW1 9737   4.121   3.562   5.358
 2946SOL    HW2 9738   3.991   3.510   5.443
 2947SOL     OW 9739   6.291   6.728   1.007
 2947SOL    HW1 9740   6.325   6.646   0.963
 2947SOL    HW2 9741   6.221   6.771   0.949
 2948SOL     OW 9742   6.766   3.805   1.775
 2948SOL    HW1 9743   6.761   3.809   1.875
 2948SOL    HW2 9744   6.846   3.856   1.744
 2949SOL     OW 9745   1.094   6.919   0.832
 2949SOL    HW1 9746   1.131   6.894   0.922
 2949SOL    HW2 9747   1.075   6.835   0.780
 2950SOL     OW 9748   6.085   4.909   3.370
 2950SOL    HW1 9749   6.176   4.891   3.332
 2950SOL    HW2 9750   6.041   4.982   3.317
 2951SOL     OW 9751   6.556   1.370   1.924
 2951SOL    HW1 9752   6.634   1.308   1.930
 2951SOL    HW2 9753   6.475   1.325   1.962
 2952SOL     OW 9754   6.261   1.963   4.370
 2952SOL    HW1 9755   6.253   1.996   4.277
 2952SOL    HW2 9756   6.240   2.036   4.434
 2953SOL     OW 9757   1.211   5.569   4.304
 2953SOL    HW1 9758   1.267   5.497   4.262
 2953SOL    HW2 9759   1.143   5.528   4.365
 2954SOL     OW 9760   6.803   4.311   6.407
 2954SOL    HW1 9761   6.783   4.320   6.310
 2954SOL    HW2 9762   6.888   4.260   6.418
 2955SOL     OW 9763   1.871   4.009   5.887
 2955SOL    HW1 9764   1.939   3.968   5.826
 2955SOL    HW2 9765   1.780   4.001   5.846
 2956SOL     OW 9766   5.551   5.211   3.478
 2956SOL    HW1 9767   5.610   5.285   3.446
 2956SOL    HW2 9768   5.585   5.124   3.444
 2957SOL     OW 9769   2.226   5.180   0.969
 2957SOL    HW1 9770   2.236   5.081   0.957
 2957SOL    HW2 9771   2.303   5.227   0.928
 2958SOL     OW 9772   1.471   5.784   2.344
 2958SOL    HW1 9773   1.544   5.748   2.402
 2958SOL    HW2 9774   1.478   5.743   2.253
 2959SOL     OW 9775   6.701   3.786   2.903
 2959SOL    HW1 9776   6.674   3.865   2.849
 2959SOL    HW2 9777   6.642   3.708   2.881
 2960SOL     OW 9778   5.734   0.100   0.403
 2960SOL    HW1 9779   5.724   0.199   0.396
 2960SOL    HW2 9780   5.660   0.063   0.459
 2961SOL     OW 9781   5.483   3.728   2.274
 2961SOL    HW1 9782   5.465   3.774   2.187
 2961SOL    HW2 9783   5.402   3.679   2.304
 2962SOL     OW 9784   6.643   0.419   3.246
 2962SOL    HW1 9785   6.574   0.484   3.213
 2962SOL    HW2 9786   6.605   0.327   3.246
 2963SOL     OW 9787   1.827   0.955   5.224
 2963SOL    HW1 9788   1.811   0.859   5.203
 2963SOL    HW2 9789   1.782   0.977   5.311
 2964SOL     OW 9790   1.153   1.879   0.061
 2964SOL    HW1 9791   1.237   1.882   0.115
 2964SOL    HW2 9792   1.150   1.795   0.008
 2965SOL     OW 9793   0.089   6.689   5.409
 2965SOL    HW1 9794   0.059   6.761   5.472
 2965SOL    HW2 9795   0.057   6.709   5.317
 2966SOL     OW 9796   3.193   5.930   2.264
 2966SOL    HW1 9797   3.270   5.947   2.203
 2966SOL    HW2 9798   3.140   6.014   2.276
 2967SOL     OW 9799   5.379   0.528   5.311
 2967SOL    HW1 9800   5.295   0.488   5.276
 2967SOL    HW2 9801   5.410   0.475   5.390
 2968SOL     OW 9802   1.775   3.589   1.327
 2968SOL    HW1 9803   1.754   3.522   1.399
 2968SOL    HW2 9804   1.808   3.542   1.246
 2969SOL     OW 9805   5.362   3.254   4.880
 2969SOL    HW1 9806   5.306   3.203   4.944
 2969SOL    HW2 9807   5.304   3.303   4.815
 2970SOL     OW 9808   2.424   1.896   4.275
 2970SOL    HW1 9809   2.392   1.932   4.362
 2970SOL    HW2 9810   2.363   1.823   4.244
 2971SOL     OW 9811   5.297   2.787   6.115
 2971SOL    HW1 9812   5.254   2.824   6.198
 2971SOL    HW2 9813   5.313   2.689   6.126
 2972SOL     OW 9814   6.185   5.741   0.041
 2972SOL    HW1 9815   6.208   5.659   0.093
 2972SOL    HW2 9816   6.164   5.716   6.967
 2973SOL     OW 9817   4.467   1.200   3.037
 2973SOL    HW1 9818   4.424   1.189   2.947
 2973SOL    HW2 9819   4.521   1.283   3.038
 2974SOL     OW 9820   4.893   6.929   2.403
 2974SOL    HW1 9821   4.807   6.879   2.395
 2974SOL    HW2 9822   4.948   6.914   2.321
 2975SOL     OW 9823   4.673   4.219   3.806
 2975SOL    HW1 9824   4.712   4.169   3.884
 2975SOL    HW2 9825   4.637   4.153   3.740
 2976SOL     OW 9826   4.176   1.349   2.106
 2976SOL    HW1 9827   4.155   1.299   2.022
 2976SOL    HW2 9828   4.093   1.396   2.138
 2977SOL     OW 9829   1.263   1.022   1.731
 2977SOL    HW1 9830   1.187   1.033   1.668
 2977SOL    HW2 9831   1.293   1.112   1.762
 2978SOL     OW 9832   4.787   5.194   6.779
 2978SOL    HW1 9833   4.759   5.288   6.797
 2978SOL    HW2 9834   4.789   5.178   6.681
 2979SOL     OW 9835   2.939   0.748   4.065
 2979SOL    HW1 9836   2.914   0.702   3.980
 2979SOL    HW2 9837   2.957   0.845   4.047
 2980SOL     OW 9838   3.758   3.805   5.109
 2980SOL    HW1 9839   3.688   3.810   5.180
 2980SOL    HW2 9840   3.717   3.823   5.020
 2981SOL     OW 9841   1.990   1.395   1.513
 2981SOL    HW1 9842   1.927   1.383   1.590
 2981SOL    HW2 9843   2.084   1.393   1.546
 2982SOL     OW 9844   1.421   0.263   1.689
 2982SOL    HW1 9845   1.448   0.222   1.602
 2982SOL    HW2 9846   1.385   0.355   1.674
 2983SOL     OW 9847   6.516   3.425   5.577
 2983SOL    HW1 9848   6.595   3.464   5.626
 2983SOL    HW2 9849   6.432   3.458   5.619
 2984SOL     OW 9850   0.689   5.234   1.303
 2984SOL    HW1 9851   0.788   5.242   1.298
 2984SOL    HW2 9852   0.654   5.297   1.373
 2985SOL     OW 9853   0.582   0.150   5.653
 2985SOL    HW1 9854   0.568   0.169   5.750
 2985SOL    HW2 9855   0.607   0.054   5.641
 2986SOL     OW 9856   3.363   3.612   2.248
 2986SOL    HW1 9857   3.349   3.647   2.341
 2986SOL    HW2 9858   3.458   3.582   2.238
 2987SOL     OW 9859   1.537   6.704   5.177
 2987SOL    HW1 9860   1.605   6.632   5.186
 2987SOL    HW2 9861   1.447   6.669   5.203
 2988SOL     OW 9862   0.371   1.271   6.317
 2988SOL    HW1 9863   0.455   1.314   6.283
 2988SOL    HW2 9864   0.362   1.290   6.414
 2989SOL     OW 9865   4.877   3.601   4.095
 2989SOL    HW1 9866   4.904   3.586   4.190
 2989SOL    HW2 9867   4.830   3.521   4.060
 2990SOL     OW 9868   5.440   1.860   4.493
 2990SOL    HW1 9869   5.369   1.805   4.537
 2990SOL    HW2 9870   5.529   1.840   4.534
 2991SOL     OW 9871   0.719   3.960   1.469
 2991SOL    HW1 9872   0.638   4.018   1.457
 2991SOL    HW2 9873   0.742   3.917   1.382
 2992SOL     OW 9874   0.056   3.773   5.661
 2992SOL    HW1 9875   0.120   3.849   5.648
 2992SOL    HW2 9876   0.019   3.745   5.572
 2993SOL     OW 9877   2.210   3.522   0.687
 2993SOL    HW1 9878   2.225   3.613   0.725
 2993SOL    HW2 9879   2.284   3.500   0.624
 2994SOL     OW 9880   4.193   5.873   6.070
 2994SOL    HW1 9881   4.261   5.930   6.024
 2994SOL    HW2 9882   4.116   5.930   6.099
 2995SOL     OW 9883   5.109   0.877   0.691
 2995SOL    HW1 9884   5.181   0.939   0.660
 2995SOL    HW2 9885   5.044   0.927   0.748
 2996SOL     OW 9886   6.740   0.511   4.219
 2996SOL    HW1 9887   6.717   0.593   4.272
 2996SOL    HW2 9888   6.754   0.434   4.281
 2997SOL     OW 9889   4.970   6.444   4.532
 2997SOL    HW1 9890   5.031   6.413   4.459
 2997SOL    HW2 9891   4.895   6.498   4.493
 2998SOL     OW 9892   2.641   1.490   3.105
 2998SOL    HW1 9893   2.712   1.419   3.113
 2998SOL    HW2 9894   2.633   1.538   3.192
 2999SOL     OW 9895   2.920   3.935   0.928
 2999SOL    HW1 9896   2.950   3.917   1.022
 2999SOL    HW2 9897   2.994   3.912   0.864
 3000SOL     OW 9898   2.962   4.010   5.173
 3000SOL    HW1 9899   3.046   3.956   5.166
 3000SOL    HW2 9900   2.983   4.107   5.160
 3001SOL     OW 9901   5.777   0.708   5.448
 3001SOL    HW1 9902   5.678   0.714   5.435
 3001SOL    HW2 9903   5.800   0.617   5.483
 3002SOL     OW 9904   1.793   2.216   1.687
 3002SOL    HW1 9905   1.865   2.267   1.734
 3002SOL    HW2 9906   1.705   2.260   1.703
 3003SOL     OW 9907   1.455   6.396   6.990
 3003SOL    HW1 9908   1.391   6.461   6.949
 3003SOL    HW2 9909   1.531   6.446   0.010
 3004SOL     OW 9910   2.396   6.505   3.635
 3004SOL    HW1 9911   2.462   6.435   3.662
 3004SOL    HW2 9912   2.343   6.533   3.715
 3005SOL     OW 9913   0.749   2.484   6.791
 3005SOL    HW1 9914   0.801   2.559   6.833
 3005SOL    HW2 9915   0.652   2.493   6.815
 3006SOL     OW 9916   5.167   1.721   5.805
 3006SOL    HW1 9917   5.095   1.731   5.873
 3006SOL    HW2 9918   5.149   1.783   5.728
 3007SOL     OW 9919   5.303   5.557   0.096
 3007SOL    HW1 9920   5.280   5.589   0.004
 3007SOL    HW2 9921   5.372   5.618   0.135
 3008SOL     OW 9922   5.237   3.419   5.870
 3008SOL    HW1 9923   5.335   3.401   5.873
 3008SOL    HW2 9924   5.198   3.377   5.788
 3009SOL     OW 9925   0.504   3.245   2.153
 3009SOL    HW1 9926   0.554   3.330   2.166
 3009SOL    HW2 9927   0.406   3.264   2.144
 3010SOL     OW 9928   4.147   5.524   0.322
 3010SOL    HW1 9929   4.101   5.463   0.257
 3010SOL    HW2 9930   4.085   5.544   0.398
 3011SOL     OW 9931   6.636   0.568   1.351
 3011SOL    HW1 9932   6.600   0.529   1.436
 3011SOL    HW2 9933   6.608   0.664   1.344
 3012SOL     OW 9934   2.211   2.447   5.202
 3012SOL    HW1 9935   2.305   2.425   5.177
 3012SOL    HW2 9936   2.204   2.544   5.225
 3013SOL     OW 9937   1.127   4.245   5.167
 3013SOL    HW1 9938   1.214   4.260   5.214
 3013SOL    HW2 9939   1.059   4.310   5.201
 3014SOL     OW 9940   5.449   6.558   6.155
 3014SOL    HW1 9941   5.548   6.559   6.168
 3014SOL    HW2 9942   5.425   6.616   6.077
 3015SOL     OW 9943   1.221   0.950   6.958
 3015SOL    HW1 9944   1.231   0.915   6.865
 3015SOL    HW2 9945   1.124   0.947   6.985
 3016SOL     OW 9946   1.950   5.976   4.130
 3016SOL    HW1 9947   1.881   6.005   4.064
 3016SOL    HW2 9948   1.941   5.877   4.146
 3017SOL     OW 9949   1.068   5.005   0.804
 3017SOL    HW1 9950   1.010   5.014   0.885
 3017SOL    HW2 9951   1.011   4.993   0.723
 3018SOL     OW 9952   3.623   6.977   0.691
 3018SOL    HW1 9953   3.573   0.043   0.689
 3018SOL    HW2 9954   3.702   6.986   0.752
 3019SOL     OW 9955   2.058   1.122   6.112
 3019SOL    HW1 9956   2.099   1.196   6.060
 3019SOL    HW2 9957   2.116   1.100   6.190
 3020SOL     OW 9958   6.543   3.842   6.785
 3020SOL    HW1 9959   6.562   3.843   6.687
 3020SOL    HW2 9960   6.517   3.934   6.815
 3021SOL     OW 9961   4.222   0.249   4.957
 3021SOL    HW1 9962   4.303   0.277   4.907
 3021SOL    HW2 9963   4.191   0.160   4.924
 3022SOL     OW 9964   3.602   5.786   3.763
 3022SOL    HW1 9965   3.554   5.867   3.796
 3022SOL    HW2 9966   3.558   5.704   3.797
 3023SOL     OW 9967   5.027   6.032   4.028
 3023SOL    HW1 9968   5.087   5.959   4.061
 3023SOL    HW2 9969   4.933   5.998   4.023
 3024SOL     OW 9970   0.071   6.697   0.152
 3024SOL    HW1 9971   0.066   6.623   0.220
 3024SOL    HW2 9972   7.019   6.763   0.169
 3025SOL     OW 9973   3.731   5.158   0.278
 3025SOL    HW1 9974   3.800   5.127   0.343
 3025SOL    HW2 9975   3.759   5.247   0.240
 3026SOL     OW 9976   6.999   0.588   2.338
 3026SOL    HW1 9977   6.947   0.642   2.272
 3026SOL    HW2 9978   0.038   0.648   2.390
 3027SOL     OW 9979   4.358   0.783   0.873
 3027SOL    HW1 9980   4.269   0.820   0.899
 3027SOL    HW2 9981   4.429   0.851   0.892
 3028SOL     OW 9982   2.940   3.244   5.741
 3028SOL    HW1 9983   2.961   3.340   5.728
 3028SOL    HW2 9984   2.842   3.229   5.729
 3029SOL     OW 9985   0.064   3.279   4.350
 3029SOL    HW1 9986   7.002   3.227   4.331
 3029SOL    HW2 9987   0.057   3.321   4.440
 3030SOL     OW 9988   2.371   3.185   0.108
 3030SOL    HW1 9989   2.395   3.276   0.141
 3030SOL    HW2 9990   2.403   3.174   0.014
 3031SOL     OW 9991   1.008   6.174   0.340
 3031SOL    HW1 9992   1.037   6.169   0.436
 3031SOL    HW2 9993   0.909   6.160   0.335
 3032SOL     OW 9994   2.505   0.546   2.771
 3032SOL    HW1 9995   2.475   0.640   2.758
 3032SOL    HW2 9996   2.601   0.538   2.743
 3033SOL     OW 9997   0.292   2.163   5.204
 3033SOL    HW1 9998   0.353   2.237   5.175
 3033SOL    HW2 9999   0.347   2.087   5.238
 3034SOL     OW10000   6.659   4.803   3.437
 3034SOL    HW110001   6.749   4.790   3.396
 3034SOL    HW210002   6.659   4.763   3.529
 3035SOL     OW10003   0.599   2.945   0.820
 3035SOL    HW110004   0.525   3.011   0.834
 3035SOL    HW210005   0.581   2.862   0.873
 3036SOL     OW10006   3.322   2.128   5.595
 3036SOL    HW110007   3.285   2.058   5.656
 3036SOL    HW210008   3.408   2.163   5.632
 3037SOL     OW10009   0.625   5.970   6.594
 3037SOL    HW110010   0.579   5.950   6.507
 3037SOL    HW210011   0.573   6.039   6.644
 3038SOL     OW10012   6.066   4.619   6.747
 3038SOL    HW110013   6.088   4.628   6.650
 3038SOL    HW210014   6.024   4.704   6.780
 3039SOL     OW10015   6.924   3.548   6.118
 3039SOL    HW110016   6.936   3.562   6.020
 3039SOL    HW210017   6.827   3.553   6.141
 3040SOL     OW10018   5.113   4.744   5.967
 3040SOL    HW110019   5.175   4.789   6.031
 3040SOL    HW210020   5.072   4.664   6.011
 3041SOL     OW10021   1.653   4.672   5.767
 3041SOL    HW110022   1.580   4.737   5.747
 3041SOL    HW210023   1.654   4.601   5.698
 3042SOL     OW10024   6.661   5.094   3.689
 3042SOL    HW110025   6.627   5.055   3.775
 3042SOL    HW210026   6.746   5.048   3.663
 3043SOL     OW10027   2.971   5.299   0.547
 3043SOL    HW110028   3.017   5.353   0.617
 3043SOL    HW210029   3.023   5.216   0.528
 3044SOL     OW10030   3.646   3.553   4.659
 3044SOL    HW110031   3.734   3.509   4.642
 3044SOL    HW210032   3.573   3.492   4.627
 3045SOL     OW10033   4.378   1.793   2.403
 3045SOL    HW110034   4.361   1.888   2.430
 3045SOL    HW210035   4.321   1.771   2.324
 3046SOL     OW10036   5.257   6.342   0.867
 3046SOL    HW110037   5.247   6.305   0.774
 3046SOL    HW210038   5.342   6.308   0.907
 3047SOL     OW10039   5.649   1.414   4.838
 3047SOL    HW110040   5.669   1.324   4.876
 3047SOL    HW210041   5.731   1.471   4.842
 3048SOL     OW10042   3.758   4.518   0.934
 3048SOL    HW110043   3.717   4.596   0.981
 3048SOL    HW210044   3.790   4.547   0.844
 3049SOL     OW10045   1.222   1.709   3.153
 3049SOL    HW110046   1.156   1.633   3.160
 3049SOL    HW210047   1.173   1.796   3.156
 3050SOL     OW10048   3.514   1.818   0.734
 3050SOL    HW110049   3.474   1.789   0.647
 3050SOL    HW210050   3.548   1.737   0.783
 3051SOL     OW10051   2.371   5.107   5.657
 3051SOL    HW110052   2.315   5.073   5.732
 3051SOL    HW210053   2.339   5.198   5.630
 3052SOL     OW10054   0.216   6.867   2.385
 3052SOL    HW110055   0.212   6.791   2.320
 3052SOL    HW210056   0.310   6.899   2.394
 3053SOL     OW10057   1.257   4.080   0.342
 3053SOL    HW110058   1.280   4.169   0.381
 3053SOL    HW210059   1.257   4.087   0.242
 3054SOL     OW10060   5.412   0.557   2.579
 3054SOL    HW110061   5.424   0.621   2.654
 3054SOL    HW210062   5.331   0.583   2.526
 3055SOL     OW10063   6.199   6.113   6.162
 3055SOL    HW110064   6.130   6.046   6.136
 3055SOL    HW210065   6.278   6.066   6.202
 3056SOL     OW10066   5.049   1.435   5.745
 3056SOL    HW110067   5.136   1.436   5.795
 3056SOL    HW210068   4.996   1.516   5.769
 3057SOL     OW10069   5.185   3.838   3.043
 3057SOL    HW110070   5.236   3.762   3.083
 3057SOL    HW210071   5.217   3.854   2.949
 3058SOL     OW10072   0.079   4.249   6.615
 3058SOL    HW110073   0.032   4.190   6.551
 3058SOL    HW210074   0.178   4.246   6.598
 3059SOL     OW10075   1.660   1.898   3.358
 3059SOL    HW110076   1.611   1.830   3.413
 3059SOL    HW210077   1.715   1.956   3.418
 3060SOL     OW10078   5.448   4.860   4.673
 3060SOL    HW110079   5.526   4.864   4.612
 3060SOL    HW210080   5.372   4.913   4.635
 3061SOL     OW10081   5.766   6.360   4.948
 3061SOL    HW110082   5.792   6.421   4.873
 3061SOL    HW210083   5.689   6.303   4.919
 3062SOL     OW10084   4.101   4.289   1.181
 3062SOL    HW110085   4.088   4.302   1.279
 3062SOL    HW210086   4.176   4.225   1.166
 3063SOL     OW10087   0.851   4.335   2.251
 3063SOL    HW110088   0.839   4.417   2.306
 3063SOL    HW210089   0.804   4.345   2.164
 3064SOL     OW10090   4.631   2.410   6.347
 3064SOL    HW110091   4.715   2.359   6.331
 3064SOL    HW210092   4.566   2.352   6.397
 3065SOL     OW10093   6.149   1.294   0.052
 3065SOL    HW110094   6.240   1.309   0.091
 3065SOL    HW210095   6.103   1.220   0.102
 3066SOL     OW10096   4.851   6.195   5.322
 3066SOL    HW110097   4.949   6.195   5.338
 3066SOL    HW210098   4.826   6.114   5.268
 3067SOL     OW10099   1.336   2.585   5.754
 3067SOL    HW110100   1.349   2.536   5.840
 3067SOL    HW210101   1.302   2.677   5.773
 3068SOL     OW10102   0.035   0.825   0.518
 3068SOL    HW110103   0.072   0.847   0.608
 3068SOL    HW210104   0.109   0.795   0.458
 3069SOL     OW10105   5.754   0.375   3.171
 3069SOL    HW110106   5.796   0.326   3.248
 3069SOL    HW210107   5.775   0.472   3.179
 3070SOL     OW10108   2.107   1.256   0.852
 3070SOL    HW110109   2.063   1.344   0.870
 3070SOL    HW210110   2.131   1.212   0.938
 3071SOL     OW10111   6.164   4.672   5.042
 3071SOL    HW110112   6.242   4.675   5.103
 3071SOL    HW210113   6.084   4.713   5.087
 3072SOL     OW10114   1.860   6.925   6.173
 3072SOL    HW110115   1.884   6.961   6.263
 3072SOL    HW210116   1.808   6.994   6.122
 3073SOL     OW10117   6.534   4.862   1.467
 3073SOL    HW110118   6.516   4.891   1.561
 3073SOL    HW210119   6.473   4.910   1.405
 3074SOL     OW10120   2.807   3.178   1.500
 3074SOL    HW110121   2.846   3.095   1.460
 3074SOL    HW210122   2.754   3.153   1.581
 3075SOL     OW10123   3.497   5.637   2.064
 3075SOL    HW110124   3.551   5.561   2.099
 3075SOL    HW210125   3.400   5.623   2.087
 3076SOL     OW10126   0.638   0.270   5.290
 3076SOL    HW110127   0.688   0.199   5.339
 3076SOL    HW210128   0.545   0.277   5.327
 3077SOL     OW10129   6.892   4.230   2.549
 3077SOL    HW110130   6.966   4.192   2.494
 3077SOL    HW210131   6.811   4.171   2.541
 3078SOL     OW10132   6.962   3.257   1.831
 3078SOL    HW110133   6.955   3.160   1.855
 3078SOL    HW210134   0.028   3.273   1.783
 3079SOL     OW10135   1.938   3.417   5.396
 3079SOL    HW110136   1.910   3.499   5.345
 3079SOL    HW210137   2.036   3.402   5.383
 3080SOL     OW10138   3.673   4.388   0.584
 3080SOL    HW110139   3.671   4.289   0.568
 3080SOL    HW210140   3.595   4.414   0.641
 3081SOL     OW10141   1.017   3.782   0.770
 3081SOL    HW110142   1.072   3.823   0.698
 3081SOL    HW210143   1.040   3.685   0.779
 3082SOL     OW10144   4.536   5.293   4.475
 3082SOL    HW110145   4.442   5.259   4.473
 3082SOL    HW210146   4.573   5.293   4.382
 3083SOL     OW10147   4.118   6.237   1.738
 3083SOL    HW110148   4.029   6.193   1.747
 3083SOL    HW210149   4.190   6.168   1.745
 3084SOL     OW10150   0.180   4.182   4.374
 3084SOL    HW110151   0.252   4.130   4.330
 3084SOL    HW210152   0.167   4.150   4.468
 3085SOL     OW10153   5.625   5.272   0.341
 3085SOL    HW110154   5.541   5.317   0.313
 3085SOL    HW210155   5.628   5.264   0.440
 3086SOL     OW10156   6.475   6.816   6.293
 3086SOL    HW110157   6.433   6.796   6.382
 3086SOL    HW210158   6.461   6.913   6.271
 3087SOL     OW10159   3.320   6.831   1.901
 3087SOL    HW110160   3.299   6.771   1.978
 3087SOL    HW210161   3.334   6.775   1.818
 3088SOL     OW10162   2.225   2.649   5.812
 3088SOL    HW110163   2.215   2.698   5.899
 3088SOL    HW210164   2.155   2.680   5.748
 3089SOL     OW10165   4.385   5.843   5.681
 3089SOL    HW110166   4.392   5.768   5.747
 3089SOL    HW210167   4.303   5.830   5.626
 3090SOL     OW10168   0.787   2.679   2.357
 3090SOL    HW110169   0.809   2.729   2.273
 3090SOL    HW210170   0.800   2.739   2.436
 3091SOL     OW10171   1.031   2.369   1.480
 3091SOL    HW110172   1.070   2.319   1.403
 3091SOL    HW210173   0.942   2.408   1.454
 3092SOL     OW10174   5.819   1.273   2.561
 3092SOL    HW110175   5.720   1.287   2.554
 3092SOL    HW210176   5.845   1.264   2.657
 3093SOL     OW10177   6.047   5.844   0.275
 3093SOL    HW110178   5.953   5.812   0.291
 3093SOL    HW210179   6.065   5.845   0.177
 3094SOL     OW10180   2.652   2.078   6.390
 3094SOL    HW110181   2.745   2.114   6.383
 3094SOL    HW210182   2.593   2.147   6.433
 3095SOL     OW10183   1.857   3.579   4.935
 3095SOL    HW110184   1.931   3.587   4.868
 3095SOL    HW210185   1.789   3.650   4.919
 3096SOL     OW10186   0.326   3.455   4.303
 3096SOL    HW110187   0.250   3.403   4.265
 3096SOL    HW210188   0.408   3.439   4.247
 3097SOL     OW10189   5.485   2.474   5.473
 3097SOL    HW110190   5.485   2.495   5.375
 3097SOL    HW210191   5.530   2.547   5.523
 3098SOL     OW10192   1.858   3.263   2.822
 3098SOL    HW110193   1.797   3.274   2.901
 3098SOL    HW210194   1.908   3.177   2.830
 3099SOL     OW10195   0.601   6.426   4.464
 3099SOL    HW110196   0.652   6.359   4.518
 3099SOL    HW210197   0.636   6.427   4.371
 3100SOL     OW10198   5.999   5.125   1.811
 3100SOL    HW110199   5.999   5.222   1.790
 3100SOL    HW210200   5.931   5.078   1.754
 3101SOL     OW10201   4.119   6.710   5.707
 3101SOL    HW110202   4.112   6.739   5.612
 3101SOL    HW210203   4.050   6.640   5.726
 3102SOL     OW10204   6.832   4.615   1.291
 3102SOL    HW110205   6.906   4.573   1.344
 3102SOL    HW210206   6.857   4.617   1.195
 3103SOL     OW10207   3.199   1.224   1.452
 3103SOL    HW110208   3.201   1.126   1.432
 3103SOL    HW210209   3.160   1.239   1.543
 3104SOL     OW10210   4.913   1.202   5.254
 3104SOL    HW110211   5.000   1.165   5.289
 3104SOL    HW210212   4.925   1.231   5.159
 3105SOL     OW10213   6.012   3.595   0.571
 3105SOL    HW110214   5.945   3.631   0.506
 3105SOL    HW210215   6.070   3.670   0.603
 3106SOL     OW10216   6.013   0.520   6.147
 3106SOL    HW110217   6.043   0.593   6.208
 3106SOL    HW210218   6.082   0.448   6.144
 3107SOL     OW10219   3.661   1.805   5.806
 3107SOL    HW110220   3.671   1.831   5.902
 3107SOL    HW210221   3.565   1.816   5.778
 3108SOL     OW10222   2.207   4.158   3.776
 3108SOL    HW110223   2.163   4.068   3.764
 3108SOL    HW210224   2.200   4.210   3.691
 3109SOL     OW10225   6.642   6.391   4.320
 3109SOL    HW110226   6.731   6.378   4.364
 3109SOL    HW210227   6.628   6.319   4.251
 3110SOL     OW10228   0.982   4.410   2.922
 3110SOL    HW110229   0.903   4.433   2.866
 3110SOL    HW210230   0.980   4.312   2.945
 3111SOL     OW10231   5.738   4.670   4.009
 3111SOL    HW110232   5.762   4.592   3.952
 3111SOL    HW210233   5.641   4.690   3.999
 3112SOL     OW10234   3.857   1.412   6.028
 3112SOL    HW110235   3.920   1.457   6.091
 3112SOL    HW210236   3.839   1.472   5.950
 3113SOL     OW10237   2.660   6.187   3.230
 3113SOL    HW110238   2.652   6.257   3.159
 3113SOL    HW210239   2.569   6.163   3.263
 3114SOL     OW10240   4.802   1.009   5.430
 3114SOL    HW110241   4.716   1.011   5.481
 3114SOL    HW210242   4.806   1.089   5.370
 3115SOL     OW10243   4.373   5.427   5.214
 3115SOL    HW110244   4.460   5.446   5.260
 3115SOL    HW210245   4.313   5.376   5.276
 3116SOL     OW10246   0.285   1.218   0.796
 3116SOL    HW110247   0.362   1.255   0.847
 3116SOL    HW210248   0.269   1.274   0.715
 3117SOL     OW10249   5.161   1.117   6.182
 3117SOL    HW110250   5.144   1.099   6.279
 3117SOL    HW210251   5.248   1.165   6.172
 3118SOL     OW10252   1.243   1.453   3.331
 3118SOL    HW110253   1.169   1.387   3.319
 3118SOL    HW210254   1.329   1.412   3.299
 3119SOL     OW10255   4.425   5.136   4.946
 3119SOL    HW110256   4.455   5.225   4.913
 3119SOL    HW210257   4.339   5.147   4.997
 3120SOL     OW10258   1.791   5.812   5.455
 3120SOL    HW110259   1.830   5.720   5.468
 3120SOL    HW210260   1.857   5.881   5.484
 3121SOL     OW10261   3.918   1.294   3.911
 3121SOL    HW110262   3.881   1.287   3.818
 3121SOL    HW210263   3.844   1.286   3.977
 3122SOL     OW10264   4.659   5.582   4.384
 3122SOL    HW110265   4.595   5.506   4.394
 3122SOL    HW210266   4.676   5.622   4.474
 3123SOL     OW10267   2.156   1.200   3.638
 3123SOL    HW110268   2.150   1.297   3.660
 3123SOL    HW210269   2.228   1.157   3.693
 3124SOL     OW10270   4.784   0.250   4.503
 3124SOL    HW110271   4.689   0.263   4.476
 3124SOL    HW210272   4.843   0.258   4.422
 3125SOL     OW10273   1.245   1.126   5.053
 3125SOL    HW110274   1.245   1.097   4.957
 3125SOL    HW210275   1.325   1.087   5.099
 3126SOL     OW10276   5.665   5.620   5.226
 3126SOL    HW110277   5.657   5.709   5.182
 3126SOL    HW210278   5.610   5.553   5.177
 3127SOL     OW10279   0.331   1.399   4.923
 3127SOL    HW110280   0.316   1.484   4.873
 3127SOL    HW210281   0.275   1.326   4.883
 3128SOL     OW10282   4.290   0.244   0.735
 3128SOL    HW110283   4.377   0.229   0.688
 3128SOL    HW210284   4.264   0.341   0.726
 3129SOL     OW10285   4.674   3.601   0.339
 3129SOL    HW110286   4.598   3.648   0.294
 3129SOL    HW210287   4.690   3.513   0.294
 3130SOL     OW10288   0.172   4.759   2.422
 3130SOL    HW110289   0.084   4.768   2.375
 3130SOL    HW210290   0.230   4.837   2.401
 3131SOL     OW10291   6.274   4.545   3.212
 3131SOL    HW110292   6.359   4.499   3.233
 3131SOL    HW210293   6.279   4.584   3.120
 3132SOL     OW10294   4.432   4.537   6.960
 3132SOL    HW110295   4.338   4.512   6.939
 3132SOL    HW210296   4.440   4.561   0.037
 3133SOL     OW10297   3.941   0.297   4.527
 3133SOL    HW110298   3.999   0.361   4.577
 3133SOL    HW210299   3.964   0.299   4.430
 3134SOL     OW10300   4.571   4.775   2.392
 3134SOL    HW110301   4.486   4.723   2.385
 3134SOL    HW210302   4.635   4.743   2.323
 3135SOL     OW10303   4.768   5.573   6.459
 3135SOL    HW110304   4.745   5.590   6.363
 3135SOL    HW210305   4.855   5.615   6.480
 3136SOL     OW10306   6.394   1.618   2.846
 3136SOL    HW110307   6.382   1.642   2.943
 3136SOL    HW210308   6.439   1.694   2.799
 3137SOL     OW10309   6.121   6.754   6.361
 3137SOL    HW110310   6.022   6.745   6.355
 3137SOL    HW210311   6.144   6.843   6.400
 3138SOL     OW10312   5.645   5.847   3.874
 3138SOL    HW110313   5.602   5.805   3.794
 3138SOL    HW210314   5.590   5.924   3.904
 3139SOL     OW10315   2.725   4.722   1.307
 3139SOL    HW110316   2.652   4.708   1.374
 3139SOL    HW210317   2.705   4.804   1.252
 3140SOL     OW10318   6.428   6.810   6.578
 3140SOL    HW110319   6.526   6.821   6.565
 3140SOL    HW210320   6.384   6.900   6.586
 3141SOL     OW10321   7.011   2.355   6.115
 3141SOL    HW110322   0.001   2.450   6.086
 3141SOL    HW210323   0.062   2.299   6.072
 3142SOL     OW10324   4.528   0.917   3.375
 3142SOL    HW110325   4.554   0.822   3.391
 3142SOL    HW210326   4.429   0.927   3.383
 3143SOL     OW10327   6.439   1.033   0.582
 3143SOL    HW110328   6.351   1.021   0.628
 3143SOL    HW210329   6.513   1.032   0.649
 3144SOL     OW10330   4.051   3.932   0.175
 3144SOL    HW110331   4.003   3.854   0.134
 3144SOL    HW210332   4.026   3.940   0.271
 3145SOL     OW10333   0.219   6.317   0.973
 3145SOL    HW110334   0.177   6.369   0.898
 3145SOL    HW210335   0.149   6.268   1.024
 3146SOL     OW10336   0.319   6.969   5.316
 3146SOL    HW110337   0.395   7.018   5.359
 3146SOL    HW210338   0.234   6.995   5.361
 3147SOL     OW10339   3.917   5.148   0.466
 3147SOL    HW110340   4.012   5.143   0.436
 3147SOL    HW210341   3.889   5.244   0.473
 3148SOL     OW10342   6.984   5.444   2.312
 3148SOL    HW110343   6.891   5.462   2.342
 3148SOL    HW210344   0.003   5.372   2.368
 3149SOL     OW10345   3.051   1.878   6.996
 3149SOL    HW110346   2.952   1.890   6.999
 3149SOL    HW210347   3.086   1.869   0.069
 3150SOL     OW10348   6.700   5.528   5.271
 3150SOL    HW110349   6.685   5.553   5.175
 3150SOL    HW210350   6.792   5.490   5.282
 3151SOL     OW10351   6.978   0.749   5.915
 3151SOL    HW110352   0.047   0.711   5.939
 3151SOL    HW210353   6.936   0.694   5.843
 3152SOL     OW10354   1.348   3.400   6.152
 3152SOL    HW110355   1.407   3.322   6.133
 3152SOL    HW210356   1.252   3.370   6.153
 3153SOL     OW10357   6.459   4.895   0.848
 3153SOL    HW110358   6.471   4.796   0.852
 3153SOL    HW210359   6.526   4.939   0.908
 3154SOL     OW10360   4.390   1.195   0.045
 3154SOL    HW110361   4.297   1.187   0.083
 3154SOL    HW210362   4.423   1.105   0.019
 3155SOL     OW10363   1.297   4.880   0.949
 3155SOL    HW110364   1.321   4.927   1.034
 3155SOL    HW210365   1.234   4.937   0.896
 3156SOL     OW10366   3.590   4.162   1.879
 3156SOL    HW110367   3.589   4.262   1.874
 3156SOL    HW210368   3.664   4.133   1.939
 3157SOL     OW10369   0.736   1.259   5.809
 3157SOL    HW110370   0.751   1.314   5.727
 3157SOL    HW210371   0.649   1.209   5.801
 3158SOL     OW10372   1.608   1.207   5.824
 3158SOL    HW110373   1.682   1.151   5.788
 3158SOL    HW210374   1.635   1.303   5.823
 3159SOL     OW10375   6.237   6.897   0.549
 3159SOL    HW110376   6.175   6.937   0.616
 3159SOL    HW210377   6.262   6.804   0.579
 3160SOL     OW10378   1.966   0.409   6.642
 3160SOL    HW110379   1.987   0.496   6.599
 3160SOL    HW210380   1.884   0.418   6.699
 3161SOL     OW10381   2.466   2.176   2.571
 3161SOL    HW110382   2.445   2.262   2.618
 3161SOL    HW210383   2.384   2.118   2.570
 3162SOL     OW10384   2.437   5.310   0.898
 3162SOL    HW110385   2.505   5.307   0.971
 3162SOL    HW210386   2.452   5.392   0.842
 3163SOL     OW10387   4.372   4.179   0.090
 3163SOL    HW110388   4.370   4.109   0.161
 3163SOL    HW210389   4.352   4.269   0.131
 3164SOL     OW10390   2.852   6.200   2.739
 3164SOL    HW110391   2.825   6.281   2.687
 3164SOL    HW210392   2.772   6.142   2.754
 3165SOL     OW10393   0.708   6.550   6.841
 3165SOL    HW110394   0.723   6.484   6.768
 3165SOL    HW210395   0.720   6.505   6.930
 3166SOL     OW10396   4.923   0.628   4.868
 3166SOL    HW110397   4.830   0.605   4.838
 3166SOL    HW210398   4.920   0.670   4.959
 3167SOL     OW10399   5.501   3.288   0.522
 3167SOL    HW110400   5.540   3.295   0.430
 3167SOL    HW210401   5.570   3.250   0.584
 3168SOL     OW10402   4.718   2.395   0.316
 3168SOL    HW110403   4.651   2.379   0.243
 3168SOL    HW210404   4.677   2.453   0.387
 3169SOL     OW10405   1.654   4.312   2.093
 3169SOL    HW110406   1.751   4.315   2.069
 3169SOL    HW210407   1.598   4.315   2.010
 3170SOL     OW10408   2.721   4.695   3.256
 3170SOL    HW110409   2.628   4.684   3.221
 3170SOL    HW210410   2.784   4.710   3.180
 3171SOL     OW10411   5.192   2.437   3.333
 3171SOL    HW110412   5.135   2.358   3.355
 3171SOL    HW210413   5.136   2.509   3.294
 3172SOL     OW10414   6.598   4.066   1.601
 3172SOL    HW110415   6.628   3.982   1.555
 3172SOL    HW210416   6.677   4.124   1.619
 3173SOL     OW10417   4.196   2.683   1.206
 3173SOL    HW110418   4.185   2.687   1.305
 3173SOL    HW210419   4.142   2.754   1.163
 3174SOL     OW10420   3.003   3.767   6.109
 3174SOL    HW110421   2.917   3.721   6.085
 3174SOL    HW210422   3.064   3.768   6.030
 3175SOL     OW10423   5.805   0.495   3.895
 3175SOL    HW110424   5.857   0.572   3.934
 3175SOL    HW210425   5.711   0.524   3.879
 3176SOL     OW10426   1.114   4.560   4.943
 3176SOL    HW110427   1.074   4.548   4.853
 3176SOL    HW210428   1.064   4.505   5.010
 3177SOL     OW10429   5.577   3.776   3.690
 3177SOL    HW110430   5.562   3.802   3.595
 3177SOL    HW210431   5.539   3.685   3.706
 3178SOL     OW10432   6.903   0.645   1.246
 3178SOL    HW110433   6.936   0.669   1.337
 3178SOL    HW210434   6.814   0.600   1.254
 3179SOL     OW10435   1.052   1.746   2.162
 3179SOL    HW110436   1.001   1.823   2.124
 3179SOL    HW210437   1.053   1.753   2.262
 3180SOL     OW10438   6.662   6.012   0.268
 3180SOL    HW110439   6.677   5.927   0.319
 3180SOL    HW210440   6.684   5.998   0.172
 3181SOL     OW10441   1.388   0.205   4.875
 3181SOL    HW110442   1.481   0.170   4.862
 3181SOL    HW210443   1.334   0.190   4.792
 3182SOL     OW10444   2.494   1.217   0.529
 3182SOL    HW110445   2.489   1.143   0.461
 3182SOL    HW210446   2.417   1.279   0.515
 3183SOL     OW10447   4.098   4.318   1.449
 3183SOL    HW110448   4.139   4.288   1.535
 3183SOL    HW210449   3.998   4.319   1.458
 3184SOL     OW10450   0.508   2.341   5.086
 3184SOL    HW110451   0.551   2.351   4.996
 3184SOL    HW210452   0.577   2.312   5.152
 3185SOL     OW10453   0.801   5.339   5.842
 3185SOL    HW110454   0.894   5.359   5.873
 3185SOL    HW210455   0.736   5.397   5.890
 3186SOL     OW10456   0.284   1.733   6.543
 3186SOL    HW110457   0.233   1.819   6.542
 3186SOL    HW210458   0.237   1.667   6.602
 3187SOL     OW10459   4.214   5.921   2.431
 3187SOL    HW110460   4.250   5.980   2.359
 3187SOL    HW210461   4.291   5.884   2.484
 3188SOL     OW10462   2.278   4.942   5.895
 3188SOL    HW110463   2.354   4.997   5.930
 3188SOL    HW210464   2.261   4.865   5.957
 3189SOL     OW10465   3.679   1.899   6.094
 3189SOL    HW110466   3.770   1.878   6.132
 3189SOL    HW210467   3.617   1.924   6.168
 3190SOL     OW10468   6.324   6.035   5.098
 3190SOL    HW110469   6.227   6.014   5.108
 3190SOL    HW210470   6.376   5.949   5.101
 3191SOL     OW10471   4.499   5.515   1.337
 3191SOL    HW110472   4.574   5.514   1.403
 3191SOL    HW210473   4.413   5.492   1.382
 3192SOL     OW10474   5.849   2.306   2.556
 3192SOL    HW110475   5.908   2.329   2.633
 3192SOL    HW210476   5.763   2.355   2.564
 3193SOL     OW10477   3.869   6.803   5.374
 3193SOL    HW110478   3.819   6.717   5.376
 3193SOL    HW210479   3.811   6.876   5.410
 3194SOL     OW10480   1.253   1.222   6.442
 3194SOL    HW110481   1.198   1.281   6.382
 3194SOL    HW210482   1.350   1.240   6.426
 3195SOL     OW10483   7.018   2.192   1.204
 3195SOL    HW110484   0.023   2.225   1.114
 3195SOL    HW210485   6.969   2.264   1.254
 3196SOL     OW10486   6.088   0.128   4.296
 3196SOL    HW110487   6.095   0.173   4.206
 3196SOL    HW210488   6.096   0.029   4.284
 3197SOL     OW10489   1.569   1.123   6.520
 3197SOL    HW110490   1.611   1.160   6.437
 3197SOL    HW210491   1.580   1.189   6.594
 3198SOL     OW10492   5.812   3.052   2.882
 3198SOL    HW110493   5.855   2.998   2.809
 3198SOL    HW210494   5.800   3.146   2.851
 3199SOL     OW10495   5.735   4.519   3.578
 3199SOL    HW110496   5.822   4.472   3.561
 3199SOL    HW210497   5.659   4.463   3.543
 3200SOL     OW10498   5.595   3.232   3.644
 3200SOL    HW110499   5.683   3.269   3.675
 3200SOL    HW210500   5.523   3.260   3.707
 3201SOL     OW10501   6.024   4.393   2.946
 3201SOL    HW110502   6.011   4.438   3.035
 3201SOL    HW210503   6.116   4.355   2.940
 3202SOL     OW10504   1.580   3.845   6.842
 3202SOL    HW110505   1.670   3.802   6.833
 3202SOL    HW210506   1.565   3.873   6.937
 3203SOL     OW10507   3.293   0.283   1.206
 3203SOL    HW110508   3.309   0.378   1.178
 3203SOL    HW210509   3.358   0.259   1.278
 3204SOL     OW10510   2.430   1.747   3.463
 3204SOL    HW110511   2.514   1.801   3.459
 3204SOL    HW210512   2.412   1.706   3.373
 3205SOL     OW10513   5.743   3.578   5.617
 3205SOL    HW110514   5.835   3.549   5.643
 3205SOL    HW210515   5.712   3.650   5.680
 3206SOL     OW10516   3.003   3.345   1.345
 3206SOL    HW110517   3.016   3.306   1.254
 3206SOL    HW210518   2.939   3.288   1.396
 3207SOL     OW10519   1.454   5.705   5.667
 3207SOL    HW110520   1.386   5.646   5.624
 3207SOL    HW210521   1.543   5.661   5.664
 3208SOL     OW10522   6.279   5.328   6.177
 3208SOL    HW110523   6.368   5.334   6.224
 3208SOL    HW210524   6.211   5.379   6.229
 3209SOL     OW10525   4.981   5.705   6.562
 3209SOL    HW110526   4.945   5.778   6.620
 3209SOL    HW210527   5.076   5.725   6.539
 3210SOL     OW10528   6.211   5.158   1.439
 3210SOL    HW110529   6.199   5.128   1.534
 3210SOL    HW210530   6.282   5.102   1.395
 3211SOL     OW10531   0.688   4.863   6.762
 3211SOL    HW110532   0.739   4.831   6.842
 3211SOL    HW210533   0.736   4.941   6.721
 3212SOL     OW10534   2.232   0.346   3.265
 3212SOL    HW110535   2.326   0.320   3.289
 3212SOL    HW210536   2.174   0.339   3.346
 3213SOL     OW10537   1.489   0.637   6.477
 3213SOL    HW110538   1.507   0.539   6.483
 3213SOL    HW210539   1.470   0.662   6.382
 3214SOL     OW10540   3.252   0.863   2.523
 3214SOL    HW110541   3.210   0.942   2.567
 3214SOL    HW210542   3.194   0.783   2.535
 3215SOL     OW10543   1.832   3.184   0.907
 3215SOL    HW110544   1.914   3.205   0.959
 3215SOL    HW210545   1.848   3.203   0.810
 3216SOL     OW10546   5.803   3.978   0.375
 3216SOL    HW110547   5.704   3.986   0.368
 3216SOL    HW210548   5.835   4.027   0.455
 3217SOL     OW10549   0.916   5.990   3.161
 3217SOL    HW110550   0.903   6.014   3.065
 3217SOL    HW210551   0.834   6.014   3.213
 3218SOL     OW10552   6.099   1.049   2.993
 3218SOL    HW110553   6.182   0.993   2.997
 3218SOL    HW210554   6.119   1.141   3.027
 3219SOL     OW10555   5.906   0.746   5.705
 3219SOL    HW110556   5.858   0.672   5.751
 3219SOL    HW210557   5.862   0.765   5.617
 3220SOL     OW10558   6.766   4.451   6.990
 3220SOL    HW110559   6.808   4.450   6.899
 3220SOL    HW210560   6.799   4.531   0.020
 3221SOL     OW10561   3.756   0.364   1.534
 3221SOL    HW110562   3.658   0.380   1.546
 3221SOL    HW210563   3.772   0.268   1.511
 3222SOL     OW10564   3.318   1.463   3.139
 3222SOL    HW110565   3.394   1.484   3.200
 3222SOL    HW210566   3.320   1.524   3.060
 3223SOL     OW10567   1.210   6.914   1.079
 3223SOL    HW110568   1.151   6.914   1.159
 3223SOL    HW210569   1.275   6.990   1.084
 3224SOL     OW10570   4.022   1.865   4.139
 3224SOL    HW110571   3.994   1.871   4.235
 3224SOL    HW210572   4.011   1.955   4.096
 3225SOL     OW10573   4.435   0.645   3.619
 3225SOL    HW110574   4.383   0.695   3.688
 3225SOL    HW210575   4.381   0.636   3.535
 3226SOL     OW10576   0.310   6.937   1.349
 3226SOL    HW110577   0.368   6.856   1.353
 3226SOL    HW210578   0.366   7.017   1.326
 3227SOL     OW10579   5.058   3.687   5.141
 3227SOL    HW110580   5.052   3.779   5.181
 3227SOL    HW210581   4.972   3.665   5.095
 3228SOL     OW10582   2.158   3.874   0.487
 3228SOL    HW110583   2.063   3.900   0.503
 3228SOL    HW210584   2.182   3.798   0.547
 3229SOL     OW10585   1.860   1.539   0.599
 3229SOL    HW110586   1.843   1.596   0.518
 3229SOL    HW210587   1.772   1.511   0.638
 3230SOL     OW10588   2.247   5.691   5.799
 3230SOL    HW110589   2.169   5.670   5.858
 3230SOL    HW210590   2.287   5.606   5.766
 3231SOL     OW10591   2.330   1.606   1.876
 3231SOL    HW110592   2.242   1.607   1.829
 3231SOL    HW210593   2.403   1.593   1.809
 3232SOL     OW10594   4.052   5.626   3.861
 3232SOL    HW110595   4.034   5.528   3.848
 3232SOL    HW210596   3.980   5.679   3.817
 3233SOL     OW10597   0.157   2.495   0.493
 3233SOL    HW110598   0.083   2.531   0.437
 3233SOL    HW210599   0.238   2.480   0.436
 3234SOL     OW10600   2.686   3.162   0.599
 3234SOL    HW110601   2.691   3.120   0.509
 3234SOL    HW210602   2.590   3.178   0.623
 3235SOL     OW10603   0.865   6.884   1.994
 3235SOL    HW110604   0.804   6.962   1.980
 3235SOL    HW210605   0.850   6.846   2.086
 3236SOL     OW10606   3.460   2.824   0.455
 3236SOL    HW110607   3.415   2.764   0.390
 3236SOL    HW210608   3.393   2.862   0.519
 3237SOL     OW10609   5.718   1.175   4.946
 3237SOL    HW110610   5.681   1.103   4.887
 3237SOL    HW210611   5.813   1.153   4.970
 3238SOL     OW10612   6.657   5.313   1.726
 3238SOL    HW110613   6.700   5.222   1.731
 3238SOL    HW210614   6.709   5.377   1.782
 3239SOL     OW10615   6.645   0.026   4.379
 3239SOL    HW110616   6.728   6.992   4.379
 3239SOL    HW210617   6.566   6.990   4.354
 3240SOL     OW10618   0.653   1.007   6.887
 3240SOL    HW110619   0.566   0.967   6.859
 3240SOL    HW210620   0.707   1.030   6.805
 3241SOL     OW10621   5.932   1.863   6.015
 3241SOL    HW110622   5.934   1.808   6.098
 3241SOL    HW210623   5.840   1.859   5.975
 3242SOL     OW10624   5.391   4.784   4.944
 3242SOL    HW110625   5.366   4.687   4.945
 3242SOL    HW210626   5.439   4.805   4.859
 3243SOL     OW10627   5.364   5.163   5.344
 3243SOL    HW110628   5.283   5.221   5.354
 3243SOL    HW210629   5.346   5.093   5.274
 3244SOL     OW10630   5.311   6.612   6.971
 3244SOL    HW110631   5.339   6.572   6.883
 3244SOL    HW210632   5.265   6.542   0.005
 3245SOL     OW10633   4.005   1.093   4.548
 3245SOL    HW110634   4.044   1.088   4.457
 3245SOL    HW210635   3.956   1.008   4.568
 3246SOL     OW10636   6.696   0.683   2.934
 3246SOL    HW110637   6.778   0.722   2.975
 3246SOL    HW210638   6.638   0.643   3.005
 3247SOL     OW10639   0.599   4.149   2.849
 3247SOL    HW110640   0.694   4.120   2.833
 3247SOL    HW210641   0.548   4.076   2.893
 3248SOL     OW10642   5.353   2.213   3.463
 3248SOL    HW110643   5.359   2.144   3.390
 3248SOL    HW210644   5.320   2.299   3.426
 3249SOL     OW10645   3.109   4.021   4.062
 3249SOL    HW110646   3.061   3.990   3.980
 3249SOL    HW210647   3.051   4.006   4.142
 3250SOL     OW10648   5.009   5.597   2.373
 3250SOL    HW110649   4.927   5.609   2.429
 3250SOL    HW210650   5.090   5.623   2.426
 3251SOL     OW10651   2.651   1.464   3.405
 3251SOL    HW110652   2.664   1.368   3.428
 3251SOL    HW210653   2.593   1.508   3.474
 3252SOL     OW10654   2.223   1.566   3.670
 3252SOL    HW110655   2.235   1.534   3.764
 3252SOL    HW210656   2.312   1.570   3.625
 3253SOL     OW10657   6.497   3.486   0.571
 3253SOL    HW110658   6.450   3.475   0.483
 3253SOL    HW210659   6.488   3.401   0.623
 3254SOL     OW10660   6.262   0.355   1.041
 3254SOL    HW110661   6.182   0.415   1.037
 3254SOL    HW210662   6.234   0.265   1.076
 3255SOL     OW10663   5.147   5.616   1.236
 3255SOL    HW110664   5.184   5.526   1.258
 3255SOL    HW210665   5.047   5.614   1.241
 3256SOL     OW10666   4.865   1.649   1.011
 3256SOL    HW110667   4.946   1.708   1.012
 3256SOL    HW210668   4.885   1.566   1.063
 3257SOL     OW10669   2.730   2.386   3.098
 3257SOL    HW110670   2.741   2.354   3.192
 3257SOL    HW210671   2.761   2.315   3.035
 3258SOL     OW10672   2.013   6.206   3.477
 3258SOL    HW110673   1.995   6.125   3.420
 3258SOL    HW210674   1.997   6.184   3.573
 3259SOL     OW10675   4.430   4.638   3.186
 3259SOL    HW110676   4.501   4.708   3.183
 3259SOL    HW210677   4.407   4.618   3.281
 3260SOL     OW10678   1.267   4.522   2.469
 3260SOL    HW110679   1.282   4.600   2.529
 3260SOL    HW210680   1.258   4.439   2.523
 3261SOL     OW10681   5.198   6.959   3.986
 3261SOL    HW110682   5.197   0.038   3.992
 3261SOL    HW210683   5.105   6.924   4.000
 3262SOL     OW10684   3.397   2.125   2.497
 3262SOL    HW110685   3.364   2.030   2.502
 3262SOL    HW210686   3.322   2.185   2.470
 3263SOL     OW10687   0.981   1.358   2.947
 3263SOL    HW110688   0.914   1.377   2.876
 3263SOL    HW210689   0.984   1.435   3.011
 3264SOL     OW10690   1.888   5.938   0.683
 3264SOL    HW110691   1.862   5.947   0.587
 3264SOL    HW210692   1.975   5.985   0.698
 3265SOL     OW10693   5.412   4.927   5.894
 3265SOL    HW110694   5.435   4.830   5.886
 3265SOL    HW210695   5.475   4.981   5.838
 3266SOL     OW10696   3.344   5.127   6.473
 3266SOL    HW110697   3.307   5.197   6.533
 3266SOL    HW210698   3.367   5.167   6.385
 3267SOL     OW10699   4.025   0.109   0.652
 3267SOL    HW110700   4.104   0.169   0.663
 3267SOL    HW210701   3.981   0.127   0.565
 3268SOL     OW10702   6.456   5.220   1.979
 3268SOL    HW110703   6.481   5.156   2.052
 3268SOL    HW210704   6.407   5.171   1.907
 3269SOL     OW10705   1.662   4.845   2.542
 3269SOL    HW110706   1.752   4.857   2.501
 3269SOL    HW210707   1.658   4.755   2.587
 3270SOL     OW10708   0.283   2.485   5.047
 3270SOL    HW110709   0.201   2.428   5.059
 3270SOL    HW210710   0.359   2.447   5.099
 3271SOL     OW10711   0.594   3.402   3.010
 3271SOL    HW110712   0.529   3.347   2.960
 3271SOL    HW210713   0.656   3.447   2.946
 3272SOL     OW10714   3.896   6.599   0.560
 3272SOL    HW110715   3.932   6.539   0.489
 3272SOL    HW210716   3.937   6.690   0.550
 3273SOL     OW10717   4.427   2.602   6.836
 3273SOL    HW110718   4.382   2.633   6.920
 3273SOL    HW210719   4.423   2.674   6.767
 3274SOL     OW10720   5.713   0.172   0.025
 3274SOL    HW110721   5.677   0.265   0.027
 3274SOL    HW210722   5.692   0.130   6.957
 3275SOL     OW10723   4.997   0.142   1.009
 3275SOL    HW110724   4.910   0.115   1.050
 3275SOL    HW210725   5.072   0.113   1.068
 3276SOL     OW10726   4.834   6.888   0.196
 3276SOL    HW110727   4.933   6.871   0.194
 3276SOL    HW210728   4.812   6.938   0.280
 3277SOL     OW10729   3.764   1.781   1.912
 3277SOL    HW110730   3.747   1.686   1.937
 3277SOL    HW210731   3.699   1.841   1.959
 3278SOL     OW10732   6.641   7.015   6.800
 3278SOL    HW110733   6.658   6.937   6.741
 3278SOL    HW210734   6.684   7.000   6.889
 3279SOL     OW10735   3.692   0.115   1.394
 3279SOL    HW110736   3.763   0.045   1.395
 3279SOL    HW210737   3.635   0.105   1.476
 3280SOL     OW10738   5.658   3.433   4.590
 3280SOL    HW110739   5.629   3.434   4.494
 3280SOL    HW210740   5.644   3.524   4.630
 3281SOL     OW10741   6.235   3.696   1.520
 3281SOL    HW110742   6.223   3.649   1.432
 3281SOL    HW210743   6.210   3.635   1.594
 3282SOL     OW10744   0.451   4.749   4.601
 3282SOL    HW110745   0.389   4.692   4.548
 3282SOL    HW210746   0.422   4.845   4.594
 3283SOL     OW10747   3.752   1.757   0.527
 3283SOL    HW110748   3.798   1.846   0.530
 3283SOL    HW210749   3.733   1.733   0.432
 3284SOL     OW10750   1.364   5.753   4.482
 3284SOL    HW110751   1.345   5.668   4.434
 3284SOL    HW210752   1.355   5.830   4.419
 3285SOL     OW10753   4.735   1.549   4.739
 3285SOL    HW110754   4.703   1.496   4.818
 3285SOL    HW210755   4.833   1.567   4.748
 3286SOL     OW10756   3.084   1.377   1.269
 3286SOL    HW110757   3.131   1.319   1.336
 3286SOL    HW210758   2.996   1.405   1.305
 3287SOL     OW10759   2.053   0.148   6.754
 3287SOL    HW110760   2.152   0.138   6.745
 3287SOL    HW210761   2.021   0.218   6.689
 3288SOL     OW10762   1.715   6.554   1.289
 3288SOL    HW110763   1.753   6.598   1.369
 3288SOL    HW210764   1.621   6.525   1.307
 3289SOL     OW10765   4.071   1.612   6.673
 3289SOL    HW110766   4.020   1.551   6.734
 3289SOL    HW210767   4.166   1.618   6.704
 3290SOL     OW10768   6.712   4.868   0.716
 3290SOL    HW110769   6.789   4.930   0.729
 3290SOL    HW210770   6.629   4.909   0.752
 3291SOL     OW10771   4.863   6.947   5.022
 3291SOL    HW110772   4.957   6.919   5.003
 3291SOL    HW210773   4.857   0.026   5.020
 3292SOL     OW10774   6.837   2.134   1.473
 3292SOL    HW110775   6.854   2.129   1.572
 3292SOL    HW210776   6.856   2.226   1.440
 3293SOL     OW10777   6.101   5.196   3.154
 3293SOL    HW110778   6.045   5.275   3.180
 3293SOL    HW210779   6.110   5.193   3.055
 3294SOL     OW10780   5.213   2.313   4.914
 3294SOL    HW110781   5.136   2.363   4.953
 3294SOL    HW210782   5.191   2.215   4.911
 3295SOL     OW10783   1.176   3.064   2.194
 3295SOL    HW110784   1.276   3.068   2.185
 3295SOL    HW210785   1.134   3.127   2.129
 3296SOL     OW10786   1.399   0.141   5.910
 3296SOL    HW110787   1.346   0.105   5.833
 3296SOL    HW210788   1.458   0.069   5.947
 3297SOL     OW10789   3.102   1.721   4.934
 3297SOL    HW110790   3.169   1.648   4.949
 3297SOL    HW210791   3.100   1.782   5.013
 3298SOL     OW10792   5.427   4.415   5.800
 3298SOL    HW110793   5.487   4.372   5.732
 3298SOL    HW210794   5.338   4.369   5.800
 3299SOL     OW10795   3.046   4.850   4.558
 3299SOL    HW110796   3.093   4.762   4.550
 3299SOL    HW210797   2.949   4.837   4.541
 3300SOL     OW10798   1.997   0.065   4.238
 3300SOL    HW110799   1.985   6.992   4.207
 3300SOL    HW210800   1.929   0.124   4.193
 3301SOL     OW10801   1.947   2.063   2.815
 3301SOL    HW110802   1.979   1.979   2.858
 3301SOL    HW210803   1.973   2.063   2.718
 3302SOL     OW10804   2.405   4.816   6.320
 3302SOL    HW110805   2.419   4.745   6.251
 3302SOL    HW210806   2.494   4.848   6.352
 3303SOL     OW10807   3.540   3.234   0.344
 3303SOL    HW110808   3.561   3.169   0.271
 3303SOL    HW210809   3.478   3.192   0.410
 3304SOL     OW10810   2.762   4.953   6.181
 3304SOL    HW110811   2.772   5.039   6.230
 3304SOL    HW210812   2.849   4.928   6.139
 3305SOL     OW10813   3.382   1.513   0.862
 3305SOL    HW110814   3.431   1.516   0.775
 3305SOL    HW210815   3.372   1.418   0.892
 3306SOL     OW10816   2.029   0.837   0.159
 3306SOL    HW110817   2.045   0.739   0.152
 3306SOL    HW210818   1.932   0.854   0.177
 3307SOL     OW10819   1.681   6.949   4.800
 3307SOL    HW110820   1.695   6.953   4.899
 3307SOL    HW210821   1.586   6.924   4.781
 3308SOL     OW10822   3.691   4.207   1.199
 3308SOL    HW110823   3.629   4.129   1.208
 3308SOL    HW210824   3.713   4.243   1.290
 3309SOL     OW10825   5.901   3.673   3.536
 3309SOL    HW110826   5.827   3.713   3.590
 3309SOL    HW210827   5.939   3.744   3.475
 3310SOL     OW10828   6.529   5.231   5.863
 3310SOL    HW110829   6.555   5.325   5.840
 3310SOL    HW210830   6.594   5.167   5.823
 3311SOL     OW10831   3.447   3.754   0.447
 3311SOL    HW110832   3.505   3.816   0.499
 3311SOL    HW210833   3.493   3.666   0.435
 3312SOL     OW10834   4.442   2.755   5.818
 3312SOL    HW110835   4.360   2.792   5.774
 3312SOL    HW210836   4.485   2.687   5.758
 3313SOL     OW10837   1.309   1.020   3.038
 3313SOL    HW110838   1.267   0.930   3.032
 3313SOL    HW210839   1.352   1.042   2.950
 3314SOL     OW10840   2.157   5.583   2.167
 3314SOL    HW110841   2.114   5.493   2.163
 3314SOL    HW210842   2.214   5.590   2.249
 3315SOL     OW10843   0.080   4.686   5.484
 3315SOL    HW110844   0.068   4.666   5.387
 3315SOL    HW210845   0.178   4.685   5.507
 3316SOL     OW10846   3.372   1.714   6.294
 3316SOL    HW110847   3.364   1.712   6.194
 3316SOL    HW210848   3.432   1.640   6.324
 3317SOL     OW10849   5.560   2.760   2.904
 3317SOL    HW110850   5.468   2.776   2.939
 3317SOL    HW210851   5.626   2.808   2.962
 3318SOL     OW10852   2.795   2.668   0.622
 3318SOL    HW110853   2.792   2.635   0.717
 3318SOL    HW210854   2.869   2.734   0.613
 3319SOL     OW10855   6.889   6.490   3.365
 3319SOL    HW110856   6.910   6.584   3.337
 3319SOL    HW210857   6.973   6.437   3.372
 3320SOL     OW10858   6.469   0.316   1.292
 3320SOL    HW110859   6.502   0.275   1.377
 3320SOL    HW210860   6.529   0.289   1.216
 3321SOL     OW10861   4.851   1.520   0.002
 3321SOL    HW110862   4.867   1.494   0.097
 3321SOL    HW210863   4.764   1.567   7.014
 3322SOL     OW10864   6.549   3.800   1.153
 3322SOL    HW110865   6.548   3.896   1.181
 3322SOL    HW210866   6.609   3.748   1.214
 3323SOL     OW10867   1.348   1.908   2.003
 3323SOL    HW110868   1.415   1.946   2.067
 3323SOL    HW210869   1.318   1.819   2.037
 3324SOL     OW10870   5.226   5.740   5.551
 3324SOL    HW110871   5.286   5.682   5.496
 3324SOL    HW210872   5.152   5.775   5.494
 3325SOL     OW10873   1.663   3.499   6.586
 3325SOL    HW110874   1.745   3.541   6.549
 3325SOL    HW210875   1.605   3.468   6.511
 3326SOL     OW10876   4.549   0.837   2.729
 3326SOL    HW110877   4.481   0.886   2.675
 3326SOL    HW210878   4.631   0.894   2.740
 3327SOL     OW10879   1.844   5.575   0.944
 3327SOL    HW110880   1.768   5.515   0.971
 3327SOL    HW210881   1.815   5.670   0.950
 3328SOL     OW10882   4.659   1.955   0.180
 3328SOL    HW110883   4.756   1.937   0.161
 3328SOL    HW210884   4.603   1.881   0.141
 3329SOL     OW10885   5.994   5.257   5.331
 3329SOL    HW110886   6.065   5.326   5.315
 3329SOL    HW210887   5.944   5.279   5.414
 3330SOL     OW10888   6.356   3.691   2.626
 3330SOL    HW110889   6.366   3.785   2.591
 3330SOL    HW210890   6.289   3.642   2.570
 3331SOL     OW10891   2.139   2.680   1.217
 3331SOL    HW110892   2.230   2.639   1.231
 3331SOL    HW210893   2.142   2.776   1.245
 3332SOL     OW10894   6.011   4.462   0.907
 3332SOL    HW110895   6.067   4.518   0.847
 3332SOL    HW210896   5.924   4.507   0.924
 3333SOL     OW10897   4.192   4.962   5.686
 3333SOL    HW110898   4.201   5.061   5.673
 3333SOL    HW210899   4.242   4.935   5.769
 3334SOL     OW10900   2.498   4.285   1.696
 3334SOL    HW110901   2.473   4.323   1.607
 3334SOL    HW210902   2.424   4.226   1.729
 3335SOL     OW10903   4.991   4.251   5.210
 3335SOL    HW110904   4.949   4.205   5.289
 3335SOL    HW210905   5.081   4.212   5.193
 3336SOL     OW10906   3.517   4.876   6.250
 3336SOL    HW110907   3.568   4.804   6.204
 3336SOL    HW210908   3.516   4.958   6.192
 3337SOL     OW10909   3.306   2.313   1.192
 3337SOL    HW110910   3.302   2.408   1.162
 3337SOL    HW210911   3.392   2.297   1.239
 3338SOL     OW10912   0.003   4.270   0.744
 3338SOL    HW110913   0.068   4.346   0.753
 3338SOL    HW210914   6.931   4.304   0.759
 3339SOL     OW10915   6.996   5.726   6.796
 3339SOL    HW110916   6.939   5.650   6.827
 3339SOL    HW210917   6.940   5.808   6.785
 3340SOL     OW10918   3.275   6.640   1.288
 3340SOL    HW110919   3.352   6.588   1.323
 3340SOL    HW210920   3.193   6.583   1.289
 3341SOL     OW10921   0.469   0.822   2.654
 3341SOL    HW110922   0.459   0.868   2.742
 3341SOL    HW210923   0.408   0.865   2.587
 3342SOL     OW10924   2.318   6.880   4.526
 3342SOL    HW110925   2.384   6.852   4.457
 3342SOL    HW210926   2.284   6.972   4.504
 3343SOL     OW10927   5.209   2.863   0.827
 3343SOL    HW110928   5.203   2.773   0.869
 3343SOL    HW210929   5.129   2.918   0.854
 3344SOL     OW10930   6.803   3.221   5.744
 3344SOL    HW110931   6.844   3.214   5.835
 3344SOL    HW210932   6.849   3.158   5.682
 3345SOL     OW10933   3.217   3.413   5.976
 3345SOL    HW110934   3.233   3.315   5.964
 3345SOL    HW210935   3.129   3.428   6.021
 3346SOL     OW10936   0.522   0.520   1.437
 3346SOL    HW110937   0.508   0.476   1.348
 3346SOL    HW210938   0.528   0.619   1.424
 3347SOL     OW10939   5.660   3.963   5.171
 3347SOL    HW110940   5.678   3.895   5.099
 3347SOL    HW210941   5.729   3.956   5.242
 3348SOL     OW10942   3.712   3.012   4.026
 3348SOL    HW110943   3.750   3.081   4.088
 3348SOL    HW210944   3.661   2.945   4.079
 3349SOL     OW10945   6.136   3.966   4.552
 3349SOL    HW110946   6.233   3.958   4.529
 3349SOL    HW210947   6.089   3.880   4.532
 3350SOL     OW10948   1.335   1.659   0.933
 3350SOL    HW110949   1.387   1.579   0.904
 3350SOL    HW210950   1.329   1.724   0.858
 3351SOL     OW10951   5.292   1.498   1.576
 3351SOL    HW110952   5.299   1.578   1.516
 3351SOL    HW210953   5.245   1.523   1.660
 3352SOL     OW10954   0.523   3.205   1.138
 3352SOL    HW110955   0.429   3.224   1.113
 3352SOL    HW210956   0.584   3.238   1.066
 3353SOL     OW10957   1.999   0.169   6.022
 3353SOL    HW110958   2.066   0.099   6.045
 3353SOL    HW210959   1.986   0.172   5.923
 3354SOL     OW10960   0.624   2.457   3.595
 3354SOL    HW110961   0.643   2.391   3.521
 3354SOL    HW210962   0.683   2.537   3.583
 3355SOL     OW10963   6.438   1.259   2.898
 3355SOL    HW110964   6.444   1.299   2.807
 3355SOL    HW210965   6.484   1.170   2.898
 3356SOL     OW10966   2.667   3.571   0.196
 3356SOL    HW110967   2.734   3.571   0.271
 3356SOL    HW210968   2.646   3.665   0.170
 3357SOL     OW10969   2.820   5.358   2.042
 3357SOL    HW110970   2.869   5.279   2.079
 3357SOL    HW210971   2.835   5.364   1.944
 3358SOL     OW10972   4.869   5.372   2.238
 3358SOL    HW110973   4.863   5.379   2.139
 3358SOL    HW210974   4.931   5.442   2.273
 3359SOL     OW10975   2.223   1.178   2.735
 3359SOL    HW110976   2.160   1.256   2.737
 3359SOL    HW210977   2.179   1.101   2.689
 3360SOL     OW10978   1.126   0.546   0.202
 3360SOL    HW110979   1.070   0.560   0.121
 3360SOL    HW210980   1.197   0.618   0.206
 3361SOL     OW10981   6.224   6.517   2.983
 3361SOL    HW110982   6.261   6.536   2.892
 3361SOL    HW210983   6.133   6.477   2.975
 3362SOL     OW10984   1.591   0.858   5.545
 3362SOL    HW110985   1.609   0.786   5.612
 3362SOL    HW210986   1.493   0.871   5.536
 3363SOL     OW10987   0.077   1.745   6.931
 3363SOL    HW110988   0.162   1.726   6.979
 3363SOL    HW210989   0.054   1.842   6.940
 3364SOL     OW10990   1.904   4.962   6.306
 3364SOL    HW110991   1.905   4.948   6.207
 3364SOL    HW210992   1.926   4.875   6.351
 3365SOL     OW10993   6.470   1.850   5.054
 3365SOL    HW110994   6.493   1.850   5.151
 3365SOL    HW210995   6.372   1.833   5.043
 3366SOL     OW10996   5.366   0.864   5.702
 3366SOL    HW110997   5.427   0.827   5.772
 3366SOL    HW210998   5.275   0.880   5.742
 3367SOL     OW10999   1.102   1.014   2.056
 3367SOL    HW111000   1.192   0.976   2.036
 3367SOL    HW211001   1.107   1.114   2.058
 3368SOL     OW11002   6.506   5.909   5.983
 3368SOL    HW111003   6.577   5.856   5.937
 3368SOL    HW211004   6.495   5.997   5.937
 3369SOL     OW11005   4.208   0.265   0.044
 3369SOL    HW111006   4.111   0.244   0.033
 3369SOL    HW211007   4.235   0.333   6.997
 3370SOL     OW11008   6.132   6.502   5.446
 3370SOL    HW111009   6.110   6.565   5.371
 3370SOL    HW211010   6.050   6.484   5.499
 3371SOL     OW11011   0.207   5.638   2.087
 3371SOL    HW111012   0.268   5.688   2.026
 3371SOL    HW211013   0.233   5.655   2.182
 3372SOL     OW11014   0.808   0.726   3.032
 3372SOL    HW111015   0.889   0.783   3.020
 3372SOL    HW211016   0.829   0.632   3.005
 3373SOL     OW11017   6.416   2.125   5.083
 3373SOL    HW111018   6.463   2.040   5.061
 3373SOL    HW211019   6.350   2.109   5.157
 3374SOL     OW11020   2.862   5.121   5.856
 3374SOL    HW111021   2.766   5.101   5.873
 3374SOL    HW211022   2.871   5.163   5.765
 3375SOL     OW11023   4.406   4.730   5.277
 3375SOL    HW111024   4.337   4.664   5.248
 3375SOL    HW211025   4.375   4.775   5.361
 3376SOL     OW11026   3.257   3.812   2.086
 3376SOL    HW111027   3.324   3.872   2.130
 3376SOL    HW211028   3.266   3.719   2.122
 3377SOL     OW11029   1.209   6.030   5.109
 3377SOL    HW111030   1.262   5.946   5.099
 3377SOL    HW211031   1.254   6.090   5.175
 3378SOL     OW11032   6.806   1.879   1.401
 3378SOL    HW111033   6.859   1.838   1.327
 3378SOL    HW211034   6.808   1.979   1.392
 3379SOL     OW11035   0.475   4.119   5.481
 3379SOL    HW111036   0.574   4.126   5.477
 3379SOL    HW211037   0.436   4.210   5.496
 3380SOL     OW11038   6.704   4.247   6.646
 3380SOL    HW111039   6.776   4.201   6.698
 3380SOL    HW211040   6.738   4.271   6.555
 3381SOL     OW11041   3.116   2.435   0.277
 3381SOL    HW111042   3.102   2.344   0.239
 3381SOL    HW211043   3.053   2.450   0.353
 3382SOL     OW11044   0.064   1.876   1.044
 3382SOL    HW111045   0.103   1.968   1.055
 3382SOL    HW211046   0.134   1.807   1.061
 3383SOL     OW11047   5.820   4.755   2.961
 3383SOL    HW111048   5.799   4.687   2.890
 3383SOL    HW211049   5.787   4.723   3.049
 3384SOL     OW11050   3.581   3.225   4.208
 3384SOL    HW111051   3.642   3.209   4.286
 3384SOL    HW211052   3.529   3.142   4.189
 3385SOL     OW11053   6.146   4.063   3.577
 3385SOL    HW111054   6.225   4.015   3.614
 3385SOL    HW211055   6.167   4.160   3.568
 3386SOL     OW11056   5.912   4.760   5.551
 3386SOL    HW111057   5.829   4.749   5.497
 3386SOL    HW211058   5.891   4.811   5.634
 3387SOL     OW11059   2.347   2.355   3.098
 3387SOL    HW111060   2.428   2.408   3.072
 3387SOL    HW211061   2.306   2.395   3.180
 3388SOL     OW11062   5.543   1.870   1.681
 3388SOL    HW111063   5.622   1.923   1.710
 3388SOL    HW211064   5.462   1.902   1.731
 3389SOL     OW11065   5.115   4.674   3.440
 3389SOL    HW111066   5.213   4.677   3.457
 3389SOL    HW211067   5.066   4.665   3.527
 3390SOL     OW11068   5.149   2.956   5.459
 3390SOL    HW111069   5.149   2.862   5.492
 3390SOL    HW211070   5.092   3.013   5.519
 3391SOL     OW11071   3.980   2.064   4.809
 3391SOL    HW111072   4.002   2.112   4.893
 3391SOL    HW211073   4.038   2.098   4.735
 3392SOL     OW11074   3.355   0.677   3.855
 3392SOL    HW111075   3.435   0.724   3.819
 3392SOL    HW211076   3.276   0.695   3.796
 3393SOL     OW11077   7.005   6.488   0.459
 3393SOL    HW111078   0.080   6.477   0.432
 3393SOL    HW211079   6.993   6.576   0.505
 3394SOL     OW11080   6.377   2.679   1.320
 3394SOL    HW111081   6.294   2.670   1.374
 3394SOL    HW211082   6.418   2.589   1.307
 3395SOL     OW11083   0.705   3.289   4.409
 3395SOL    HW111084   0.724   3.370   4.464
 3395SOL    HW211085   0.788   3.263   4.359
 3396SOL     OW11086   0.093   4.020   4.142
 3396SOL    HW111087   7.020   3.993   4.163
 3396SOL    HW211088   0.097   4.119   4.128
 3397SOL     OW11089   3.367   6.678   6.502
 3397SOL    HW111090   3.418   6.764   6.507
 3397SOL    HW211091   3.418   6.614   6.445
 3398SOL     OW11092   1.347   6.689   4.119
 3398SOL    HW111093   1.248   6.690   4.108
 3398SOL    HW211094   1.371   6.637   4.201
 3399SOL     OW11095   5.122   4.765   3.736
 3399SOL    HW111096   5.148   4.857   3.764
 3399SOL    HW211097   5.109   4.708   3.818
 3400SOL     OW11098   4.696   2.338   6.975
 3400SOL    HW111099   4.639   2.313   0.033
 3400SOL    HW211100   4.700   2.262   6.911
 3401SOL     OW11101   5.942   4.140   0.563
 3401SOL    HW111102   6.020   4.201   0.553
 3401SOL    HW211103   5.971   4.056   0.610
 3402SOL     OW11104   5.686   5.551   1.301
 3402SOL    HW111105   5.628   5.621   1.260
 3402SOL    HW211106   5.763   5.531   1.239
 3403SOL     OW11107   3.842   0.639   5.336
 3403SOL    HW111108   3.891   0.630   5.249
 3403SOL    HW211109   3.859   0.559   5.393
 3404SOL     OW11110   4.598   0.911   0.375
 3404SOL    HW111111   4.610   0.843   0.302
 3404SOL    HW211112   4.526   0.975   0.350
 3405SOL     OW11113   6.452   3.603   6.506
 3405SOL    HW111114   6.416   3.557   6.425
 3405SOL    HW211115   6.546   3.631   6.491
 3406SOL     OW11116   1.797   3.744   2.608
 3406SOL    HW111117   1.808   3.649   2.637
 3406SOL    HW211118   1.701   3.763   2.591
 3407SOL     OW11119   1.136   5.625   2.147
 3407SOL    HW111120   1.152   5.676   2.232
 3407SOL    HW211121   1.143   5.527   2.165
 3408SOL     OW11122   5.117   4.116   2.381
 3408SOL    HW111123   5.019   4.126   2.402
 3408SOL    HW211124   5.128   4.078   2.290
 3409SOL     OW11125   3.281   0.315   6.127
 3409SOL    HW111126   3.309   0.289   6.034
 3409SOL    HW211127   3.250   0.233   6.176
 3410SOL     OW11128   6.634   6.705   0.434
 3410SOL    HW111129   6.544   6.746   0.417
 3410SOL    HW211130   6.623   6.606   0.444
 3411SOL     OW11131   4.797   1.530   2.806
 3411SOL    HW111132   4.703   1.496   2.806
 3411SOL    HW211133   4.806   1.605   2.740
 3412SOL     OW11134   3.645   4.279   7.015
 3412SOL    HW111135   3.574   4.252   0.060
 3412SOL    HW211136   3.673   4.373   0.013
 3413SOL     OW11137   3.555   1.525   3.574
 3413SOL    HW111138   3.489   1.554   3.643
 3413SOL    HW211139   3.525   1.557   3.484
 3414SOL     OW11140   2.932   2.361   5.228
 3414SOL    HW111141   2.925   2.438   5.291
 3414SOL    HW211142   3.023   2.321   5.234
 3415SOL     OW11143   0.593   4.643   3.928
 3415SOL    HW111144   0.521   4.576   3.951
 3415SOL    HW211145   0.664   4.640   3.998
 3416SOL     OW11146   0.630   5.191   5.237
 3416SOL    HW111147   0.728   5.194   5.222
 3416SOL    HW211148   0.592   5.283   5.230
 3417SOL     OW11149   0.066   6.862   2.658
 3417SOL    HW111150   6.998   6.817   2.667
 3417SOL    HW211151   0.105   6.841   2.569
 3418SOL     OW11152   3.151   1.591   5.484
 3418SOL    HW111153   3.084   1.662   5.503
 3418SOL    HW211154   3.106   1.511   5.444
 3419SOL     OW11155   4.186   4.453   6.912
 3419SOL    HW111156   4.165   4.364   6.952
 3419SOL    HW211157   4.190   4.445   6.812
 3420SOL     OW11158   4.410   2.096   3.828
 3420SOL    HW111159   4.406   2.004   3.867
 3420SOL    HW211160   4.452   2.092   3.737
 3421SOL     OW11161   6.954   5.817   5.669
 3421SOL    HW111162   6.927   5.762   5.749
 3421SOL    HW211163   6.875   5.826   5.608
 3422SOL     OW11164   3.449   0.527   1.376
 3422SOL    HW111165   3.455   0.550   1.279
 3422SOL    HW211166   3.455   0.611   1.431
 3423SOL     OW11167   2.385   1.026   0.943
 3423SOL    HW111168   2.299   1.017   0.894
 3423SOL    HW211169   2.458   1.051   0.879
 3424SOL     OW11170   4.399   0.990   2.544
 3424SOL    HW111171   4.436   1.062   2.486
 3424SOL    HW211172   4.299   0.988   2.535
 3425SOL     OW11173   4.751   4.499   1.860
 3425SOL    HW111174   4.713   4.570   1.920
 3425SOL    HW211175   4.810   4.542   1.791
 3426SOL     OW11176   3.946   3.553   0.770
 3426SOL    HW111177   3.895   3.469   0.788
 3426SOL    HW211178   4.040   3.543   0.804
 3427SOL     OW11179   0.144   1.153   0.105
 3427SOL    HW111180   0.231   1.112   0.076
 3427SOL    HW211181   0.160   1.244   0.141
 3428SOL     OW11182   4.275   4.726   2.054
 3428SOL    HW111183   4.315   4.650   2.003
 3428SOL    HW211184   4.193   4.759   2.006
 3429SOL     OW11185   1.215   3.403   1.180
 3429SOL    HW111186   1.291   3.464   1.159
 3429SOL    HW211187   1.233   3.313   1.140
 3430SOL     OW11188   1.378   0.006   0.248
 3430SOL    HW111189   1.341   0.075   0.186
 3430SOL    HW211190   1.313   7.010   0.322
 3431SOL     OW11191   1.310   5.656   0.673
 3431SOL    HW111192   1.222   5.608   0.672
 3431SOL    HW211193   1.300   5.742   0.723
 3432SOL     OW11194   3.390   1.541   5.867
 3432SOL    HW111195   3.417   1.638   5.868
 3432SOL    HW211196   3.402   1.503   5.959
 3433SOL     OW11197   3.466   0.713   5.075
 3433SOL    HW111198   3.392   0.752   5.129
 3433SOL    HW211199   3.515   0.645   5.129
 3434SOL     OW11200   4.767   2.707   2.103
 3434SOL    HW111201   4.724   2.797   2.104
 3434SOL    HW211202   4.863   2.715   2.131
 3435SOL     OW11203   0.171   1.891   2.419
 3435SOL    HW111204   0.135   1.812   2.468
 3435SOL    HW211205   0.224   1.948   2.482
 3436SOL     OW11206   4.622   6.731   4.577
 3436SOL    HW111207   4.651   6.650   4.629
 3436SOL    HW211208   4.584   6.702   4.489
 3437SOL     OW11209   4.213   6.966   5.044
 3437SOL    HW111210   4.124   6.932   5.075
 3437SOL    HW211211   4.250   6.903   4.976
 3438SOL     OW11212   1.159   2.617   6.513
 3438SOL    HW111213   1.081   2.566   6.477
 3438SOL    HW211214   1.168   2.600   6.611
 3439SOL     OW11215   2.593   6.886   4.709
 3439SOL    HW111216   2.653   6.824   4.759
 3439SOL    HW211217   2.504   6.891   4.756
 3440SOL     OW11218   5.058   3.291   0.998
 3440SOL    HW111219   5.067   3.210   0.942
 3440SOL    HW211220   5.021   3.266   1.088
 3441SOL     OW11221   3.018   6.811   3.456
 3441SOL    HW111222   3.036   6.869   3.535
 3441SOL    HW211223   2.978   6.725   3.486
 3442SOL     OW11224   1.671   5.106   3.603
 3442SOL    HW111225   1.699   5.076   3.695
 3442SOL    HW211226   1.573   5.090   3.592
 3443SOL     OW11227   5.400   1.764   3.006
 3443SOL    HW111228   5.417   1.834   2.936
 3443SOL    HW211229   5.445   1.679   2.979
 3444SOL     OW11230   5.001   5.474   0.034
 3444SOL    HW111231   5.038   5.389   0.070
 3444SOL    HW211232   5.022   5.550   0.096
 3445SOL     OW11233   6.646   4.824   4.117
 3445SOL    HW111234   6.644   4.819   4.217
 3445SOL    HW211235   6.696   4.746   4.081
 3446SOL     OW11236   3.978   0.326   2.945
 3446SOL    HW111237   4.047   0.256   2.930
 3446SOL    HW211238   4.007   0.411   2.900
 3447SOL     OW11239   5.592   6.257   0.207
 3447SOL    HW111240   5.667   6.271   0.141
 3447SOL    HW211241   5.598   6.165   0.245
 3448SOL     OW11242   3.503   1.056   1.458
 3448SOL    HW111243   3.551   0.977   1.421
 3448SOL    HW211244   3.555   1.139   1.437
 3449SOL     OW11245   6.734   0.045   2.383
 3449SOL    HW111246   6.673   0.000   2.448
 3449SOL    HW211247   6.819   7.012   2.375
 3450SOL     OW11248   0.699   1.799   1.603
 3450SOL    HW111249   0.642   1.752   1.670
 3450SOL    HW211250   0.761   1.862   1.650
 3451SOL     OW11251   1.339   5.629   3.975
 3451SOL    HW111252   1.317   5.644   4.071
 3451SOL    HW211253   1.347   5.717   3.928
 3452SOL     OW11254   6.313   0.777   0.232
 3452SOL    HW111255   6.368   0.861   0.240
 3452SOL    HW211256   6.359   0.713   0.170
 3453SOL     OW11257   5.990   5.567   4.763
 3453SOL    HW111258   5.956   5.594   4.853
 3453SOL    HW211259   6.088   5.581   4.758
 3454SOL     OW11260   1.390   1.342   1.097
 3454SOL    HW111261   1.456   1.298   1.157
 3454SOL    HW211262   1.431   1.422   1.053
 3455SOL     OW11263   1.604   2.998   4.577
 3455SOL    HW111264   1.668   2.962   4.509
 3455SOL    HW211265   1.569   3.087   4.546
 3456SOL     OW11266   5.778   6.883   1.545
 3456SOL    HW111267   5.747   6.792   1.573
 3456SOL    HW211268   5.782   6.887   1.445
 3457SOL     OW11269   2.505   5.191   3.362
 3457SOL    HW111270   2.559   5.107   3.361
 3457SOL    HW211271   2.533   5.249   3.439
 3458SOL     OW11272   5.684   6.758   0.794
 3458SOL    HW111273   5.751   6.800   0.732
 3458SOL    HW211274   5.732   6.722   0.874
 3459SOL     OW11275   0.337   4.614   3.443
 3459SOL    HW111276   0.378   4.567   3.365
 3459SOL    HW211277   0.390   4.594   3.525
 3460SOL     OW11278   4.082   2.611   0.117
 3460SOL    HW111279   4.072   2.532   0.056
 3460SOL    HW211280   4.028   2.595   0.200
 3461SOL     OW11281   3.688   5.560   4.320
 3461SOL    HW111282   3.776   5.514   4.323
 3461SOL    HW211283   3.617   5.501   4.359
 3462SOL     OW11284   4.859   3.840   2.805
 3462SOL    HW111285   4.930   3.900   2.842
 3462SOL    HW211286   4.819   3.882   2.724
 3463SOL     OW11287   2.348   2.926   1.580
 3463SOL    HW111288   2.267   2.968   1.621
 3463SOL    HW211289   2.414   2.903   1.652
 3464SOL     OW11290   5.287   3.300   6.107
 3464SOL    HW111291   5.269   3.358   6.187
 3464SOL    HW211292   5.246   3.342   6.026
 3465SOL     OW11293   2.180   3.776   1.861
 3465SOL    HW111294   2.212   3.687   1.894
 3465SOL    HW211295   2.227   3.848   1.911
 3466SOL     OW11296   5.353   4.518   4.964
 3466SOL    HW111297   5.390   4.490   4.875
 3466SOL    HW211298   5.369   4.446   5.031
 3467SOL     OW11299   2.890   2.556   0.877
 3467SOL    HW111300   2.867   2.462   0.904
 3467SOL    HW211301   2.857   2.620   0.947
 3468SOL     OW11302   4.700   1.511   1.677
 3468SOL    HW111303   4.673   1.423   1.716
 3468SOL    HW211304   4.621   1.552   1.632
 3469SOL     OW11305   4.577   6.893   6.071
 3469SOL    HW111306   4.551   6.823   6.004
 3469SOL    HW211307   4.585   6.982   6.025
 3470SOL     OW11308   0.080   2.534   1.972
 3470SOL    HW111309   0.057   2.573   2.062
 3470SOL    HW211310   0.174   2.558   1.949
 3471SOL     OW11311   4.246   4.688   2.710
 3471SOL    HW111312   4.310   4.613   2.696
 3471SOL    HW211313   4.200   4.708   2.623
 3472SOL     OW11314   4.456   2.359   3.420
 3472SOL    HW111315   4.392   2.290   3.387
 3472SOL    HW211316   4.549   2.334   3.391
 3473SOL     OW11317   0.202   4.158   3.522
 3473SOL    HW111318   0.253   4.091   3.576
 3473SOL    HW211319   0.105   4.152   3.545
 3474SOL     OW11320   6.710   5.197   4.579
 3474SOL    HW111321   6.622   5.243   4.595
 3474SOL    HW211322   6.697   5.098   4.585
 3475SOL     OW11323   0.056   4.486   4.396
 3475SOL    HW111324   6.983   4.491   4.430
 3475SOL    HW211325   0.102   4.407   4.436
 3476SOL     OW11326   1.871   1.749   3.197
 3476SOL    HW111327   1.893   1.694   3.278
 3476SOL    HW211328   1.810   1.824   3.224
 3477SOL     OW11329   0.404   3.866   1.784
 3477SOL    HW111330   0.448   3.841   1.697
 3477SOL    HW211331   0.357   3.786   1.821
 3478SOL     OW11332   2.378   0.124   0.153
 3478SOL    HW111333   2.332   0.059   0.093
 3478SOL    HW211334   2.363   0.217   0.119
 3479SOL     OW11335   0.652   3.117   3.526
 3479SOL    HW111336   0.739   3.167   3.529
 3479SOL    HW211337   0.579   3.178   3.496
 3480SOL     OW11338   1.158   5.772   6.816
 3480SOL    HW111339   1.226   5.819   6.873
 3480SOL    HW211340   1.080   5.833   6.802
 3481SOL     OW11341   5.718   0.304   6.778
 3481SOL    HW111342   5.677   0.395   6.779
 3481SOL    HW211343   5.803   0.306   6.832
 3482SOL     OW11344   6.023   3.077   4.534
 3482SOL    HW111345   6.025   3.014   4.612
 3482SOL    HW211346   6.024   3.025   4.449
 3483SOL     OW11347   4.744   2.313   3.929
 3483SOL    HW111348   4.789   2.269   3.851
 3483SOL    HW211349   4.663   2.363   3.896
 3484SOL     OW11350   1.698   3.558   6.272
 3484SOL    HW111351   1.630   3.614   6.320
 3484SOL    HW211352   1.669   3.463   6.272
 3485SOL     OW11353   6.897   1.637   5.440
 3485SOL    HW111354   6.894   1.714   5.377
 3485SOL    HW211355   6.835   1.565   5.409
 3486SOL     OW11356   2.219   0.320   4.592
 3486SOL    HW111357   2.286   0.387   4.560
 3486SOL    HW211358   2.181   0.350   4.679
 3487SOL     OW11359   5.951   1.684   6.471
 3487SOL    HW111360   6.031   1.744   6.472
 3487SOL    HW211361   5.953   1.623   6.551
 3488SOL     OW11362   5.878   0.195   4.474
 3488SOL    HW111363   5.953   0.190   4.407
 3488SOL    HW211364   5.791   0.206   4.426
 3489SOL     OW11365   2.841   0.401   0.840
 3489SOL    HW111366   2.927   0.373   0.883
 3489SOL    HW211367   2.799   0.474   0.893
 3490SOL     OW11368   4.092   4.529   0.796
 3490SOL    HW111369   4.013   4.578   0.758
 3490SOL    HW211370   4.169   4.537   0.733
 3491SOL     OW11371   5.254   3.931   0.140
 3491SOL    HW111372   5.354   3.935   0.139
 3491SOL    HW211373   5.223   3.879   0.219
 3492SOL     OW11374   5.900   4.228   2.744
 3492SOL    HW111375   5.826   4.268   2.690
 3492SOL    HW211376   5.914   4.282   2.826
 3493SOL     OW11377   6.085   3.741   4.311
 3493SOL    HW111378   6.034   3.765   4.228
 3493SOL    HW211379   6.039   3.666   4.358
 3494SOL     OW11380   3.121   1.689   2.519
 3494SOL    HW111381   3.205   1.739   2.500
 3494SOL    HW211382   3.114   1.672   2.617
 3495SOL     OW11383   1.304   3.429   2.128
 3495SOL    HW111384   1.357   3.452   2.210
 3495SOL    HW211385   1.359   3.369   2.069
 3496SOL     OW11386   6.804   4.863   0.255
 3496SOL    HW111387   6.736   4.936   0.252
 3496SOL    HW211388   6.797   4.807   0.173
 3497SOL     OW11389   4.328   0.476   2.993
 3497SOL    HW111390   4.359   0.566   3.024
 3497SOL    HW211391   4.243   0.486   2.941
 3498SOL     OW11392   2.511   1.627   1.668
 3498SOL    HW111393   2.567   1.557   1.623
 3498SOL    HW211394   2.508   1.709   1.611
 3499SOL     OW11395   6.145   5.634   5.668
 3499SOL    HW111396   6.203   5.696   5.614
 3499SOL    HW211397   6.049   5.661   5.657
 3500SOL     OW11398   1.538   1.702   3.559
 3500SOL    HW111399   1.564   1.747   3.645
 3500SOL    HW211400   1.438   1.704   3.550
 3501SOL     OW11401   2.251   0.016   6.364
 3501SOL    HW111402   2.340   0.019   6.411
 3501SOL    HW211403   2.199   0.098   6.388
 3502SOL     OW11404   5.422   3.003   1.847
 3502SOL    HW111405   5.341   2.976   1.795
 3502SOL    HW211406   5.397   3.016   1.943
 3503SOL     OW11407   6.729   5.947   6.198
 3503SOL    HW111408   6.815   5.976   6.157
 3503SOL    HW211409   6.655   5.960   6.132
 3504SOL     OW11410   1.497   1.179   1.788
 3504SOL    HW111411   1.584   1.132   1.775
 3504SOL    HW211412   1.495   1.262   1.734
 3505SOL     OW11413   5.548   5.332   5.470
 3505SOL    HW111414   5.640   5.299   5.490
 3505SOL    HW211415   5.494   5.257   5.431
 3506SOL     OW11416   5.419   4.507   4.597
 3506SOL    HW111417   5.490   4.494   4.667
 3506SOL    HW211418   5.425   4.433   4.529
 3507SOL     OW11419   2.471   0.418   0.357
 3507SOL    HW111420   2.384   0.451   0.320
 3507SOL    HW211421   2.453   0.351   0.429
 3508SOL     OW11422   3.248   2.708   5.311
 3508SOL    HW111423   3.227   2.624   5.262
 3508SOL    HW211424   3.164   2.761   5.323
 3509SOL     OW11425   4.664   6.716   0.492
 3509SOL    HW111426   4.641   6.654   0.417
 3509SOL    HW211427   4.758   6.750   0.480
 3510SOL     OW11428   2.121   0.923   1.218
 3510SOL    HW111429   2.179   0.854   1.175
 3510SOL    HW211430   2.136   1.012   1.174
 3511SOL     OW11431   2.097   4.678   1.346
 3511SOL    HW111432   2.065   4.591   1.384
 3511SOL    HW211433   2.021   4.742   1.339
 3512SOL     OW11434   0.839   4.296   0.163
 3512SOL    HW111435   0.894   4.222   0.203
 3512SOL    HW211436   0.828   4.369   0.230
 3513SOL     OW11437   6.030   2.225   0.943
 3513SOL    HW111438   6.002   2.152   1.005
 3513SOL    HW211439   6.095   2.189   0.876
 3514SOL     OW11440   5.433   0.694   2.832
 3514SOL    HW111441   5.345   0.732   2.862
 3514SOL    HW211442   5.440   0.599   2.862
 3515SOL     OW11443   5.427   5.752   4.345
 3515SOL    HW111444   5.467   5.843   4.354
 3515SOL    HW211445   5.500   5.685   4.333
 3516SOL     OW11446   5.305   0.094   1.154
 3516SOL    HW111447   5.335   0.043   1.073
 3516SOL    HW211448   5.294   0.031   1.231
 3517SOL     OW11449   6.677   1.207   0.246
 3517SOL    HW111450   6.688   1.288   0.188
 3517SOL    HW211451   6.734   1.216   0.327
 3518SOL     OW11452   5.954   1.726   4.634
 3518SOL    HW111453   6.000   1.806   4.672
 3518SOL    HW211454   6.020   1.670   4.583
 3519SOL     OW11455   3.180   1.116   0.058
 3519SOL    HW111456   3.247   1.179   0.017
 3519SOL    HW211457   3.088   1.149   0.038
 3520SOL     OW11458   3.101   5.372   5.571
 3520SOL    HW111459   3.099   5.468   5.542
 3520SOL    HW211460   3.194   5.337   5.560
 3521SOL     OW11461   3.478   2.932   6.876
 3521SOL    HW111462   3.572   2.915   6.845
 3521SOL    HW211463   3.451   3.024   6.849
 3522SOL     OW11464   6.523   5.541   6.667
 3522SOL    HW111465   6.513   5.579   6.575
 3522SOL    HW211466   6.616   5.504   6.677
 3523SOL     OW11467   1.458   4.967   5.087
 3523SOL    HW111468   1.432   4.874   5.116
 3523SOL    HW211469   1.410   4.990   5.003
 3524SOL     OW11470   5.878   2.202   3.117
 3524SOL    HW111471   5.877   2.262   3.037
 3524SOL    HW211472   5.820   2.122   3.099
 3525SOL     OW11473   6.534   4.530   4.552
 3525SOL    HW111474   6.436   4.545   4.558
 3525SOL    HW211475   6.579   4.574   4.630
 3526SOL     OW11476   1.450   5.712   3.603
 3526SOL    HW111477   1.424   5.756   3.689
 3526SOL    HW211478   1.471   5.615   3.620
 3527SOL     OW11479   6.023   2.262   5.954
 3527SOL    HW111480   6.074   2.347   5.967
 3527SOL    HW211481   6.043   2.200   6.029
 3528SOL     OW11482   2.521   6.475   5.347
 3528SOL    HW111483   2.539   6.377   5.333
 3528SOL    HW211484   2.597   6.528   5.309
 3529SOL     OW11485   4.513   5.772   0.042
 3529SOL    HW111486   4.414   5.762   0.033
 3529SOL    HW211487   4.556   5.682   0.050
 3530SOL     OW11488   6.944   5.732   2.251
 3530SOL    HW111489   7.004   5.653   2.262
 3530SOL    HW211490   6.996   5.809   2.215
 3531SOL     OW11491   4.806   2.029   2.078
 3531SOL    HW111492   4.825   2.011   1.982
 3531SOL    HW211493   4.710   2.009   2.098
 3532SOL     OW11494   2.432   1.000   2.126
 3532SOL    HW111495   2.461   0.923   2.070
 3532SOL    HW211496   2.510   1.033   2.180
 3533SOL     OW11497   6.751   1.483   2.449
 3533SOL    HW111498   6.678   1.512   2.511
 3533SOL    HW211499   6.754   1.543   2.370
 3534SOL     OW11500   0.579   2.378   2.567
 3534SOL    HW111501   0.571   2.298   2.626
 3534SOL    HW211502   0.643   2.358   2.493
 3535SOL     OW11503   2.869   5.024   5.271
 3535SOL    HW111504   2.873   4.924   5.278
 3535SOL    HW211505   2.829   5.049   5.183
 3536SOL     OW11506   3.411   1.800   3.224
 3536SOL    HW111507   3.439   1.871   3.288
 3536SOL    HW211508   3.439   1.825   3.131
 3537SOL     OW11509   1.297   5.833   2.944
 3537SOL    HW111510   1.267   5.743   2.974
 3537SOL    HW211511   1.383   5.856   2.990
 3538SOL     OW11512   3.221   5.330   5.176
 3538SOL    HW111513   3.259   5.397   5.240
 3538SOL    HW211514   3.203   5.244   5.224
 3539SOL     OW11515   3.568   4.008   4.360
 3539SOL    HW111516   3.490   4.050   4.312
 3539SOL    HW211517   3.635   3.977   4.293
 3540SOL     OW11518   1.904   2.131   3.877
 3540SOL    HW111519   1.974   2.089   3.820
 3540SOL    HW211520   1.904   2.088   3.968
 3541SOL     OW11521   3.163   3.298   5.127
 3541SOL    HW111522   3.155   3.206   5.089
 3541SOL    HW211523   3.255   3.333   5.111
 3542SOL     OW11524   1.679   4.950   3.009
 3542SOL    HW111525   1.630   4.864   3.002
 3542SOL    HW211526   1.701   4.984   2.918
 3543SOL     OW11527   5.221   2.439   4.028
 3543SOL    HW111528   5.149   2.461   4.093
 3543SOL    HW211529   5.283   2.516   4.018
 3544SOL     OW11530   1.980   3.867   6.905
 3544SOL    HW111531   2.066   3.821   6.885
 3544SOL    HW211532   1.907   3.826   6.851
 3545SOL     OW11533   3.994   5.848   6.713
 3545SOL    HW111534   4.071   5.808   6.664
 3545SOL    HW211535   3.944   5.776   6.762
 3546SOL     OW11536   0.096   5.756   3.410
 3546SOL    HW111537   0.011   5.703   3.406
 3546SOL    HW211538   0.143   5.737   3.496
 3547SOL     OW11539   3.756   5.225   4.051
 3547SOL    HW111540   3.815   5.145   4.041
 3547SOL    HW211541   3.688   5.208   4.122
 3548SOL     OW11542   4.567   2.337   5.717
 3548SOL    HW111543   4.624   2.272   5.667
 3548SOL    HW211544   4.472   2.307   5.713
 3549SOL     OW11545   6.489   5.043   3.923
 3549SOL    HW111546   6.500   4.946   3.945
 3549SOL    HW211547   6.397   5.060   3.889
 3550SOL     OW11548   5.050   2.198   3.449
 3550SOL    HW111549   5.091   2.161   3.532
 3550SOL    HW211550   5.051   2.129   3.377
 3551SOL     OW11551   3.617   6.096   2.550
 3551SOL    HW111552   3.669   6.089   2.465
 3551SOL    HW211553   3.520   6.083   2.530
 3552SOL     OW11554   5.385   5.925   2.741
 3552SOL    HW111555   5.313   5.873   2.787
 3552SOL    HW211556   5.466   5.867   2.731
 3553SOL     OW11557   5.527   2.540   2.352
 3553SOL    HW111558   5.612   2.589   2.330
 3553SOL    HW211559   5.488   2.577   2.436
 3554SOL     OW11560   4.494   3.918   6.497
 3554SOL    HW111561   4.528   3.826   6.476
 3554SOL    HW211562   4.425   3.944   6.430
 3555SOL     OW11563   0.768   3.537   2.837
 3555SOL    HW111564   0.843   3.600   2.857
 3555SOL    HW211565   0.768   3.516   2.739
 3556SOL     OW11566   3.278   0.735   5.484
 3556SOL    HW111567   3.297   0.787   5.401
 3556SOL    HW211568   3.247   0.796   5.556
 3557SOL     OW11569   1.637   0.260   4.676
 3557SOL    HW111570   1.648   0.358   4.693
 3557SOL    HW211571   1.566   0.246   4.608
 3558SOL     OW11572   0.120   5.642   1.681
 3558SOL    HW111573   0.032   5.617   1.641
 3558SOL    HW211574   0.183   5.668   1.608
 3559SOL     OW11575   0.556   0.539   4.658
 3559SOL    HW111576   0.614   0.468   4.698
 3559SOL    HW211577   0.463   0.531   4.694
 3560SOL     OW11578   1.036   5.734   0.963
 3560SOL    HW111579   1.073   5.749   1.055
 3560SOL    HW211580   0.948   5.781   0.954
 3561SOL     OW11581   4.714   4.534   5.672
 3561SOL    HW111582   4.689   4.464   5.605
 3561SOL    HW211583   4.715   4.623   5.628
 3562SOL     OW11584   5.408   7.003   3.816
 3562SOL    HW111585   5.376   6.979   3.724
 3562SOL    HW211586   5.342   6.969   3.884
 3563SOL     OW11587   5.396   1.073   1.029
 3563SOL    HW111588   5.342   0.990   1.046
 3563SOL    HW211589   5.467   1.082   1.098
 3564SOL     OW11590   0.699   4.181   4.571
 3564SOL    HW111591   0.780   4.193   4.513
 3564SOL    HW211592   0.705   4.243   4.649
 3565SOL     OW11593   2.377   0.534   4.809
 3565SOL    HW111594   2.343   0.624   4.838
 3565SOL    HW211595   2.399   0.538   4.711
 3566SOL     OW11596   7.015   3.101   6.089
 3566SOL    HW111597   6.967   3.020   6.055
 3566SOL    HW211598   6.991   3.180   6.033
 3567SOL     OW11599   0.602   3.537   1.400
 3567SOL    HW111600   0.581   3.559   1.305
 3567SOL    HW211601   0.701   3.543   1.415
 3568SOL     OW11602   4.924   4.758   2.772
 3568SOL    HW111603   4.979   4.681   2.805
 3568SOL    HW211604   4.834   4.725   2.744
 3569SOL     OW11605   3.039   3.625   4.382
 3569SOL    HW111606   2.975   3.692   4.420
 3569SOL    HW211607   3.031   3.539   4.432
 3570SOL     OW11608   6.418   1.641   5.589
 3570SOL    HW111609   6.510   1.680   5.602
 3570SOL    HW211610   6.414   1.551   5.631
 3571SOL     OW11611   1.835   0.081   5.086
 3571SOL    HW111612   1.763   0.147   5.066
 3571SOL    HW211613   1.795   7.010   5.097
 3572SOL     OW11614   5.362   4.088   1.817
 3572SOL    HW111615   5.426   4.032   1.764
 3572SOL    HW211616   5.296   4.131   1.756
 3573SOL     OW11617   6.390   4.108   2.246
 3573SOL    HW111618   6.485   4.111   2.212
 3573SOL    HW211619   6.338   4.181   2.203
 3574SOL     OW11620   2.723   2.877   5.876
 3574SOL    HW111621   2.723   2.917   5.785
 3574SOL    HW211622   2.634   2.834   5.893
 3575SOL     OW11623   4.644   6.388   0.822
 3575SOL    HW111624   4.695   6.371   0.738
 3575SOL    HW211625   4.566   6.447   0.802
 3576SOL     OW11626   0.230   3.120   0.182
 3576SOL    HW111627   0.277   3.047   0.132
 3576SOL    HW211628   0.273   3.134   0.270
 3577SOL     OW11629   2.113   2.702   5.253
 3577SOL    HW111630   2.187   2.765   5.275
 3577SOL    HW211631   2.044   2.749   5.198
 3578SOL     OW11632   3.224   2.865   6.780
 3578SOL    HW111633   3.184   2.801   6.846
 3578SOL    HW211634   3.313   2.896   6.814
 3579SOL     OW11635   0.203   3.766   2.637
 3579SOL    HW111636   0.143   3.704   2.687
 3579SOL    HW211637   0.298   3.736   2.646
 3580SOL     OW11638   0.046   3.629   1.687
 3580SOL    HW111639   6.993   3.562   1.686
 3580SOL    HW211640   0.134   3.583   1.675
 3581SOL     OW11641   0.798   0.459   2.557
 3581SOL    HW111642   0.740   0.424   2.484
 3581SOL    HW211643   0.800   0.394   2.633
 3582SOL     OW11644   3.340   3.669   5.540
 3582SOL    HW111645   3.430   3.650   5.582
 3582SOL    HW211646   3.304   3.584   5.502
 3583SOL     OW11647   0.228   4.390   1.045
 3583SOL    HW111648   0.155   4.323   1.056
 3583SOL    HW211649   0.274   4.403   1.133
 3584SOL     OW11650   5.418   4.056   4.583
 3584SOL    HW111651   5.412   4.030   4.486
 3584SOL    HW211652   5.327   4.077   4.618
 3585SOL     OW11653   2.872   2.081   4.166
 3585SOL    HW111654   2.824   2.101   4.252
 3585SOL    HW211655   2.879   1.982   4.154
 3586SOL     OW11656   6.637   2.962   3.612
 3586SOL    HW111657   6.593   2.883   3.656
 3586SOL    HW211658   6.629   2.953   3.513
 3587SOL     OW11659   3.857   6.796   6.365
 3587SOL    HW111660   3.853   6.779   6.267
 3587SOL    HW211661   3.768   6.829   6.397
 3588SOL     OW11662   6.586   4.256   4.537
 3588SOL    HW111663   6.588   4.352   4.566
 3588SOL    HW211664   6.656   4.205   4.586
 3589SOL     OW11665   6.845   6.924   6.386
 3589SOL    HW111666   6.905   6.846   6.402
 3589SOL    HW211667   6.855   6.989   6.461
 3590SOL     OW11668   0.448   4.381   0.860
 3590SOL    HW111669   0.452   4.281   0.855
 3590SOL    HW211670   0.360   4.410   0.897
 3591SOL     OW11671   5.047   2.309   6.682
 3591SOL    HW111672   5.083   2.228   6.728
 3591SOL    HW211673   5.118   2.349   6.624
 3592SOL     OW11674   1.615   6.976   2.054
 3592SOL    HW111675   1.615   0.048   2.015
 3592SOL    HW211676   1.557   6.975   2.135
 3593SOL     OW11677   6.023   3.637   5.660
 3593SOL    HW111678   6.005   3.649   5.758
 3593SOL    HW211679   5.998   3.721   5.612
 3594SOL     OW11680   4.045   5.192   4.211
 3594SOL    HW111681   4.115   5.224   4.146
 3594SOL    HW211682   4.090   5.144   4.286
 3595SOL     OW11683   5.838   5.704   6.062
 3595SOL    HW111684   5.886   5.620   6.039
 3595SOL    HW211685   5.758   5.714   6.002
 3596SOL     OW11686   3.541   1.176   3.100
 3596SOL    HW111687   3.539   1.121   3.016
 3596SOL    HW211688   3.589   1.262   3.083
 3597SOL     OW11689   1.764   3.234   5.296
 3597SOL    HW111690   1.784   3.236   5.198
 3597SOL    HW211691   1.828   3.293   5.345
 3598SOL     OW11692   1.658   5.474   4.507
 3598SOL    HW111693   1.695   5.427   4.427
 3598SOL    HW211694   1.686   5.570   4.505
 3599SOL     OW11695   4.828   1.437   5.368
 3599SOL    HW111696   4.887   1.362   5.339
 3599SOL    HW211697   4.745   1.437   5.312
 3600SOL     OW11698   3.533   3.469   0.581
 3600SOL    HW111699   3.454   3.455   0.641
 3600SOL    HW211700   3.513   3.432   0.490
 3601SOL     OW11701   4.947   0.807   5.373
 3601SOL    HW111702   4.899   0.880   5.422
 3601SOL    HW211703   4.945   0.723   5.428
 3602SOL     OW11704   2.533   2.407   1.034
 3602SOL    HW111705   2.614   2.380   0.982
 3602SOL    HW211706   2.459   2.342   1.016
 3603SOL     OW11707   3.130   0.906   5.675
 3603SOL    HW111708   3.084   0.839   5.734
 3603SOL    HW211709   3.064   0.972   5.640
 3604SOL     OW11710   6.703   0.410   3.524
 3604SOL    HW111711   6.614   0.441   3.558
 3604SOL    HW211712   6.694   0.385   3.427
 3605SOL     OW11713   0.689   5.678   3.346
 3605SOL    HW111714   0.706   5.776   3.351
 3605SOL    HW211715   0.627   5.651   3.420
 3606SOL     OW11716   2.102   6.476   1.260
 3606SOL    HW111717   2.029   6.456   1.194
 3606SOL    HW211718   2.130   6.390   1.304
 3607SOL     OW11719   4.866   2.459   2.958
 3607SOL    HW111720   4.849   2.544   3.009
 3607SOL    HW211721   4.784   2.435   2.906
 3608SOL     OW11722   3.716   2.035   4.743
 3608SOL    HW111723   3.743   1.941   4.721
 3608SOL    HW211724   3.797   2.092   4.749
 3609SOL     OW11725   2.268   0.112   4.406
 3609SOL    HW111726   2.219   0.114   4.319
 3609SOL    HW211727   2.243   0.191   4.461
 3610SOL     OW11728   2.265   7.002   5.083
 3610SOL    HW111729   2.175   7.007   5.041
 3610SOL    HW211730   2.336   7.002   5.012
 3611SOL     OW11731   5.391   4.601   3.451
 3611SOL    HW111732   5.412   4.541   3.528
 3611SOL    HW211733   5.381   4.547   3.367
 3612SOL     OW11734   5.547   1.566   6.777
 3612SOL    HW111735   5.580   1.576   6.870
 3612SOL    HW211736   5.592   1.633   6.718
 3613SOL     OW11737   3.323   5.067   0.975
 3613SOL    HW111738   3.245   5.027   1.022
 3613SOL    HW211739   3.316   5.050   0.877
 3614SOL     OW11740   3.775   4.378   5.976
 3614SOL    HW111741   3.858   4.427   5.951
 3614SOL    HW211742   3.696   4.438   5.967
 3615SOL     OW11743   6.063   2.415   5.302
 3615SOL    HW111744   6.110   2.475   5.367
 3615SOL    HW211745   6.073   2.451   5.209
 3616SOL     OW11746   1.783   1.904   6.630
 3616SOL    HW111747   1.746   1.932   6.541
 3616SOL    HW211748   1.882   1.894   6.623
 3617SOL     OW11749   3.817   6.467   6.107
 3617SOL    HW111750   3.763   6.461   6.023
 3617SOL    HW211751   3.785   6.400   6.173
 3618SOL     OW11752   1.864   3.686   4.607
 3618SOL    HW111753   1.833   3.726   4.521
 3618SOL    HW211754   1.919   3.604   4.588
 3619SOL     OW11755   6.418   2.802   1.092
 3619SOL    HW111756   6.396   2.739   1.167
 3619SOL    HW211757   6.401   2.896   1.122
 3620SOL     OW11758   6.059   6.507   5.030
 3620SOL    HW111759   6.039   6.559   5.114
 3620SOL    HW211760   6.151   6.529   4.999
 3621SOL     OW11761   3.356   3.338   3.575
 3621SOL    HW111762   3.373   3.351   3.477
 3621SOL    HW211763   3.365   3.241   3.597
 3622SOL     OW11764   0.972   7.018   0.161
 3622SOL    HW111765   1.010   6.931   0.190
 3622SOL    HW211766   0.886   0.015   0.209
 3623SOL     OW11767   0.960   4.938   6.476
 3623SOL    HW111768   0.912   4.987   6.548
 3623SOL    HW211769   1.003   4.856   6.514
 3624SOL     OW11770   2.980   0.845   2.283
 3624SOL    HW111771   3.002   0.748   2.275
 3624SOL    HW211772   2.936   0.863   2.371
 3625SOL     OW11773   6.825   2.676   6.832
 3625SOL    HW111774   6.868   2.763   6.855
 3625SOL    HW211775   6.766   2.647   6.907
 3626SOL     OW11776   0.996   2.364   4.725
 3626SOL    HW111777   1.048   2.380   4.809
 3626SOL    HW211778   1.053   2.388   4.647
 3627SOL     OW11779   4.000   2.349   1.520
 3627SOL    HW111780   4.056   2.267   1.530
 3627SOL    HW211781   3.938   2.338   1.442
 3628SOL     OW11782   0.084   1.439   2.352
 3628SOL    HW111783   0.014   1.408   2.287
 3628SOL    HW211784   0.061   1.530   2.386
 3629SOL     OW11785   1.989   1.290   4.561
 3629SOL    HW111786   1.978   1.388   4.581
 3629SOL    HW211787   2.075   1.258   4.601
 3630SOL     OW11788   6.563   2.567   3.817
 3630SOL    HW111789   6.469   2.551   3.785
 3630SOL    HW211790   6.583   2.665   3.812
 3631SOL     OW11791   1.610   6.728   2.419
 3631SOL    HW111792   1.682   6.670   2.381
 3631SOL    HW211793   1.614   6.818   2.376
 3632SOL     OW11794   4.687   3.667   1.174
 3632SOL    HW111795   4.722   3.576   1.197
 3632SOL    HW211796   4.710   3.730   1.249
 3633SOL     OW11797   3.662   2.848   6.270
 3633SOL    HW111798   3.630   2.941   6.254
 3633SOL    HW211799   3.743   2.830   6.213
 3634SOL     OW11800   3.065   5.239   6.274
 3634SOL    HW111801   3.079   5.221   6.177
 3634SOL    HW211802   3.038   5.155   6.321
 3635SOL     OW11803   2.702   0.552   1.516
 3635SOL    HW111804   2.642   0.510   1.584
 3635SOL    HW211805   2.673   0.527   1.424
 3636SOL     OW11806   1.077   5.131   0.006
 3636SOL    HW111807   0.980   5.111   7.013
 3636SOL    HW211808   1.107   5.091   0.092
 3637SOL     OW11809   6.907   2.751   6.597
 3637SOL    HW111810   6.867   2.697   6.671
 3637SOL    HW211811   6.848   2.746   6.516
 3638SOL     OW11812   5.702   4.304   2.566
 3638SOL    HW111813   5.688   4.351   2.478
 3638SOL    HW211814   5.691   4.206   2.553
 3639SOL     OW11815   3.337   3.859   4.718
 3639SOL    HW111816   3.301   3.837   4.627
 3639SOL    HW211817   3.386   3.780   4.754
 3640SOL     OW11818   5.446   1.780   0.426
 3640SOL    HW111819   5.351   1.793   0.453
 3640SOL    HW211820   5.450   1.742   0.334
 3641SOL     OW11821   6.371   3.989   2.521
 3641SOL    HW111822   6.386   4.027   2.430
 3641SOL    HW211823   6.411   4.050   2.589
 3642SOL     OW11824   6.279   2.822   6.667
 3642SOL    HW111825   6.294   2.898   6.604
 3642SOL    HW211826   6.259   2.739   6.615
 3643SOL     OW11827   3.731   5.293   5.577
 3643SOL    HW111828   3.701   5.353   5.503
 3643SOL    HW211829   3.830   5.301   5.588
 3644SOL     OW11830   3.079   0.622   2.072
 3644SOL    HW111831   3.167   0.636   2.118
 3644SOL    HW211832   3.034   0.541   2.110
 3645SOL     OW11833   1.525   4.260   4.148
 3645SOL    HW111834   1.493   4.193   4.082
 3645SOL    HW211835   1.533   4.349   4.103
 3646SOL     OW11836   2.354   4.502   4.776
 3646SOL    HW111837   2.441   4.528   4.820
 3646SOL    HW211838   2.305   4.438   4.836
 3647SOL     OW11839   2.933   0.221   0.187
 3647SOL    HW111840   2.951   0.319   0.172
 3647SOL    HW211841   2.888   0.209   0.275
 3648SOL     OW11842   4.237   5.316   3.720
 3648SOL    HW111843   4.268   5.393   3.666
 3648SOL    HW211844   4.137   5.317   3.725
 3649SOL     OW11845   5.844   2.748   0.160
 3649SOL    HW111846   5.796   2.672   0.204
 3649SOL    HW211847   5.781   2.796   0.099
 3650SOL     OW11848   5.765   5.723   0.260
 3650SOL    HW111849   5.808   5.634   0.276
 3650SOL    HW211850   5.667   5.716   0.280
 3651SOL     OW11851   1.045   2.672   6.025
 3651SOL    HW111852   1.104   2.635   6.096
 3651SOL    HW211853   0.967   2.718   6.067
 3652SOL     OW11854   4.862   1.529   2.266
 3652SOL    HW111855   4.889   1.476   2.186
 3652SOL    HW211856   4.789   1.592   2.241
 3653SOL     OW11857   0.579   1.441   1.279
 3653SOL    HW111858   0.513   1.437   1.205
 3653SOL    HW211859   0.542   1.496   1.354
 3654SOL     OW11860   5.581   0.086   0.982
 3654SOL    HW111861   5.506   0.138   0.941
 3654SOL    HW211862   5.658   0.084   0.918
 3655SOL     OW11863   1.793   2.414   4.587
 3655SOL    HW111864   1.733   2.494   4.581
 3655SOL    HW211865   1.847   2.406   4.504
 3656SOL     OW11866   0.165   6.444   1.724
 3656SOL    HW111867   0.168   6.344   1.733
 3656SOL    HW211868   0.173   6.469   1.628
 3657SOL     OW11869   4.761   5.905   4.740
 3657SOL    HW111870   4.860   5.913   4.754
 3657SOL    HW211871   4.714   5.917   4.827
 3658SOL     OW11872   1.468   4.742   6.226
 3658SOL    HW111873   1.456   4.696   6.314
 3658SOL    HW211874   1.421   4.830   6.227
 3659SOL     OW11875   6.707   1.285   6.168
 3659SOL    HW111876   6.681   1.368   6.217
 3659SOL    HW211877   6.682   1.205   6.221
 3660SOL     OW11878   5.236   5.088   6.055
 3660SOL    HW111879   5.302   5.058   5.987
 3660SOL    HW211880   5.146   5.097   6.012
 3661SOL     OW11881   7.016   1.746   4.552
 3661SOL    HW111882   6.941   1.734   4.487
 3661SOL    HW211883   6.986   1.805   4.627
 3662SOL     OW11884   3.234   1.396   5.708
 3662SOL    HW111885   3.214   1.458   5.633
 3662SOL    HW211886   3.282   1.445   5.780
 3663SOL     OW11887   2.193   2.623   6.301
 3663SOL    HW111888   2.218   2.621   6.397
 3663SOL    HW211889   2.249   2.557   6.250
 3664SOL     OW11890   3.869   0.978   2.427
 3664SOL    HW111891   3.788   0.973   2.485
 3664SOL    HW211892   3.880   0.892   2.378
 3665SOL     OW11893   0.972   5.956   6.005
 3665SOL    HW111894   0.980   5.878   5.942
 3665SOL    HW211895   1.050   6.017   5.992
 3666SOL     OW11896   2.186   2.094   4.891
 3666SOL    HW111897   2.133   2.178   4.891
 3666SOL    HW211898   2.283   2.116   4.903
 3667SOL     OW11899   2.136   0.406   2.734
 3667SOL    HW111900   2.064   0.347   2.698
 3667SOL    HW211901   2.224   0.358   2.727
 3668SOL     OW11902   0.459   0.760   1.775
 3668SOL    HW111903   0.394   0.739   1.702
 3668SOL    HW211904   0.551   0.767   1.737
 3669SOL     OW11905   6.693   1.248   3.741
 3669SOL    HW111906   6.744   1.256   3.827
 3669SOL    HW211907   6.711   1.328   3.684
 3670SOL     OW11908   3.461   5.480   1.752
 3670SOL    HW111909   3.508   5.510   1.834
 3670SOL    HW211910   3.363   5.469   1.771
 3671SOL     OW11911   6.441   0.175   3.520
 3671SOL    HW111912   6.477   0.125   3.599
 3671SOL    HW211913   6.383   0.250   3.552
 3672SOL     OW11914   4.284   6.504   2.612
 3672SOL    HW111915   4.350   6.568   2.572
 3672SOL    HW211916   4.322   6.411   2.609
 3673SOL     OW11917   4.535   5.962   1.204
 3673SOL    HW111918   4.600   6.035   1.220
 3673SOL    HW211919   4.583   5.879   1.177
 3674SOL     OW11920   1.308   4.939   6.154
 3674SOL    HW111921   1.377   4.985   6.098
 3674SOL    HW211922   1.219   4.945   6.108
 3675SOL     OW11923   1.108   1.055   3.826
 3675SOL    HW111924   1.147   1.131   3.878
 3675SOL    HW211925   1.111   0.971   3.882
 3676SOL     OW11926   4.055   1.556   3.724
 3676SOL    HW111927   4.133   1.498   3.747
 3676SOL    HW211928   3.978   1.499   3.694
 3677SOL     OW11929   1.989   0.563   4.449
 3677SOL    HW111930   1.978   0.469   4.416
 3677SOL    HW211931   1.919   0.621   4.406
 3678SOL     OW11932   1.231   0.704   3.573
 3678SOL    HW111933   1.175   0.786   3.560
 3678SOL    HW211934   1.234   0.652   3.488
 3679SOL     OW11935   4.575   0.755   2.407
 3679SOL    HW111936   4.511   0.826   2.436
 3679SOL    HW211937   4.578   0.682   2.475
 3680SOL     OW11938   4.098   1.428   4.124
 3680SOL    HW111939   4.142   1.506   4.079
 3680SOL    HW211940   4.063   1.365   4.054
 3681SOL     OW11941   1.720   6.033   4.482
 3681SOL    HW111942   1.810   6.028   4.439
 3681SOL    HW211943   1.682   5.941   4.491
 3682SOL     OW11944   5.719   1.790   1.361
 3682SOL    HW111945   5.685   1.745   1.443
 3682SOL    HW211946   5.729   1.888   1.379
 3683SOL     OW11947   5.978   0.942   5.874
 3683SOL    HW111948   5.948   0.863   5.820
 3683SOL    HW211949   6.056   0.917   5.930
 3684SOL     OW11950   2.508   6.777   5.518
 3684SOL    HW111951   2.449   6.780   5.598
 3684SOL    HW211952   2.556   6.865   5.508
 3685SOL     OW11953   1.921   6.252   5.554
 3685SOL    HW111954   1.883   6.263   5.462
 3685SOL    HW211955   1.927   6.155   5.577
 3686SOL     OW11956   1.026   4.702   4.032
 3686SOL    HW111957   1.123   4.726   4.037
 3686SOL    HW211958   0.973   4.765   4.089
 3687SOL     OW11959   5.805   5.252   4.368
 3687SOL    HW111960   5.786   5.296   4.280
 3687SOL    HW211961   5.904   5.243   4.380
 3688SOL     OW11962   5.889   3.101   0.457
 3688SOL    HW111963   5.818   3.049   0.409
 3688SOL    HW211964   5.966   3.118   0.396
 3689SOL     OW11965   1.881   7.012   5.832
 3689SOL    HW111966   1.971   6.987   5.796
 3689SOL    HW211967   1.813   6.945   5.801
 3690SOL     OW11968   4.993   4.937   1.119
 3690SOL    HW111969   4.896   4.927   1.141
 3690SOL    HW211970   5.032   4.848   1.098
 3691SOL     OW11971   2.130   2.463   0.293
 3691SOL    HW111972   2.105   2.399   0.221
 3691SOL    HW211973   2.104   2.425   0.382
 3692SOL     OW11974   0.399   3.350   6.045
 3692SOL    HW111975   0.429   3.414   5.975
 3692SOL    HW211976   0.478   3.305   6.087
 3693SOL     OW11977   0.005   1.287   2.650
 3693SOL    HW111978   6.938   1.320   2.685
 3693SOL    HW211979   0.044   1.355   2.588
 3694SOL     OW11980   6.673   0.930   1.665
 3694SOL    HW111981   6.677   0.844   1.717
 3694SOL    HW211982   6.577   0.955   1.650
 3695SOL     OW11983   6.308   2.982   2.146
 3695SOL    HW111984   6.382   2.915   2.142
 3695SOL    HW211985   6.335   3.057   2.206
 3696SOL     OW11986   4.655   1.167   4.580
 3696SOL    HW111987   4.716   1.089   4.570
 3696SOL    HW211988   4.616   1.167   4.673
 3697SOL     OW11989   0.041   6.274   3.371
 3697SOL    HW111990   0.121   6.269   3.430
 3697SOL    HW211991   0.022   6.184   3.331
 3698SOL     OW11992   2.066   0.567   2.959
 3698SOL    HW111993   2.002   0.531   3.027
 3698SOL    HW211994   2.080   0.498   2.887
 3699SOL     OW11995   2.580   2.514   3.678
 3699SOL    HW111996   2.574   2.611   3.702
 3699SOL    HW211997   2.643   2.468   3.741
 3700SOL     OW11998   1.137   4.789   4.479
 3700SOL    HW111999   1.051   4.737   4.485
 3700SOL    HW212000   1.209   4.739   4.527
 3701SOL     OW12001   1.857   1.039   2.802
 3701SOL    HW112002   1.838   1.120   2.746
 3701SOL    HW212003   1.940   0.995   2.771
 3702SOL     OW12004   5.303   4.118   3.902
 3702SOL    HW112005   5.227   4.178   3.925
 3702SOL    HW212006   5.276   4.022   3.915
 3703SOL     OW12007   1.390   1.747   4.171
 3703SOL    HW112008   1.349   1.689   4.101
 3703SOL    HW212009   1.482   1.715   4.191
 3704SOL     OW12010   6.612   2.209   1.085
 3704SOL    HW112011   6.650   2.123   1.118
 3704SOL    HW212012   6.672   2.247   1.015
 3705SOL     OW12013   5.311   4.813   2.888
 3705SOL    HW112014   5.227   4.798   2.941
 3705SOL    HW212015   5.289   4.821   2.791
 3706SOL     OW12016   0.630   3.743   0.494
 3706SOL    HW112017   0.676   3.668   0.542
 3706SOL    HW212018   0.544   3.765   0.540
 3707SOL     OW12019   1.139   5.433   3.914
 3707SOL    HW112020   1.128   5.432   3.815
 3707SOL    HW212021   1.228   5.472   3.938
 3708SOL     OW12022   3.419   6.812   0.605
 3708SOL    HW112023   3.489   6.884   0.607
 3708SOL    HW212024   3.448   6.740   0.543
 3709SOL     OW12025   1.581   1.340   2.504
 3709SOL    HW112026   1.568   1.433   2.539
 3709SOL    HW212027   1.654   1.295   2.554
 3710SOL     OW12028   6.646   4.580   5.929
 3710SOL    HW112029   6.612   4.665   5.888
 3710SOL    HW212030   6.684   4.600   6.019
 3711SOL     OW12031   1.655   5.750   4.459
 3711SOL    HW112032   1.604   5.771   4.542
 3711SOL    HW212033   1.593   5.712   4.390
 3712SOL     OW12034   2.301   5.235   4.844
 3712SOL    HW112035   2.221   5.219   4.902
 3712SOL    HW212036   2.356   5.309   4.882
 3713SOL     OW12037   5.905   6.634   4.431
 3713SOL    HW112038   5.890   6.714   4.489
 3713SOL    HW212039   5.818   6.605   4.392
 3714SOL     OW12040   0.443   4.818   0.920
 3714SOL    HW112041   0.414   4.825   0.824
 3714SOL    HW212042   0.415   4.901   0.969
 3715SOL     OW12043   5.582   5.501   3.466
 3715SOL    HW112044   5.502   5.464   3.513
 3715SOL    HW212045   5.615   5.581   3.514
 3716SOL     OW12046   4.928   5.460   3.825
 3716SOL    HW112047   4.927   5.551   3.782
 3716SOL    HW212048   4.984   5.398   3.769
 3717SOL     OW12049   4.430   1.303   1.309
 3717SOL    HW112050   4.376   1.381   1.279
 3717SOL    HW212051   4.507   1.291   1.246
 3718SOL     OW12052   7.016   6.852   5.655
 3718SOL    HW112053   6.927   6.807   5.649
 3718SOL    HW212054   0.039   6.827   5.741
 3719SOL     OW12055   3.829   4.225   6.202
 3719SOL    HW112056   3.749   4.246   6.258
 3719SOL    HW212057   3.820   4.267   6.112
 3720SOL     OW12058   0.284   2.592   1.763
 3720SOL    HW112059   0.272   2.672   1.704
 3720SOL    HW212060   0.295   2.511   1.706
 3721SOL     OW12061   6.235   5.050   6.175
 3721SOL    HW112062   6.240   5.148   6.193
 3721SOL    HW212063   6.315   5.022   6.122
 3722SOL     OW12064   4.600   6.612   3.308
 3722SOL    HW112065   4.658   6.691   3.331
 3722SOL    HW212066   4.654   6.547   3.254
 3723SOL     OW12067   4.782   4.257   0.182
 3723SOL    HW112068   4.876   4.230   0.160
 3723SOL    HW212069   4.727   4.257   0.099
 3724SOL     OW12070   1.353   4.571   5.105
 3724SOL    HW112071   1.264   4.586   5.062
 3724SOL    HW212072   1.426   4.588   5.039
 3725SOL     OW12073   0.958   5.726   6.473
 3725SOL    HW112074   0.994   5.680   6.554
 3725SOL    HW212075   0.861   5.746   6.486
 3726SOL     OW12076   6.266   3.491   4.436
 3726SOL    HW112077   6.223   3.535   4.515
 3726SOL    HW212078   6.288   3.561   4.367
 3727SOL     OW12079   6.649   3.863   4.008
 3727SOL    HW112080   6.573   3.867   3.943
 3727SOL    HW212081   6.730   3.827   3.962
 3728SOL     OW12082   3.118   3.047   0.217
 3728SOL    HW112083   3.178   3.118   0.180
 3728SOL    HW212084   3.150   3.019   0.308
 3729SOL     OW12085   0.645   6.927   5.522
 3729SOL    HW112086   0.696   6.841   5.524
 3729SOL    HW212087   0.682   6.985   5.449
 3730SOL     OW12088   3.505   5.896   4.509
 3730SOL    HW112089   3.405   5.908   4.513
 3730SOL    HW212090   3.529   5.807   4.549
 3731SOL     OW12091   0.493   2.462   6.865
 3731SOL    HW112092   0.502   2.390   6.934
 3731SOL    HW212093   0.450   2.425   6.783
 3732SOL     OW12094   3.299   2.091   6.889
 3732SOL    HW112095   3.333   2.003   6.922
 3732SOL    HW212096   3.232   2.127   6.953
 3733SOL     OW12097   2.091   1.631   3.430
 3733SOL    HW112098   2.090   1.541   3.386
 3733SOL    HW212099   2.133   1.623   3.520
 3734SOL     OW12100   4.229   6.910   0.679
 3734SOL    HW112101   4.268   6.918   0.771
 3734SOL    HW212102   4.157   6.978   0.667
 3735SOL     OW12103   4.250   6.719   2.302
 3735SOL    HW112104   4.178   6.735   2.234
 3735SOL    HW212105   4.292   6.806   2.326
 3736SOL     OW12106   6.845   1.469   1.236
 3736SOL    HW112107   6.916   1.413   1.278
 3736SOL    HW212108   6.794   1.516   1.308
 3737SOL     OW12109   0.329   2.926   2.912
 3737SOL    HW112110   0.395   2.987   2.956
 3737SOL    HW212111   0.243   2.928   2.962
 3738SOL     OW12112   6.980   6.439   1.193
 3738SOL    HW112113   6.947   6.531   1.215
 3738SOL    HW212114   0.056   6.432   1.214
 3739SOL     OW12115   2.850   4.095   0.702
 3739SOL    HW112116   2.785   4.165   0.731
 3739SOL    HW212117   2.878   4.040   0.780
 3740SOL     OW12118   5.018   5.147   6.391
 3740SOL    HW112119   5.021   5.062   6.338
 3740SOL    HW212120   4.969   5.217   6.340
 3741SOL     OW12121   5.020   3.662   0.098
 3741SOL    HW112122   5.089   3.679   0.168
 3741SOL    HW212123   4.997   3.565   0.096
 3742SOL     OW12124   4.034   5.339   0.131
 3742SOL    HW112125   3.946   5.343   0.177
 3742SOL    HW212126   4.037   5.261   0.069
 3743SOL     OW12127   4.315   3.272   1.625
 3743SOL    HW112128   4.319   3.368   1.652
 3743SOL    HW212129   4.307   3.265   1.526
 3744SOL     OW12130   0.662   0.079   2.359
 3744SOL    HW112131   0.635   0.172   2.383
 3744SOL    HW212132   0.602   0.014   2.406
 3745SOL     OW12133   4.814   3.992   2.080
 3745SOL    HW112134   4.830   4.089   2.062
 3745SOL    HW212135   4.725   3.981   2.125
 3746SOL     OW12136   6.224   0.271   4.500
 3746SOL    HW112137   6.238   0.207   4.576
 3746SOL    HW212138   6.183   0.222   4.423
 3747SOL     OW12139   3.472   6.580   5.988
 3747SOL    HW112140   3.452   6.669   5.949
 3747SOL    HW212141   3.560   6.546   5.955
 3748SOL     OW12142   5.537   1.528   2.936
 3748SOL    HW112143   5.633   1.513   2.961
 3748SOL    HW212144   5.482   1.452   2.970
 3749SOL     OW12145   6.989   6.615   2.946
 3749SOL    HW112146   7.007   6.680   3.019
 3749SOL    HW212147   6.972   6.664   2.860
 3750SOL     OW12148   5.674   4.239   0.554
 3750SOL    HW112149   5.689   4.331   0.590
 3750SOL    HW212150   5.761   4.200   0.524
 3751SOL     OW12151   2.144   3.934   2.342
 3751SOL    HW112152   2.178   3.875   2.269
 3751SOL    HW212153   2.060   3.980   2.311
 3752SOL     OW12154   1.053   6.621   6.606
 3752SOL    HW112155   1.126   6.679   6.571
 3752SOL    HW212156   1.002   6.670   6.676
 3753SOL     OW12157   6.522   6.389   4.574
 3753SOL    HW112158   6.441   6.448   4.565
 3753SOL    HW212159   6.570   6.385   4.486
 3754SOL     OW12160   6.711   5.864   1.579
 3754SOL    HW112161   6.695   5.898   1.671
 3754SOL    HW212162   6.744   5.938   1.521
 3755SOL     OW12163   5.298   4.156   3.637
 3755SOL    HW112164   5.256   4.071   3.605
 3755SOL    HW212165   5.308   4.154   3.737
 3756SOL     OW12166   2.979   0.735   6.791
 3756SOL    HW112167   3.019   0.810   6.738
 3756SOL    HW212168   2.927   0.772   6.868
 3757SOL     OW12169   2.997   5.770   6.495
 3757SOL    HW112170   3.037   5.679   6.483
 3757SOL    HW212171   2.913   5.777   6.442
 3758SOL     OW12172   2.436   1.235   4.499
 3758SOL    HW112173   2.384   1.263   4.580
 3758SOL    HW212174   2.483   1.315   4.460
 3759SOL     OW12175   4.802   4.864   6.136
 3759SOL    HW112176   4.785   4.959   6.161
 3759SOL    HW212177   4.815   4.858   6.037
 3760SOL     OW12178   1.622   2.465   4.875
 3760SOL    HW112179   1.672   2.515   4.945
 3760SOL    HW212180   1.608   2.524   4.795
 3761SOL     OW12181   0.194   6.130   4.138
 3761SOL    HW112182   0.234   6.188   4.209
 3761SOL    HW212183   0.095   6.143   4.136
 3762SOL     OW12184   0.425   4.112   0.842
 3762SOL    HW112185   0.464   4.105   0.750
 3762SOL    HW212186   0.326   4.100   0.837
 3763SOL     OW12187   6.617   3.199   6.713
 3763SOL    HW112188   6.634   3.164   6.621
 3763SOL    HW212189   6.534   3.254   6.713
 3764SOL     OW12190   2.499   6.615   3.412
 3764SOL    HW112191   2.576   6.553   3.394
 3764SOL    HW212192   2.445   6.579   3.489
 3765SOL     OW12193   5.690   0.696   4.209
 3765SOL    HW112194   5.735   0.701   4.299
 3765SOL    HW212195   5.758   0.679   4.138
 3766SOL     OW12196   1.183   0.669   4.511
 3766SOL    HW112197   1.158   0.678   4.414
 3766SOL    HW212198   1.196   0.760   4.550
 3767SOL     OW12199   1.749   5.171   0.917
 3767SOL    HW112200   1.843   5.204   0.904
 3767SOL    HW212201   1.724   5.179   1.014
 3768SOL     OW12202   5.096   6.456   0.108
 3768SOL    HW112203   5.094   6.366   0.151
 3768SOL    HW212204   5.049   6.522   0.168
 3769SOL     OW12205   4.759   6.348   5.522
 3769SOL    HW112206   4.797   6.308   5.438
 3769SOL    HW212207   4.753   6.448   5.510
 3770SOL     OW12208   2.181   1.661   6.642
 3770SOL    HW112209   2.096   1.648   6.592
 3770SOL    HW212210   2.180   1.751   6.687
 3771SOL     OW12211   5.380   2.412   5.901
 3771SOL    HW112212   5.309   2.387   5.835
 3771SOL    HW212213   5.444   2.336   5.911
 3772SOL     OW12214   5.805   1.240   1.698
 3772SOL    HW112215   5.802   1.315   1.633
 3772SOL    HW212216   5.794   1.275   1.791
 3773SOL     OW12217   6.645   2.535   6.244
 3773SOL    HW112218   6.627   2.556   6.341
 3773SOL    HW212219   6.626   2.616   6.189
 3774SOL     OW12220   0.376   0.572   1.124
 3774SOL    HW112221   0.394   0.671   1.123
 3774SOL    HW212222   0.286   0.555   1.164
 3775SOL     OW12223   5.951   3.831   4.051
 3775SOL    HW112224   5.897   3.903   4.095
 3775SOL    HW212225   5.891   3.759   4.017
 3776SOL     OW12226   2.371   3.135   0.985
 3776SOL    HW112227   2.310   3.085   0.924
 3776SOL    HW212228   2.385   3.228   0.950
 3777SOL     OW12229   2.186   4.311   4.275
 3777SOL    HW112230   2.227   4.369   4.345
 3777SOL    HW212231   2.243   4.312   4.193
 3778SOL     OW12232   2.817   5.795   1.476
 3778SOL    HW112233   2.858   5.711   1.440
 3778SOL    HW212234   2.889   5.854   1.511
 3779SOL     OW12235   2.446   4.641   6.119
 3779SOL    HW112236   2.498   4.668   6.038
 3779SOL    HW212237   2.392   4.559   6.099
 3780SOL     OW12238   3.081   6.222   5.208
 3780SOL    HW112239   3.147   6.153   5.239
 3780SOL    HW212240   3.018   6.180   5.142
 3781SOL     OW12241   2.977   6.180   4.454
 3781SOL    HW112242   2.879   6.165   4.470
 3781SOL    HW212243   3.016   6.229   4.532
 3782SOL     OW12244   2.706   1.403   4.107
 3782SOL    HW112245   2.660   1.458   4.176
 3782SOL    HW212246   2.805   1.409   4.121
 3783SOL     OW12247   5.180   6.016   5.078
 3783SOL    HW112248   5.164   6.055   4.988
 3783SOL    HW212249   5.251   5.946   5.073
 3784SOL     OW12250   5.231   1.301   3.252
 3784SOL    HW112251   5.144   1.273   3.213
 3784SOL    HW212252   5.274   1.223   3.297
 3785SOL     OW12253   2.502   2.158   1.232
 3785SOL    HW112254   2.562   2.120   1.302
 3785SOL    HW212255   2.509   2.258   1.233
 3786SOL     OW12256   3.200   5.189   3.185
 3786SOL    HW112257   3.202   5.245   3.102
 3786SOL    HW212258   3.264   5.226   3.252
 3787SOL     OW12259   3.952   1.299   3.503
 3787SOL    HW112260   3.919   1.273   3.412
 3787SOL    HW212261   3.886   1.360   3.546
 3788SOL     OW12262   5.619   2.976   2.663
 3788SOL    HW112263   5.668   3.041   2.721
 3788SOL    HW212264   5.630   2.884   2.701
 3789SOL     OW12265   1.772   5.384   3.526
 3789SOL    HW112266   1.775   5.303   3.467
 3789SOL    HW212267   1.856   5.388   3.581
 3790SOL     OW12268   2.197   3.134   4.001
 3790SOL    HW112269   2.228   3.041   4.019
 3790SOL    HW212270   2.196   3.186   4.086
 3791SOL     OW12271   4.601   6.922   1.283
 3791SOL    HW112272   4.633   6.960   1.370
 3791SOL    HW212273   4.539   6.987   1.240
 3792SOL     OW12274   6.330   6.709   5.487
 3792SOL    HW112275   6.287   6.620   5.473
 3792SOL    HW212276   6.272   6.781   5.449
 3793SOL     OW12277   2.104   1.303   2.975
 3793SOL    HW112278   2.012   1.266   2.990
 3793SOL    HW212279   2.157   1.296   3.059
 3794SOL     OW12280   4.656   5.913   1.840
 3794SOL    HW112281   4.755   5.926   1.832
 3794SOL    HW212282   4.611   6.003   1.843
 3795SOL     OW12283   5.501   6.616   6.536
 3795SOL    HW112284   5.439   6.604   6.458
 3795SOL    HW212285   5.474   6.699   6.586
 3796SOL     OW12286   1.650   2.765   1.764
 3796SOL    HW112287   1.691   2.856   1.761
 3796SOL    HW212288   1.594   2.751   1.683
 3797SOL     OW12289   0.855   4.833   3.044
 3797SOL    HW112290   0.850   4.931   3.062
 3797SOL    HW212291   0.919   4.815   2.969
 3798SOL     OW12292   1.823   5.278   2.324
 3798SOL    HW112293   1.911   5.260   2.368
 3798SOL    HW212294   1.838   5.296   2.226
 3799SOL     OW12295   1.676   0.696   5.227
 3799SOL    HW112296   1.639   0.680   5.319
 3799SOL    HW212297   1.733   0.619   5.200
 3800SOL     OW12298   4.344   2.385   4.345
 3800SOL    HW112299   4.252   2.361   4.374
 3800SOL    HW212300   4.388   2.442   4.414
 3801SOL     OW12301   0.007   6.518   5.812
 3801SOL    HW112302   0.094   6.557   5.843
 3801SOL    HW212303   7.016   6.536   5.714
 3802SOL     OW12304   1.112   1.680   5.381
 3802SOL    HW112305   1.181   1.615   5.350
 3802SOL    HW212306   1.087   1.741   5.305
 3803SOL     OW12307   3.450   0.993   1.734
 3803SOL    HW112308   3.446   1.050   1.816
 3803SOL    HW212309   3.452   1.051   1.653
 3804SOL     OW12310   4.892   2.465   4.286
 3804SOL    HW112311   4.980   2.426   4.312
 3804SOL    HW212312   4.820   2.399   4.304
 3805SOL     OW12313   2.746   4.186   1.694
 3805SOL    HW112314   2.800   4.194   1.777
 3805SOL    HW212315   2.649   4.199   1.715
 3806SOL     OW12316   2.591   2.098   0.173
 3806SOL    HW112317   2.572   2.004   0.145
 3806SOL    HW212318   2.564   2.161   0.100
 3807SOL     OW12319   1.637   6.573   3.551
 3807SOL    HW112320   1.544   6.607   3.541
 3807SOL    HW212321   1.691   6.639   3.604
 3808SOL     OW12322   3.574   0.140   1.629
 3808SOL    HW112323   3.521   0.224   1.635
 3808SOL    HW212324   3.555   0.083   1.709
 3809SOL     OW12325   5.829   1.090   6.845
 3809SOL    HW112326   5.799   1.024   6.776
 3809SOL    HW212327   5.765   1.089   6.922
 3810SOL     OW12328   3.121   2.982   5.077
 3810SOL    HW112329   3.137   3.024   4.987
 3810SOL    HW212330   3.188   2.910   5.093
 3811SOL     OW12331   0.573   5.017   4.975
 3811SOL    HW112332   0.623   5.051   4.896
 3811SOL    HW212333   0.560   5.091   5.041
 3812SOL     OW12334   5.635   1.732   5.369
 3812SOL    HW112335   5.725   1.770   5.347
 3812SOL    HW212336   5.570   1.807   5.381
 3813SOL     OW12337   3.168   5.410   0.279
 3813SOL    HW112338   3.157   5.316   0.247
 3813SOL    HW212339   3.241   5.454   0.227
 3814SOL     OW12340   0.135   6.011   2.313
 3814SOL    HW112341   0.208   6.018   2.382
 3814SOL    HW212342   0.173   5.974   2.228
 3815SOL     OW12343   5.266   1.899   1.736
 3815SOL    HW112344   5.250   1.812   1.781
 3815SOL    HW212345   5.180   1.934   1.698
 3816SOL     OW12346   1.058   0.308   1.504
 3816SOL    HW112347   1.131   0.250   1.468
 3816SOL    HW212348   1.095   0.366   1.577
 3817SOL     OW12349   4.785   2.159   5.000
 3817SOL    HW112350   4.751   2.104   5.077
 3817SOL    HW212351   4.852   2.225   5.034
 3818SOL     OW12352   4.683   5.476   1.536
 3818SOL    HW112353   4.614   5.501   1.603
 3818SOL    HW212354   4.747   5.411   1.577
 3819SOL     OW12355   5.247   5.088   0.496
 3819SOL    HW112356   5.249   5.143   0.579
 3819SOL    HW212357   5.176   5.122   0.434
 3820SOL     OW12358   4.885   6.239   4.679
 3820SOL    HW112359   4.912   6.325   4.638
 3820SOL    HW212360   4.814   6.196   4.624
 3821SOL     OW12361   1.437   3.827   2.060
 3821SOL    HW112362   1.475   3.769   2.132
 3821SOL    HW212363   1.342   3.801   2.042
 3822SOL     OW12364   2.878   5.870   1.202
 3822SOL    HW112365   2.860   5.952   1.256
 3822SOL    HW212366   2.962   5.826   1.234
 3823SOL     OW12367   3.071   3.019   5.842
 3823SOL    HW112368   3.043   2.932   5.802
 3823SOL    HW212369   3.031   3.095   5.790
 3824SOL     OW12370   0.114   2.080   5.890
 3824SOL    HW112371   0.174   2.101   5.813
 3824SOL    HW212372   0.035   2.141   5.889
 3825SOL     OW12373   6.718   6.459   6.510
 3825SOL    HW112374   6.732   6.361   6.497
 3825SOL    HW212375   6.807   6.504   6.517
 3826SOL     OW12376   6.681   3.291   1.872
 3826SOL    HW112377   6.655   3.381   1.839
 3826SOL    HW212378   6.685   3.227   1.796
 3827SOL     OW12379   4.222   3.104   0.919
 3827SOL    HW112380   4.237   3.010   0.948
 3827SOL    HW212381   4.200   3.160   0.999
 3828SOL     OW12382   4.524   1.444   2.800
 3828SOL    HW112383   4.458   1.473   2.731
 3828SOL    HW212384   4.507   1.494   2.885
 3829SOL     OW12385   2.301   4.924   4.399
 3829SOL    HW112386   2.279   4.827   4.396
 3829SOL    HW212387   2.264   4.970   4.318
 3830SOL     OW12388   2.762   0.874   4.927
 3830SOL    HW112389   2.811   0.808   4.871
 3830SOL    HW212390   2.667   0.844   4.940
 3831SOL     OW12391   3.560   1.818   2.247
 3831SOL    HW112392   3.582   1.914   2.230
 3831SOL    HW212393   3.644   1.765   2.256
 3832SOL     OW12394   6.857   0.732   2.147
 3832SOL    HW112395   6.894   0.825   2.140
 3832SOL    HW212396   6.845   0.694   2.055
 3833SOL     OW12397   1.531   4.603   0.084
 3833SOL    HW112398   1.508   4.637   0.175
 3833SOL    HW212399   1.462   4.536   0.056
 3834SOL     OW12400   2.776   1.963   6.987
 3834SOL    HW112401   2.822   1.963   6.898
 3834SOL    HW212402   2.743   2.055   7.008
 3835SOL     OW12403   3.763   4.881   5.198
 3835SOL    HW112404   3.800   4.833   5.277
 3835SOL    HW212405   3.690   4.942   5.227
 3836SOL     OW12406   0.889   4.032   6.367
 3836SOL    HW112407   0.832   3.954   6.341
 3836SOL    HW212408   0.985   4.009   6.355
 3837SOL     OW12409   3.851   3.297   0.760
 3837SOL    HW112410   3.877   3.209   0.799
 3837SOL    HW212411   3.813   3.283   0.669
 3838SOL     OW12412   6.065   3.011   5.064
 3838SOL    HW112413   5.986   3.067   5.090
 3838SOL    HW212414   6.034   2.926   5.022
 3839SOL     OW12415   5.931   6.390   5.594
 3839SOL    HW112416   5.986   6.316   5.634
 3839SOL    HW212417   5.870   6.427   5.665
 3840SOL     OW12418   1.547   1.226   4.143
 3840SOL    HW112419   1.647   1.227   4.139
 3840SOL    HW212420   1.514   1.131   4.137
 3841SOL     OW12421   0.689   3.786   5.110
 3841SOL    HW112422   0.787   3.804   5.106
 3841SOL    HW212423   0.652   3.787   5.017
 3842SOL     OW12424   0.848   4.750   6.944
 3842SOL    HW112425   0.848   4.650   6.952
 3842SOL    HW212426   0.895   4.789   0.002
 3843SOL     OW12427   5.790   3.098   0.925
 3843SOL    HW112428   5.879   3.051   0.926
 3843SOL    HW212429   5.779   3.149   1.011
 3844SOL     OW12430   2.027   4.667   6.314
 3844SOL    HW112431   1.952   4.692   6.375
 3844SOL    HW212432   1.989   4.621   6.233
 3845SOL     OW12433   3.625   4.130   3.974
 3845SOL    HW112434   3.536   4.145   3.930
 3845SOL    HW212435   3.697   4.131   3.904
 3846SOL     OW12436   0.192   4.708   5.082
 3846SOL    HW112437   0.101   4.736   5.114
 3846SOL    HW212438   0.184   4.660   4.995
 3847SOL     OW12439   0.707   0.065   0.256
 3847SOL    HW112440   0.687   0.151   0.301
 3847SOL    HW212441   0.629   0.003   0.265
 3848SOL     OW12442   2.650   5.271   1.071
 3848SOL    HW112443   2.745   5.248   1.089
 3848SOL    HW212444   2.616   5.331   1.143
 3849SOL     OW12445   1.037   2.022   5.784
 3849SOL    HW112446   1.070   2.086   5.853
 3849SOL    HW212447   1.103   1.946   5.775
 3850SOL     OW12448   3.000   3.887   1.433
 3850SOL    HW112449   2.926   3.879   1.499
 3850SOL    HW212450   3.059   3.964   1.457
 3851SOL     OW12451   2.567   2.395   2.268
 3851SOL    HW112452   2.558   2.297   2.287
 3851SOL    HW212453   2.566   2.447   2.353
 3852SOL     OW12454   3.908   0.886   4.698
 3852SOL    HW112455   3.955   0.800   4.712
 3852SOL    HW212456   3.935   0.951   4.769
 3853SOL     OW12457   1.283   3.154   1.658
 3853SOL    HW112458   1.245   3.224   1.719
 3853SOL    HW212459   1.232   3.154   1.572
 3854SOL     OW12460   1.413   3.569   4.231
 3854SOL    HW112461   1.442   3.572   4.135
 3854SOL    HW212462   1.350   3.492   4.244
 3855SOL     OW12463   6.864   2.220   5.526
 3855SOL    HW112464   6.785   2.238   5.467
 3855SOL    HW212465   6.947   2.253   5.481
 3856SOL     OW12466   0.554   5.875   6.124
 3856SOL    HW112467   0.605   5.957   6.149
 3856SOL    HW212468   0.617   5.797   6.119
 3857SOL     OW12469   0.541   6.771   5.208
 3857SOL    HW112470   0.479   6.751   5.283
 3857SOL    HW212471   0.635   6.770   5.242
 3858SOL     OW12472   2.590   5.469   0.020
 3858SOL    HW112473   2.668   5.476   0.082
 3858SOL    HW212474   2.554   5.560   0.000
 3859SOL     OW12475   0.477   2.757   2.418
 3859SOL    HW112476   0.551   2.737   2.353
 3859SOL    HW212477   0.392   2.772   2.367
 3860SOL     OW12478   2.228   6.809   5.476
 3860SOL    HW112479   2.304   6.863   5.440
 3860SOL    HW212480   2.148   6.820   5.416
 3861SOL     OW12481   4.152   4.237   0.848
 3861SOL    HW112482   4.057   4.216   0.871
 3861SOL    HW212483   4.166   4.336   0.853
 3862SOL     OW12484   1.307   6.207   6.219
 3862SOL    HW112485   1.392   6.156   6.230
 3862SOL    HW212486   1.268   6.188   6.130
 3863SOL     OW12487   3.333   3.337   1.590
 3863SOL    HW112488   3.280   3.416   1.559
 3863SOL    HW212489   3.272   3.260   1.607
 3864SOL     OW12490   3.553   2.466   0.134
 3864SOL    HW112491   3.563   2.379   0.086
 3864SOL    HW212492   3.607   2.536   0.088
 3865SOL     OW12493   4.976   0.225   2.680
 3865SOL    HW112494   4.971   0.297   2.750
 3865SOL    HW212495   4.908   0.154   2.701
 3866SOL     OW12496   4.218   6.698   6.773
 3866SOL    HW112497   4.157   6.741   6.707
 3866SOL    HW212498   4.289   6.646   6.726
 3867SOL     OW12499   1.798   3.140   3.854
 3867SOL    HW112500   1.751   3.065   3.901
 3867SOL    HW212501   1.895   3.138   3.878
 3868SOL     OW12502   1.797   5.747   2.431
 3868SOL    HW112503   1.727   5.781   2.495
 3868SOL    HW212504   1.884   5.791   2.451
 3869SOL     OW12505   0.941   2.821   3.698
 3869SOL    HW112506   0.909   2.789   3.609
 3869SOL    HW212507   0.869   2.876   3.742
 3870SOL     OW12508   3.061   5.090   0.427
 3870SOL    HW112509   2.994   5.017   0.440
 3870SOL    HW212510   3.081   5.100   0.330
 3871SOL     OW12511   2.610   0.642   3.838
 3871SOL    HW112512   2.688   0.623   3.778
 3871SOL    HW212513   2.525   0.628   3.788
 3872SOL     OW12514   4.072   3.548   0.264
 3872SOL    HW112515   4.095   3.591   0.176
 3872SOL    HW212516   4.123   3.463   0.274
 3873SOL     OW12517   5.271   5.082   2.101
 3873SOL    HW112518   5.197   5.093   2.034
 3873SOL    HW212519   5.241   5.119   2.189
 3874SOL     OW12520   4.327   6.556   6.107
 3874SOL    HW112521   4.318   6.649   6.142
 3874SOL    HW212522   4.291   6.492   6.174
 3875SOL     OW12523   2.066   4.448   0.450
 3875SOL    HW112524   2.108   4.539   0.461
 3875SOL    HW212525   2.136   4.384   0.418
 3876SOL     OW12526   4.836   3.913   2.509
 3876SOL    HW112527   4.902   3.848   2.472
 3876SOL    HW212528   4.823   3.988   2.444
 3877SOL     OW12529   5.365   1.342   2.093
 3877SOL    HW112530   5.448   1.326   2.039
 3877SOL    HW212531   5.391   1.369   2.186
 3878SOL     OW12532   3.247   6.011   5.264
 3878SOL    HW112533   3.292   5.972   5.184
 3878SOL    HW212534   3.178   5.946   5.298
 3879SOL     OW12535   4.028   6.321   1.225
 3879SOL    HW112536   3.957   6.254   1.207
 3879SOL    HW212537   4.118   6.280   1.208
 3880SOL     OW12538   5.381   3.012   3.977
 3880SOL    HW112539   5.362   2.947   4.051
 3880SOL    HW212540   5.444   2.970   3.912
 3881SOL     OW12541   1.085   4.731   1.085
 3881SOL    HW112542   1.170   4.750   1.036
 3881SOL    HW212543   1.019   4.803   1.067
 3882SOL     OW12544   0.321   0.189   6.471
 3882SOL    HW112545   0.315   0.099   6.428
 3882SOL    HW212546   0.369   0.252   6.409
 3883SOL     OW12547   3.016   0.743   5.854
 3883SOL    HW112548   2.930   0.761   5.902
 3883SOL    HW212549   3.054   0.656   5.887
 3884SOL     OW12550   1.915   4.673   5.885
 3884SOL    HW112551   1.855   4.674   5.805
 3884SOL    HW212552   1.881   4.607   5.952
 3885SOL     OW12553   0.559   1.399   4.360
 3885SOL    HW112554   0.551   1.382   4.262
 3885SOL    HW212555   0.655   1.394   4.388
 3886SOL     OW12556   6.775   5.961   5.243
 3886SOL    HW112557   6.809   6.050   5.273
 3886SOL    HW212558   6.774   5.898   5.321
 3887SOL     OW12559   4.864   2.577   5.367
 3887SOL    HW112560   4.890   2.504   5.304
 3887SOL    HW212561   4.945   2.613   5.412
 3888SOL     OW12562   5.744   2.055   1.462
 3888SOL    HW112563   5.751   2.110   1.546
 3888SOL    HW212564   5.718   2.114   1.386
 3889SOL     OW12565   0.208   5.766   6.670
 3889SOL    HW112566   0.216   5.685   6.611
 3889SOL    HW212567   0.120   5.763   6.718
 3890SOL     OW12568   5.917   3.673   1.708
 3890SOL    HW112569   5.821   3.648   1.715
 3890SOL    HW212570   5.974   3.591   1.711
 3891SOL     OW12571   5.845   4.875   5.799
 3891SOL    HW112572   5.752   4.905   5.779
 3891SOL    HW212573   5.844   4.805   5.870
 3892SOL     OW12574   5.204   6.642   4.014
 3892SOL    HW112575   5.216   6.709   3.941
 3892SOL    HW212576   5.139   6.678   4.081
 3893SOL     OW12577   2.997   6.169   4.051
 3893SOL    HW112578   2.921   6.204   3.996
 3893SOL    HW212579   3.078   6.159   3.993
 3894SOL     OW12580   5.118   4.820   0.040
 3894SOL    HW112581   5.138   4.762   0.119
 3894SOL    HW212582   5.196   4.818   6.998
 3895SOL     OW12583   1.817   2.111   5.869
 3895SOL    HW112584   1.904   2.091   5.823
 3895SOL    HW212585   1.747   2.130   5.800
 3896SOL     OW12586   6.878   2.214   5.818
 3896SOL    HW112587   6.871   2.313   5.831
 3896SOL    HW212588   6.846   2.190   5.726
 3897SOL     OW12589   3.534   6.290   2.286
 3897SOL    HW112590   3.598   6.215   2.268
 3897SOL    HW212591   3.567   6.344   2.362
 3898SOL     OW12592   3.634   4.091   4.618
 3898SOL    HW112593   3.731   4.114   4.612
 3898SOL    HW212594   3.601   4.060   4.529
 3899SOL     OW12595   5.133   1.507   5.038
 3899SOL    HW112596   5.228   1.498   5.009
 3899SOL    HW212597   5.080   1.548   4.963
 3900SOL     OW12598   6.819   2.263   3.884
 3900SOL    HW112599   6.839   2.272   3.786
 3900SOL    HW212600   6.720   2.258   3.898
 3901SOL     OW12601   2.669   5.793   5.056
 3901SOL    HW112602   2.688   5.747   5.143
 3901SOL    HW212603   2.704   5.738   4.981
 3902SOL     OW12604   3.849   4.855   1.573
 3902SOL    HW112605   3.795   4.907   1.639
 3902SOL    HW212606   3.855   4.760   1.602
 3903SOL     OW12607   3.947   2.825   6.096
 3903SOL    HW112608   4.002   2.899   6.136
 3903SOL    HW212609   4.007   2.755   6.058
 3904SOL     OW12610   2.063   6.376   0.492
 3904SOL    HW112611   2.045   6.393   0.396
 3904SOL    HW212612   2.107   6.456   0.533
 3905SOL     OW12613   0.282   0.304   5.224
 3905SOL    HW112614   0.210   0.367   5.251
 3905SOL    HW212615   0.330   0.270   5.305
 3906SOL     OW12616   0.754   5.550   5.059
 3906SOL    HW112617   0.827   5.540   5.127
 3906SOL    HW212618   0.666   5.526   5.101
 3907SOL     OW12619   1.202   1.142   4.776
 3907SOL    HW112620   1.230   1.238   4.774
 3907SOL    HW212621   1.103   1.135   4.764
 3908SOL     OW12622   2.178   0.751   4.468
 3908SOL    HW112623   2.175   0.754   4.368
 3908SOL    HW212624   2.111   0.685   4.502
 3909SOL     OW12625   5.612   2.395   1.364
 3909SOL    HW112626   5.677   2.363   1.434
 3909SOL    HW212627   5.560   2.472   1.400
 3910SOL     OW12628   3.376   2.996   1.296
 3910SOL    HW112629   3.396   3.056   1.218
 3910SOL    HW212630   3.434   3.023   1.373
 3911SOL     OW12631   6.518   0.835   1.283
 3911SOL    HW112632   6.531   0.908   1.216
 3911SOL    HW212633   6.477   0.755   1.238
 3912SOL     OW12634   4.396   3.267   6.921
 3912SOL    HW112635   4.436   3.224   6.840
 3912SOL    HW212636   4.337   3.202   6.968
 3913SOL     OW12637   4.338   5.727   1.030
 3913SOL    HW112638   4.364   5.699   0.937
 3913SOL    HW212639   4.406   5.791   1.066
 3914SOL     OW12640   6.414   1.371   6.852
 3914SOL    HW112641   6.344   1.433   6.887
 3914SOL    HW212642   6.469   1.335   6.927
 3915SOL     OW12643   4.857   5.752   5.528
 3915SOL    HW112644   4.837   5.656   5.506
 3915SOL    HW212645   4.791   5.785   5.596
 3916SOL     OW12646   2.369   1.839   2.623
 3916SOL    HW112647   2.369   1.799   2.714
 3916SOL    HW212648   2.319   1.926   2.625
 3917SOL     OW12649   3.618   4.719   1.047
 3917SOL    HW112650   3.565   4.685   1.125
 3917SOL    HW212651   3.613   4.819   1.045
 3918SOL     OW12652   4.776   1.012   6.805
 3918SOL    HW112653   4.788   1.111   6.809
 3918SOL    HW212654   4.817   0.970   6.886
 3919SOL     OW12655   4.616   6.088   2.244
 3919SOL    HW112656   4.533   6.107   2.190
 3919SOL    HW212657   4.618   5.992   2.268
 3920SOL     OW12658   3.646   1.686   5.390
 3920SOL    HW112659   3.577   1.716   5.324
 3920SOL    HW212660   3.601   1.661   5.476
 3921SOL     OW12661   0.040   2.978   6.655
 3921SOL    HW112662   7.015   3.041   6.717
 3921SOL    HW212663   7.003   2.897   6.640
 3922SOL     OW12664   4.780   4.065   3.020
 3922SOL    HW112665   4.702   4.002   3.012
 3922SOL    HW212666   4.746   4.156   3.041
 3923SOL     OW12667   5.263   1.623   2.053
 3923SOL    HW112668   5.316   1.539   2.048
 3923SOL    HW212669   5.246   1.647   2.149
 3924SOL     OW12670   5.880   5.259   3.832
 3924SOL    HW112671   5.838   5.333   3.779
 3924SOL    HW212672   5.878   5.175   3.778
 3925SOL     OW12673   5.286   5.003   0.966
 3925SOL    HW112674   5.335   4.930   1.013
 3925SOL    HW212675   5.194   5.012   1.005
 3926SOL     OW12676   0.783   5.450   4.802
 3926SOL    HW112677   0.745   5.496   4.882
 3926SOL    HW212678   0.865   5.497   4.772
 3927SOL     OW12679   5.662   1.794   6.234
 3927SOL    HW112680   5.695   1.783   6.140
 3927SOL    HW212681   5.605   1.716   6.260
 3928SOL     OW12682   3.422   5.854   1.867
 3928SOL    HW112683   3.460   5.929   1.813
 3928SOL    HW212684   3.497   5.796   1.901
 3929SOL     OW12685   0.788   1.916   5.443
 3929SOL    HW112686   0.781   1.897   5.345
 3929SOL    HW212687   0.736   1.999   5.465
 3930SOL     OW12688   2.490   4.515   3.912
 3930SOL    HW112689   2.413   4.572   3.886
 3930SOL    HW212690   2.461   4.450   3.982
 3931SOL     OW12691   2.049   2.569   0.726
 3931SOL    HW112692   2.146   2.573   0.702
 3931SOL    HW212693   2.040   2.553   0.825
 3932SOL     OW12694   2.428   4.432   3.636
 3932SOL    HW112695   2.447   4.440   3.734
 3932SOL    HW212696   2.472   4.507   3.588
 3933SOL     OW12697   1.481   6.361   1.271
 3933SOL    HW112698   1.519   6.333   1.359
 3933SOL    HW212699   1.389   6.397   1.284
 3934SOL     OW12700   1.143   6.960   1.531
 3934SOL    HW112701   1.238   6.930   1.540
 3934SOL    HW212702   1.121   0.003   1.605
 3935SOL     OW12703   6.670   3.940   5.223
 3935SOL    HW112704   6.576   3.956   5.195
 3935SOL    HW212705   6.684   3.975   5.315
 3936SOL     OW12706   6.662   4.152   5.505
 3936SOL    HW112707   6.618   4.114   5.587
 3936SOL    HW212708   6.597   4.152   5.430
 3937SOL     OW12709   0.769   6.194   1.537
 3937SOL    HW112710   0.713   6.276   1.549
 3937SOL    HW212711   0.776   6.172   1.440
 3938SOL     OW12712   0.990   3.399   1.621
 3938SOL    HW112713   0.960   3.470   1.557
 3938SOL    HW212714   0.946   3.312   1.598
 3939SOL     OW12715   0.510   0.908   2.932
 3939SOL    HW112716   0.529   1.005   2.942
 3939SOL    HW212717   0.594   0.855   2.948
 3940SOL     OW12718   3.041   6.436   0.521
 3940SOL    HW112719   3.126   6.386   0.502
 3940SOL    HW212720   2.970   6.371   0.547
 3941SOL     OW12721   5.368   5.558   1.784
 3941SOL    HW112722   5.275   5.522   1.791
 3941SOL    HW212723   5.407   5.533   1.696
 3942SOL     OW12724   6.700   6.024   5.736
 3942SOL    HW112725   6.645   5.978   5.667
 3942SOL    HW212726   6.760   6.090   5.692
 3943SOL     OW12727   2.154   3.141   0.572
 3943SOL    HW112728   2.113   3.060   0.529
 3943SOL    HW212729   2.175   3.209   0.502
 3944SOL     OW12730   4.899   2.773   6.906
 3944SOL    HW112731   4.886   2.692   6.963
 3944SOL    HW212732   4.956   2.750   6.827
 3945SOL     OW12733   5.380   0.241   4.050
 3945SOL    HW112734   5.381   0.264   4.148
 3945SOL    HW212735   5.457   0.181   4.029
 3946SOL     OW12736   0.146   3.683   0.879
 3946SOL    HW112737   0.189   3.761   0.925
 3946SOL    HW212738   0.099   3.715   0.797
 3947SOL     OW12739   6.012   5.600   2.207
 3947SOL    HW112740   5.970   5.674   2.259
 3947SOL    HW212741   5.946   5.525   2.196
 3948SOL     OW12742   1.634   2.580   6.026
 3948SOL    HW112743   1.646   2.650   5.956
 3948SOL    HW212744   1.555   2.523   6.003
 3949SOL     OW12745   6.046   0.081   2.609
 3949SOL    HW112746   6.045   0.005   2.674
 3949SOL    HW212747   5.952   0.106   2.586
 3950SOL     OW12748   2.804   4.724   1.727
 3950SOL    HW112749   2.821   4.689   1.819
 3950SOL    HW212750   2.827   4.653   1.660
 3951SOL     OW12751   0.585   2.566   4.540
 3951SOL    HW112752   0.532   2.648   4.522
 3951SOL    HW212753   0.629   2.573   4.629
 3952SOL     OW12754   5.429   4.233   0.418
 3952SOL    HW112755   5.462   4.140   0.402
 3952SOL    HW212756   5.487   4.277   0.487
 3953SOL     OW12757   3.410   3.185   6.792
 3953SOL    HW112758   3.317   3.182   6.754
 3953SOL    HW212759   3.419   3.265   6.851
 3954SOL     OW12760   0.925   3.121   5.489
 3954SOL    HW112761   0.861   3.196   5.507
 3954SOL    HW212762   0.896   3.040   5.538
 3955SOL     OW12763   6.765   3.580   0.616
 3955SOL    HW112764   6.754   3.633   0.700
 3955SOL    HW212765   6.674   3.554   0.582
 3956SOL     OW12766   6.909   2.476   5.811
 3956SOL    HW112767   6.910   2.543   5.737
 3956SOL    HW212768   6.972   2.504   5.883
 3957SOL     OW12769   1.001   1.547   3.143
 3957SOL    HW112770   0.916   1.586   3.177
 3957SOL    HW212771   1.036   1.479   3.208
 3958SOL     OW12772   5.530   6.226   6.918
 3958SOL    HW112773   5.512   6.139   6.873
 3958SOL    HW212774   5.518   6.215   7.017
 3959SOL     OW12775   2.181   6.183   1.248
 3959SOL    HW112776   2.101   6.196   1.306
 3959SOL    HW212777   2.234   6.105   1.281
 3960SOL     OW12778   5.188   3.433   1.493
 3960SOL    HW112779   5.121   3.372   1.535
 3960SOL    HW212780   5.141   3.507   1.445
 3961SOL     OW12781   5.698   0.511   0.728
 3961SOL    HW112782   5.667   0.569   0.803
 3961SOL    HW212783   5.619   0.472   0.680
 3962SOL     OW12784   0.912   6.750   5.507
 3962SOL    HW112785   0.876   6.722   5.596
 3962SOL    HW212786   1.007   6.777   5.518
 3963SOL     OW12787   4.614   4.991   2.698
 3963SOL    HW112788   4.523   5.014   2.731
 3963SOL    HW212789   4.607   4.922   2.625
 3964SOL     OW12790   6.090   6.354   6.309
 3964SOL    HW112791   6.130   6.446   6.303
 3964SOL    HW212792   6.163   6.286   6.304
 3965SOL     OW12793   4.018   2.806   0.855
 3965SOL    HW112794   4.114   2.832   0.857
 3965SOL    HW212795   4.000   2.738   0.926
 3966SOL     OW12796   6.177   3.907   5.482
 3966SOL    HW112797   6.259   3.933   5.431
 3966SOL    HW212798   6.145   3.817   5.451
 3967SOL     OW12799   1.727   6.993   6.616
 3967SOL    HW112800   1.664   7.013   6.691
 3967SOL    HW212801   1.676   6.969   6.534
 3968SOL     OW12802   5.567   0.536   1.779
 3968SOL    HW112803   5.518   0.622   1.790
 3968SOL    HW212804   5.517   0.464   1.827
 3969SOL     OW12805   1.230   6.289   1.557
 3969SOL    HW112806   1.244   6.387   1.569
 3969SOL    HW212807   1.150   6.260   1.609
 3970SOL     OW12808   4.772   4.117   4.028
 3970SOL    HW112809   4.777   4.122   4.128
 3970SOL    HW212810   4.805   4.028   3.998
 3971SOL     OW12811   1.108   5.995   3.455
 3971SOL    HW112812   1.109   6.094   3.468
 3971SOL    HW212813   1.151   5.973   3.368
 3972SOL     OW12814   1.172   0.505   6.765
 3972SOL    HW112815   1.090   0.545   6.805
 3972SOL    HW212816   1.250   0.566   6.781
 3973SOL     OW12817   3.319   2.953   3.391
 3973SOL    HW112818   3.370   2.901   3.323
 3973SOL    HW212819   3.383   3.001   3.452
 3974SOL     OW12820   5.401   0.300   6.344
 3974SOL    HW112821   5.417   0.201   6.351
 3974SOL    HW212822   5.339   0.318   6.268
 3975SOL     OW12823   6.777   6.364   5.544
 3975SOL    HW112824   6.829   6.315   5.614
 3975SOL    HW212825   6.810   6.459   5.539
 3976SOL     OW12826   1.217   3.141   6.720
 3976SOL    HW112827   1.280   3.199   6.772
 3976SOL    HW212828   1.255   3.049   6.714
 3977SOL     OW12829   3.667   5.365   6.031
 3977SOL    HW112830   3.586   5.321   5.992
 3977SOL    HW212831   3.639   5.444   6.085
 3978SOL     OW12832   6.236   3.965   6.457
 3978SOL    HW112833   6.263   3.902   6.530
 3978SOL    HW212834   6.172   4.032   6.494
 3979SOL     OW12835   1.218   6.733   3.045
 3979SOL    HW112836   1.227   6.821   2.999
 3979SOL    HW212837   1.121   6.711   3.054
 3980SOL     OW12838   4.975   3.528   4.787
 3980SOL    HW112839   4.961   3.432   4.762
 3980SOL    HW212840   4.920   3.549   4.868
 3981SOL     OW12841   6.373   2.075   5.406
 3981SOL    HW112842   6.288   2.031   5.378
 3981SOL    HW212843   6.358   2.122   5.493
 3982SOL     OW12844   2.427   2.683   3.893
 3982SOL    HW112845   2.332   2.662   3.870
 3982SOL    HW212846   2.454   2.631   3.974
 3983SOL     OW12847   3.697   0.155   3.576
 3983SOL    HW112848   3.613   0.103   3.592
 3983SOL    HW212849   3.684   0.249   3.608
 3984SOL     OW12850   1.773   0.292   1.373
 3984SOL    HW112851   1.851   0.280   1.312
 3984SOL    HW212852   1.803   0.335   1.458
 3985SOL     OW12853   2.096   3.063   1.594
 3985SOL    HW112854   2.101   3.081   1.692
 3985SOL    HW212855   2.066   3.145   1.546
 3986SOL     OW12856   1.509   2.456   2.089
 3986SOL    HW112857   1.439   2.504   2.142
 3986SOL    HW212858   1.565   2.400   2.150
 3987SOL     OW12859   1.416   4.201   5.714
 3987SOL    HW112860   1.406   4.102   5.727
 3987SOL    HW212861   1.350   4.232   5.647
 3988SOL     OW12862   4.879   1.280   6.897
 3988SOL    HW112863   4.871   1.361   6.956
 3988SOL    HW212864   4.932   1.303   6.816
 3989SOL     OW12865   4.129   0.281   6.234
 3989SOL    HW112866   4.175   0.205   6.186
 3989SOL    HW212867   4.035   0.256   6.253
 3990SOL     OW12868   1.350   2.724   4.070
 3990SOL    HW112869   1.343   2.782   4.151
 3990SOL    HW212870   1.445   2.725   4.037
 3991SOL     OW12871   0.707   1.127   3.949
 3991SOL    HW112872   0.642   1.187   3.995
 3991SOL    HW212873   0.668   1.035   3.941
 3992SOL     OW12874   5.711   3.867   6.639
 3992SOL    HW112875   5.765   3.844   6.721
 3992SOL    HW212876   5.617   3.888   6.666
 3993SOL     OW12877   1.449   0.618   3.996
 3993SOL    HW112878   1.434   0.681   4.072
 3993SOL    HW212879   1.444   0.669   3.910
 3994SOL     OW12880   2.636   2.030   3.212
 3994SOL    HW112881   2.628   1.967   3.135
 3994SOL    HW212882   2.548   2.039   3.257
 3995SOL     OW12883   1.302   3.374   2.440
 3995SOL    HW112884   1.250   3.324   2.371
 3995SOL    HW212885   1.270   3.347   2.531
 3996SOL     OW12886   5.898   6.430   3.956
 3996SOL    HW112887   5.884   6.529   3.944
 3996SOL    HW212888   5.963   6.398   3.887
 3997SOL     OW12889   4.899   3.581   2.697
 3997SOL    HW112890   4.861   3.597   2.606
 3997SOL    HW212891   4.877   3.660   2.756
 3998SOL     OW12892   5.777   2.588   2.853
 3998SOL    HW112893   5.788   2.587   2.753
 3998SOL    HW212894   5.706   2.655   2.878
 3999SOL     OW12895   4.774   2.538   1.424
 3999SOL    HW112896   4.681   2.574   1.421
 3999SOL    HW212897   4.819   2.568   1.509
 4000SOL     OW12898   3.117   5.110   2.379
 4000SOL    HW112899   3.061   5.122   2.297
 4000SOL    HW212900   3.160   5.019   2.377
 4001SOL     OW12901   1.104   5.043   4.307
 4001SOL    HW112902   1.078   4.959   4.354
 4001SOL    HW212903   1.023   5.085   4.266
 4002SOL     OW12904   3.748   4.106   3.481
 4002SOL    HW112905   3.838   4.066   3.497
 4002SOL    HW212906   3.702   4.122   3.568
 4003SOL     OW12907   1.691   1.088   5.423
 4003SOL    HW112908   1.772   1.105   5.479
 4003SOL    HW212909   1.636   1.015   5.464
 4004SOL     OW12910   0.854   3.894   3.430
 4004SOL    HW112911   0.877   3.975   3.485
 4004SOL    HW212912   0.765   3.908   3.386
 4005SOL     OW12913   4.742   3.041   0.112
 4005SOL    HW112914   4.825   2.995   0.144
 4005SOL    HW212915   4.685   3.066   0.191
 4006SOL     OW12916   5.261   5.529   2.951
 4006SOL    HW112917   5.273   5.434   2.922
 4006SOL    HW212918   5.198   5.533   3.029
 4007SOL     OW12919   0.051   0.997   2.944
 4007SOL    HW112920   0.127   0.941   2.911
 4007SOL    HW212921   0.033   1.071   2.880
 4008SOL     OW12922   3.600   0.981   0.633
 4008SOL    HW112923   3.529   0.993   0.701
 4008SOL    HW212924   3.640   0.890   0.641
 4009SOL     OW12925   4.869   1.926   0.615
 4009SOL    HW112926   4.850   1.867   0.537
 4009SOL    HW212927   4.918   1.874   0.685
 4010SOL     OW12928   3.100   5.222   1.933
 4010SOL    HW112929   3.024   5.255   1.877
 4010SOL    HW212930   3.064   5.164   2.007
 4011SOL     OW12931   5.196   6.103   6.604
 4011SOL    HW112932   5.161   6.136   6.692
 4011SOL    HW212933   5.129   6.123   6.532
 4012SOL     OW12934   4.790   6.451   2.844
 4012SOL    HW112935   4.732   6.372   2.823
 4012SOL    HW212936   4.759   6.530   2.791
 4013SOL     OW12937   0.242   1.112   6.069
 4013SOL    HW112938   0.319   1.073   6.120
 4013SOL    HW212939   0.240   1.211   6.081
 4014SOL     OW12940   3.113   5.005   2.748
 4014SOL    HW112941   3.119   4.911   2.713
 4014SOL    HW212942   3.054   5.059   2.688
 4015SOL     OW12943   4.224   4.889   5.984
 4015SOL    HW112944   4.312   4.880   6.031
 4015SOL    HW212945   4.188   4.798   5.962
 4016SOL     OW12946   4.045   5.092   5.313
 4016SOL    HW112947   4.037   5.038   5.229
 4016SOL    HW212948   4.002   5.043   5.388
 4017SOL     OW12949   0.669   4.597   5.584
 4017SOL    HW112950   0.659   4.682   5.637
 4017SOL    HW212951   0.699   4.523   5.645
 4018SOL     OW12952   4.661   6.179   1.582
 4018SOL    HW112953   4.661   6.247   1.509
 4018SOL    HW212954   4.635   6.090   1.545
 4019SOL     OW12955   5.175   3.403   3.192
 4019SOL    HW112956   5.258   3.458   3.184
 4019SOL    HW212957   5.195   3.320   3.245
 4020SOL     OW12958   6.754   5.546   4.433
 4020SOL    HW112959   6.708   5.459   4.414
 4020SOL    HW212960   6.812   5.571   4.356
 4021SOL     OW12961   4.395   3.460   6.637
 4021SOL    HW112962   4.417   3.362   6.631
 4021SOL    HW212963   4.296   3.472   6.633
 4022SOL     OW12964   2.326   0.616   1.738
 4022SOL    HW112965   2.395   0.572   1.682
 4022SOL    HW212966   2.240   0.564   1.732
 4023SOL     OW12967   0.440   1.254   5.119
 4023SOL    HW112968   0.409   1.314   5.045
 4023SOL    HW212969   0.391   1.275   5.203
 4024SOL     OW12970   0.807   6.041   4.494
 4024SOL    HW112971   0.738   6.099   4.537
 4024SOL    HW212972   0.763   5.961   4.454
 4025SOL     OW12973   0.305   5.497   3.837
 4025SOL    HW112974   0.345   5.557   3.907
 4025SOL    HW212975   0.377   5.441   3.796
 4026SOL     OW12976   6.689   0.049   3.832
 4026SOL    HW112977   6.712   0.088   3.921
 4026SOL    HW212978   6.730   6.979   3.824
 4027SOL     OW12979   2.558   3.886   6.114
 4027SOL    HW112980   2.473   3.918   6.072
 4027SOL    HW212981   2.632   3.891   6.047
 4028SOL     OW12982   4.572   1.734   3.308
 4028SOL    HW112983   4.595   1.671   3.382
 4028SOL    HW212984   4.552   1.824   3.346
 4029SOL     OW12985   2.114   5.731   6.887
 4029SOL    HW112986   2.063   5.692   6.810
 4029SOL    HW212987   2.188   5.788   6.853
 4030SOL     OW12988   6.787   1.359   2.760
 4030SOL    HW112989   6.710   1.405   2.716
 4030SOL    HW212990   6.798   1.393   2.853
 4031SOL     OW12991   6.002   6.377   0.889
 4031SOL    HW112992   6.093   6.357   0.926
 4031SOL    HW212993   5.938   6.306   0.916
 4032SOL     OW12994   5.334   0.939   1.979
 4032SOL    HW112995   5.273   0.902   2.049
 4032SOL    HW212996   5.422   0.893   1.984
 4033SOL     OW12997   1.441   2.764   2.862
 4033SOL    HW112998   1.436   2.801   2.955
 4033SOL    HW212999   1.447   2.839   2.797
 4034SOL     OW13000   0.266   3.314   5.260
 4034SOL    HW113001   0.189   3.369   5.292
 4034SOL    HW213002   0.347   3.372   5.252
 4035SOL     OW13003   4.740   1.739   2.112
 4035SOL    HW113004   4.769   1.729   2.017
 4035SOL    HW213005   4.665   1.805   2.117
 4036SOL     OW13006   2.411   5.547   2.620
 4036SOL    HW113007   2.490   5.607   2.629
 4036SOL    HW213008   2.331   5.589   2.663
 4037SOL     OW13009   2.595   1.085   6.396
 4037SOL    HW113010   2.594   1.061   6.299
 4037SOL    HW213011   2.581   1.183   6.407
 4038SOL     OW13012   3.618   3.683   5.634
 4038SOL    HW113013   3.637   3.645   5.725
 4038SOL    HW213014   3.681   3.759   5.617
 4039SOL     OW13015   6.085   4.790   1.384
 4039SOL    HW113016   6.173   4.835   1.402
 4039SOL    HW213017   6.085   4.699   1.426
 4040SOL     OW13018   3.042   6.245   4.913
 4040SOL    HW113019   3.062   6.172   4.979
 4040SOL    HW213020   3.127   6.287   4.883
 4041SOL     OW13021   2.349   6.409   0.663
 4041SOL    HW113022   2.408   6.329   0.667
 4041SOL    HW213023   2.269   6.395   0.722
 4042SOL     OW13024   6.199   1.127   3.328
 4042SOL    HW113025   6.298   1.134   3.319
 4042SOL    HW213026   6.173   1.152   3.421
 4043SOL     OW13027   5.474   3.280   0.008
 4043SOL    HW113028   5.383   3.262   6.993
 4043SOL    HW213029   5.477   3.261   0.106
 4044SOL     OW13030   4.563   5.496   2.684
 4044SOL    HW113031   4.541   5.428   2.754
 4044SOL    HW213032   4.493   5.493   2.612
 4045SOL     OW13033   4.768   0.335   5.621
 4045SOL    HW113034   4.850   0.280   5.604
 4045SOL    HW213035   4.763   0.357   5.718
 4046SOL     OW13036   6.025   2.001   2.661
 4046SOL    HW113037   6.043   2.098   2.648
 4046SOL    HW213038   6.107   1.955   2.694
 4047SOL     OW13039   2.701   3.421   7.015
 4047SOL    HW113040   2.718   3.333   0.038
 4047SOL    HW213041   2.686   3.490   0.066
 4048SOL     OW13042   4.561   1.666   2.550
 4048SOL    HW113043   4.506   1.712   2.480
 4048SOL    HW213044   4.517   1.581   2.577
 4049SOL     OW13045   4.033   4.310   6.487
 4049SOL    HW113046   4.087   4.226   6.493
 4049SOL    HW213047   3.955   4.304   6.549
 4050SOL     OW13048   0.728   5.714   2.497
 4050SOL    HW113049   0.760   5.623   2.524
 4050SOL    HW213050   0.790   5.783   2.535
 4051SOL     OW13051   5.662   0.989   5.316
 4051SOL    HW113052   5.710   0.965   5.232
 4051SOL    HW213053   5.574   1.031   5.293
 4052SOL     OW13054   6.262   2.282   3.885
 4052SOL    HW113055   6.217   2.212   3.830
 4052SOL    HW213056   6.349   2.247   3.921
 4053SOL     OW13057   1.045   5.318   4.394
 4053SOL    HW113058   0.950   5.323   4.425
 4053SOL    HW213059   1.053   5.250   4.321
 4054SOL     OW13060   4.405   3.860   0.626
 4054SOL    HW113061   4.395   3.886   0.530
 4054SOL    HW213062   4.446   3.935   0.676
 4055SOL     OW13063   0.531   4.608   1.124
 4055SOL    HW113064   0.524   4.672   1.048
 4055SOL    HW213065   0.441   4.594   1.164
 4056SOL     OW13066   5.498   3.367   0.947
 4056SOL    HW113067   5.512   3.287   0.889
 4056SOL    HW213068   5.399   3.386   0.954
 4057SOL     OW13069   6.734   3.063   0.066
 4057SOL    HW113070   6.718   3.159   0.091
 4057SOL    HW213071   6.820   3.032   0.105
 4058SOL     OW13072   2.592   6.403   5.699
 4058SOL    HW113073   2.530   6.467   5.745
 4058SOL    HW213074   2.544   6.358   5.624
 4059SOL     OW13075   1.060   1.772   4.289
 4059SOL    HW113076   1.125   1.752   4.216
 4059SOL    HW213077   1.110   1.805   4.369
 4060SOL     OW13078   6.321   5.864   5.677
 4060SOL    HW113079   6.317   5.815   5.764
 4060SOL    HW213080   6.231   5.904   5.657
 4061SOL     OW13081   1.970   5.870   0.945
 4061SOL    HW113082   2.012   5.960   0.930
 4061SOL    HW213083   1.893   5.859   0.883
 4062SOL     OW13084   1.454   2.222   1.455
 4062SOL    HW113085   1.475   2.126   1.474
 4062SOL    HW213086   1.501   2.280   1.522
 4063SOL     OW13087   5.273   1.233   0.191
 4063SOL    HW113088   5.234   1.142   0.190
 4063SOL    HW213089   5.312   1.254   0.101
 4064SOL     OW13090   2.120   2.208   5.376
 4064SOL    HW113091   2.154   2.299   5.350
 4064SOL    HW213092   2.084   2.161   5.295
 4065SOL     OW13093   2.307   6.692   0.933
 4065SOL    HW113094   2.245   6.615   0.922
 4065SOL    HW213095   2.295   6.756   0.857
 4066SOL     OW13096   0.268   4.415   3.646
 4066SOL    HW113097   0.218   4.375   3.722
 4066SOL    HW213098   0.273   4.349   3.571
 4067SOL     OW13099   4.692   4.956   1.518
 4067SOL    HW113100   4.668   4.884   1.583
 4067SOL    HW213101   4.637   5.037   1.536
 4068SOL     OW13102   1.855   2.807   5.240
 4068SOL    HW113103   1.906   2.891   5.222
 4068SOL    HW213104   1.876   2.773   5.332
 4069SOL     OW13105   4.204   0.099   6.776
 4069SOL    HW113106   4.267   0.050   6.835
 4069SOL    HW213107   4.244   0.107   6.684
 4070SOL     OW13108   1.802   3.075   3.574
 4070SOL    HW113109   1.775   3.164   3.536
 4070SOL    HW213110   1.812   3.083   3.673
 4071SOL     OW13111   0.708   0.559   3.833
 4071SOL    HW113112   0.631   0.615   3.803
 4071SOL    HW213113   0.709   0.554   3.933
 4072SOL     OW13114   2.116   5.697   3.344
 4072SOL    HW113115   2.195   5.636   3.338
 4072SOL    HW213116   2.037   5.654   3.301
 4073SOL     OW13117   2.975   4.872   0.144
 4073SOL    HW113118   3.021   4.960   0.131
 4073SOL    HW213119   2.879   4.888   0.167
 4074SOL     OW13120   1.157   6.108   2.903
 4074SOL    HW113121   1.216   6.182   2.870
 4074SOL    HW213122   1.213   6.027   2.922
 4075SOL     OW13123   6.161   0.868   0.434
 4075SOL    HW113124   6.065   0.842   0.427
 4075SOL    HW213125   6.214   0.821   0.364
 4076SOL     OW13126   2.906   3.645   5.072
 4076SOL    HW113127   2.929   3.738   5.043
 4076SOL    HW213128   2.838   3.649   5.145
 4077SOL     OW13129   3.109   1.277   1.699
 4077SOL    HW113130   3.180   1.344   1.722
 4077SOL    HW213131   3.023   1.325   1.680
 4078SOL     OW13132   2.652   4.665   2.777
 4078SOL    HW113133   2.579   4.597   2.781
 4078SOL    HW213134   2.680   4.678   2.681
 4079SOL     OW13135   1.052   2.048   4.612
 4079SOL    HW113136   0.961   2.090   4.605
 4079SOL    HW213137   1.121   2.120   4.611
 4080SOL     OW13138   6.022   1.329   4.876
 4080SOL    HW113139   5.952   1.400   4.889
 4080SOL    HW213140   6.110   1.362   4.909
 4081SOL     OW13141   1.746   3.342   3.484
 4081SOL    HW113142   1.801   3.409   3.534
 4081SOL    HW213143   1.727   3.376   3.392
 4082SOL     OW13144   0.815   2.648   1.480
 4082SOL    HW113145   0.863   2.659   1.393
 4082SOL    HW213146   0.876   2.607   1.547
 4083SOL     OW13147   5.752   2.617   5.063
 4083SOL    HW113148   5.748   2.521   5.038
 4083SOL    HW213149   5.665   2.645   5.105
 4084SOL     OW13150   0.555   1.319   4.099
 4084SOL    HW113151   0.523   1.381   4.027
 4084SOL    HW213152   0.476   1.273   4.141
 4085SOL     OW13153   3.377   6.735   0.176
 4085SOL    HW113154   3.318   6.815   0.166
 4085SOL    HW213155   3.437   6.747   0.256
 4086SOL     OW13156   1.684   4.321   0.798
 4086SOL    HW113157   1.637   4.408   0.816
 4086SOL    HW213158   1.768   4.339   0.747
 4087SOL     OW13159   1.976   1.811   2.917
 4087SOL    HW113160   1.988   1.716   2.889
 4087SOL    HW213161   1.963   1.814   3.016
 4088SOL     OW13162   6.378   1.645   1.243
 4088SOL    HW113163   6.385   1.664   1.145
 4088SOL    HW213164   6.431   1.712   1.294
 4089SOL     OW13165   1.154   0.580   4.128
 4089SOL    HW113166   1.237   0.561   4.180
 4089SOL    HW213167   1.102   0.496   4.117
 4090SOL     OW13168   2.194   4.396   6.260
 4090SOL    HW113169   2.210   4.395   6.161
 4090SOL    HW213170   2.260   4.457   6.304
 4091SOL     OW13171   4.320   6.036   0.586
 4091SOL    HW113172   4.245   6.028   0.653
 4091SOL    HW213173   4.304   5.972   0.511
 4092SOL     OW13174   0.402   2.788   4.813
 4092SOL    HW113175   0.390   2.836   4.726
 4092SOL    HW213176   0.395   2.689   4.797
 4093SOL     OW13177   5.557   0.365   3.759
 4093SOL    HW113178   5.573   0.304   3.837
 4093SOL    HW213179   5.549   0.459   3.793
 4094SOL     OW13180   1.928   4.181   5.316
 4094SOL    HW113181   2.008   4.138   5.275
 4094SOL    HW213182   1.867   4.212   5.243
 4095SOL     OW13183   1.079   3.240   6.135
 4095SOL    HW113184   1.033   3.272   6.218
 4095SOL    HW213185   1.014   3.190   6.077
 4096SOL     OW13186   4.244   4.379   0.213
 4096SOL    HW113187   4.259   4.352   0.309
 4096SOL    HW213188   4.151   4.413   0.202
 4097SOL     OW13189   3.688   3.324   6.037
 4097SOL    HW113190   3.672   3.226   6.034
 4097SOL    HW213191   3.685   3.356   6.132
 4098SOL     OW13192   0.549   1.936   3.119
 4098SOL    HW113193   0.459   1.912   3.158
 4098SOL    HW213194   0.556   2.035   3.110
 4099SOL     OW13195   3.897   5.901   1.668
 4099SOL    HW113196   3.898   5.801   1.674
 4099SOL    HW213197   3.955   5.930   1.592
 4100SOL     OW13198   3.852   5.757   3.710
 4100SOL    HW113199   3.756   5.758   3.738
 4100SOL    HW213200   3.857   5.759   3.610
 4101SOL     OW13201   5.796   1.399   6.413
 4101SOL    HW113202   5.879   1.431   6.458
 4101SOL    HW213203   5.767   1.466   6.345
 4102SOL     OW13204   6.156   1.143   0.380
 4102SOL    HW113205   6.251   1.166   0.359
 4102SOL    HW213206   6.151   1.051   0.418
 4103SOL     OW13207   0.423   0.673   2.029
 4103SOL    HW113208   0.405   0.719   1.942
 4103SOL    HW213209   0.385   0.580   2.026
 4104SOL     OW13210   0.998   4.813   2.821
 4104SOL    HW113211   0.981   4.837   2.725
 4104SOL    HW213212   1.067   4.741   2.825
 4105SOL     OW13213   4.195   4.748   0.299
 4105SOL    HW113214   4.120   4.808   0.272
 4105SOL    HW213215   4.163   4.684   0.369
 4106SOL     OW13216   0.205   3.883   4.394
 4106SOL    HW113217   0.116   3.892   4.350
 4106SOL    HW213218   0.205   3.932   4.481
 4107SOL     OW13219   0.086   0.249   1.183
 4107SOL    HW113220   0.046   0.199   1.259
 4107SOL    HW213221   0.113   0.185   1.111
 4108SOL     OW13222   6.631   3.555   6.189
 4108SOL    HW113223   6.560   3.484   6.194
 4108SOL    HW213224   6.597   3.632   6.136
 4109SOL     OW13225   3.482   6.483   3.697
 4109SOL    HW113226   3.393   6.530   3.695
 4109SOL    HW213227   3.491   6.426   3.615
 4110SOL     OW13228   5.134   3.693   5.882
 4110SOL    HW113229   5.177   3.602   5.877
 4110SOL    HW213230   5.128   3.731   5.790
 4111SOL     OW13231   4.314   2.745   0.015
 4111SOL    HW113232   4.238   2.708   0.068
 4111SOL    HW213233   4.398   2.740   0.070
 4112SOL     OW13234   3.339   1.576   3.722
 4112SOL    HW113235   3.342   1.673   3.746
 4112SOL    HW213236   3.362   1.520   3.801
 4113SOL     OW13237   3.484   4.919   5.007
 4113SOL    HW113238   3.511   5.007   5.045
 4113SOL    HW213239   3.541   4.847   5.046
 4114SOL     OW13240   2.851   1.651   3.463
 4114SOL    HW113241   2.781   1.592   3.424
 4114SOL    HW213242   2.941   1.610   3.450
 4115SOL     OW13243   5.011   4.811   1.851
 4115SOL    HW113244   4.986   4.805   1.754
 4115SOL    HW213245   5.012   4.720   1.891
 4116SOL     OW13246   3.901   1.520   1.428
 4116SOL    HW113247   3.882   1.542   1.332
 4116SOL    HW213248   3.867   1.593   1.487
 4117SOL     OW13249   1.064   5.399   1.597
 4117SOL    HW113250   1.152   5.351   1.595
 4117SOL    HW213251   0.997   5.342   1.645
 4118SOL     OW13252   1.201   6.535   0.737
 4118SOL    HW113253   1.224   6.441   0.711
 4118SOL    HW213254   1.249   6.599   0.676
 4119SOL     OW13255   3.238   0.751   4.428
 4119SOL    HW113256   3.146   0.750   4.390
 4119SOL    HW213257   3.300   0.798   4.365
 4120SOL     OW13258   4.042   0.075   1.041
 4120SOL    HW113259   3.979   0.150   1.062
 4120SOL    HW213260   4.131   0.113   1.015
 4121SOL     OW13261   6.947   2.627   4.189
 4121SOL    HW113262   6.881   2.665   4.124
 4121SOL    HW213263   6.976   2.536   4.158
 4122SOL     OW13264   1.320   5.480   5.840
 4122SOL    HW113265   1.406   5.439   5.870
 4122SOL    HW213266   1.307   5.462   5.742
 4123SOL     OW13267   5.316   3.923   6.023
 4123SOL    HW113268   5.282   3.830   6.008
 4123SOL    HW213269   5.349   3.961   5.937
 4124SOL     OW13270   5.479   6.329   4.169
 4124SOL    HW113271   5.439   6.360   4.083
 4124SOL    HW213272   5.435   6.377   4.245
 4125SOL     OW13273   4.378   1.438   0.980
 4125SOL    HW113274   4.345   1.434   0.885
 4125SOL    HW213275   4.325   1.505   1.031
 4126SOL     OW13276   2.193   4.001   4.772
 4126SOL    HW113277   2.249   4.027   4.850
 4126SOL    HW213278   2.150   4.083   4.734
 4127SOL     OW13279   5.673   3.583   5.164
 4127SOL    HW113280   5.598   3.526   5.132
 4127SOL    HW213281   5.742   3.526   5.208
 4128SOL     OW13282   1.632   3.045   2.326
 4128SOL    HW113283   1.671   2.953   2.334
 4128SOL    HW213284   1.539   3.045   2.360
 4129SOL     OW13285   5.627   2.001   5.689
 4129SOL    HW113286   5.535   1.963   5.688
 4129SOL    HW213287   5.630   2.084   5.634
 4130SOL     OW13288   6.393   4.072   6.783
 4130SOL    HW113289   6.296   4.072   6.808
 4130SOL    HW213290   6.404   4.116   6.694
 4131SOL     OW13291   6.720   5.100   4.117
 4131SOL    HW113292   6.641   5.131   4.064
 4131SOL    HW213293   6.715   5.001   4.130
 4132SOL     OW13294   5.109   2.840   3.365
 4132SOL    HW113295   5.100   2.816   3.461
 4132SOL    HW213296   5.202   2.874   3.347
 4133SOL     OW13297   2.701   1.482   0.836
 4133SOL    HW113298   2.653   1.402   0.800
 4133SOL    HW213299   2.686   1.488   0.935
 4134SOL     OW13300   2.097   1.958   0.081
 4134SOL    HW113301   2.074   1.879   0.024
 4134SOL    HW213302   2.182   1.999   0.049
 4135SOL     OW13303   2.292   1.517   2.331
 4135SOL    HW113304   2.343   1.478   2.408
 4135SOL    HW213305   2.315   1.614   2.321
 4136SOL     OW13306   0.108   2.021   4.211
 4136SOL    HW113307   0.035   2.043   4.146
 4136SOL    HW213308   0.090   2.068   4.298
 4137SOL     OW13309   3.263   3.716   6.564
 4137SOL    HW113310   3.223   3.670   6.485
 4137SOL    HW213311   3.191   3.763   6.615
 4138SOL     OW13312   3.999   4.862   3.353
 4138SOL    HW113313   4.010   4.828   3.446
 4138SOL    HW213314   4.053   4.806   3.291
 4139SOL     OW13315   1.645   1.726   6.104
 4139SOL    HW113316   1.615   1.779   6.023
 4139SOL    HW213317   1.731   1.680   6.083
 4140SOL     OW13318   4.266   1.114   5.069
 4140SOL    HW113319   4.254   1.036   5.006
 4140SOL    HW213320   4.180   1.131   5.117
 4141SOL     OW13321   5.461   5.532   0.542
 4141SOL    HW113322   5.376   5.497   0.503
 4141SOL    HW213323   5.456   5.525   0.642
 4142SOL     OW13324   0.059   4.172   1.373
 4142SOL    HW113325   0.148   4.155   1.414
 4142SOL    HW213326   0.004   4.088   1.374
 4143SOL     OW13327   6.752   2.807   0.827
 4143SOL    HW113328   6.705   2.746   0.891
 4143SOL    HW213329   6.825   2.756   0.781
 4144SOL     OW13330   5.008   1.190   2.601
 4144SOL    HW113331   5.046   1.261   2.661
 4144SOL    HW213332   4.916   1.216   2.574
 4145SOL     OW13333   1.955   0.143   1.206
 4145SOL    HW113334   1.980   0.047   1.192
 4145SOL    HW213335   1.986   0.197   1.127
 4146SOL     OW13336   5.004   6.948   6.933
 4146SOL    HW113337   4.996   6.860   6.887
 4146SOL    HW213338   5.084   6.948   6.993
 4147SOL     OW13339   3.380   1.790   5.725
 4147SOL    HW113340   3.358   1.741   5.641
 4147SOL    HW213341   3.310   1.860   5.742
 4148SOL     OW13342   6.320   0.565   3.332
 4148SOL    HW113343   6.336   0.650   3.382
 4148SOL    HW213344   6.312   0.489   3.396
 4149SOL     OW13345   5.899   4.131   1.741
 4149SOL    HW113346   5.803   4.159   1.735
 4149SOL    HW213347   5.951   4.202   1.790
 4150SOL     OW13348   5.690   6.954   6.828
 4150SOL    HW113349   5.780   6.916   6.853
 4150SOL    HW213350   5.666   6.926   6.736
 4151SOL     OW13351   6.989   5.715   0.474
 4151SOL    HW113352   6.889   5.720   0.474
 4151SOL    HW213353   7.021   5.686   0.383
 4152SOL     OW13354   4.096   4.697   1.616
 4152SOL    HW113355   4.159   4.623   1.640
 4152SOL    HW213356   4.079   4.695   1.517
 4153SOL     OW13357   6.184   4.597   6.488
 4153SOL    HW113358   6.205   4.502   6.468
 4153SOL    HW213359   6.234   4.657   6.426
 4154SOL     OW13360   6.262   3.022   5.522
 4154SOL    HW113361   6.347   3.063   5.555
 4154SOL    HW213362   6.264   3.014   5.423
 4155SOL     OW13363   1.199   3.374   1.784
 4155SOL    HW113364   1.271   3.443   1.788
 4155SOL    HW213365   1.129   3.403   1.718
 4156SOL     OW13366   5.434   6.799   5.372
 4156SOL    HW113367   5.405   6.757   5.286
 4156SOL    HW213368   5.497   6.737   5.420
 4157SOL     OW13369   4.345   0.689   4.263
 4157SOL    HW113370   4.326   0.782   4.294
 4157SOL    HW213371   4.441   0.667   4.279
 4158SOL     OW13372   0.457   6.021   3.398
 4158SOL    HW113373   0.497   5.994   3.486
 4158SOL    HW213374   0.445   5.940   3.341
 4159SOL     OW13375   1.135   3.039   4.218
 4159SOL    HW113376   1.221   2.992   4.238
 4159SOL    HW213377   1.107   3.017   4.124
 4160SOL     OW13378   0.123   0.492   1.234
 4160SOL    HW113379   0.107   0.404   1.188
 4160SOL    HW213380   0.041   0.549   1.226
 4161SOL     OW13381   0.879   1.929   0.129
 4161SOL    HW113382   0.813   1.854   0.139
 4161SOL    HW213383   0.970   1.891   0.115
 4162SOL     OW13384   5.665   6.722   4.824
 4162SOL    HW113385   5.752   6.684   4.795
 4162SOL    HW213386   5.681   6.796   4.889
 4163SOL     OW13387   5.602   1.582   4.075
 4163SOL    HW113388   5.600   1.667   4.128
 4163SOL    HW213389   5.676   1.524   4.109
 4164SOL     OW13390   1.679   0.712   6.818
 4164SOL    HW113391   1.625   0.783   6.772
 4164SOL    HW213392   1.643   0.697   6.910
 4165SOL     OW13393   3.800   6.891   1.284
 4165SOL    HW113394   3.708   6.921   1.259
 4165SOL    HW213395   3.845   6.852   1.204
 4166SOL     OW13396   4.680   2.987   0.766
 4166SOL    HW113397   4.610   3.056   0.784
 4166SOL    HW213398   4.747   3.023   0.701
 4167SOL     OW13399   2.405   2.492   1.408
 4167SOL    HW113400   2.494   2.460   1.376
 4167SOL    HW213401   2.354   2.415   1.446
 4168SOL     OW13402   0.924   5.745   1.733
 4168SOL    HW113403   1.014   5.788   1.720
 4168SOL    HW213404   0.919   5.704   1.824
 4169SOL     OW13405   5.134   3.148   3.297
 4169SOL    HW113406   5.050   3.131   3.348
 4169SOL    HW213407   5.167   3.062   3.257
 4170SOL     OW13408   3.830   2.786   5.612
 4170SOL    HW113409   3.768   2.830   5.547
 4170SOL    HW213410   3.797   2.694   5.633
 4171SOL     OW13411   4.971   3.578   1.406
 4171SOL    HW113412   4.886   3.556   1.455
 4171SOL    HW213413   4.992   3.675   1.419
 4172SOL     OW13414   0.772   1.838   0.835
 4172SOL    HW113415   0.730   1.769   0.895
 4172SOL    HW213416   0.870   1.819   0.828
 4173SOL     OW13417   5.144   3.188   5.033
 4173SOL    HW113418   5.098   3.260   5.084
 4173SOL    HW213419   5.143   3.103   5.086
 4174SOL     OW13420   4.665   0.541   3.941
 4174SOL    HW113421   4.727   0.575   3.870
 4174SOL    HW213422   4.580   0.511   3.898
 4175SOL     OW13423   3.013   0.120   3.284
 4175SOL    HW113424   3.008   0.041   3.345
 4175SOL    HW213425   3.108   0.147   3.273
 4176SOL     OW13426   4.728   6.857   3.363
 4176SOL    HW113427   4.683   6.933   3.316
 4176SOL    HW213428   4.786   6.894   3.437
 4177SOL     OW13429   0.554   6.404   2.489
 4177SOL    HW113430   0.493   6.483   2.484
 4177SOL    HW213431   0.503   6.321   2.470
 4178SOL     OW13432   3.510   2.294   5.702
 4178SOL    HW113433   3.460   2.381   5.703
 4178SOL    HW213434   3.533   2.269   5.796
 4179SOL     OW13435   5.582   4.005   5.517
 4179SOL    HW113436   5.561   3.962   5.605
 4179SOL    HW213437   5.638   3.944   5.462
 4180SOL     OW13438   4.664   4.042   1.552
 4180SOL    HW113439   4.592   3.993   1.602
 4180SOL    HW213440   4.681   4.130   1.597
 4181SOL     OW13441   0.906   1.463   0.288
 4181SOL    HW113442   0.857   1.419   0.363
 4181SOL    HW213443   0.999   1.484   0.317
 4182SOL     OW13444   5.748   0.360   2.781
 4182SOL    HW113445   5.781   0.305   2.705
 4182SOL    HW213446   5.687   0.305   2.838
 4183SOL     OW13447   1.525   1.866   1.791
 4183SOL    HW113448   1.488   1.884   1.882
 4183SOL    HW213449   1.623   1.846   1.798
 4184SOL     OW13450   4.196   5.207   0.447
 4184SOL    HW113451   4.236   5.297   0.432
 4184SOL    HW213452   4.268   5.137   0.438
 4185SOL     OW13453   0.534   0.162   3.752
 4185SOL    HW113454   0.576   0.126   3.668
 4185SOL    HW213455   0.606   0.190   3.815
 4186SOL     OW13456   2.316   3.622   1.222
 4186SOL    HW113457   2.337   3.575   1.137
 4186SOL    HW213458   2.219   3.608   1.245
 4187SOL     OW13459   3.984   3.292   6.463
 4187SOL    HW113460   4.027   3.374   6.502
 4187SOL    HW213461   3.917   3.319   6.394
 4188SOL     OW13462   4.218   6.998   4.681
 4188SOL    HW113463   4.202   6.962   4.589
 4188SOL    HW213464   4.314   7.020   4.692
 4189SOL     OW13465   2.147   1.845   4.791
 4189SOL    HW113466   2.160   1.834   4.693
 4189SOL    HW213467   2.160   1.941   4.816
 4190SOL     OW13468   3.432   1.294   0.349
 4190SOL    HW113469   3.352   1.250   0.390
 4190SOL    HW213470   3.512   1.234   0.357
 4191SOL     OW13471   6.551   2.099   2.796
 4191SOL    HW113472   6.547   2.037   2.717
 4191SOL    HW213473   6.611   2.176   2.775
 4192SOL     OW13474   6.041   1.403   3.639
 4192SOL    HW113475   6.041   1.403   3.539
 4192SOL    HW213476   5.975   1.336   3.673
 4193SOL     OW13477   2.029   6.818   2.118
 4193SOL    HW113478   2.120   6.775   2.120
 4193SOL    HW213479   2.024   6.879   2.039
 4194SOL     OW13480   0.292   1.299   3.948
 4194SOL    HW113481   0.344   1.353   3.882
 4194SOL    HW213482   0.341   1.215   3.969
 4195SOL     OW13483   5.426   0.340   1.603
 4195SOL    HW113484   5.395   0.353   1.698
 4195SOL    HW213485   5.425   0.428   1.556
 4196SOL     OW13486   5.015   2.790   3.883
 4196SOL    HW113487   4.975   2.713   3.933
 4196SOL    HW213488   5.066   2.848   3.946
 4197SOL     OW13489   4.719   4.322   4.379
 4197SOL    HW113490   4.697   4.298   4.284
 4197SOL    HW213491   4.753   4.416   4.382
 4198SOL     OW13492   6.557   3.604   0.181
 4198SOL    HW113493   6.655   3.602   0.202
 4198SOL    HW213494   6.544   3.589   0.083
 4199SOL     OW13495   3.005   3.663   5.525
 4199SOL    HW113496   3.058   3.600   5.582
 4199SOL    HW213497   3.051   3.675   5.437
 4200SOL     OW13498   1.955   0.061   0.069
 4200SOL    HW113499   1.897   0.126   0.018
 4200SOL    HW213500   2.042   0.104   0.090
 4201SOL     OW13501   5.588   6.235   3.456
 4201SOL    HW113502   5.609   6.234   3.358
 4201SOL    HW213503   5.673   6.244   3.508
 4202SOL     OW13504   5.198   4.775   4.548
 4202SOL    HW113505   5.218   4.853   4.488
 4202SOL    HW213506   5.284   4.735   4.579
 4203SOL     OW13507   5.472   5.906   3.070
 4203SOL    HW113508   5.516   5.982   3.118
 4203SOL    HW213509   5.377   5.931   3.049
 4204SOL     OW13510   3.207   2.899   1.524
 4204SOL    HW113511   3.218   2.955   1.606
 4204SOL    HW213512   3.287   2.910   1.465
 4205SOL     OW13513   2.658   5.272   3.609
 4205SOL    HW113514   2.671   5.353   3.552
 4205SOL    HW213515   2.683   5.293   3.704
 4206SOL     OW13516   5.041   0.360   4.908
 4206SOL    HW113517   4.952   0.325   4.880
 4206SOL    HW213518   5.052   0.454   4.875
 4207SOL     OW13519   1.107   1.650   1.713
 4207SOL    HW113520   1.191   1.699   1.689
 4207SOL    HW213521   1.130   1.562   1.753
 4208SOL     OW13522   0.819   3.232   0.740
 4208SOL    HW113523   0.844   3.145   0.782
 4208SOL    HW213524   0.876   3.248   0.659
 4209SOL     OW13525   2.857   0.193   5.128
 4209SOL    HW113526   2.944   0.240   5.117
 4209SOL    HW213527   2.826   0.159   5.039
 4210SOL     OW13528   4.698   2.860   0.489
 4210SOL    HW113529   4.647   2.776   0.471
 4210SOL    HW213530   4.696   2.880   0.587
 4211SOL     OW13531   4.367   5.206   3.235
 4211SOL    HW113532   4.303   5.133   3.211
 4211SOL    HW213533   4.446   5.167   3.282
 4212SOL     OW13534   6.165   1.263   2.799
 4212SOL    HW113535   6.257   1.269   2.838
 4212SOL    HW213536   6.155   1.177   2.749
 4213SOL     OW13537   1.176   1.244   2.466
 4213SOL    HW113538   1.103   1.195   2.418
 4213SOL    HW213539   1.147   1.265   2.559
 4214SOL     OW13540   0.850   2.970   4.577
 4214SOL    HW113541   0.854   2.896   4.511
 4214SOL    HW213542   0.862   3.058   4.530
 4215SOL     OW13543   0.636   5.365   4.347
 4215SOL    HW113544   0.701   5.410   4.409
 4215SOL    HW213545   0.547   5.359   4.392
 4216SOL     OW13546   1.131   2.737   4.778
 4216SOL    HW113547   1.070   2.775   4.847
 4216SOL    HW213548   1.180   2.811   4.732
 4217SOL     OW13549   0.025   0.390   3.160
 4217SOL    HW113550   0.057   0.447   3.085
 4217SOL    HW213551   6.951   0.363   3.144
 4218SOL     OW13552   4.332   0.372   1.921
 4218SOL    HW113553   4.393   0.294   1.937
 4218SOL    HW213554   4.340   0.401   1.826
 4219SOL     OW13555   3.989   5.737   3.453
 4219SOL    HW113556   3.945   5.815   3.408
 4219SOL    HW213557   4.056   5.770   3.519
 4220SOL     OW13558   6.043   2.548   3.664
 4220SOL    HW113559   6.046   2.524   3.567
 4220SOL    HW213560   5.993   2.478   3.714
 4221SOL     OW13561   5.423   5.526   5.872
 4221SOL    HW113562   5.402   5.432   5.845
 4221SOL    HW213563   5.342   5.584   5.856
 4222SOL     OW13564   4.673   1.846   1.003
 4222SOL    HW113565   4.758   1.796   1.013
 4222SOL    HW213566   4.673   1.926   1.063
 4223SOL     OW13567   3.603   4.143   2.460
 4223SOL    HW113568   3.667   4.126   2.535
 4223SOL    HW213569   3.641   4.106   2.375
 4224SOL     OW13570   4.475   2.504   5.127
 4224SOL    HW113571   4.462   2.596   5.091
 4224SOL    HW213572   4.400   2.446   5.098
 4225SOL     OW13573   5.438   0.115   5.036
 4225SOL    HW113574   5.465   0.140   4.943
 4225SOL    HW213575   5.369   0.180   5.068
 4226SOL     OW13576   1.096   1.343   3.640
 4226SOL    HW113577   1.024   1.273   3.648
 4226SOL    HW213578   1.055   1.434   3.643
 4227SOL     OW13579   5.253   4.473   0.400
 4227SOL    HW113580   5.243   4.395   0.338
 4227SOL    HW213581   5.177   4.474   0.465
 4228SOL     OW13582   6.105   5.359   2.579
 4228SOL    HW113583   6.143   5.409   2.657
 4228SOL    HW213584   6.026   5.408   2.543
 4229SOL     OW13585   5.091   4.898   5.742
 4229SOL    HW113586   5.174   4.872   5.693
 4229SOL    HW213587   5.089   4.854   5.832
 4230SOL     OW13588   3.364   6.791   5.057
 4230SOL    HW113589   3.410   6.724   4.999
 4230SOL    HW213590   3.343   6.750   5.145
 4231SOL     OW13591   4.601   0.110   5.918
 4231SOL    HW113592   4.698   0.099   5.940
 4231SOL    HW213593   4.583   0.069   5.829
 4232SOL     OW13594   2.200   4.362   2.195
 4232SOL    HW113595   2.171   4.413   2.276
 4232SOL    HW213596   2.263   4.419   2.141
 4233SOL     OW13597   6.395   6.513   0.816
 4233SOL    HW113598   6.367   6.576   0.744
 4233SOL    HW213599   6.444   6.436   0.776
 4234SOL     OW13600   2.945   4.372   5.666
 4234SOL    HW113601   2.902   4.387   5.577
 4234SOL    HW213602   3.005   4.292   5.662
 4235SOL     OW13603   6.469   3.742   5.445
 4235SOL    HW113604   6.551   3.758   5.500
 4235SOL    HW213605   6.400   3.696   5.500
 4236SOL     OW13606   1.237   3.319   4.404
 4236SOL    HW113607   1.197   3.377   4.333
 4236SOL    HW213608   1.167   3.262   4.446
 4237SOL     OW13609   5.153   2.814   4.858
 4237SOL    HW113610   5.172   2.816   4.957
 4237SOL    HW213611   5.236   2.840   4.808
 4238SOL     OW13612   4.417   5.228   3.923
 4238SOL    HW113613   4.515   5.221   3.901
 4238SOL    HW213614   4.365   5.237   3.839
 4239SOL     OW13615   4.815   5.499   5.957
 4239SOL    HW113616   4.839   5.435   5.884
 4239SOL    HW213617   4.816   5.592   5.921
 4240SOL     OW13618   2.464   4.462   6.864
 4240SOL    HW113619   2.416   4.475   6.777
 4240SOL    HW213620   2.530   4.387   6.855
 4241SOL     OW13621   3.925   0.400   6.758
 4241SOL    HW113622   3.897   0.495   6.742
 4241SOL    HW213623   4.001   0.377   6.698
 4242SOL     OW13624   2.431   0.811   2.708
 4242SOL    HW113625   2.336   0.828   2.734
 4242SOL    HW213626   2.491   0.864   2.768
 4243SOL     OW13627   1.698   2.947   3.137
 4243SOL    HW113628   1.769   2.986   3.196
 4243SOL    HW213629   1.610   2.950   3.185
 4244SOL     OW13630   3.665   6.607   1.248
 4244SOL    HW113631   3.718   6.692   1.238
 4244SOL    HW213632   3.624   6.582   1.160
 4245SOL     OW13633   6.155   3.818   1.003
 4245SOL    HW113634   6.073   3.760   0.999
 4245SOL    HW213635   6.233   3.762   1.030
 4246SOL     OW13636   5.110   1.834   3.725
 4246SOL    HW113637   5.118   1.933   3.713
 4246SOL    HW213638   5.201   1.793   3.726
 4247SOL     OW13639   1.461   5.076   5.498
 4247SOL    HW113640   1.366   5.107   5.506
 4247SOL    HW213641   1.468   4.984   5.538
 4248SOL     OW13642   1.592   0.817   3.498
 4248SOL    HW113643   1.619   0.909   3.526
 4248SOL    HW213644   1.595   0.756   3.577
 4249SOL     OW13645   6.910   6.908   4.819
 4249SOL    HW113646   6.911   6.881   4.723
 4249SOL    HW213647   6.861   6.839   4.873
 4250SOL     OW13648   0.158   5.605   4.336
 4250SOL    HW113649   0.154   5.526   4.275
 4250SOL    HW213650   0.228   5.669   4.303
 4251SOL     OW13651   6.289   2.187   5.641
 4251SOL    HW113652   6.192   2.204   5.659
 4251SOL    HW213653   6.345   2.236   5.709
 4252SOL     OW13654   0.092   6.121   0.221
 4252SOL    HW113655   0.029   6.166   0.158
 4252SOL    HW213656   0.155   6.189   0.259
 4253SOL     OW13657   4.771   5.650   2.491
 4253SOL    HW113658   4.799   5.659   2.586
 4253SOL    HW213659   4.705   5.575   2.483
 4254SOL     OW13660   1.679   3.220   0.250
 4254SOL    HW113661   1.730   3.303   0.273
 4254SOL    HW213662   1.720   3.142   0.297
 4255SOL     OW13663   1.544   3.887   2.908
 4255SOL    HW113664   1.581   3.969   2.863
 4255SOL    HW213665   1.516   3.821   2.839
 4256SOL     OW13666   0.733   5.829   2.088
 4256SOL    HW113667   0.638   5.857   2.092
 4256SOL    HW213668   0.788   5.902   2.046
 4257SOL     OW13669   6.470   0.476   4.296
 4257SOL    HW113670   6.561   0.456   4.259
 4257SOL    HW213671   6.470   0.459   4.394
 4258SOL     OW13672   3.555   6.180   0.951
 4258SOL    HW113673   3.551   6.206   0.855
 4258SOL    HW213674   3.554   6.080   0.958
 4259SOL     OW13675   1.309   0.180   2.058
 4259SOL    HW113676   1.255   0.149   2.136
 4259SOL    HW213677   1.290   0.276   2.040
 4260SOL     OW13678   5.488   0.920   4.536
 4260SOL    HW113679   5.519   0.960   4.449
 4260SOL    HW213680   5.530   0.830   4.548
 4261SOL     OW13681   1.892   6.329   4.391
 4261SOL    HW113682   1.961   6.376   4.447
 4261SOL    HW213683   1.904   6.230   4.400
 4262SOL     OW13684   1.682   4.064   6.629
 4262SOL    HW113685   1.663   3.976   6.673
 4262SOL    HW213686   1.644   4.063   6.536
 4263SOL     OW13687   2.653   1.762   4.218
 4263SOL    HW113688   2.575   1.799   4.269
 4263SOL    HW213689   2.627   1.751   4.122
 4264SOL     OW13690   5.077   0.994   4.965
 4264SOL    HW113691   5.089   1.083   5.009
 4264SOL    HW213692   5.113   0.998   4.872
 4265SOL     OW13693   3.676   0.832   0.264
 4265SOL    HW113694   3.743   0.856   0.335
 4265SOL    HW213695   3.717   0.766   0.201
 4266SOL     OW13696   1.245   5.603   1.217
 4266SOL    HW113697   1.158   5.643   1.248
 4266SOL    HW213698   1.281   5.656   1.141
 4267SOL     OW13699   1.643   4.389   4.846
 4267SOL    HW113700   1.702   4.393   4.927
 4267SOL    HW213701   1.618   4.294   4.828
 4268SOL     OW13702   1.313   4.428   0.300
 4268SOL    HW113703   1.263   4.512   0.282
 4268SOL    HW213704   1.281   4.388   0.386
 4269SOL     OW13705   2.860   1.489   4.977
 4269SOL    HW113706   2.819   1.398   4.972
 4269SOL    HW213707   2.929   1.498   4.905
 4270SOL     OW13708   4.002   2.518   0.963
 4270SOL    HW113709   4.084   2.491   1.013
 4270SOL    HW213710   4.018   2.510   0.864
 4271SOL     OW13711   0.205   0.940   1.502
 4271SOL    HW113712   0.106   0.931   1.511
 4271SOL    HW213713   0.242   0.983   1.584
 4272SOL     OW13714   6.970   1.207   6.438
 4272SOL    HW113715   6.967   1.279   6.368
 4272SOL    HW213716   6.889   1.150   6.429
 4273SOL     OW13717   3.233   5.949   4.533
 4273SOL    HW113718   3.253   6.032   4.585
 4273SOL    HW213719   3.181   5.973   4.451
 4274SOL     OW13720   0.047   1.362   1.953
 4274SOL    HW113721   6.999   1.369   2.026
 4274SOL    HW213722   0.099   1.447   1.948
 4275SOL     OW13723   0.020   3.135   3.170
 4275SOL    HW113724   0.063   3.224   3.189
 4275SOL    HW213725   0.015   3.082   3.255
 4276SOL     OW13726   2.521   5.507   4.124
 4276SOL    HW113727   2.585   5.506   4.201
 4276SOL    HW213728   2.556   5.567   4.052
 4277SOL     OW13729   6.108   5.615   3.062
 4277SOL    HW113730   6.174   5.619   3.137
 4277SOL    HW213731   6.041   5.689   3.073
 4278SOL     OW13732   1.426   6.901   1.533
 4278SOL    HW113733   1.450   6.879   1.627
 4278SOL    HW213734   1.500   6.953   1.491
 4279SOL     OW13735   1.259   1.693   3.473
 4279SOL    HW113736   1.202   1.756   3.421
 4279SOL    HW213737   1.255   1.602   3.431
 4280SOL     OW13738   0.629   6.907   6.493
 4280SOL    HW113739   0.605   6.994   6.449
 4280SOL    HW213740   0.717   6.875   6.458
 4281SOL     OW13741   5.086   5.635   3.151
 4281SOL    HW113742   5.085   5.590   3.241
 4281SOL    HW213743   5.060   5.731   3.161
 4282SOL     OW13744   3.547   4.150   0.846
 4282SOL    HW113745   3.485   4.165   0.769
 4282SOL    HW213746   3.552   4.053   0.867
 4283SOL     OW13747   5.069   1.356   4.365
 4283SOL    HW113748   5.076   1.435   4.426
 4283SOL    HW213749   4.977   1.353   4.325
 4284SOL     OW13750   4.356   5.752   6.298
 4284SOL    HW113751   4.315   5.841   6.281
 4284SOL    HW213752   4.439   5.762   6.353
 4285SOL     OW13753   3.429   0.492   5.501
 4285SOL    HW113754   3.374   0.571   5.473
 4285SOL    HW213755   3.369   0.413   5.513
 4286SOL     OW13756   5.577   0.680   6.304
 4286SOL    HW113757   5.480   0.704   6.305
 4286SOL    HW213758   5.599   0.633   6.218
 4287SOL     OW13759   4.772   0.376   0.564
 4287SOL    HW113760   4.799   0.370   0.660
 4287SOL    HW213761   4.781   0.471   0.533
 4288SOL     OW13762   0.042   6.267   2.373
 4288SOL    HW113763   0.072   6.174   2.393
 4288SOL    HW213764   0.045   6.322   2.456
 4289SOL     OW13765   0.373   4.068   4.215
 4289SOL    HW113766   0.427   4.064   4.130
 4289SOL    HW213767   0.317   3.986   4.223
 4290SOL     OW13768   0.817   1.043   3.474
 4290SOL    HW113769   0.837   1.080   3.564
 4290SOL    HW213770   0.863   0.955   3.462
 4291SOL     OW13771   4.819   3.334   6.181
 4291SOL    HW113772   4.867   3.393   6.116
 4291SOL    HW213773   4.721   3.353   6.176
 4292SOL     OW13774   5.972   2.513   1.489
 4292SOL    HW113775   5.941   2.447   1.556
 4292SOL    HW213776   6.043   2.571   1.529
 4293SOL     OW13777   3.920   4.272   6.777
 4293SOL    HW113778   3.940   4.229   6.865
 4293SOL    HW213779   3.892   4.367   6.792
 4294SOL     OW13780   1.665   1.846   6.349
 4294SOL    HW113781   1.642   1.785   6.424
 4294SOL    HW213782   1.670   1.795   6.263
 4295SOL     OW13783   4.181   5.951   2.756
 4295SOL    HW113784   4.171   5.983   2.850
 4295SOL    HW213785   4.092   5.927   2.718
 4296SOL     OW13786   2.868   5.867   2.509
 4296SOL    HW113787   2.873   5.872   2.409
 4296SOL    HW213788   2.957   5.838   2.545
 4297SOL     OW13789   5.830   4.811   0.763
 4297SOL    HW113790   5.859   4.907   0.769
 4297SOL    HW213791   5.784   4.796   0.675
 4298SOL     OW13792   1.998   6.697   0.521
 4298SOL    HW113793   1.957   6.665   0.436
 4298SOL    HW213794   2.028   6.792   0.510
 4299SOL     OW13795   0.429   3.256   0.415
 4299SOL    HW113796   0.473   3.166   0.414
 4299SOL    HW213797   0.490   3.323   0.373
 4300SOL     OW13798   2.714   1.118   0.955
 4300SOL    HW113799   2.727   1.019   0.949
 4300SOL    HW213800   2.801   1.164   0.935
 4301SOL     OW13801   2.679   6.906   0.986
 4301SOL    HW113802   2.681   6.848   0.904
 4301SOL    HW213803   2.733   6.988   0.970
 4302SOL     OW13804   2.416   5.627   6.025
 4302SOL    HW113805   2.384   5.690   5.954
 4302SOL    HW213806   2.338   5.590   6.075
 4303SOL     OW13807   6.081   5.191   2.883
 4303SOL    HW113808   5.991   5.152   2.866
 4303SOL    HW213809   6.082   5.286   2.852
 4304SOL     OW13810   3.512   3.818   1.537
 4304SOL    HW113811   3.514   3.899   1.595
 4304SOL    HW213812   3.420   3.805   1.500
 4305SOL     OW13813   1.560   7.012   5.388
 4305SOL    HW113814   1.643   6.970   5.350
 4305SOL    HW213815   1.581   0.028   5.479
 4306SOL     OW13816   6.060   3.465   5.107
 4306SOL    HW113817   6.048   3.426   5.016
 4306SOL    HW213818   5.992   3.425   5.169
 4307SOL     OW13819   0.310   1.411   5.757
 4307SOL    HW113820   0.338   1.324   5.715
 4307SOL    HW213821   0.382   1.444   5.818
 4308SOL     OW13822   4.870   5.817   6.798
 4308SOL    HW113823   4.815   5.901   6.805
 4308SOL    HW213824   4.839   5.752   6.867
 4309SOL     OW13825   1.117   2.409   0.720
 4309SOL    HW113826   1.093   2.359   0.803
 4309SOL    HW213827   1.039   2.411   0.658
 4310SOL     OW13828   6.830   1.908   3.369
 4310SOL    HW113829   6.868   1.994   3.336
 4310SOL    HW213830   6.903   1.854   3.411
 4311SOL     OW13831   0.574   0.452   2.391
 4311SOL    HW113832   0.481   0.444   2.427
 4311SOL    HW213833   0.575   0.518   2.316
 4312SOL     OW13834   0.249   5.065   2.721
 4312SOL    HW113835   0.322   5.039   2.785
 4312SOL    HW213836   0.287   5.069   2.628
 4313SOL     OW13837   6.456   2.396   6.940
 4313SOL    HW113838   6.404   2.422   6.859
 4313SOL    HW213839   6.410   2.321   6.987
 4314SOL     OW13840   6.823   1.763   5.199
 4314SOL    HW113841   6.889   1.811   5.142
 4314SOL    HW213842   6.749   1.826   5.223
 4315SOL     OW13843   3.101   1.625   4.472
 4315SOL    HW113844   3.030   1.605   4.540
 4315SOL    HW213845   3.190   1.595   4.506
 4316SOL     OW13846   5.387   6.795   1.569
 4316SOL    HW113847   5.300   6.803   1.618
 4316SOL    HW213848   5.397   6.702   1.535
 4317SOL     OW13849   4.583   0.847   5.913
 4317SOL    HW113850   4.596   0.944   5.893
 4317SOL    HW213851   4.496   0.834   5.961
 4318SOL     OW13852   0.883   0.532   4.290
 4318SOL    HW113853   0.927   0.621   4.283
 4318SOL    HW213854   0.849   0.519   4.383
 4319SOL     OW13855   1.919   5.107   3.073
 4319SOL    HW113856   1.993   5.041   3.087
 4319SOL    HW213857   1.832   5.058   3.069
 4320SOL     OW13858   3.361   6.562   1.025
 4320SOL    HW113859   3.329   6.614   0.947
 4320SOL    HW213860   3.322   6.599   1.109
 4321SOL     OW13861   6.635   6.641   2.521
 4321SOL    HW113862   6.606   6.736   2.515
 4321SOL    HW213863   6.567   6.588   2.571
 4322SOL     OW13864   0.784   3.421   5.316
 4322SOL    HW113865   0.821   3.437   5.224
 4322SOL    HW213866   0.851   3.450   5.384
 4323SOL     OW13867   3.886   4.755   6.686
 4323SOL    HW113868   3.936   4.828   6.640
 4323SOL    HW213869   3.835   4.701   6.619
 4324SOL     OW13870   6.850   4.139   5.875
 4324SOL    HW113871   6.832   4.185   5.788
 4324SOL    HW213872   6.940   4.167   5.909
 4325SOL     OW13873   2.383   0.868   2.440
 4325SOL    HW113874   2.383   0.858   2.540
 4325SOL    HW213875   2.473   0.897   2.409
 4326SOL     OW13876   4.744   2.361   2.288
 4326SOL    HW113877   4.667   2.309   2.324
 4326SOL    HW213878   4.715   2.411   2.207
 4327SOL     OW13879   2.893   6.404   3.426
 4327SOL    HW113880   2.893   6.305   3.435
 4327SOL    HW213881   2.875   6.430   3.331
 4328SOL     OW13882   5.886   6.843   4.603
 4328SOL    HW113883   5.805   6.897   4.626
 4328SOL    HW213884   5.903   6.776   4.676
 4329SOL     OW13885   0.333   1.660   6.283
 4329SOL    HW113886   0.343   1.659   6.383
 4329SOL    HW213887   0.377   1.742   6.246
 4330SOL     OW13888   2.965   4.817   4.956
 4330SOL    HW113889   3.046   4.837   5.011
 4330SOL    HW213890   2.911   4.745   5.000
 4331SOL     OW13891   5.882   1.024   2.053
 4331SOL    HW113892   5.889   0.938   2.103
 4331SOL    HW213893   5.866   1.099   2.116
 4332SOL     OW13894   0.412   5.382   2.390
 4332SOL    HW113895   0.476   5.364   2.315
 4332SOL    HW213896   0.400   5.480   2.401
 4333SOL     OW13897   3.413   2.543   5.709
 4333SOL    HW113898   3.469   2.582   5.783
 4333SOL    HW213899   3.382   2.617   5.648
 4334SOL     OW13900   0.134   2.492   4.567
 4334SOL    HW113901   0.201   2.495   4.641
 4334SOL    HW213902   0.170   2.542   4.488
 4335SOL     OW13903   2.513   4.004   1.595
 4335SOL    HW113904   2.424   3.960   1.583
 4335SOL    HW213905   2.510   4.096   1.556
 4336SOL     OW13906   2.546   4.819   5.641
 4336SOL    HW113907   2.588   4.892   5.586
 4336SOL    HW213908   2.446   4.821   5.628
 4337SOL     OW13909   1.529   5.436   3.948
 4337SOL    HW113910   1.554   5.435   3.852
 4337SOL    HW213911   1.469   5.515   3.966
 4338SOL     OW13912   3.851   0.804   5.721
 4338SOL    HW113913   3.909   0.876   5.682
 4338SOL    HW213914   3.908   0.739   5.772
 4339SOL     OW13915   3.982   3.486   6.182
 4339SOL    HW113916   3.981   3.528   6.092
 4339SOL    HW213917   3.898   3.509   6.231
 4340SOL     OW13918   6.422   3.908   0.848
 4340SOL    HW113919   6.329   3.880   0.870
 4340SOL    HW213920   6.485   3.871   0.917
 4341SOL     OW13921   0.408   0.121   2.546
 4341SOL    HW113922   0.388   0.213   2.579
 4341SOL    HW213923   0.389   0.054   2.619
 4342SOL     OW13924   4.966   3.663   2.116
 4342SOL    HW113925   4.927   3.659   2.024
 4342SOL    HW213926   4.895   3.639   2.183
 4343SOL     OW13927   3.961   6.893   5.886
 4343SOL    HW113928   3.933   6.841   5.967
 4343SOL    HW213929   4.013   6.833   5.825
 4344SOL     OW13930   0.218   3.497   3.872
 4344SOL    HW113931   0.302   3.529   3.916
 4344SOL    HW213932   0.155   3.462   3.941
 4345SOL     OW13933   3.270   2.975   2.305
 4345SOL    HW113934   3.228   3.035   2.236
 4345SOL    HW213935   3.209   2.965   2.383
 4346SOL     OW13936   1.092   2.836   2.282
 4346SOL    HW113937   1.163   2.777   2.319
 4346SOL    HW213938   1.130   2.928   2.266
 4347SOL     OW13939   5.733   5.587   0.572
 4347SOL    HW113940   5.633   5.579   0.573
 4347SOL    HW213941   5.770   5.543   0.491
 4348SOL     OW13942   5.997   5.576   4.172
 4348SOL    HW113943   6.082   5.527   4.193
 4348SOL    HW213944   5.927   5.510   4.143
 4349SOL     OW13945   6.962   3.880   4.342
 4349SOL    HW113946   6.880   3.937   4.345
 4349SOL    HW213947   6.936   3.784   4.345
 4350SOL     OW13948   4.420   1.793   4.966
 4350SOL    HW113949   4.511   1.804   4.925
 4350SOL    HW213950   4.363   1.739   4.904
 4351SOL     OW13951   0.829   6.561   0.485
 4351SOL    HW113952   0.916   6.520   0.457
 4351SOL    HW213953   0.778   6.495   0.541
 4352SOL     OW13954   3.692   3.887   0.895
 4352SOL    HW113955   3.682   3.853   0.989
 4352SOL    HW213956   3.692   3.810   0.831
 4353SOL     OW13957   2.585   3.326   1.336
 4353SOL    HW113958   2.579   3.420   1.370
 4353SOL    HW213959   2.630   3.269   1.403
 4354SOL     OW13960   5.343   6.700   3.740
 4354SOL    HW113961   5.316   6.786   3.698
 4354SOL    HW213962   5.265   6.638   3.742
 4355SOL     OW13963   1.441   6.239   3.061
 4355SOL    HW113964   1.470   6.152   3.101
 4355SOL    HW213965   1.425   6.305   3.135
 4356SOL     OW13966   4.969   2.353   5.992
 4356SOL    HW113967   4.871   2.335   5.982
 4356SOL    HW213968   4.985   2.403   6.077
 4357SOL     OW13969   5.720   0.535   2.341
 4357SOL    HW113970   5.688   0.562   2.250
 4357SOL    HW213971   5.779   0.454   2.333
 4358SOL     OW13972   1.913   6.883   6.779
 4358SOL    HW113973   1.822   6.905   6.745
 4358SOL    HW213974   1.972   6.964   6.770
 4359SOL     OW13975   2.441   2.430   6.906
 4359SOL    HW113976   2.348   2.461   6.922
 4359SOL    HW213977   2.468   2.452   6.812
 4360SOL     OW13978   1.734   3.654   3.631
 4360SOL    HW113979   1.806   3.695   3.575
 4360SOL    HW213980   1.761   3.655   3.727
 4361SOL     OW13981   6.735   1.899   0.785
 4361SOL    HW113982   6.656   1.959   0.794
 4361SOL    HW213983   6.739   1.837   0.864
 4362SOL     OW13984   1.283   5.744   3.389
 4362SOL    HW113985   1.310   5.823   3.333
 4362SOL    HW213986   1.329   5.749   3.478
 4363SOL     OW13987   4.314   1.502   2.638
 4363SOL    HW113988   4.276   1.593   2.657
 4363SOL    HW213989   4.240   1.435   2.636
 4364SOL     OW13990   3.905   3.368   2.476
 4364SOL    HW113991   3.973   3.294   2.476
 4364SOL    HW213992   3.834   3.348   2.408
 4365SOL     OW13993   2.698   2.072   1.450
 4365SOL    HW113994   2.734   2.036   1.536
 4365SOL    HW213995   2.743   2.159   1.428
 4366SOL     OW13996   4.313   5.827   5.036
 4366SOL    HW113997   4.397   5.793   5.077
 4366SOL    HW213998   4.334   5.873   4.950
 4367SOL     OW13999   2.666   5.722   3.407
 4367SOL    HW114000   2.743   5.730   3.345
 4367SOL    HW214001   2.677   5.786   3.483
 4368SOL     OW14002   4.604   4.378   3.316
 4368SOL    HW114003   4.540   4.380   3.393
 4368SOL    HW214004   4.635   4.471   3.296
 4369SOL     OW14005   4.128   4.832   2.920
 4369SOL    HW114006   4.052   4.872   2.870
 4369SOL    HW214007   4.173   4.762   2.864
 4370SOL     OW14008   3.644   4.518   1.668
 4370SOL    HW114009   3.648   4.589   1.598
 4370SOL    HW214010   3.617   4.559   1.755
 4371SOL     OW14011   2.936   1.713   0.868
 4371SOL    HW114012   3.023   1.743   0.828
 4371SOL    HW214013   2.953   1.641   0.935
 4372SOL     OW14014   1.951   2.933   4.517
 4372SOL    HW114015   1.971   2.862   4.584
 4372SOL    HW214016   2.025   3.001   4.517
 4373SOL     OW14017   4.309   1.466   5.453
 4373SOL    HW114018   4.388   1.407   5.439
 4373SOL    HW214019   4.304   1.494   5.549
 4374SOL     OW14020   2.336   1.039   1.574
 4374SOL    HW114021   2.379   0.959   1.533
 4374SOL    HW214022   2.405   1.094   1.620
 4375SOL     OW14023   4.889   1.207   3.917
 4375SOL    HW114024   4.873   1.277   3.987
 4375SOL    HW214025   4.840   1.232   3.833
 4376SOL     OW14026   1.095   6.177   0.587
 4376SOL    HW114027   1.147   6.261   0.571
 4376SOL    HW214028   1.146   6.118   0.650
 4377SOL     OW14029   6.036   0.081   6.438
 4377SOL    HW114030   6.114   0.088   6.499
 4377SOL    HW214031   5.958   0.042   6.488
 4378SOL     OW14032   2.041   5.790   2.673
 4378SOL    HW114033   1.960   5.796   2.732
 4378SOL    HW214034   2.053   5.877   2.624
 4379SOL     OW14035   1.502   0.634   1.924
 4379SOL    HW114036   1.586   0.588   1.896
 4379SOL    HW214037   1.442   0.645   1.844
 4380SOL     OW14038   2.041   5.564   5.131
 4380SOL    HW114039   2.126   5.510   5.133
 4380SOL    HW214040   1.995   5.550   5.044
 4381SOL     OW14041   4.196   5.963   5.279
 4381SOL    HW114042   4.230   5.920   5.195
 4381SOL    HW214043   4.135   6.039   5.254
 4382SOL     OW14044   4.932   3.948   3.427
 4382SOL    HW114045   4.956   3.900   3.343
 4382SOL    HW214046   4.879   4.030   3.404
 4383SOL     OW14047   0.669   2.910   6.565
 4383SOL    HW114048   0.592   2.954   6.519
 4383SOL    HW214049   0.749   2.971   6.562
 4384SOL     OW14050   3.884   5.987   0.980
 4384SOL    HW114051   3.906   6.047   0.903
 4384SOL    HW214052   3.956   5.919   0.991
 4385SOL     OW14053   7.000   1.645   2.514
 4385SOL    HW114054   6.932   1.572   2.519
 4385SOL    HW214055   0.002   1.675   2.607
 4386SOL     OW14056   0.971   3.195   6.864
 4386SOL    HW114057   1.035   3.161   6.795
 4386SOL    HW214058   0.992   3.154   6.953
 4387SOL     OW14059   0.179   3.242   1.659
 4387SOL    HW114060   0.248   3.170   1.649
 4387SOL    HW214061   0.144   3.267   1.569
 4388SOL     OW14062   3.417   1.255   5.584
 4388SOL    HW114063   3.401   1.175   5.642
 4388SOL    HW214064   3.343   1.321   5.599
 4389SOL     OW14065   4.965   2.317   3.140
 4389SOL    HW114066   4.977   2.390   3.207
 4389SOL    HW214067   4.944   2.356   3.051
 4390SOL     OW14068   4.530   2.547   2.144
 4390SOL    HW114069   4.618   2.576   2.105
 4390SOL    HW214070   4.484   2.626   2.185
 4391SOL     OW14071   0.725   5.532   0.540
 4391SOL    HW114072   0.643   5.579   0.573
 4391SOL    HW214073   0.803   5.557   0.598
 4392SOL     OW14074   5.192   3.100   4.522
 4392SOL    HW114075   5.146   3.123   4.607
 4392SOL    HW214076   5.209   3.183   4.470
 4393SOL     OW14077   4.530   6.389   3.478
 4393SOL    HW114078   4.560   6.476   3.439
 4393SOL    HW214079   4.469   6.407   3.555
 4394SOL     OW14080   5.123   0.323   2.149
 4394SOL    HW114081   5.209   0.272   2.157
 4394SOL    HW214082   5.101   0.365   2.236
 4395SOL     OW14083   5.186   1.991   2.348
 4395SOL    HW114084   5.264   2.054   2.344
 4395SOL    HW214085   5.164   1.959   2.256
 4396SOL     OW14086   1.321   0.458   3.692
 4396SOL    HW114087   1.276   0.543   3.664
 4396SOL    HW214088   1.272   0.420   3.771
 4397SOL     OW14089   6.552   0.321   5.619
 4397SOL    HW114090   6.549   0.361   5.711
 4397SOL    HW214091   6.477   0.358   5.564
 4398SOL     OW14092   0.014   4.802   4.201
 4398SOL    HW114093   0.050   4.730   4.142
 4398SOL    HW214094   0.089   4.855   4.239
 4399SOL     OW14095   2.558   1.492   1.139
 4399SOL    HW114096   2.593   1.570   1.191
 4399SOL    HW214097   2.476   1.520   1.089
 4400SOL     OW14098   3.267   6.399   4.878
 4400SOL    HW114099   3.244   6.477   4.936
 4400SOL    HW214100   3.351   6.418   4.828
 4401SOL     OW14101   5.505   6.018   4.332
 4401SOL    HW114102   5.567   6.027   4.254
 4401SOL    HW214103   5.422   6.071   4.314
 4402SOL     OW14104   0.310   6.985   2.798
 4402SOL    HW114105   0.288   0.039   2.861
 4402SOL    HW214106   0.225   6.943   2.765
 4403SOL     OW14107   0.923   0.451   3.227
 4403SOL    HW114108   0.975   0.535   3.244
 4403SOL    HW214109   0.852   0.441   3.297
 4404SOL     OW14110   1.586   4.212   3.446
 4404SOL    HW114111   1.536   4.238   3.529
 4404SOL    HW214112   1.631   4.292   3.407
 4405SOL     OW14113   3.240   4.311   5.478
 4405SOL    HW114114   3.231   4.359   5.565
 4405SOL    HW214115   3.335   4.282   5.466
 4406SOL     OW14116   5.236   3.765   1.126
 4406SOL    HW114117   5.304   3.821   1.078
 4406SOL    HW214118   5.222   3.680   1.075
 4407SOL     OW14119   6.305   6.687   0.076
 4407SOL    HW114120   6.334   6.617   0.011
 4407SOL    HW214121   6.290   6.773   0.027
 4408SOL     OW14122   4.730   5.561   6.971
 4408SOL    HW114123   4.812   5.535   0.001
 4408SOL    HW214124   4.649   5.529   7.019
 4409SOL     OW14125   3.364   1.159   1.944
 4409SOL    HW114126   3.365   1.257   1.923
 4409SOL    HW214127   3.276   1.135   1.986
 4410SOL     OW14128   2.822   5.320   1.782
 4410SOL    HW114129   2.726   5.340   1.763
 4410SOL    HW214130   2.877   5.340   1.701
 4411SOL     OW14131   3.868   2.951   2.617
 4411SOL    HW114132   3.890   3.027   2.677
 4411SOL    HW214133   3.906   2.969   2.526
 4412SOL     OW14134   3.771   2.229   6.896
 4412SOL    HW114135   3.832   2.298   6.936
 4412SOL    HW214136   3.792   2.219   6.799
 4413SOL     OW14137   4.090   5.961   4.577
 4413SOL    HW114138   4.033   6.037   4.609
 4413SOL    HW214139   4.071   5.880   4.633
 4414SOL     OW14140   3.651   4.943   1.747
 4414SOL    HW114141   3.572   4.989   1.706
 4414SOL    HW214142   3.619   4.871   1.809
 4415SOL     OW14143   5.171   2.907   6.934
 4415SOL    HW114144   5.260   2.886   6.893
 4415SOL    HW214145   5.133   2.825   6.976
 4416SOL     OW14146   3.849   0.631   3.527
 4416SOL    HW114147   3.851   0.658   3.623
 4416SOL    HW214148   3.853   0.712   3.469
 4417SOL     OW14149   0.262   0.033   1.958
 4417SOL    HW114150   0.331   0.073   1.898
 4417SOL    HW214151   0.216   6.979   1.910
 4418SOL     OW14152   4.368   6.765   3.192
 4418SOL    HW114153   4.300   6.786   3.263
 4418SOL    HW214154   4.432   6.697   3.227
 4419SOL     OW14155   0.283   4.825   6.344
 4419SOL    HW114156   0.298   4.739   6.392
 4419SOL    HW214157   0.286   4.901   6.409
 4420SOL     OW14158   5.033   1.660   6.278
 4420SOL    HW114159   5.113   1.643   6.336
 4420SOL    HW214160   4.958   1.601   6.307
 4421SOL     OW14161   1.654   1.794   3.842
 4421SOL    HW114162   1.748   1.799   3.807
 4421SOL    HW214163   1.642   1.708   3.892
 4422SOL     OW14164   2.424   3.559   5.887
 4422SOL    HW114165   2.364   3.517   5.819
 4422SOL    HW214166   2.493   3.614   5.841
 4423SOL     OW14167   1.004   2.091   6.134
 4423SOL    HW114168   0.931   2.033   6.098
 4423SOL    HW214169   0.995   2.099   6.233
 4424SOL     OW14170   6.565   0.160   3.256
 4424SOL    HW114171   6.512   0.104   3.193
 4424SOL    HW214172   6.520   0.160   3.346
 4425SOL     OW14173   4.672   4.568   6.527
 4425SOL    HW114174   4.675   4.553   6.625
 4425SOL    HW214175   4.751   4.622   6.498
 4426SOL     OW14176   0.677   0.503   5.991
 4426SOL    HW114177   0.668   0.512   5.892
 4426SOL    HW214178   0.731   0.421   6.012
 4427SOL     OW14179   0.935   0.191   3.437
 4427SOL    HW114180   0.877   0.245   3.376
 4427SOL    HW214181   1.006   0.145   3.384
 4428SOL     OW14182   2.293   5.458   3.108
 4428SOL    HW114183   2.329   5.534   3.162
 4428SOL    HW214184   2.368   5.396   3.084
 4429SOL     OW14185   4.293   6.912   2.978
 4429SOL    HW114186   4.331   6.847   3.043
 4429SOL    HW214187   4.197   6.929   2.998
 4430SOL     OW14188   1.960   1.382   1.900
 4430SOL    HW114189   1.951   1.480   1.913
 4430SOL    HW214190   2.056   1.358   1.887
 4431SOL     OW14191   1.970   2.715   2.839
 4431SOL    HW114192   1.958   2.694   2.742
 4431SOL    HW214193   1.888   2.688   2.889
 4432SOL     OW14194   3.086   3.866   3.127
 4432SOL    HW114195   3.083   3.948   3.071
 4432SOL    HW214196   3.176   3.824   3.120
 4433SOL     OW14197   6.493   0.071   2.962
 4433SOL    HW114198   6.471   0.158   2.919
 4433SOL    HW214199   6.589   0.070   2.990
 4434SOL     OW14200   5.893   2.422   4.271
 4434SOL    HW114201   5.849   2.462   4.351
 4434SOL    HW214202   5.838   2.344   4.239
 4435SOL     OW14203   3.742   2.992   1.758
 4435SOL    HW114204   3.672   2.956   1.820
 4435SOL    HW214205   3.711   3.078   1.719
 4436SOL     OW14206   4.937   1.727   6.635
 4436SOL    HW114207   5.036   1.714   6.636
 4436SOL    HW214208   4.913   1.804   6.576
 4437SOL     OW14209   3.410   0.601   4.832
 4437SOL    HW114210   3.442   0.657   4.909
 4437SOL    HW214211   3.339   0.538   4.864
 4438SOL     OW14212   4.447   2.855   6.701
 4438SOL    HW114213   4.547   2.855   6.708
 4438SOL    HW214214   4.408   2.900   6.780
 4439SOL     OW14215   2.094   5.883   2.131
 4439SOL    HW114216   2.128   5.789   2.142
 4439SOL    HW214217   2.171   5.943   2.107
 4440SOL     OW14218   0.514   6.967   6.100
 4440SOL    HW114219   0.610   6.961   6.128
 4440SOL    HW214220   0.486   6.880   6.058
 4441SOL     OW14221   6.310   2.676   2.819
 4441SOL    HW114222   6.286   2.718   2.907
 4441SOL    HW214223   6.277   2.734   2.745
 4442SOL     OW14224   2.746   6.878   2.722
 4442SOL    HW114225   2.656   6.847   2.691
 4442SOL    HW214226   2.776   6.823   2.800
 4443SOL     OW14227   2.511   1.732   5.231
 4443SOL    HW114228   2.556   1.813   5.269
 4443SOL    HW214229   2.577   1.682   5.174
 4444SOL     OW14230   5.667   0.949   1.679
 4444SOL    HW114231   5.585   0.904   1.716
 4444SOL    HW214232   5.651   1.048   1.674
 4445SOL     OW14233   1.613   1.316   6.289
 4445SOL    HW114234   1.683   1.301   6.219
 4445SOL    HW214235   1.523   1.296   6.250
 4446SOL     OW14236   6.763   6.731   3.587
 4446SOL    HW114237   6.815   6.676   3.522
 4446SOL    HW214238   6.690   6.780   3.539
 4447SOL     OW14239   5.575   2.693   5.629
 4447SOL    HW114240   5.554   2.679   5.726
 4447SOL    HW214241   5.606   2.787   5.615
 4448SOL     OW14242   2.460   3.278   6.641
 4448SOL    HW114243   2.424   3.253   6.551
 4448SOL    HW214244   2.387   3.276   6.708
 4449SOL     OW14245   0.993   1.152   5.160
 4449SOL    HW114246   1.075   1.136   5.105
 4449SOL    HW214247   0.963   1.246   5.149
 4450SOL     OW14248   3.770   4.066   3.204
 4450SOL    HW114249   3.749   4.088   3.299
 4450SOL    HW214250   3.713   4.122   3.144
 4451SOL     OW14251   6.146   4.296   2.180
 4451SOL    HW114252   6.073   4.228   2.177
 4451SOL    HW214253   6.162   4.324   2.275
 4452SOL     OW14254   6.336   5.845   6.501
 4452SOL    HW114255   6.368   5.892   6.419
 4452SOL    HW214256   6.241   5.869   6.518
 4453SOL     OW14257   5.705   2.212   1.201
 4453SOL    HW114258   5.683   2.307   1.222
 4453SOL    HW214259   5.633   2.173   1.143
 4454SOL     OW14260   5.128   3.102   1.547
 4454SOL    HW114261   5.086   3.183   1.586
 4454SOL    HW214262   5.212   3.127   1.498
 4455SOL     OW14263   4.276   1.042   2.219
 4455SOL    HW114264   4.263   1.127   2.167
 4455SOL    HW214265   4.359   0.996   2.187
 4456SOL     OW14266   1.239   5.606   3.066
 4456SOL    HW114267   1.307   5.576   3.133
 4456SOL    HW214268   1.170   5.662   3.111
 4457SOL     OW14269   5.219   2.404   6.500
 4457SOL    HW114270   5.315   2.377   6.507
 4457SOL    HW214271   5.189   2.398   6.405
 4458SOL     OW14272   3.884   2.117   5.895
 4458SOL    HW114273   3.786   2.111   5.914
 4458SOL    HW214274   3.897   2.146   5.800
 4459SOL     OW14275   4.628   6.020   4.946
 4459SOL    HW114276   4.555   5.960   4.914
 4459SOL    HW214277   4.589   6.107   4.975
 4460SOL     OW14278   2.413   1.726   6.164
 4460SOL    HW114279   2.392   1.811   6.116
 4460SOL    HW214280   2.399   1.738   6.262
 4461SOL     OW14281   2.322   0.190   1.927
 4461SOL    HW114282   2.342   0.288   1.927
 4461SOL    HW214283   2.387   0.143   1.868
 4462SOL     OW14284   0.017   5.429   1.532
 4462SOL    HW114285   6.945   5.468   1.525
 4462SOL    HW214286   0.036   5.406   1.628
 4463SOL     OW14287   0.980   3.533   6.308
 4463SOL    HW114288   1.041   3.571   6.237
 4463SOL    HW214289   0.991   3.585   6.392
 4464SOL     OW14290   5.599   3.371   6.740
 4464SOL    HW114291   5.538   3.446   6.713
 4464SOL    HW214292   5.572   3.338   6.831
 4465SOL     OW14293   1.339   6.379   2.120
 4465SOL    HW114294   1.387   6.305   2.167
 4465SOL    HW214295   1.265   6.414   2.178
 4466SOL     OW14296   0.694   2.181   3.685
 4466SOL    HW114297   0.775   2.239   3.688
 4466SOL    HW214298   0.627   2.215   3.752
 4467SOL     OW14299   0.910   6.701   3.119
 4467SOL    HW114300   0.929   6.779   3.178
 4467SOL    HW214301   0.823   6.660   3.144
 4468SOL     OW14302   1.523   2.305   0.488
 4468SOL    HW114303   1.471   2.304   0.573
 4468SOL    HW214304   1.459   2.309   0.411
 4469SOL     OW14305   4.433   0.424   6.764
 4469SOL    HW114306   4.367   0.473   6.708
 4469SOL    HW214307   4.518   0.477   6.772
 4470SOL     OW14308   4.526   4.959   1.080
 4470SOL    HW114309   4.463   4.907   1.137
 4470SOL    HW214310   4.474   5.017   1.017
 4471SOL     OW14311   6.314   3.568   0.772
 4471SOL    HW114312   6.384   3.551   0.702
 4471SOL    HW214313   6.261   3.649   0.747
 4472SOL     OW14314   1.575   4.111   2.771
 4472SOL    HW114315   1.571   4.068   2.681
 4472SOL    HW214316   1.489   4.158   2.789
 4473SOL     OW14317   0.317   6.545   4.716
 4473SOL    HW114318   0.349   6.530   4.810
 4473SOL    HW214319   0.239   6.485   4.698
 4474SOL     OW14320   4.770   0.495   3.336
 4474SOL    HW114321   4.755   0.463   3.429
 4474SOL    HW214322   4.707   0.570   3.315
 4475SOL     OW14323   1.783   3.829   0.359
 4475SOL    HW114324   1.732   3.744   0.356
 4475SOL    HW214325   1.819   3.850   0.268
 4476SOL     OW14326   4.906   5.992   1.856
 4476SOL    HW114327   4.935   6.067   1.798
 4476SOL    HW214328   4.880   6.027   1.946
 4477SOL     OW14329   1.224   1.878   0.755
 4477SOL    HW114330   1.266   1.949   0.700
 4477SOL    HW214331   1.131   1.861   0.722
 4478SOL     OW14332   2.192   6.058   1.731
 4478SOL    HW114333   2.228   6.098   1.814
 4478SOL    HW214334   2.098   6.028   1.747
 4479SOL     OW14335   0.841   0.068   5.348
 4479SOL    HW114336   0.914   0.104   5.406
 4479SOL    HW214337   0.874   0.060   5.254
 4480SOL     OW14338   0.782   4.757   3.701
 4480SOL    HW114339   0.825   4.671   3.728
 4480SOL    HW214340   0.690   4.762   3.741
 4481SOL     OW14341   1.167   6.255   4.576
 4481SOL    HW114342   1.221   6.259   4.492
 4481SOL    HW214343   1.085   6.311   4.567
 4482SOL     OW14344   0.134   4.311   3.877
 4482SOL    HW114345   0.088   4.246   3.818
 4482SOL    HW214346   0.127   4.281   3.972
 4483SOL     OW14347   5.706   2.986   2.408
 4483SOL    HW114348   5.653   2.982   2.492
 4483SOL    HW214349   5.671   3.060   2.350
 4484SOL     OW14350   4.405   2.826   5.401
 4484SOL    HW114351   4.324   2.767   5.400
 4484SOL    HW214352   4.404   2.881   5.485
 4485SOL     OW14353   5.150   1.864   6.432
 4485SOL    HW114354   5.116   1.957   6.418
 4485SOL    HW214355   5.148   1.815   6.345
 4486SOL     OW14356   6.299   2.932   3.936
 4486SOL    HW114357   6.253   2.935   3.847
 4486SOL    HW214358   6.244   2.980   4.004
 4487SOL     OW14359   3.156   2.888   6.361
 4487SOL    HW114360   3.170   2.981   6.395
 4487SOL    HW214361   3.128   2.829   6.436
 4488SOL     OW14362   0.193   1.244   4.772
 4488SOL    HW114363   0.109   1.295   4.790
 4488SOL    HW214364   0.194   1.160   4.827
 4489SOL     OW14365   6.357   6.808   4.619
 4489SOL    HW114366   6.455   6.793   4.611
 4489SOL    HW214367   6.319   6.824   4.527
 4490SOL     OW14368   6.818   1.832   3.047
 4490SOL    HW114369   6.805   1.741   3.085
 4490SOL    HW214370   6.869   1.888   3.112
 4491SOL     OW14371   0.885   3.098   3.046
 4491SOL    HW114372   0.964   3.093   3.107
 4491SOL    HW214373   0.904   3.160   2.971
 4492SOL     OW14374   4.646   3.086   6.862
 4492SOL    HW114375   4.672   3.083   6.959
 4492SOL    HW214376   4.664   2.997   6.820
 4493SOL     OW14377   6.079   5.345   4.538
 4493SOL    HW114378   6.122   5.430   4.569
 4493SOL    HW214379   5.991   5.333   4.585
 4494SOL     OW14380   6.337   4.373   4.436
 4494SOL    HW114381   6.402   4.297   4.441
 4494SOL    HW214382   6.284   4.376   4.521
 4495SOL     OW14383   4.896   6.474   1.125
 4495SOL    HW114384   4.844   6.557   1.106
 4495SOL    HW214385   4.938   6.481   1.215
 4496SOL     OW14386   4.945   3.884   5.501
 4496SOL    HW114387   5.013   3.825   5.544
 4496SOL    HW214388   4.879   3.828   5.452
 4497SOL     OW14389   6.067   4.993   0.595
 4497SOL    HW114390   6.073   4.911   0.539
 4497SOL    HW214391   5.971   5.023   0.601
 4498SOL     OW14392   0.032   3.500   0.028
 4498SOL    HW114393   0.113   3.554   0.004
 4498SOL    HW214394   6.974   3.561   0.039
 4499SOL     OW14395   0.062   2.594   6.002
 4499SOL    HW114396   0.059   2.643   6.089
 4499SOL    HW214397   0.156   2.593   5.968
 4500SOL     OW14398   3.073   3.969   4.688
 4500SOL    HW114399   3.068   4.047   4.625
 4500SOL    HW214400   3.169   3.954   4.713
 4501SOL     OW14401   0.208   4.350   5.254
 4501SOL    HW114402   0.269   4.407   5.199
 4501SOL    HW214403   0.138   4.407   5.297
 4502SOL     OW14404   0.420   2.570   0.403
 4502SOL    HW114405   0.491   2.592   0.336
 4502SOL    HW214406   0.353   2.644   0.406
 4503SOL     OW14407   1.188   1.553   4.030
 4503SOL    HW114408   1.092   1.549   4.058
 4503SOL    HW214409   1.199   1.623   3.959
 4504SOL     OW14410   5.043   1.875   4.367
 4504SOL    HW114411   5.084   1.870   4.276
 4504SOL    HW214412   5.079   1.954   4.416
 4505SOL     OW14413   1.834   6.091   5.894
 4505SOL    HW114414   1.780   6.086   5.979
 4505SOL    HW214415   1.919   6.041   5.906
 4506SOL     OW14416   4.558   0.317   5.477
 4506SOL    HW114417   4.571   0.382   5.402
 4506SOL    HW214418   4.645   0.305   5.526
 4507SOL     OW14419   6.179   4.630   0.735
 4507SOL    HW114420   6.270   4.597   0.711
 4507SOL    HW214421   6.148   4.695   0.666
 4508SOL     OW14422   1.197   3.900   0.554
 4508SOL    HW114423   1.184   3.980   0.613
 4508SOL    HW214424   1.192   3.928   0.458
 4509SOL     OW14425   2.485   1.801   3.912
 4509SOL    HW114426   2.415   1.806   3.983
 4509SOL    HW214427   2.441   1.804   3.822
 4510SOL     OW14428   4.089   6.210   5.254
 4510SOL    HW114429   4.124   6.303   5.238
 4510SOL    HW214430   4.002   6.199   5.207
 4511SOL     OW14431   6.108   2.511   0.442
 4511SOL    HW114432   6.156   2.530   0.528
 4511SOL    HW214433   6.173   2.474   0.376
 4512SOL     OW14434   2.973   5.359   6.682
 4512SOL    HW114435   3.022   5.437   6.721
 4512SOL    HW214436   2.876   5.382   6.673
 4513SOL     OW14437   5.114   1.151   2.023
 4513SOL    HW114438   5.190   1.215   2.036
 4513SOL    HW214439   5.135   1.065   2.070
 4514SOL     OW14440   3.298   1.504   5.238
 4514SOL    HW114441   3.247   1.537   5.317
 4514SOL    HW214442   3.287   1.569   5.162
 4515SOL     OW14443   0.277   5.411   1.076
 4515SOL    HW114444   0.230   5.412   0.987
 4515SOL    HW214445   0.233   5.346   1.137
 4516SOL     OW14446   0.963   0.627   5.274
 4516SOL    HW114447   0.886   0.617   5.212
 4516SOL    HW214448   0.987   0.724   5.283
 4517SOL     OW14449   3.331   6.661   5.309
 4517SOL    HW114450   3.275   6.735   5.346
 4517SOL    HW214451   3.383   6.619   5.383
 4518SOL     OW14452   1.367   2.153   4.639
 4518SOL    HW114453   1.358   2.243   4.595
 4518SOL    HW214454   1.462   2.137   4.663
 4519SOL     OW14455   6.975   3.181   3.789
 4519SOL    HW114456   6.953   3.083   3.790
 4519SOL    HW214457   6.920   3.228   3.858
 4520SOL     OW14458   6.629   3.927   3.122
 4520SOL    HW114459   6.672   4.016   3.108
 4520SOL    HW214460   6.648   3.869   3.043
 4521SOL     OW14461   5.769   2.015   6.765
 4521SOL    HW114462   5.830   2.085   6.729
 4521SOL    HW214463   5.716   2.052   6.841
 4522SOL     OW14464   6.045   0.148   3.912
 4522SOL    HW114465   6.055   0.153   3.813
 4522SOL    HW214466   6.129   0.179   3.956
 4523SOL     OW14467   3.661   3.877   0.578
 4523SOL    HW114468   3.720   3.846   0.503
 4523SOL    HW214469   3.657   3.807   0.649
 4524SOL     OW14470   5.793   0.076   4.700
 4524SOL    HW114471   5.826   0.133   4.625
 4524SOL    HW214472   5.868   0.054   4.762
 4525SOL     OW14473   6.213   1.406   5.279
 4525SOL    HW114474   6.119   1.418   5.312
 4525SOL    HW214475   6.214   1.408   5.179
 4526SOL     OW14476   5.106   0.019   0.802
 4526SOL    HW114477   5.068   0.078   0.873
 4526SOL    HW214478   5.093   6.944   0.827
 4527SOL     OW14479   4.933   0.604   2.598
 4527SOL    HW114480   4.966   0.698   2.588
 4527SOL    HW214481   4.847   0.604   2.648
 4528SOL     OW14482   5.880   0.007   0.190
 4528SOL    HW114483   5.813   0.049   0.250
 4528SOL    HW214484   5.834   6.986   0.112
 4529SOL     OW14485   3.774   6.334   2.984
 4529SOL    HW114486   3.779   6.282   3.069
 4529SOL    HW214487   3.678   6.356   2.965
 4530SOL     OW14488   0.443   3.240   5.634
 4530SOL    HW114489   0.530   3.288   5.642
 4530SOL    HW214490   0.451   3.166   5.567
 4531SOL     OW14491   0.264   3.793   4.131
 4531SOL    HW114492   0.203   3.870   4.152
 4531SOL    HW214493   0.293   3.750   4.217
 4532SOL     OW14494   6.015   1.350   0.527
 4532SOL    HW114495   6.062   1.421   0.475
 4532SOL    HW214496   6.057   1.261   0.508
 4533SOL     OW14497   2.361   5.606   2.362
 4533SOL    HW114498   2.375   5.703   2.379
 4533SOL    HW214499   2.371   5.555   2.448
 4534SOL     OW14500   6.086   3.719   5.014
 4534SOL    HW114501   6.072   3.635   5.066
 4534SOL    HW214502   6.055   3.706   4.920
 4535SOL     OW14503   4.982   2.938   1.967
 4535SOL    HW114504   5.049   3.009   1.989
 4535SOL    HW214505   4.895   2.960   2.009
 4536SOL     OW14506   6.397   0.740   4.674
 4536SOL    HW114507   6.432   0.655   4.635
 4536SOL    HW214508   6.307   0.724   4.716
 4537SOL     OW14509   3.592   2.722   6.535
 4537SOL    HW114510   3.609   2.789   6.607
 4537SOL    HW214511   3.592   2.767   6.446
 4538SOL     OW14512   2.863   1.293   3.095
 4538SOL    HW114513   2.863   1.217   3.030
 4538SOL    HW214514   2.853   1.258   3.188
 4539SOL     OW14515   1.797   1.519   2.739
 4539SOL    HW114516   1.724   1.578   2.774
 4539SOL    HW214517   1.879   1.530   2.795
 4540SOL     OW14518   3.431   3.305   3.980
 4540SOL    HW114519   3.341   3.307   4.024
 4540SOL    HW214520   3.501   3.283   4.047
 4541SOL     OW14521   4.899   1.760   1.508
 4541SOL    HW114522   4.970   1.773   1.438
 4541SOL    HW214523   4.890   1.662   1.528
 4542SOL     OW14524   5.191   0.217   2.522
 4542SOL    HW114525   5.281   0.242   2.557
 4542SOL    HW214526   5.124   0.223   2.596
 4543SOL     OW14527   5.553   1.396   1.298
 4543SOL    HW114528   5.598   1.350   1.222
 4543SOL    HW214529   5.539   1.492   1.275
 4544SOL     OW14530   3.635   4.709   6.493
 4544SOL    HW114531   3.604   4.774   6.561
 4544SOL    HW214532   3.578   4.716   6.411
 4545SOL     OW14533   3.897   2.153   5.618
 4545SOL    HW114534   3.887   2.054   5.603
 4545SOL    HW214535   3.992   2.179   5.604
 4546SOL     OW14536   1.194   6.390   6.681
 4546SOL    HW114537   1.102   6.426   6.668
 4546SOL    HW214538   1.238   6.377   6.592
 4547SOL     OW14539   4.961   2.202   2.246
 4547SOL    HW114540   4.878   2.257   2.251
 4547SOL    HW214541   4.939   2.113   2.206
 4548SOL     OW14542   1.263   3.866   3.715
 4548SOL    HW114543   1.285   3.820   3.629
 4548SOL    HW214544   1.274   3.965   3.705
 4549SOL     OW14545   6.716   3.052   2.709
 4549SOL    HW114546   6.806   3.042   2.666
 4549SOL    HW214547   6.654   2.984   2.671
 4550SOL     OW14548   1.350   6.008   4.352
 4550SOL    HW114549   1.392   6.038   4.267
 4550SOL    HW214550   1.409   6.035   4.429
 4551SOL     OW14551   0.703   2.703   5.563
 4551SOL    HW114552   0.713   2.611   5.526
 4551SOL    HW214553   0.634   2.703   5.635
 4552SOL     OW14554   0.254   3.457   4.805
 4552SOL    HW114555   0.348   3.446   4.839
 4552SOL    HW214556   0.250   3.539   4.747
 4553SOL     OW14557   4.969   4.710   0.383
 4553SOL    HW114558   4.924   4.648   0.318
 4553SOL    HW214559   4.900   4.768   0.427
 4554SOL     OW14560   5.321   0.023   2.378
 4554SOL    HW114561   5.284   0.012   2.286
 4554SOL    HW214562   5.282   0.104   2.421
 4555SOL     OW14563   4.761   2.342   6.646
 4555SOL    HW114564   4.861   2.345   6.658
 4555SOL    HW214565   4.727   2.253   6.678
 4556SOL     OW14566   4.761   1.272   3.690
 4556SOL    HW114567   4.729   1.190   3.643
 4556SOL    HW214568   4.804   1.334   3.624
 4557SOL     OW14569   5.388   6.675   5.923
 4557SOL    HW114570   5.292   6.678   5.895
 4557SOL    HW214571   5.432   6.762   5.900
 4558SOL     OW14572   6.357   3.028   6.528
 4558SOL    HW114573   6.320   3.091   6.596
 4558SOL    HW214574   6.334   3.061   6.436
 4559SOL     OW14575   0.952   6.501   1.435
 4559SOL    HW114576   1.019   6.496   1.509
 4559SOL    HW214577   0.942   6.411   1.393
 4560SOL     OW14578   4.910   3.358   3.229
 4560SOL    HW114579   4.894   3.277   3.172
 4560SOL    HW214580   5.008   3.378   3.232
 4561SOL     OW14581   3.420   0.300   6.590
 4561SOL    HW114582   3.325   0.321   6.566
 4561SOL    HW214583   3.475   0.383   6.587
 4562SOL     OW14584   2.675   4.872   6.415
 4562SOL    HW114585   2.725   4.813   6.478
 4562SOL    HW214586   2.721   4.874   6.327
 4563SOL     OW14587   6.033   2.220   6.981
 4563SOL    HW114588   6.032   2.125   7.011
 4563SOL    HW214589   5.996   2.227   6.889
 4564SOL     OW14590   1.559   5.811   0.211
 4564SOL    HW114591   1.540   5.764   0.297
 4564SOL    HW214592   1.542   5.908   0.222
 4565SOL     OW14593   1.907   0.383   5.418
 4565SOL    HW114594   1.911   0.341   5.509
 4565SOL    HW214595   1.997   0.378   5.375
 4566SOL     OW14596   6.867   1.380   6.907
 4566SOL    HW114597   6.923   1.315   6.854
 4566SOL    HW214598   6.921   1.414   6.984
 4567SOL     OW14599   6.850   1.108   0.996
 4567SOL    HW114600   6.853   1.033   1.063
 4567SOL    HW214601   6.938   1.154   0.994
 4568SOL     OW14602   3.594   4.569   5.888
 4568SOL    HW114603   3.502   4.538   5.911
 4568SOL    HW214604   3.608   4.563   5.789
 4569SOL     OW14605   0.774   1.738   4.348
 4569SOL    HW114606   0.751   1.795   4.426
 4569SOL    HW214607   0.854   1.775   4.301
 4570SOL     OW14608   0.397   5.296   4.087
 4570SOL    HW114609   0.439   5.206   4.099
 4570SOL    HW214610   0.467   5.364   4.069
 4571SOL     OW14611   3.604   2.867   4.935
 4571SOL    HW114612   3.696   2.906   4.947
 4571SOL    HW214613   3.580   2.812   5.015
 4572SOL     OW14614   2.036   0.156   1.721
 4572SOL    HW114615   2.098   0.114   1.655
 4572SOL    HW214616   1.942   0.146   1.688
 4573SOL     OW14617   5.311   6.883   0.659
 4573SOL    HW114618   5.249   6.942   0.606
 4573SOL    HW214619   5.274   6.790   0.660
 4574SOL     OW14620   0.103   4.604   1.801
 4574SOL    HW114621   0.065   4.666   1.733
 4574SOL    HW214622   0.134   4.656   1.881
 4575SOL     OW14623   6.159   0.328   2.633
 4575SOL    HW114624   6.077   0.271   2.631
 4575SOL    HW214625   6.142   0.412   2.580
 4576SOL     OW14626   3.171   5.589   6.162
 4576SOL    HW114627   3.238   5.591   6.088
 4576SOL    HW214628   3.085   5.628   6.130
 4577SOL     OW14629   1.188   3.235   3.721
 4577SOL    HW114630   1.271   3.257   3.671
 4577SOL    HW214631   1.170   3.137   3.715
 4578SOL     OW14632   6.777   4.070   4.139
 4578SOL    HW114633   6.722   3.998   4.097
 4578SOL    HW214634   6.717   4.143   4.171
 4579SOL     OW14635   5.735   2.201   3.588
 4579SOL    HW114636   5.711   2.194   3.491
 4579SOL    HW214637   5.753   2.296   3.612
 4580SOL     OW14638   6.857   5.796   0.959
 4580SOL    HW114639   6.831   5.778   1.054
 4580SOL    HW214640   6.776   5.794   0.901
 4581SOL     OW14641   2.916   5.513   2.671
 4581SOL    HW114642   2.942   5.551   2.760
 4581SOL    HW214643   2.817   5.506   2.665
 4582SOL     OW14644   5.062   6.446   2.739
 4582SOL    HW114645   4.989   6.380   2.723
 4582SOL    HW214646   5.033   6.537   2.708
 4583SOL     OW14647   3.977   1.786   5.317
 4583SOL    HW114648   4.016   1.735   5.394
 4583SOL    HW214649   3.880   1.803   5.335
 4584SOL     OW14650   0.480   5.797   5.358
 4584SOL    HW114651   0.510   5.800   5.263
 4584SOL    HW214652   0.441   5.706   5.377
 4585SOL     OW14653   3.301   6.268   2.741
 4585SOL    HW114654   3.334   6.189   2.689
 4585SOL    HW214655   3.225   6.311   2.692
 4586SOL     OW14656   3.289   5.358   2.464
 4586SOL    HW114657   3.190   5.343   2.459
 4586SOL    HW214658   3.333   5.320   2.383
 4587SOL     OW14659   2.398   3.900   1.286
 4587SOL    HW114660   2.360   3.817   1.245
 4587SOL    HW214661   2.484   3.878   1.331
 4588SOL     OW14662   4.192   3.441   4.825
 4588SOL    HW114663   4.145   3.527   4.806
 4588SOL    HW214664   4.291   3.457   4.828
 4589SOL     OW14665   6.478   2.030   4.554
 4589SOL    HW114666   6.413   2.015   4.480
 4589SOL    HW214667   6.429   2.058   4.636
 4590SOL     OW14668   4.392   5.257   2.387
 4590SOL    HW114669   4.297   5.250   2.417
 4590SOL    HW214670   4.403   5.210   2.299
 4591SOL     OW14671   5.522   6.203   5.172
 4591SOL    HW114672   5.514   6.282   5.233
 4591SOL    HW214673   5.448   6.139   5.190
 4592SOL     OW14674   3.855   2.135   6.338
 4592SOL    HW114675   3.907   2.202   6.284
 4592SOL    HW214676   3.758   2.153   6.329
 4593SOL     OW14677   3.896   6.474   2.346
 4593SOL    HW114678   3.815   6.487   2.403
 4593SOL    HW214679   3.872   6.487   2.250
 4594SOL     OW14680   2.653   1.629   2.087
 4594SOL    HW114681   2.627   1.533   2.075
 4594SOL    HW214682   2.670   1.647   2.184
 4595SOL     OW14683   4.210   3.205   6.001
 4595SOL    HW114684   4.188   3.147   6.080
 4595SOL    HW214685   4.262   3.284   6.032
 4596SOL     OW14686   5.711   0.183   1.926
 4596SOL    HW114687   5.725   0.274   1.964
 4596SOL    HW214688   5.684   0.120   1.999
 4597SOL     OW14689   5.662   4.336   6.689
 4597SOL    HW114690   5.595   4.269   6.658
 4597SOL    HW214691   5.636   4.370   6.779
 4598SOL     OW14692   2.648   4.687   6.754
 4598SOL    HW114693   2.724   4.731   6.800
 4598SOL    HW214694   2.674   4.667   6.659
 4599SOL     OW14695   1.922   4.682   0.717
 4599SOL    HW114696   1.951   4.587   0.723
 4599SOL    HW214697   1.889   4.712   0.807
 4600SOL     OW14698   3.065   5.375   1.075
 4600SOL    HW114699   3.153   5.355   1.118
 4600SOL    HW214700   3.044   5.472   1.085
 4601SOL     OW14701   1.761   6.533   5.346
 4601SOL    HW114702   1.740   6.524   5.444
 4601SOL    HW214703   1.762   6.630   5.321
 4602SOL     OW14704   2.127   0.798   1.965
 4602SOL    HW114705   2.188   0.739   2.018
 4602SOL    HW214706   2.039   0.806   2.012
 4603SOL     OW14707   3.304   7.010   1.186
 4603SOL    HW114708   3.251   6.956   1.252
 4603SOL    HW214709   3.277   0.086   1.192
 4604SOL     OW14710   3.743   6.803   1.879
 4604SOL    HW114711   3.829   6.753   1.871
 4604SOL    HW214712   3.747   6.864   1.958
 4605SOL     OW14713   5.120   6.836   4.640
 4605SOL    HW114714   5.200   6.863   4.693
 4605SOL    HW214715   5.043   6.895   4.665
 4606SOL     OW14716   6.939   6.230   5.727
 4606SOL    HW114717   6.992   6.154   5.766
 4606SOL    HW214718   6.986   6.316   5.747
 4607SOL     OW14719   3.365   2.086   1.554
 4607SOL    HW114720   3.268   2.059   1.551
 4607SOL    HW214721   3.395   2.090   1.649
 4608SOL     OW14722   1.599   3.998   5.435
 4608SOL    HW114723   1.576   3.915   5.486
 4608SOL    HW214724   1.664   4.053   5.488
 4609SOL     OW14725   4.545   6.770   6.880
 4609SOL    HW114726   4.540   6.740   6.785
 4609SOL    HW214727   4.551   6.870   6.883
 4610SOL     OW14728   0.202   3.245   6.699
 4610SOL    HW114729   0.195   3.275   6.795
 4610SOL    HW214730   0.129   3.181   6.679
 4611SOL     OW14731   0.534   4.333   0.481
 4611SOL    HW114732   0.518   4.235   0.491
 4611SOL    HW214733   0.539   4.376   0.571
 4612SOL     OW14734   2.197   6.635   6.831
 4612SOL    HW114735   2.116   6.586   6.800
 4612SOL    HW214736   2.271   6.621   6.765
 4613SOL     OW14737   3.021   5.409   2.419
 4613SOL    HW114738   2.981   5.444   2.334
 4613SOL    HW214739   2.990   5.465   2.496
 4614SOL     OW14740   1.732   5.442   0.191
 4614SOL    HW114741   1.831   5.442   0.209
 4614SOL    HW214742   1.708   5.357   0.145
 4615SOL     OW14743   0.529   2.615   0.679
 4615SOL    HW114744   0.625   2.590   0.690
 4615SOL    HW214745   0.506   2.616   0.581
 4616SOL     OW14746   5.069   1.071   0.009
 4616SOL    HW114747   5.017   0.986   0.014
 4616SOL    HW214748   5.008   1.148   0.028
 4617SOL     OW14749   0.361   2.576   2.023
 4617SOL    HW114750   0.367   2.583   1.923
 4617SOL    HW214751   0.427   2.509   2.055
 4618SOL     OW14752   1.016   2.356   6.225
 4618SOL    HW114753   0.935   2.334   6.279
 4618SOL    HW214754   1.038   2.279   6.165
 4619SOL     OW14755   3.389   0.842   3.444
 4619SOL    HW114756   3.328   0.920   3.458
 4619SOL    HW214757   3.415   0.838   3.347
 4620SOL     OW14758   2.478   4.441   6.522
 4620SOL    HW114759   2.427   4.525   6.507
 4620SOL    HW214760   2.556   4.438   6.459
 4621SOL     OW14761   0.539   6.151   5.779
 4621SOL    HW114762   0.514   6.154   5.682
 4621SOL    HW214763   0.511   6.064   5.818
 4622SOL     OW14764   1.930   3.940   0.912
 4622SOL    HW114765   1.893   3.980   0.829
 4622SOL    HW214766   2.018   3.981   0.934
 4623SOL     OW14767   6.480   4.959   1.738
 4623SOL    HW114768   6.534   4.955   1.821
 4623SOL    HW214769   6.421   5.039   1.739
 4624SOL     OW14770   4.959   0.009   4.719
 4624SOL    HW114771   4.872   6.983   4.705
 4624SOL    HW214772   4.952   0.104   4.689
 4625SOL     OW14773   1.012   3.764   6.810
 4625SOL    HW114774   0.996   3.666   6.799
 4625SOL    HW214775   0.928   3.814   6.789
 4626SOL     OW14776   6.860   5.390   1.142
 4626SOL    HW114777   6.924   5.460   1.172
 4626SOL    HW214778   6.835   5.332   1.219
 4627SOL     OW14779   3.116   6.295   5.834
 4627SOL    HW114780   3.145   6.336   5.921
 4627SOL    HW214781   3.173   6.329   5.760
 4628SOL     OW14782   6.969   4.434   1.957
 4628SOL    HW114783   6.875   4.458   1.981
 4628SOL    HW214784   7.016   4.515   1.921
 4629SOL     OW14785   2.158   4.484   5.638
 4629SOL    HW114786   2.180   4.416   5.568
 4629SOL    HW214787   2.235   4.495   5.700
 4630SOL     OW14788   1.875   6.496   2.743
 4630SOL    HW114789   1.800   6.454   2.793
 4630SOL    HW214790   1.952   6.511   2.806
 4631SOL     OW14791   3.159   6.803   2.265
 4631SOL    HW114792   3.181   6.888   2.314
 4631SOL    HW214793   3.079   6.819   2.207
 4632SOL     OW14794   5.146   5.616   3.932
 4632SOL    HW114795   5.084   5.627   3.855
 4632SOL    HW214796   5.103   5.654   4.014
 4633SOL     OW14797   6.337   2.075   4.816
 4633SOL    HW114798   6.361   2.115   4.905
 4633SOL    HW214799   6.261   2.011   4.828
 4634SOL     OW14800   3.278   4.363   0.532
 4634SOL    HW114801   3.204   4.297   0.550
 4634SOL    HW214802   3.305   4.407   0.618
 4635SOL     OW14803   5.244   3.774   1.671
 4635SOL    HW114804   5.289   3.761   1.583
 4635SOL    HW214805   5.209   3.868   1.678
 4636SOL     OW14806   2.538   5.547   0.448
 4636SOL    HW114807   2.468   5.535   0.518
 4636SOL    HW214808   2.615   5.598   0.486
 4637SOL     OW14809   1.281   1.517   5.260
 4637SOL    HW114810   1.243   1.513   5.167
 4637SOL    HW214811   1.380   1.524   5.256
 4638SOL     OW14812   5.660   3.362   5.476
 4638SOL    HW114813   5.593   3.369   5.402
 4638SOL    HW214814   5.680   3.453   5.511
 4639SOL     OW14815   7.018   3.715   5.411
 4639SOL    HW114816   0.048   3.783   5.358
 4639SOL    HW214817   0.051   3.631   5.416
 4640SOL     OW14818   5.356   4.014   2.533
 4640SOL    HW114819   5.423   4.037   2.463
 4640SOL    HW214820   5.264   4.022   2.495
 4641SOL     OW14821   2.178   5.314   5.526
 4641SOL    HW114822   2.145   5.237   5.472
 4641SOL    HW214823   2.204   5.389   5.465
 4642SOL     OW14824   5.938   6.110   4.382
 4642SOL    HW114825   5.850   6.107   4.429
 4642SOL    HW214826   5.947   6.196   4.332
 4643SOL     OW14827   3.989   2.217   1.896
 4643SOL    HW114828   4.079   2.249   1.865
 4643SOL    HW214829   3.917   2.272   1.855
 4644SOL     OW14830   2.383   5.964   5.283
 4644SOL    HW114831   2.333   5.878   5.293
 4644SOL    HW214832   2.392   5.985   5.186
 4645SOL     OW14833   2.218   5.911   4.535
 4645SOL    HW114834   2.156   5.834   4.517
 4645SOL    HW214835   2.247   5.910   4.630
 4646SOL     OW14836   4.009   0.689   1.678
 4646SOL    HW114837   4.032   0.615   1.742
 4646SOL    HW214838   3.909   0.697   1.672
 4647SOL     OW14839   6.256   0.257   4.081
 4647SOL    HW114840   6.233   0.338   4.136
 4647SOL    HW214841   6.348   0.268   4.042
 4648SOL     OW14842   2.309   5.991   2.847
 4648SOL    HW114843   2.339   6.084   2.869
 4648SOL    HW214844   2.281   5.987   2.751
 4649SOL     OW14845   5.004   0.757   6.113
 4649SOL    HW114846   5.079   0.789   6.055
 4649SOL    HW214847   4.925   0.733   6.057
 4650SOL     OW14848   6.188   4.587   2.183
 4650SOL    HW114849   6.104   4.533   2.185
 4650SOL    HW214850   6.267   4.526   2.175
 4651SOL     OW14851   0.429   2.200   2.053
 4651SOL    HW114852   0.357   2.237   2.112
 4651SOL    HW214853   0.478   2.275   2.009
 4652SOL     OW14854   6.822   6.460   6.027
 4652SOL    HW114855   6.886   6.446   5.951
 4652SOL    HW214856   6.768   6.377   6.040
 4653SOL     OW14857   0.495   6.096   6.836
 4653SOL    HW114858   0.524   6.000   6.848
 4653SOL    HW214859   0.527   6.149   6.914
 4654SOL     OW14860   1.166   1.227   0.003
 4654SOL    HW114861   1.226   1.304   0.024
 4654SOL    HW214862   1.218   1.154   6.980
 4655SOL     OW14863   0.027   4.827   3.321
 4655SOL    HW114864   6.979   4.883   3.275
 4655SOL    HW214865   0.089   4.788   3.253
 4656SOL     OW14866   2.147   6.770   3.571
 4656SOL    HW114867   2.176   6.697   3.510
 4656SOL    HW214868   2.134   6.855   3.519
 4657SOL     OW14869   5.442   0.300   0.325
 4657SOL    HW114870   5.376   0.300   0.250
 4657SOL    HW214871   5.488   0.212   0.329
 4658SOL     OW14872   5.298   0.572   3.508
 4658SOL    HW114873   5.342   0.557   3.419
 4658SOL    HW214874   5.363   0.615   3.570
 4659SOL     OW14875   1.676   2.617   5.128
 4659SOL    HW114876   1.687   2.531   5.178
 4659SOL    HW214877   1.763   2.668   5.128
 4660SOL     OW14878   0.194   0.535   6.114
 4660SOL    HW114879   0.126   0.605   6.136
 4660SOL    HW214880   0.273   0.578   6.069
 4661SOL     OW14881   3.894   4.069   4.531
 4661SOL    HW114882   3.936   4.076   4.441
 4661SOL    HW214883   3.875   3.973   4.551
 4662SOL     OW14884   5.078   0.083   5.253
 4662SOL    HW114885   4.981   0.092   5.233
 4662SOL    HW214886   5.090   0.020   5.330
 4663SOL     OW14887   0.206   2.319   2.867
 4663SOL    HW114888   0.222   2.341   2.771
 4663SOL    HW214889   0.133   2.378   2.903
 4664SOL     OW14890   2.919   2.221   6.900
 4664SOL    HW114891   2.823   2.228   6.925
 4664SOL    HW214892   2.928   2.169   6.815
 4665SOL     OW14893   5.247   0.606   0.299
 4665SOL    HW114894   5.255   0.556   0.386
 4665SOL    HW214895   5.335   0.609   0.254
 4666SOL     OW14896   2.226   1.307   0.579
 4666SOL    HW114897   2.220   1.374   0.505
 4666SOL    HW214898   2.135   1.274   0.602
 4667SOL     OW14899   0.546   5.233   6.279
 4667SOL    HW114900   0.512   5.290   6.204
 4667SOL    HW214901   0.640   5.204   6.258
 4668SOL     OW14902   6.696   1.672   4.242
 4668SOL    HW114903   6.698   1.582   4.199
 4668SOL    HW214904   6.788   1.697   4.271
 4669SOL     OW14905   1.671   0.201   0.372
 4669SOL    HW114906   1.736   0.128   0.393
 4669SOL    HW214907   1.578   0.172   0.394
 4670SOL     OW14908   2.280   2.015   4.012
 4670SOL    HW114909   2.296   2.089   4.078
 4670SOL    HW214910   2.283   1.927   4.060
 4671SOL     OW14911   6.021   3.574   1.319
 4671SOL    HW114912   5.963   3.510   1.371
 4671SOL    HW214913   5.995   3.570   1.222
 4672SOL     OW14914   1.618   3.784   5.997
 4672SOL    HW114915   1.537   3.730   6.022
 4672SOL    HW214916   1.596   3.881   5.997
 4673SOL     OW14917   4.167   0.858   2.769
 4673SOL    HW114918   4.237   0.787   2.769
 4673SOL    HW214919   4.090   0.829   2.712
 4674SOL     OW14920   4.400   5.681   5.880
 4674SOL    HW114921   4.463   5.740   5.930
 4674SOL    HW214922   4.317   5.667   5.933
 4675SOL     OW14923   0.962   4.111   0.308
 4675SOL    HW114924   1.039   4.094   0.370
 4675SOL    HW214925   0.907   4.028   0.299
 4676SOL     OW14926   1.074   5.796   3.872
 4676SOL    HW114927   0.998   5.753   3.823
 4676SOL    HW214928   1.088   5.751   3.959
 4677SOL     OW14929   1.697   2.808   0.067
 4677SOL    HW114930   1.754   2.888   0.048
 4677SOL    HW214931   1.620   2.835   0.125
 4678SOL     OW14932   2.482   5.007   2.509
 4678SOL    HW114933   2.581   5.009   2.498
 4678SOL    HW214934   2.447   4.918   2.480
 4679SOL     OW14935   5.357   0.072   1.860
 4679SOL    HW114936   5.287   0.077   1.789
 4679SOL    HW214937   5.437   0.023   1.824
 4680SOL     OW14938   2.273   1.378   1.593
 4680SOL    HW114939   2.276   1.347   1.688
 4680SOL    HW214940   2.359   1.354   1.548
 4681SOL     OW14941   5.308   4.629   1.365
 4681SOL    HW114942   5.321   4.558   1.434
 4681SOL    HW214943   5.369   4.611   1.288
 4682SOL     OW14944   4.033   3.349   6.785
 4682SOL    HW114945   4.069   3.390   6.869
 4682SOL    HW214946   4.070   3.397   6.706
 4683SOL     OW14947   6.309   4.254   3.426
 4683SOL    HW114948   6.374   4.183   3.451
 4683SOL    HW214949   6.351   4.344   3.439
 4684SOL     OW14950   4.905   6.491   6.932
 4684SOL    HW114951   4.827   6.546   6.961
 4684SOL    HW214952   4.968   6.481   7.008
 4685SOL     OW14953   2.487   3.167   5.785
 4685SOL    HW114954   2.502   3.069   5.799
 4685SOL    HW214955   2.554   3.202   5.720
 4686SOL     OW14956   2.868   5.813   0.305
 4686SOL    HW114957   2.926   5.736   0.277
 4686SOL    HW214958   2.833   5.860   0.224
 4687SOL     OW14959   3.287   0.549   2.838
 4687SOL    HW114960   3.292   0.583   2.932
 4687SOL    HW214961   3.226   0.607   2.785
 4688SOL     OW14962   6.054   3.182   5.745
 4688SOL    HW114963   6.108   3.101   5.764
 4688SOL    HW214964   6.022   3.180   5.650
 4689SOL     OW14965   6.020   1.217   1.330
 4689SOL    HW114966   6.025   1.313   1.360
 4689SOL    HW214967   6.055   1.158   1.402
 4690SOL     OW14968   2.799   1.737   0.154
 4690SOL    HW114969   2.710   1.703   0.185
 4690SOL    HW214970   2.792   1.835   0.136
 4691SOL     OW14971   6.946   4.163   1.861
 4691SOL    HW114972   6.960   4.261   1.878
 4691SOL    HW214973   0.012   4.121   1.833
 4692SOL     OW14974   6.178   3.928   2.851
 4692SOL    HW114975   6.218   3.840   2.875
 4692SOL    HW214976   6.161   3.932   2.753
 4693SOL     OW14977   2.077   0.813   3.689
 4693SOL    HW114978   1.994   0.764   3.662
 4693SOL    HW214979   2.084   0.815   3.788
 4694SOL     OW14980   2.045   1.739   6.948
 4694SOL    HW114981   1.977   1.683   6.901
 4694SOL    HW214982   2.129   1.741   6.895
 4695SOL     OW14983   0.978   6.238   1.711
 4695SOL    HW114984   0.982   6.331   1.748
 4695SOL    HW214985   0.893   6.225   1.661
 4696SOL     OW14986   1.208   5.022   5.730
 4696SOL    HW114987   1.173   4.980   5.814
 4696SOL    HW214988   1.137   5.079   5.689
 4697SOL     OW14989   3.301   4.982   0.690
 4697SOL    HW114990   3.205   4.973   0.665
 4697SOL    HW214991   3.341   5.059   0.639
 4698SOL     OW14992   5.643   1.207   3.140
 4698SOL    HW114993   5.707   1.284   3.138
 4698SOL    HW214994   5.679   1.136   3.201
 4699SOL     OW14995   1.152   0.221   2.754
 4699SOL    HW114996   1.127   0.214   2.658
 4699SOL    HW214997   1.216   0.296   2.767
 4700SOL     OW14998   5.853   2.347   2.901
 4700SOL    HW114999   5.818   2.438   2.879
 4700SOL    HW215000   5.778   2.280   2.897
 4701SOL     OW15001   3.426   1.713   1.862
 4701SOL    HW115002   3.500   1.774   1.892
 4701SOL    HW215003   3.342   1.737   1.910
 4702SOL     OW15004   5.506   4.823   6.607
 4702SOL    HW115005   5.436   4.850   6.674
 4702SOL    HW215006   5.527   4.900   6.548
 4703SOL     OW15007   0.962   5.170   3.426
 4703SOL    HW115008   0.908   5.086   3.429
 4703SOL    HW215009   0.906   5.246   3.459
 4704SOL     OW15010   0.855   4.824   5.417
 4704SOL    HW115011   0.772   4.862   5.377
 4704SOL    HW215012   0.838   4.729   5.446
 4705SOL     OW15013   3.278   2.448   1.692
 4705SOL    HW115014   3.249   2.536   1.728
 4705SOL    HW215015   3.315   2.459   1.600
 4706SOL     OW15016   1.778   0.644   0.491
 4706SOL    HW115017   1.864   0.687   0.518
 4706SOL    HW215018   1.796   0.576   0.420
 4707SOL     OW15019   1.765   6.745   1.081
 4707SOL    HW115020   1.736   6.680   1.151
 4707SOL    HW215021   1.827   6.812   1.122
 4708SOL     OW15022   0.428   3.074   4.269
 4708SOL    HW115023   0.418   3.145   4.338
 4708SOL    HW215024   0.346   3.017   4.267
 4709SOL     OW15025   4.739   3.779   5.346
 4709SOL    HW115026   4.735   3.859   5.285
 4709SOL    HW215027   4.729   3.696   5.292
 4710SOL     OW15028   5.977   6.339   4.206
 4710SOL    HW115029   5.924   6.394   4.270
 4710SOL    HW215030   5.956   6.367   4.112
 4711SOL     OW15031   6.027   3.308   3.039
 4711SOL    HW115032   6.122   3.297   3.066
 4711SOL    HW215033   5.967   3.268   3.109
 4712SOL     OW15034   4.631   4.145   5.285
 4712SOL    HW115035   4.562   4.072   5.281
 4712SOL    HW215036   4.722   4.105   5.288
 4713SOL     OW15037   5.527   4.351   1.282
 4713SOL    HW115038   5.579   4.329   1.200
 4713SOL    HW215039   5.455   4.417   1.260
 4714SOL     OW15040   5.739   1.107   5.888
 4714SOL    HW115041   5.826   1.061   5.869
 4714SOL    HW215042   5.705   1.151   5.805
 4715SOL     OW15043   6.233   1.373   1.665
 4715SOL    HW115044   6.266   1.284   1.634
 4715SOL    HW215045   6.225   1.435   1.587
 4716SOL     OW15046   3.875   4.090   5.864
 4716SOL    HW115047   3.844   4.185   5.870
 4716SOL    HW215048   3.844   4.051   5.777
 4717SOL     OW15049   2.719   5.367   5.262
 4717SOL    HW115050   2.761   5.365   5.352
 4717SOL    HW215051   2.790   5.358   5.192
 4718SOL     OW15052   4.752   4.418   0.781
 4718SOL    HW115053   4.772   4.365   0.698
 4718SOL    HW215054   4.698   4.362   0.844
 4719SOL     OW15055   6.909   3.791   3.887
 4719SOL    HW115056   6.988   3.852   3.889
 4719SOL    HW215057   6.862   3.800   3.799
 4720SOL     OW15058   2.953   4.030   6.504
 4720SOL    HW115059   2.906   4.075   6.428
 4720SOL    HW215060   2.935   4.080   6.589
 4721SOL     OW15061   6.533   3.588   2.819
 4721SOL    HW115062   6.492   3.615   2.732
 4721SOL    HW215063   6.472   3.523   2.865
 4722SOL     OW15064   1.599   4.621   6.850
 4722SOL    HW115065   1.691   4.600   6.816
 4722SOL    HW215066   1.601   4.628   6.950
 4723SOL     OW15067   3.932   3.963   6.693
 4723SOL    HW115068   3.932   4.063   6.694
 4723SOL    HW215069   3.837   3.930   6.695
 4724SOL     OW15070   1.415   6.820   4.835
 4724SOL    HW115071   1.370   6.885   4.773
 4724SOL    HW215072   1.405   6.727   4.799
 4725SOL     OW15073   5.628   6.007   0.302
 4725SOL    HW115074   5.582   5.922   0.328
 4725SOL    HW215075   5.723   5.987   0.280
 4726SOL     OW15076   1.335   3.261   5.368
 4726SOL    HW115077   1.327   3.296   5.275
 4726SOL    HW215078   1.262   3.194   5.385
 4727SOL     OW15079   0.819   5.349   0.358
 4727SOL    HW115080   0.883   5.386   0.290
 4727SOL    HW215081   0.776   5.425   0.407
 4728SOL     OW15082   6.651   1.086   4.362
 4728SOL    HW115083   6.597   1.056   4.440
 4728SOL    HW215084   6.694   1.174   4.384
 4729SOL     OW15085   6.438   0.863   0.938
 4729SOL    HW115086   6.462   0.789   0.876
 4729SOL    HW215087   6.404   0.826   1.024
 4730SOL     OW15088   3.547   0.190   4.877
 4730SOL    HW115089   3.560   0.095   4.850
 4730SOL    HW215090   3.625   0.244   4.847
 4731SOL     OW15091   3.241   0.810   0.707
 4731SOL    HW115092   3.213   0.719   0.737
 4731SOL    HW215093   3.286   0.802   0.618
 4732SOL     OW15094   0.483   4.469   4.229
 4732SOL    HW115095   0.557   4.535   4.238
 4732SOL    HW215096   0.487   4.403   4.304
 4733SOL     OW15097   2.120   3.706   3.089
 4733SOL    HW115098   2.080   3.630   3.140
 4733SOL    HW215099   2.113   3.688   2.991
 4734SOL     OW15100   5.051   4.005   6.680
 4734SOL    HW115101   4.955   3.980   6.677
 4734SOL    HW215102   5.089   3.982   6.769
 4735SOL     OW15103   0.192   0.040   4.524
 4735SOL    HW115104   0.094   0.040   4.507
 4735SOL    HW215105   0.215   6.985   4.585
 4736SOL     OW15106   6.348   1.911   3.257
 4736SOL    HW115107   6.422   1.958   3.209
 4736SOL    HW215108   6.368   1.910   3.355
 4737SOL     OW15109   2.130   4.634   1.095
 4737SOL    HW115110   2.229   4.617   1.094
 4737SOL    HW215111   2.101   4.648   1.190
 4738SOL     OW15112   2.097   6.658   3.954
 4738SOL    HW115113   2.131   6.582   4.010
 4738SOL    HW215114   2.168   6.686   3.889
 4739SOL     OW15115   5.799   3.277   3.843
 4739SOL    HW115116   5.723   3.275   3.908
 4739SOL    HW215117   5.823   3.372   3.824
 4740SOL     OW15118   0.335   0.854   1.277
 4740SOL    HW115119   0.273   0.860   1.355
 4740SOL    HW215120   0.295   0.902   1.199
 4741SOL     OW15121   4.377   4.845   1.524
 4741SOL    HW115122   4.354   4.864   1.620
 4741SOL    HW215123   4.329   4.910   1.465
 4742SOL     OW15124   2.728   6.405   1.646
 4742SOL    HW115125   2.751   6.312   1.675
 4742SOL    HW215126   2.688   6.401   1.554
 4743SOL     OW15127   2.501   2.307   0.388
 4743SOL    HW115128   2.513   2.290   0.486
 4743SOL    HW215129   2.445   2.235   0.348
 4744SOL     OW15130   1.847   3.054   5.609
 4744SOL    HW115131   1.818   3.108   5.688
 4744SOL    HW215132   1.789   3.076   5.530
 4745SOL     OW15133   3.043   5.748   5.132
 4745SOL    HW115134   3.104   5.705   5.065
 4745SOL    HW215135   3.021   5.841   5.102
 4746SOL     OW15136   6.708   0.004   0.625
 4746SOL    HW115137   6.763   7.004   0.544
 4746SOL    HW215138   6.619   0.041   0.596
 4747SOL     OW15139   6.073   2.655   0.767
 4747SOL    HW115140   6.168   2.642   0.795
 4747SOL    HW215141   6.015   2.590   0.816
 4748SOL     OW15142   1.826   1.111   1.462
 4748SOL    HW115143   1.809   1.200   1.505
 4748SOL    HW215144   1.920   1.082   1.482
 4749SOL     OW15145   1.528   6.677   6.699
 4749SOL    HW115146   1.607   6.687   6.760
 4749SOL    HW215147   1.532   6.747   6.627
 4750SOL     OW15148   0.137   0.595   4.530
 4750SOL    HW115149   0.191   0.591   4.446
 4750SOL    HW215150   0.185   0.544   4.602
 4751SOL     OW15151   1.295   4.221   6.647
 4751SOL    HW115152   1.287   4.242   6.550
 4751SOL    HW215153   1.269   4.126   6.663
 4752SOL     OW15154   3.015   5.934   1.564
 4752SOL    HW115155   3.049   5.904   1.653
 4752SOL    HW215156   3.092   5.962   1.507
 4753SOL     OW15157   5.653   6.776   5.155
 4753SOL    HW115158   5.678   6.679   5.162
 4753SOL    HW215159   5.554   6.783   5.139
 4754SOL     OW15160   0.565   0.525   5.705
 4754SOL    HW115161   0.484   0.561   5.659
 4754SOL    HW215162   0.577   0.429   5.681
 4755SOL     OW15163   2.388   1.612   6.439
 4755SOL    HW115164   2.351   1.631   6.530
 4755SOL    HW215165   2.465   1.673   6.421
 4756SOL     OW15166   4.969   2.715   1.308
 4756SOL    HW115167   5.068   2.708   1.318
 4756SOL    HW215168   4.925   2.640   1.358
 4757SOL     OW15169   2.009   2.199   1.291
 4757SOL    HW115170   1.934   2.262   1.311
 4757SOL    HW215171   2.051   2.224   1.204
 4758SOL     OW15172   5.018   5.109   5.238
 4758SOL    HW115173   5.061   5.022   5.213
 4758SOL    HW215174   4.925   5.111   5.204
 4759SOL     OW15175   5.435   5.235   5.919
 4759SOL    HW115176   5.504   5.199   5.855
 4759SOL    HW215177   5.479   5.295   5.986
 4760SOL     OW15178   1.789   1.655   1.670
 4760SOL    HW115179   1.724   1.579   1.664
 4760SOL    HW215180   1.843   1.647   1.754
 4761SOL     OW15181   0.087   0.156   6.639
 4761SOL    HW115182   0.179   0.173   6.602
 4761SOL    HW215183   0.079   0.200   6.728
 4762SOL     OW15184   1.984   5.630   1.678
 4762SOL    HW115185   2.009   5.607   1.584
 4762SOL    HW215186   2.065   5.656   1.729
 4763SOL     OW15187   6.028   6.007   3.596
 4763SOL    HW115188   6.098   6.075   3.578
 4763SOL    HW215189   6.036   5.976   3.691
 4764SOL     OW15190   3.862   3.410   4.298
 4764SOL    HW115191   3.910   3.347   4.237
 4764SOL    HW215192   3.771   3.430   4.260
 4765SOL     OW15193   5.243   5.897   4.606
 4765SOL    HW115194   5.282   5.945   4.527
 4765SOL    HW215195   5.265   5.800   4.600
 4766SOL     OW15196   2.680   0.414   3.164
 4766SOL    HW115197   2.656   0.497   3.114
 4766SOL    HW215198   2.779   0.406   3.170
 4767SOL     OW15199   4.311   6.219   6.815
 4767SOL    HW115200   4.398   6.203   6.770
 4767SOL    HW215201   4.327   6.259   6.906
 4768SOL     OW15202   6.866   0.579   5.427
 4768SOL    HW115203   6.792   0.538   5.373
 4768SOL    HW215204   6.867   0.678   5.412
 4769SOL     OW15205   4.203   7.012   1.260
 4769SOL    HW115206   4.183   0.041   1.344
 4769SOL    HW215207   4.121   7.010   1.202
 4770SOL     OW15208   2.630   0.767   3.165
 4770SOL    HW115209   2.723   0.734   3.150
 4770SOL    HW215210   2.592   0.724   3.247
 4771SOL     OW15211   4.045   4.126   5.343
 4771SOL    HW115212   3.968   4.183   5.371
 4771SOL    HW215213   4.020   4.072   5.264
 4772SOL     OW15214   2.799   1.956   1.675
 4772SOL    HW115215   2.748   1.978   1.758
 4772SOL    HW215216   2.897   1.969   1.692
 4773SOL     OW15217   0.065   6.023   3.620
 4773SOL    HW115218   0.090   5.926   3.618
 4773SOL    HW215219   0.142   6.077   3.584
 4774SOL     OW15220   0.482   3.773   1.541
 4774SOL    HW115221   0.544   3.697   1.518
 4774SOL    HW215222   0.462   3.826   1.459
 4775SOL     OW15223   4.132   0.422   2.545
 4775SOL    HW115224   4.206   0.362   2.577
 4775SOL    HW215225   4.077   0.373   2.478
 4776SOL     OW15226   3.218   5.675   2.119
 4776SOL    HW115227   3.226   5.689   2.218
 4776SOL    HW215228   3.205   5.763   2.074
 4777SOL     OW15229   2.772   4.009   1.230
 4777SOL    HW115230   2.842   3.972   1.292
 4777SOL    HW215231   2.741   3.936   1.169
 4778SOL     OW15232   4.778   4.267   1.996
 4778SOL    HW115233   4.784   4.355   1.949
 4778SOL    HW215234   4.682   4.241   2.006
 4779SOL     OW15235   5.834   0.608   3.039
 4779SOL    HW115236   5.867   0.699   3.062
 4779SOL    HW215237   5.766   0.614   2.966
 4780SOL     OW15238   0.870   6.824   6.383
 4780SOL    HW115239   0.887   6.726   6.399
 4780SOL    HW215240   0.908   6.877   6.459
 4781SOL     OW15241   2.637   5.405   1.325
 4781SOL    HW115242   2.661   5.335   1.392
 4781SOL    HW215243   2.548   5.444   1.349
 4782SOL     OW15244   5.671   6.228   6.274
 4782SOL    HW115245   5.732   6.229   6.194
 4782SOL    HW215246   5.725   6.214   6.357
 4783SOL     OW15247   5.340   4.484   1.134
 4783SOL    HW115248   5.261   4.424   1.122
 4783SOL    HW215249   5.400   4.476   1.055
 4784SOL     OW15250   5.725   4.870   4.579
 4784SOL    HW115251   5.786   4.919   4.642
 4784SOL    HW215252   5.754   4.888   4.485
 4785SOL     OW15253   0.091   6.825   1.903
 4785SOL    HW115254   0.113   6.728   1.906
 4785SOL    HW215255   7.015   6.838   1.881
 4786SOL     OW15256   1.832   3.266   2.110
 4786SOL    HW115257   1.854   3.325   2.188
 4786SOL    HW215258   1.871   3.306   2.026
 4787SOL     OW15259   3.166   2.196   3.060
 4787SOL    HW115260   3.137   2.231   2.971
 4787SOL    HW215261   3.266   2.186   3.060
 4788SOL     OW15262   1.356   5.391   4.187
 4788SOL    HW115263   1.313   5.301   4.192
 4788SOL    HW215264   1.420   5.393   4.111
 4789SOL     OW15265   5.842   0.531   0.204
 4789SOL    HW115266   5.939   0.514   0.223
 4789SOL    HW215267   5.830   0.543   0.105
 4790SOL     OW15268   5.542   2.503   6.311
 4790SOL    HW115269   5.620   2.443   6.294
 4790SOL    HW215270   5.473   2.453   6.365
 4791SOL     OW15271   5.675   7.000   2.128
 4791SOL    HW115272   5.766   6.962   2.112
 4791SOL    HW215273   5.656   7.004   2.226
 4792SOL     OW15274   2.084   2.622   2.180
 4792SOL    HW115275   2.156   2.690   2.172
 4792SOL    HW215276   2.073   2.574   2.093
 4793SOL     OW15277   1.215   6.788   6.109
 4793SOL    HW115278   1.162   6.704   6.118
 4793SOL    HW215279   1.160   6.856   6.060
 4794SOL     OW15280   2.811   0.428   2.385
 4794SOL    HW115281   2.784   0.522   2.366
 4794SOL    HW215282   2.730   0.369   2.382
 4795SOL     OW15283   6.146   3.243   3.902
 4795SOL    HW115284   6.135   3.342   3.908
 4795SOL    HW215285   6.134   3.202   3.993
 4796SOL     OW15286   5.777   4.598   0.930
 4796SOL    HW115287   5.789   4.665   0.857
 4796SOL    HW215288   5.765   4.645   1.018
 4797SOL     OW15289   0.405   4.541   5.149
 4797SOL    HW115290   0.454   4.584   5.225
 4797SOL    HW215291   0.343   4.608   5.107
 4798SOL     OW15292   6.803   4.445   4.118
 4798SOL    HW115293   6.848   4.420   4.204
 4798SOL    HW215294   6.717   4.491   4.138
 4799SOL     OW15295   4.448   1.469   5.134
 4799SOL    HW115296   4.366   1.521   5.112
 4799SOL    HW215297   4.425   1.400   5.204
 4800SOL     OW15298   1.935   2.439   5.192
 4800SOL    HW115299   2.032   2.456   5.213
 4800SOL    HW215300   1.883   2.435   5.277
 4801SOL     OW15301   0.796   2.161   1.276
 4801SOL    HW115302   0.832   2.073   1.246
 4801SOL    HW215303   0.727   2.148   1.346
 4802SOL     OW15304   2.752   0.257   1.725
 4802SOL    HW115305   2.802   0.191   1.669
 4802SOL    HW215306   2.785   0.252   1.820
 4803SOL     OW15307   1.177   7.010   0.419
 4803SOL    HW115308   1.098   6.950   0.419
 4803SOL    HW215309   1.152   0.077   0.460
 4804SOL     OW15310   4.162   4.972   6.848
 4804SOL    HW115311   4.171   4.913   6.928
 4804SOL    HW215312   4.247   4.972   6.797
 4805SOL     OW15313   6.690   1.746   1.034
 4805SOL    HW115314   6.724   1.653   1.048
 4805SOL    HW215315   6.593   1.742   1.007
 4806SOL     OW15316   0.797   2.791   2.981
 4806SOL    HW115317   0.741   2.869   3.007
 4806SOL    HW215318   0.868   2.820   2.916
 4807SOL     OW15319   0.211   6.879   1.095
 4807SOL    HW115320   0.216   6.779   1.091
 4807SOL    HW215321   0.222   6.909   1.189
 4808SOL     OW15322   5.156   2.974   1.186
 4808SOL    HW115323   5.168   2.970   1.087
 4808SOL    HW215324   5.121   2.887   1.219
 4809SOL     OW15325   3.926   5.280   6.763
 4809SOL    HW115326   3.950   5.361   6.708
 4809SOL    HW215327   3.999   5.212   6.755
 4810SOL     OW15328   0.742   0.002   1.352
 4810SOL    HW115329   0.689   6.970   1.285
 4810SOL    HW215330   0.830   0.027   1.312
 4811SOL     OW15331   3.839   5.305   2.256
 4811SOL    HW115332   3.914   5.340   2.311
 4811SOL    HW215333   3.780   5.247   2.313
 4812SOL     OW15334   0.133   5.799   4.076
 4812SOL    HW115335   0.117   5.896   4.096
 4812SOL    HW215336   0.230   5.785   4.057
 4813SOL     OW15337   5.217   2.164   2.718
 4813SOL    HW115338   5.117   2.174   2.716
 4813SOL    HW215339   5.256   2.214   2.640
 4814SOL     OW15340   6.952   3.660   1.417
 4814SOL    HW115341   6.970   3.643   1.513
 4814SOL    HW215342   7.019   3.610   1.361
 4815SOL     OW15343   4.733   6.146   1.260
 4815SOL    HW115344   4.771   6.144   1.168
 4815SOL    HW215345   4.690   6.235   1.277
 4816SOL     OW15346   5.349   5.138   3.102
 4816SOL    HW115347   5.417   5.066   3.094
 4816SOL    HW215348   5.261   5.105   3.069
 4817SOL     OW15349   0.916   2.397   6.568
 4817SOL    HW115350   0.870   2.431   6.486
 4817SOL    HW215351   0.862   2.421   6.649
 4818SOL     OW15352   0.277   0.163   3.892
 4818SOL    HW115353   0.364   0.138   3.848
 4818SOL    HW215354   0.209   0.093   3.873
 4819SOL     OW15355   1.285   3.253   0.779
 4819SOL    HW115356   1.299   3.218   0.871
 4819SOL    HW215357   1.356   3.319   0.757
 4820SOL     OW15358   7.006   2.986   1.925
 4820SOL    HW115359   0.072   2.981   1.876
 4820SOL    HW215360   7.014   2.935   2.011
 4821SOL     OW15361   6.810   5.730   2.509
 4821SOL    HW115362   6.874   5.734   2.585
 4821SOL    HW215363   6.861   5.719   2.423
 4822SOL     OW15364   1.554   3.606   4.482
 4822SOL    HW115365   1.652   3.615   4.462
 4822SOL    HW215366   1.504   3.588   4.397
 4823SOL     OW15367   2.262   2.886   1.934
 4823SOL    HW115368   2.240   2.977   1.899
 4823SOL    HW215369   2.235   2.817   1.867
 4824SOL     OW15370   5.980   1.398   5.422
 4824SOL    HW115371   5.922   1.318   5.408
 4824SOL    HW215372   6.028   1.389   5.509
 4825SOL     OW15373   1.625   6.686   4.065
 4825SOL    HW115374   1.527   6.703   4.082
 4825SOL    HW215375   1.671   6.668   4.152
 4826SOL     OW15376   4.430   0.637   1.571
 4826SOL    HW115377   4.385   0.726   1.566
 4826SOL    HW215378   4.451   0.616   1.667
 4827SOL     OW15379   6.964   1.725   1.237
 4827SOL    HW115380   6.936   1.631   1.219
 4827SOL    HW215381   7.003   1.764   1.153
 4828SOL     OW15382   4.698   0.724   3.551
 4828SOL    HW115383   4.601   0.702   3.565
 4828SOL    HW215384   4.709   0.824   3.555
 4829SOL     OW15385   3.937   6.871   5.115
 4829SOL    HW115386   3.934   6.825   5.204
 4829SOL    HW215387   3.857   6.931   5.106
 4830SOL     OW15388   2.932   5.776   3.314
 4830SOL    HW115389   2.966   5.700   3.258
 4830SOL    HW215390   2.946   5.862   3.266
 4831SOL     OW15391   3.023   4.866   5.761
 4831SOL    HW115392   2.994   4.939   5.823
 4831SOL    HW215393   3.123   4.856   5.766
 4832SOL     OW15394   3.380   3.190   4.441
 4832SOL    HW115395   3.355   3.270   4.385
 4832SOL    HW215396   3.475   3.199   4.471
 4833SOL     OW15397   0.170   2.933   4.242
 4833SOL    HW115398   0.093   2.997   4.235
 4833SOL    HW215399   0.175   2.878   4.158
 4834SOL     OW15400   1.167   5.011   1.727
 4834SOL    HW115401   1.236   5.001   1.656
 4834SOL    HW215402   1.157   4.924   1.776
 4835SOL     OW15403   6.638   2.215   5.353
 4835SOL    HW115404   6.543   2.199   5.328
 4835SOL    HW215405   6.646   2.302   5.402
 4836SOL     OW15406   5.410   1.451   5.476
 4836SOL    HW115407   5.485   1.394   5.443
 4836SOL    HW215408   5.327   1.396   5.484
 4837SOL     OW15409   0.249   4.677   4.429
 4837SOL    HW115410   0.173   4.631   4.381
 4837SOL    HW215411   0.310   4.718   4.362
 4838SOL     OW15412   1.973   4.176   6.572
 4838SOL    HW115413   1.981   4.084   6.534
 4838SOL    HW215414   1.932   4.237   6.504
 4839SOL     OW15415   2.609   1.417   6.973
 4839SOL    HW115416   2.649   1.331   6.942
 4839SOL    HW215417   2.530   1.398   0.011
 4840SOL     OW15418   5.796   3.567   4.846
 4840SOL    HW115419   5.867   3.519   4.793
 4840SOL    HW215420   5.752   3.503   4.909
 4841SOL     OW15421   3.328   5.851   2.762
 4841SOL    HW115422   3.421   5.820   2.778
 4841SOL    HW215423   3.294   5.899   2.843
 4842SOL     OW15424   3.036   5.552   2.921
 4842SOL    HW115425   3.116   5.526   2.977
 4842SOL    HW215426   2.959   5.493   2.946
 4843SOL     OW15427   0.521   1.693   1.790
 4843SOL    HW115428   0.450   1.624   1.772
 4843SOL    HW215429   0.545   1.691   1.887
 4844SOL     OW15430   1.038   5.571   4.767
 4844SOL    HW115431   1.107   5.631   4.726
 4844SOL    HW215432   1.070   5.476   4.762
 4845SOL     OW15433   4.941   3.846   4.918
 4845SOL    HW115434   4.921   3.750   4.937
 4845SOL    HW215435   4.937   3.862   4.819
 4846SOL     OW15436   6.911   3.595   4.387
 4846SOL    HW115437   6.985   3.543   4.429
 4846SOL    HW215438   6.920   3.593   4.287
 4847SOL     OW15439   2.419   6.105   6.315
 4847SOL    HW115440   2.321   6.125   6.318
 4847SOL    HW215441   2.434   6.021   6.263
 4848SOL     OW15442   3.348   1.122   4.337
 4848SOL    HW115443   3.422   1.186   4.316
 4848SOL    HW215444   3.382   1.029   4.330
 4849SOL     OW15445   1.993   6.906   1.119
 4849SOL    HW115446   1.986   6.942   1.025
 4849SOL    HW215447   2.082   6.862   1.130
 4850SOL     OW15448   4.442   0.093   0.394
 4850SOL    HW115449   4.408   0.084   0.301
 4850SOL    HW215450   4.415   0.013   0.447
 4851SOL     OW15451   3.735   4.490   6.805
 4851SOL    HW115452   3.821   4.503   6.854
 4851SOL    HW215453   3.751   4.502   6.707
 4852SOL     OW15454   4.845   5.437   4.757
 4852SOL    HW115455   4.805   5.362   4.703
 4852SOL    HW215456   4.934   5.461   4.719
 4853SOL     OW15457   4.423   0.044   1.881
 4853SOL    HW115458   4.429   0.043   1.981
 4853SOL    HW215459   4.352   7.001   1.851
 4854SOL     OW15460   5.780   6.237   1.774
 4854SOL    HW115461   5.817   6.300   1.705
 4854SOL    HW215462   5.736   6.160   1.728
 4855SOL     OW15463   5.393   4.984   5.575
 4855SOL    HW115464   5.379   4.885   5.576
 4855SOL    HW215465   5.390   5.017   5.481
 4856SOL     OW15466   6.975   3.828   2.925
 4856SOL    HW115467   6.877   3.845   2.911
 4856SOL    HW215468   7.004   3.751   2.869
 4857SOL     OW15469   2.466   2.040   4.948
 4857SOL    HW115470   2.564   2.047   4.931
 4857SOL    HW215471   2.451   2.004   5.040
 4858SOL     OW15472   0.544   6.003   4.164
 4858SOL    HW115473   0.507   6.080   4.112
 4858SOL    HW215474   0.596   5.943   4.103
 4859SOL     OW15475   0.981   6.233   2.209
 4859SOL    HW115476   0.902   6.258   2.265
 4859SOL    HW215477   0.988   6.295   2.131
 4860SOL     OW15478   4.274   5.430   1.041
 4860SOL    HW115479   4.244   5.525   1.032
 4860SOL    HW215480   4.373   5.429   1.057
 4861SOL     OW15481   6.968   4.402   6.809
 4861SOL    HW115482   7.011   4.381   6.897
 4861SOL    HW215483   7.019   4.357   6.736
 4862SOL     OW15484   2.556   5.342   5.565
 4862SOL    HW115485   2.652   5.369   5.557
 4862SOL    HW215486   2.520   5.320   5.474
 4863SOL     OW15487   4.537   2.010   3.137
 4863SOL    HW115488   4.637   2.015   3.136
 4863SOL    HW215489   4.504   1.984   3.046
 4864SOL     OW15490   2.498   1.276   1.388
 4864SOL    HW115491   2.412   1.301   1.343
 4864SOL    HW215492   2.564   1.247   1.319
 4865SOL     OW15493   3.621   5.980   5.359
 4865SOL    HW115494   3.607   6.075   5.332
 4865SOL    HW215495   3.713   5.950   5.333
 4866SOL     OW15496   6.815   4.431   1.652
 4866SOL    HW115497   6.900   4.449   1.701
 4866SOL    HW215498   6.739   4.471   1.704
 4867SOL     OW15499   4.894   6.015   3.371
 4867SOL    HW115500   4.951   6.062   3.437
 4867SOL    HW215501   4.830   5.954   3.418
 4868SOL     OW15502   0.577   5.969   1.020
 4868SOL    HW115503   0.672   5.963   1.051
 4868SOL    HW215504   0.533   5.880   1.029
 4869SOL     OW15505   6.498   0.396   0.925
 4869SOL    HW115506   6.414   0.356   0.960
 4869SOL    HW215507   6.576   0.363   0.979
 4870SOL     OW15508   6.657   6.605   1.626
 4870SOL    HW115509   6.592   6.626   1.552
 4870SOL    HW215510   6.750   6.606   1.589
 4871SOL     OW15511   0.651   3.897   3.835
 4871SOL    HW115512   0.703   3.960   3.777
 4871SOL    HW215513   0.674   3.803   3.809
 4872SOL     OW15514   0.823   0.695   3.377
 4872SOL    HW115515   0.908   0.695   3.325
 4872SOL    HW215516   0.821   0.616   3.438
 4873SOL     OW15517   0.427   5.550   5.446
 4873SOL    HW115518   0.339   5.502   5.444
 4873SOL    HW215519   0.458   5.559   5.541
 4874SOL     OW15520   4.949   3.889   3.163
 4874SOL    HW115521   5.040   3.877   3.123
 4874SOL    HW215522   4.884   3.916   3.092
 4875SOL     OW15523   6.168   2.613   6.822
 4875SOL    HW115524   6.184   2.706   6.789
 4875SOL    HW215525   6.236   2.552   6.782
 4876SOL     OW15526   0.797   1.349   6.577
 4876SOL    HW115527   0.736   1.406   6.631
 4876SOL    HW215528   0.890   1.355   6.613
 4877SOL     OW15529   6.442   1.688   0.942
 4877SOL    HW115530   6.441   1.630   0.861
 4877SOL    HW215531   6.392   1.773   0.923
 4878SOL     OW15532   6.853   1.851   1.798
 4878SOL    HW115533   6.826   1.943   1.826
 4878SOL    HW215534   6.772   1.797   1.777
 4879SOL     OW15535   4.290   5.538   3.571
 4879SOL    HW115536   4.248   5.628   3.584
 4879SOL    HW215537   4.286   5.513   3.475
 4880SOL     OW15538   5.495   2.202   6.103
 4880SOL    HW115539   5.526   2.228   6.195
 4880SOL    HW215540   5.572   2.162   6.052
 4881SOL     OW15541   3.377   6.306   6.544
 4881SOL    HW115542   3.421   6.370   6.482
 4881SOL    HW215543   3.431   6.222   6.550
 4882SOL     OW15544   5.484   0.729   5.498
 4882SOL    HW115545   5.422   0.671   5.445
 4882SOL    HW215546   5.435   0.767   5.577
 4883SOL     OW15547   0.201   5.862   1.156
 4883SOL    HW115548   0.106   5.834   1.138
 4883SOL    HW215549   0.238   5.907   1.075
 4884SOL     OW15550   3.366   6.681   1.660
 4884SOL    HW115551   3.455   6.693   1.616
 4884SOL    HW215552   3.364   6.593   1.707
 4885SOL     OW15553   2.169   6.959   1.900
 4885SOL    HW115554   2.201   0.033   1.901
 4885SOL    HW215555   2.186   6.919   1.809
 4886SOL     OW15556   6.085   0.735   6.274
 4886SOL    HW115557   6.164   0.793   6.291
 4886SOL    HW215558   6.004   0.791   6.259
 4887SOL     OW15559   0.438   1.692   4.666
 4887SOL    HW115560   0.383   1.710   4.584
 4887SOL    HW215561   0.477   1.601   4.661
 4888SOL     OW15562   2.857   5.593   2.235
 4888SOL    HW115563   2.867   5.533   2.155
 4888SOL    HW215564   2.769   5.573   2.280
 4889SOL     OW15565   1.327   2.652   0.268
 4889SOL    HW115566   1.323   2.744   0.229
 4889SOL    HW215567   1.417   2.638   0.310
 4890SOL     OW15568   1.199   0.459   4.684
 4890SOL    HW115569   1.177   0.490   4.777
 4890SOL    HW215570   1.216   0.539   4.626
 4891SOL     OW15571   1.074   4.142   0.666
 4891SOL    HW115572   1.020   4.165   0.748
 4891SOL    HW215573   1.108   4.227   0.625
 4892SOL     OW15574   1.299   5.582   1.572
 4892SOL    HW115575   1.372   5.575   1.640
 4892SOL    HW215576   1.223   5.523   1.599
 4893SOL     OW15577   0.260   3.486   6.523
 4893SOL    HW115578   0.210   3.444   6.447
 4893SOL    HW215579   0.214   3.467   6.609
 4894SOL     OW15580   2.113   0.616   3.315
 4894SOL    HW115581   2.186   0.678   3.346
 4894SOL    HW215582   2.153   0.544   3.258
 4895SOL     OW15583   0.554   3.591   0.802
 4895SOL    HW115584   0.556   3.494   0.829
 4895SOL    HW215585   0.628   3.640   0.848
 4896SOL     OW15586   3.951   5.368   3.870
 4896SOL    HW115587   3.975   5.270   3.868
 4896SOL    HW215588   3.876   5.382   3.935
 4897SOL     OW15589   3.381   5.276   6.237
 4897SOL    HW115590   3.447   5.317   6.300
 4897SOL    HW215591   3.337   5.348   6.184
 4898SOL     OW15592   5.672   2.260   5.514
 4898SOL    HW115593   5.731   2.273   5.594
 4898SOL    HW215594   5.604   2.334   5.511
 4899SOL     OW15595   5.672   3.817   4.330
 4899SOL    HW115596   5.609   3.838   4.255
 4899SOL    HW215597   5.753   3.876   4.323
 4900SOL     OW15598   0.960   6.562   5.120
 4900SOL    HW115599   0.996   6.589   5.030
 4900SOL    HW215600   0.897   6.632   5.153
 4901SOL     OW15601   1.423   6.826   3.505
 4901SOL    HW115602   1.344   6.825   3.565
 4901SOL    HW215603   1.486   6.899   3.533
 4902SOL     OW15604   3.036   4.801   2.084
 4902SOL    HW115605   3.122   4.782   2.036
 4902SOL    HW215606   2.965   4.740   2.049
 4903SOL     OW15607   4.876   6.736   6.426
 4903SOL    HW115608   4.892   6.798   6.350
 4903SOL    HW215609   4.879   6.786   6.513
 4904SOL     OW15610   3.420   6.194   3.609
 4904SOL    HW115611   3.340   6.161   3.560
 4904SOL    HW215612   3.394   6.225   3.700
 4905SOL     OW15613   6.172   3.376   2.476
 4905SOL    HW115614   6.186   3.364   2.377
 4905SOL    HW215615   6.139   3.469   2.493
 4906SOL     OW15616   6.097   0.607   0.824
 4906SOL    HW115617   6.061   0.700   0.826
 4906SOL    HW215618   6.090   0.566   0.915
 4907SOL     OW15619   3.209   0.904   2.129
 4907SOL    HW115620   3.141   0.870   2.194
 4907SOL    HW215621   3.164   0.960   2.060
 4908SOL     OW15622   3.569   5.566   6.726
 4908SOL    HW115623   3.491   5.540   6.670
 4908SOL    HW215624   3.542   5.639   6.789
 4909SOL     OW15625   6.693   0.250   5.038
 4909SOL    HW115626   6.634   0.217   5.111
 4909SOL    HW215627   6.761   0.180   5.017
 4910SOL     OW15628   6.353   0.107   4.992
 4910SOL    HW115629   6.423   0.104   4.921
 4910SOL    HW215630   6.396   0.101   5.082
 4911SOL     OW15631   6.899   2.872   5.960
 4911SOL    HW115632   6.938   2.786   5.994
 4911SOL    HW215633   6.959   2.911   5.891
 4912SOL     OW15634   2.334   2.435   2.130
 4912SOL    HW115635   2.300   2.423   2.223
 4912SOL    HW215636   2.433   2.416   2.128
 4913SOL     OW15637   2.985   3.630   2.619
 4913SOL    HW115638   3.012   3.664   2.709
 4913SOL    HW215639   2.988   3.705   2.553
 4914SOL     OW15640   2.003   6.471   3.504
 4914SOL    HW115641   2.032   6.376   3.499
 4914SOL    HW215642   2.038   6.521   3.425
 4915SOL     OW15643   3.215   6.023   3.515
 4915SOL    HW115644   3.189   6.001   3.421
 4915SOL    HW215645   3.246   5.940   3.561
 4916SOL     OW15646   2.638   1.178   2.220
 4916SOL    HW115647   2.678   1.239   2.288
 4916SOL    HW215648   2.693   1.180   2.137
 4917SOL     OW15649   1.844   4.879   0.423
 4917SOL    HW115650   1.938   4.871   0.456
 4917SOL    HW215651   1.781   4.858   0.497
 4918SOL     OW15652   2.302   0.350   2.346
 4918SOL    HW115653   2.288   0.441   2.385
 4918SOL    HW215654   2.230   0.330   2.280
 4919SOL     OW15655   2.610   2.447   2.009
 4919SOL    HW115656   2.629   2.444   2.107
 4919SOL    HW215657   2.682   2.399   1.960
 4920SOL     OW15658   4.565   0.617   6.953
 4920SOL    HW115659   4.649   0.567   6.933
 4920SOL    HW215660   4.562   0.700   6.897
 4921SOL     OW15661   1.489   4.887   1.918
 4921SOL    HW115662   1.578   4.909   1.878
 4921SOL    HW215663   1.478   4.788   1.922
 4922SOL     OW15664   1.319   2.824   6.186
 4922SOL    HW115665   1.417   2.804   6.196
 4922SOL    HW215666   1.266   2.744   6.213
 4923SOL     OW15667   4.200   1.454   0.687
 4923SOL    HW115668   4.115   1.485   0.730
 4923SOL    HW215669   4.218   1.359   0.714
 4924SOL     OW15670   0.541   3.871   4.563
 4924SOL    HW115671   0.583   3.936   4.499
 4924SOL    HW215672   0.517   3.787   4.514
 4925SOL     OW15673   3.962   5.944   0.124
 4925SOL    HW115674   4.044   5.988   0.087
 4925SOL    HW215675   3.891   5.942   0.053
 4926SOL     OW15676   4.727   2.347   1.950
 4926SOL    HW115677   4.674   2.264   1.965
 4926SOL    HW215678   4.666   2.422   1.923
 4927SOL     OW15679   3.747   3.570   2.956
 4927SOL    HW115680   3.843   3.544   2.953
 4927SOL    HW215681   3.738   3.658   3.004
 4928SOL     OW15682   0.675   5.911   0.621
 4928SOL    HW115683   0.599   5.976   0.630
 4928SOL    HW215684   0.701   5.904   0.525
 4929SOL     OW15685   0.766   5.110   4.318
 4929SOL    HW115686   0.750   5.060   4.403
 4929SOL    HW215687   0.707   5.190   4.315
 4930SOL     OW15688   6.980   2.036   0.759
 4930SOL    HW115689   6.890   2.005   0.789
 4930SOL    HW215690   0.027   2.016   0.830
 4931SOL     OW15691   0.174   0.801   0.912
 4931SOL    HW115692   0.082   0.819   0.948
 4931SOL    HW215693   0.179   0.707   0.879
 4932SOL     OW15694   2.972   2.608   1.314
 4932SOL    HW115695   2.915   2.680   1.355
 4932SOL    HW215696   2.914   2.530   1.290
 4933SOL     OW15697   3.180   1.245   4.521
 4933SOL    HW115698   3.264   1.203   4.487
 4933SOL    HW215699   3.103   1.216   4.464
 4934SOL     OW15700   1.228   5.981   4.842
 4934SOL    HW115701   1.140   5.997   4.797
 4934SOL    HW215702   1.222   6.006   4.938
 4935SOL     OW15703   1.493   1.329   0.597
 4935SOL    HW115704   1.543   1.328   0.510
 4935SOL    HW215705   1.548   1.281   0.667
 4936SOL     OW15706   3.876   5.416   0.495
 4936SOL    HW115707   3.780   5.405   0.471
 4936SOL    HW215708   3.902   5.512   0.484
 4937SOL     OW15709   0.445   3.095   6.476
 4937SOL    HW115710   0.387   3.037   6.533
 4937SOL    HW215711   0.387   3.152   6.417
 4938SOL     OW15712   3.323   4.450   1.280
 4938SOL    HW115713   3.352   4.383   1.348
 4938SOL    HW215714   3.364   4.539   1.302
 4939SOL     OW15715   1.737   1.906   2.099
 4939SOL    HW115716   1.832   1.875   2.091
 4939SOL    HW215717   1.735   2.001   2.131
 4940SOL     OW15718   6.869   2.131   5.182
 4940SOL    HW115719   6.787   2.128   5.239
 4940SOL    HW215720   6.847   2.172   5.094
 4941SOL     OW15721   4.120   1.924   5.130
 4941SOL    HW115722   4.060   1.920   5.210
 4941SOL    HW215723   4.136   2.020   5.106
 4942SOL     OW15724   6.761   1.728   3.859
 4942SOL    HW115725   6.852   1.752   3.892
 4942SOL    HW215726   6.761   1.633   3.827
 4943SOL     OW15727   5.245   3.369   6.391
 4943SOL    HW115728   5.345   3.367   6.401
 4943SOL    HW215729   5.217   3.461   6.363
 4944SOL     OW15730   1.518   5.211   0.803
 4944SOL    HW115731   1.523   5.214   0.703
 4944SOL    HW215732   1.610   5.200   0.841
 4945SOL     OW15733   1.997   1.051   4.864
 4945SOL    HW115734   1.906   1.011   4.861
 4945SOL    HW215735   2.021   1.073   4.959
 4946SOL     OW15736   2.502   4.905   6.875
 4946SOL    HW115737   2.559   4.910   6.957
 4946SOL    HW215738   2.539   4.836   6.813
 4947SOL     OW15739   1.975   1.098   1.969
 4947SOL    HW115740   2.064   1.081   1.926
 4947SOL    HW215741   1.974   1.190   2.008
 4948SOL     OW15742   1.401   2.801   1.967
 4948SOL    HW115743   1.461   2.757   1.900
 4948SOL    HW215744   1.320   2.838   1.921
 4949SOL     OW15745   6.988   4.156   0.072
 4949SOL    HW115746   0.005   4.092   0.140
 4949SOL    HW215747   0.023   4.151   7.010
 4950SOL     OW15748   2.601   3.606   5.410
 4950SOL    HW115749   2.584   3.684   5.349
 4950SOL    HW215750   2.641   3.531   5.357
 4951SOL     OW15751   4.996   5.527   3.378
 4951SOL    HW115752   4.957   5.439   3.348
 4951SOL    HW215753   4.922   5.588   3.406
 4952SOL     OW15754   0.341   6.822   5.886
 4952SOL    HW115755   0.346   6.859   5.794
 4952SOL    HW215756   0.246   6.797   5.907
 4953SOL     OW15757   0.432   2.231   4.742
 4953SOL    HW115758   0.371   2.190   4.809
 4953SOL    HW215759   0.454   2.164   4.670
 4954SOL     OW15760   3.519   4.305   5.424
 4954SOL    HW115761   3.539   4.402   5.434
 4954SOL    HW215762   3.542   4.275   5.331
 4955SOL     OW15763   3.704   5.083   6.751
 4955SOL    HW115764   3.720   5.055   6.846
 4955SOL    HW215765   3.688   5.182   6.748
 4956SOL     OW15766   2.775   0.373   4.654
 4956SOL    HW115767   2.801   0.453   4.601
 4956SOL    HW215768   2.847   0.305   4.650
 4957SOL     OW15769   6.101   4.050   6.840
 4957SOL    HW115770   6.013   4.060   6.887
 4957SOL    HW215771   6.094   4.090   6.749
 4958SOL     OW15772   3.496   6.115   0.232
 4958SOL    HW115773   3.429   6.110   0.157
 4958SOL    HW215774   3.570   6.050   0.214
 4959SOL     OW15775   0.641   3.014   3.080
 4959SOL    HW115776   0.601   3.026   3.171
 4959SOL    HW215777   0.726   3.067   3.074
 4960SOL     OW15778   4.218   5.332   4.062
 4960SOL    HW115779   4.297   5.278   4.032
 4960SOL    HW215780   4.153   5.341   3.986
 4961SOL     OW15781   4.172   1.058   0.221
 4961SOL    HW115782   4.192   0.969   0.179
 4961SOL    HW215783   4.073   1.074   0.220
 4962SOL     OW15784   1.292   4.202   1.300
 4962SOL    HW115785   1.200   4.179   1.269
 4962SOL    HW215786   1.357   4.193   1.225
 4963SOL     OW15787   1.147   3.936   6.380
 4963SOL    HW115788   1.203   3.941   6.297
 4963SOL    HW215789   1.198   3.972   6.458
 4964SOL     OW15790   2.966   6.735   4.501
 4964SOL    HW115791   2.869   6.717   4.484
 4964SOL    HW215792   3.021   6.662   4.461
 4965SOL     OW15793   1.699   5.897   3.315
 4965SOL    HW115794   1.679   5.816   3.371
 4965SOL    HW215795   1.793   5.891   3.281
 4966SOL     OW15796   3.184   6.583   4.075
 4966SOL    HW115797   3.215   6.677   4.090
 4966SOL    HW215798   3.110   6.583   4.008
 4967SOL     OW15799   4.409   4.648   4.701
 4967SOL    HW115800   4.435   4.743   4.719
 4967SOL    HW215801   4.374   4.606   4.785
 4968SOL     OW15802   6.234   2.700   3.092
 4968SOL    HW115803   6.149   2.742   3.061
 4968SOL    HW215804   6.218   2.604   3.116
 4969SOL     OW15805   0.817   6.345   3.251
 4969SOL    HW115806   0.846   6.365   3.345
 4969SOL    HW215807   0.890   6.295   3.204
 4970SOL     OW15808   0.455   1.716   1.435
 4970SOL    HW115809   0.535   1.695   1.490
 4970SOL    HW215810   0.390   1.770   1.490
 4971SOL     OW15811   6.832   5.944   3.070
 4971SOL    HW115812   6.900   5.912   3.004
 4971SOL    HW215813   6.810   6.040   3.050
 4972SOL     OW15814   1.492   4.408   1.106
 4972SOL    HW115815   1.501   4.314   1.138
 4972SOL    HW215816   1.396   4.433   1.100
 4973SOL     OW15817   6.751   0.797   0.946
 4973SOL    HW115818   6.759   0.863   0.871
 4973SOL    HW215819   6.823   0.812   1.013
 4974SOL     OW15820   3.537   5.629   5.273
 4974SOL    HW115821   3.442   5.610   5.297
 4974SOL    HW215822   3.564   5.718   5.310
 4975SOL     OW15823   6.131   4.263   1.047
 4975SOL    HW115824   6.103   4.340   0.990
 4975SOL    HW215825   6.100   4.278   1.141
 4976SOL     OW15826   2.007   6.964   3.759
 4976SOL    HW115827   1.944   6.901   3.804
 4976SOL    HW215828   2.033   6.927   3.670
 4977SOL     OW15829   1.875   4.497   6.149
 4977SOL    HW115830   1.885   4.411   6.100
 4977SOL    HW215831   1.796   4.547   6.113
 4978SOL     OW15832   4.928   4.746   4.644
 4978SOL    HW115833   5.002   4.732   4.579
 4978SOL    HW215834   4.868   4.666   4.644
 4979SOL     OW15835   2.399   0.144   5.914
 4979SOL    HW115836   2.477   0.112   5.860
 4979SOL    HW215837   2.366   0.069   5.972
 4980SOL     OW15838   5.358   3.614   3.132
 4980SOL    HW115839   5.425   3.680   3.098
 4980SOL    HW215840   5.387   3.579   3.220
 4981SOL     OW15841   3.510   5.088   2.019
 4981SOL    HW115842   3.583   5.134   1.968
 4981SOL    HW215843   3.522   4.989   2.011
 4982SOL     OW15844   4.249   1.463   6.106
 4982SOL    HW115845   4.287   1.498   6.020
 4982SOL    HW215846   4.155   1.498   6.118
 4983SOL     OW15847   6.152   5.463   2.836
 4983SOL    HW115848   6.190   5.536   2.778
 4983SOL    HW215849   6.132   5.500   2.926
 4984SOL     OW15850   5.384   4.479   2.542
 4984SOL    HW115851   5.441   4.482   2.624
 4984SOL    HW215852   5.387   4.568   2.496
 4985SOL     OW15853   5.590   7.000   2.401
 4985SOL    HW115854   5.494   7.013   2.378
 4985SOL    HW215855   5.600   6.997   2.500
 4986SOL     OW15856   0.469   4.988   2.861
 4986SOL    HW115857   0.526   5.027   2.933
 4986SOL    HW215858   0.425   4.905   2.895
 4987SOL     OW15859   0.675   0.818   2.490
 4987SOL    HW115860   0.659   0.901   2.437
 4987SOL    HW215861   0.609   0.814   2.566
 4988SOL     OW15862   5.511   6.585   3.531
 4988SOL    HW115863   5.473   6.636   3.608
 4988SOL    HW215864   5.607   6.610   3.520
 4989SOL     OW15865   4.526   0.474   2.480
 4989SOL    HW115866   4.443   0.501   2.432
 4989SOL    HW215867   4.507   0.468   2.578
 4990SOL     OW15868   4.677   2.288   5.385
 4990SOL    HW115869   4.636   2.215   5.439
 4990SOL    HW215870   4.619   2.370   5.390
 4991SOL     OW15871   1.414   5.247   4.965
 4991SOL    HW115872   1.360   5.193   4.902
 4991SOL    HW215873   1.485   5.190   5.006
 4992SOL     OW15874   0.242   1.993   3.532
 4992SOL    HW115875   0.342   1.994   3.528
 4992SOL    HW215876   0.208   2.087   3.531
 4993SOL     OW15877   3.672   6.395   4.265
 4993SOL    HW115878   3.656   6.297   4.250
 4993SOL    HW215879   3.611   6.449   4.207
 4994SOL     OW15880   3.157   4.525   5.660
 4994SOL    HW115881   3.075   4.471   5.677
 4994SOL    HW215882   3.135   4.601   5.599
 4995SOL     OW15883   0.397   0.215   5.468
 4995SOL    HW115884   0.465   0.188   5.536
 4995SOL    HW215885   0.306   0.216   5.510
 4996SOL     OW15886   6.772   0.913   4.667
 4996SOL    HW115887   6.833   0.840   4.635
 4996SOL    HW215888   6.818   1.002   4.657
 4997SOL     OW15889   3.758   2.149   1.161
 4997SOL    HW115890   3.703   2.111   1.086
 4997SOL    HW215891   3.784   2.075   1.223
 4998SOL     OW15892   0.558   3.704   3.541
 4998SOL    HW115893   0.625   3.704   3.615
 4998SOL    HW215894   0.467   3.724   3.578
 4999SOL     OW15895   0.854   4.421   4.232
 4999SOL    HW115896   0.812   4.380   4.151
 4999SOL    HW215897   0.953   4.427   4.219
 5000SOL     OW15898   2.729   5.521   3.092
 5000SOL    HW115899   2.680   5.607   3.074
 5000SOL    HW215900   2.664   5.446   3.095
 5001SOL     OW15901   0.609   5.339   2.887
 5001SOL    HW115902   0.614   5.301   2.795
 5001SOL    HW215903   0.544   5.415   2.889
 5002SOL     OW15904   0.432   3.275   3.530
 5002SOL    HW115905   0.423   3.370   3.501
 5002SOL    HW215906   0.361   3.255   3.598
 5003SOL     OW15907   3.754   6.738   4.059
 5003SOL    HW115908   3.817   6.676   4.014
 5003SOL    HW215909   3.747   6.714   4.156
 5004SOL     OW15910   2.196   6.212   6.649
 5004SOL    HW115911   2.153   6.185   6.563
 5004SOL    HW215912   2.172   6.307   6.670
 5005SOL     OW15913   3.688   2.680   0.021
 5005SOL    HW115914   3.603   2.724   0.049
 5005SOL    HW215915   3.763   2.746   0.028
 5006SOL     OW15916   5.521   1.987   2.103
 5006SOL    HW115917   5.579   1.914   2.066
 5006SOL    HW215918   5.425   1.959   2.095
 5007SOL     OW15919   6.260   6.481   1.818
 5007SOL    HW115920   6.261   6.470   1.719
 5007SOL    HW215921   6.353   6.492   1.851
 5008SOL     OW15922   5.336   6.509   2.131
 5008SOL    HW115923   5.384   6.423   2.118
 5008SOL    HW215924   5.298   6.512   2.223
 5009SOL     OW15925   0.014   2.352   0.675
 5009SOL    HW115926   0.036   2.383   0.582
 5009SOL    HW215927   6.953   2.296   0.673
 5010SOL     OW15928   3.783   3.269   0.485
 5010SOL    HW115929   3.702   3.260   0.427
 5010SOL    HW215930   3.819   3.362   0.478
 5011SOL     OW15931   2.231   3.772   6.816
 5011SOL    HW115932   2.286   3.701   6.772
 5011SOL    HW215933   2.249   3.860   6.774
 5012SOL     OW15934   6.187   1.788   5.119
 5012SOL    HW115935   6.097   1.763   5.154
 5012SOL    HW215936   6.258   1.750   5.178
 5013SOL     OW15937   5.782   0.499   5.688
 5013SOL    HW115938   5.762   0.418   5.633
 5013SOL    HW215939   5.759   0.481   5.784
 5014SOL     OW15940   6.405   3.432   1.362
 5014SOL    HW115941   6.497   3.464   1.386
 5014SOL    HW215942   6.377   3.362   1.427
 5015SOL     OW15943   5.666   6.723   4.312
 5015SOL    HW115944   5.632   6.796   4.253
 5015SOL    HW215945   5.595   6.698   4.378
 5016SOL     OW15946   1.288   3.748   5.122
 5016SOL    HW115947   1.287   3.713   5.029
 5016SOL    HW215948   1.334   3.837   5.123
 5017SOL     OW15949   0.761   2.584   1.964
 5017SOL    HW115950   0.798   2.663   2.014
 5017SOL    HW215951   0.819   2.563   1.886
 5018SOL     OW15952   0.714   6.555   1.085
 5018SOL    HW115953   0.639   6.512   1.135
 5018SOL    HW215954   0.679   6.632   1.031
 5019SOL     OW15955   1.163   5.148   5.370
 5019SOL    HW115956   1.208   5.220   5.318
 5019SOL    HW215957   1.081   5.119   5.322
 5020SOL     OW15958   1.734   6.966   4.349
 5020SOL    HW115959   1.782   6.882   4.326
 5020SOL    HW215960   1.778   7.010   4.427
 5021SOL     OW15961   1.782   1.411   1.327
 5021SOL    HW115962   1.868   1.421   1.375
 5021SOL    HW215963   1.737   1.501   1.321
 5022SOL     OW15964   0.415   3.360   1.853
 5022SOL    HW115965   0.413   3.261   1.840
 5022SOL    HW215966   0.356   3.404   1.785
 5023SOL     OW15967   6.841   4.932   2.796
 5023SOL    HW115968   6.837   4.879   2.711
 5023SOL    HW215969   6.931   4.973   2.806
 5024SOL     OW15970   4.562   3.708   1.577
 5024SOL    HW115971   4.517   3.784   1.623
 5024SOL    HW215972   4.525   3.699   1.485
 5025SOL     OW15973   4.072   1.026   3.356
 5025SOL    HW115974   4.161   1.063   3.329
 5025SOL    HW215975   4.004   1.100   3.358
 5026SOL     OW15976   4.877   6.419   5.138
 5026SOL    HW115977   4.841   6.335   5.180
 5026SOL    HW215978   4.947   6.395   5.071
 5027SOL     OW15979   5.272   0.450   6.890
 5027SOL    HW115980   5.302   0.410   6.804
 5027SOL    HW215981   5.287   0.549   6.887
 5028SOL     OW15982   0.505   2.378   2.977
 5028SOL    HW115983   0.552   2.462   2.950
 5028SOL    HW215984   0.431   2.400   3.040
 5029SOL     OW15985   6.317   1.342   2.500
 5029SOL    HW115986   6.404   1.293   2.515
 5029SOL    HW215987   6.247   1.276   2.473
 5030SOL     OW15988   0.074   4.675   6.790
 5030SOL    HW115989   0.082   4.725   6.876
 5030SOL    HW215990   0.045   4.581   6.808
 5031SOL     OW15991   6.998   0.189   5.768
 5031SOL    HW115992   7.004   0.168   5.866
 5031SOL    HW215993   6.908   0.161   5.734
 5032SOL     OW15994   3.294   3.407   5.503
 5032SOL    HW115995   3.215   3.372   5.451
 5032SOL    HW215996   3.306   3.351   5.585
 5033SOL     OW15997   1.806   1.424   0.003
 5033SOL    HW115998   1.818   1.451   6.929
 5033SOL    HW215999   1.808   1.324   0.010
 5034SOL     OW16000   4.415   6.283   4.184
 5034SOL    HW116001   4.413   6.229   4.268
 5034SOL    HW216002   4.406   6.223   4.105
 5035SOL     OW16003   1.374   5.012   4.133
 5035SOL    HW116004   1.343   4.966   4.216
 5035SOL    HW216005   1.295   5.043   4.080
 5036SOL     OW16006   6.519   2.828   4.966
 5036SOL    HW116007   6.564   2.850   4.880
 5036SOL    HW216008   6.427   2.868   4.967
 5037SOL     OW16009   4.345   4.415   1.044
 5037SOL    HW116010   4.340   4.321   1.009
 5037SOL    HW216011   4.284   4.425   1.122
 5038SOL     OW16012   3.361   3.771   3.449
 5038SOL    HW116013   3.325   3.685   3.410
 5038SOL    HW216014   3.415   3.750   3.531
 5039SOL     OW16015   0.499   3.324   6.743
 5039SOL    HW116016   0.429   3.374   6.793
 5039SOL    HW216017   0.462   3.236   6.713
 5040SOL     OW16018   1.092   5.579   6.288
 5040SOL    HW116019   1.071   5.483   6.310
 5040SOL    HW216020   1.068   5.636   6.366
 5041SOL     OW16021   0.049   3.027   2.349
 5041SOL    HW116022   0.038   3.125   2.335
 5041SOL    HW216023   0.136   3.010   2.396
 5042SOL     OW16024   0.297   3.243   6.277
 5042SOL    HW116025   0.215   3.281   6.320
 5042SOL    HW216026   0.315   3.292   6.192
 5043SOL     OW16027   3.761   0.328   0.692
 5043SOL    HW116028   3.819   0.374   0.759
 5043SOL    HW216029   3.737   0.236   0.726
 5044SOL     OW16030   6.234   5.545   0.737
 5044SOL    HW116031   6.247   5.463   0.792
 5044SOL    HW216032   6.293   5.542   0.656
 5045SOL     OW16033   6.488   3.314   6.198
 5045SOL    HW116034   6.397   3.353   6.211
 5045SOL    HW216035   6.484   3.241   6.130
 5046SOL     OW16036   3.197   3.552   3.376
 5046SOL    HW116037   3.246   3.498   3.307
 5046SOL    HW216038   3.110   3.508   3.397
 5047SOL     OW16039   2.166   3.952   3.153
 5047SOL    HW116040   2.254   3.981   3.192
 5047SOL    HW216041   2.164   3.853   3.146
 5048SOL     OW16042   1.114   1.017   5.742
 5048SOL    HW116043   1.083   1.069   5.663
 5048SOL    HW216044   1.175   1.074   5.798
 5049SOL     OW16045   5.862   0.623   5.942
 5049SOL    HW116046   5.819   0.697   5.995
 5049SOL    HW216047   5.926   0.573   6.001
 5050SOL     OW16048   1.940   1.280   0.569
 5050SOL    HW116049   1.911   1.244   0.657
 5050SOL    HW216050   1.947   1.380   0.573
 5051SOL     OW16051   3.457   4.668   1.280
 5051SOL    HW116052   3.503   4.707   1.359
 5051SOL    HW216053   3.376   4.722   1.259
 5052SOL     OW16054   3.790   1.165   5.381
 5052SOL    HW116055   3.752   1.257   5.369
 5052SOL    HW216056   3.783   1.138   5.477
 5053SOL     OW16057   0.780   6.296   2.389
 5053SOL    HW116058   0.707   6.346   2.436
 5053SOL    HW216059   0.796   6.209   2.436
 5054SOL     OW16060   4.007   4.803   4.146
 5054SOL    HW116061   4.096   4.822   4.104
 5054SOL    HW216062   4.019   4.743   4.225
 5055SOL     OW16063   6.581   2.895   6.593
 5055SOL    HW116064   6.602   2.915   6.689
 5055SOL    HW216065   6.500   2.947   6.565
 5056SOL     OW16066   5.218   3.935   4.953
 5056SOL    HW116067   5.138   3.876   4.963
 5056SOL    HW216068   5.301   3.883   4.972
 5057SOL     OW16069   0.979   6.636   2.854
 5057SOL    HW116070   0.961   6.669   2.947
 5057SOL    HW216071   0.964   6.537   2.851
 5058SOL     OW16072   3.046   4.370   6.112
 5058SOL    HW116073   2.960   4.374   6.063
 5058SOL    HW216074   3.116   4.330   6.053
 5059SOL     OW16075   0.567   0.565   2.729
 5059SOL    HW116076   0.638   0.546   2.661
 5059SOL    HW216077   0.542   0.662   2.725
 5060SOL     OW16078   6.263   1.854   5.668
 5060SOL    HW116079   6.310   1.778   5.621
 5060SOL    HW216080   6.307   1.940   5.643
 5061SOL     OW16081   5.031   3.413   0.092
 5061SOL    HW116082   5.078   3.344   0.037
 5061SOL    HW216083   5.059   3.404   0.187
 5062SOL     OW16084   0.394   0.311   1.617
 5062SOL    HW116085   0.432   0.387   1.565
 5062SOL    HW216086   0.450   0.229   1.602
 5063SOL     OW16087   1.333   6.825   2.144
 5063SOL    HW116088   1.366   6.896   2.206
 5063SOL    HW216089   1.394   6.747   2.147
 5064SOL     OW16090   4.631   3.280   0.570
 5064SOL    HW116091   4.637   3.223   0.488
 5064SOL    HW216092   4.722   3.312   0.595
 5065SOL     OW16093   2.828   6.993   5.643
 5065SOL    HW116094   2.846   0.023   5.558
 5065SOL    HW216095   2.912   6.949   5.674
 5066SOL     OW16096   6.093   5.205   1.025
 5066SOL    HW116097   6.058   5.213   1.118
 5066SOL    HW216098   6.138   5.116   1.013
 5067SOL     OW16099   4.750   1.000   0.630
 5067SOL    HW116100   4.671   0.989   0.571
 5067SOL    HW216101   4.831   1.019   0.574
 5068SOL     OW16102   2.681   4.874   0.150
 5068SOL    HW116103   2.706   4.789   0.105
 5068SOL    HW216104   2.591   4.864   0.193
 5069SOL     OW16105   0.480   4.568   2.613
 5069SOL    HW116106   0.493   4.469   2.605
 5069SOL    HW216107   0.385   4.587   2.636
 5070SOL     OW16108   4.923   3.165   3.815
 5070SOL    HW116109   4.847   3.102   3.829
 5070SOL    HW216110   4.988   3.125   3.750
 5071SOL     OW16111   4.828   1.988   6.476
 5071SOL    HW116112   4.760   2.002   6.549
 5071SOL    HW216113   4.836   2.072   6.422
 5072SOL     OW16114   0.753   4.486   1.176
 5072SOL    HW116115   0.658   4.516   1.183
 5072SOL    HW216116   0.782   4.446   1.263
 5073SOL     OW16117   4.972   0.429   2.862
 5073SOL    HW116118   4.964   0.462   2.956
 5073SOL    HW216119   4.986   0.508   2.801
 5074SOL     OW16120   2.458   3.858   6.382
 5074SOL    HW116121   2.517   3.857   6.301
 5074SOL    HW216122   2.473   3.943   6.434
 5075SOL     OW16123   0.216   5.756   4.960
 5075SOL    HW116124   0.262   5.678   5.004
 5075SOL    HW216125   0.176   5.726   4.874
 5076SOL     OW16126   3.547   0.868   0.928
 5076SOL    HW116127   3.448   0.853   0.926
 5076SOL    HW216128   3.593   0.795   0.878
 5077SOL     OW16129   0.420   2.624   3.433
 5077SOL    HW116130   0.349   2.581   3.489
 5077SOL    HW216131   0.503   2.636   3.488
 5078SOL     OW16132   1.667   2.082   4.488
 5078SOL    HW116133   1.659   2.161   4.549
 5078SOL    HW216134   1.594   2.084   4.420
 5079SOL     OW16135   3.756   4.897   5.752
 5079SOL    HW116136   3.809   4.981   5.763
 5079SOL    HW216137   3.659   4.918   5.762
 5080SOL     OW16138   5.456   6.931   5.880
 5080SOL    HW116139   5.532   6.898   5.825
 5080SOL    HW216140   5.411   7.007   5.833
 5081SOL     OW16141   3.583   3.612   3.627
 5081SOL    HW116142   3.555   3.532   3.680
 5081SOL    HW216143   3.667   3.592   3.577
 5082SOL     OW16144   5.059   5.942   4.772
 5082SOL    HW116145   5.087   6.034   4.801
 5082SOL    HW216146   5.116   5.912   4.695
 5083SOL     OW16147   1.732   6.717   1.510
 5083SOL    HW116148   1.636   6.712   1.481
 5083SOL    HW216149   1.747   6.654   1.586
 5084SOL     OW16150   1.528   6.207   3.920
 5084SOL    HW116151   1.576   6.135   3.870
 5084SOL    HW216152   1.576   6.294   3.907
 5085SOL     OW16153   6.214   2.176   6.410
 5085SOL    HW116154   6.234   2.165   6.507
 5085SOL    HW216155   6.289   2.138   6.356
 5086SOL     OW16156   6.254   5.137   3.813
 5086SOL    HW116157   6.223   5.051   3.773
 5086SOL    HW216158   6.276   5.202   3.740
 5087SOL     OW16159   6.870   5.468   5.742
 5087SOL    HW116160   6.887   5.550   5.796
 5087SOL    HW216161   6.774   5.465   5.714
 5088SOL     OW16162   5.635   0.343   6.199
 5088SOL    HW116163   5.691   0.382   6.273
 5088SOL    HW216164   5.539   0.349   6.223
 5089SOL     OW16165   5.541   3.764   2.972
 5089SOL    HW116166   5.579   3.853   2.999
 5089SOL    HW216167   5.615   3.697   2.965
 5090SOL     OW16168   1.838   5.372   1.317
 5090SOL    HW116169   1.809   5.464   1.290
 5090SOL    HW216170   1.918   5.346   1.263
 5091SOL     OW16171   1.522   6.316   2.596
 5091SOL    HW116172   1.487   6.387   2.536
 5091SOL    HW216173   1.464   6.309   2.677
 5092SOL     OW16174   4.175   2.106   1.543
 5092SOL    HW116175   4.156   2.013   1.575
 5092SOL    HW216176   4.208   2.102   1.449
 5093SOL     OW16177   0.731   2.195   1.858
 5093SOL    HW116178   0.720   2.096   1.854
 5093SOL    HW216179   0.760   2.222   1.950
 5094SOL     OW16180   0.672   6.556   4.961
 5094SOL    HW116181   0.717   6.508   4.886
 5094SOL    HW216182   0.735   6.564   5.038
 5095SOL     OW16183   3.015   6.995   4.662
 5095SOL    HW116184   2.993   7.018   4.567
 5095SOL    HW216185   3.020   6.895   4.670
 5096SOL     OW16186   4.477   3.897   0.980
 5096SOL    HW116187   4.418   3.822   0.952
 5096SOL    HW216188   4.570   3.863   0.996
 5097SOL     OW16189   1.548   6.452   5.967
 5097SOL    HW116190   1.452   6.479   5.965
 5097SOL    HW216191   1.579   6.429   5.875
 5098SOL     OW16192   0.233   1.492   2.933
 5098SOL    HW116193   0.317   1.504   2.987
 5098SOL    HW216194   0.257   1.484   2.836
 5099SOL     OW16195   1.432   0.433   5.389
 5099SOL    HW116196   1.406   0.336   5.386
 5099SOL    HW216197   1.358   0.488   5.351
 5100SOL     OW16198   5.723   6.414   6.958
 5100SOL    HW116199   5.682   6.335   6.913
 5100SOL    HW216200   5.653   6.464   7.009
 5101SOL     OW16201   4.056   6.337   0.335
 5101SOL    HW116202   4.075   6.313   0.430
 5101SOL    HW216203   3.973   6.290   0.305
 5102SOL     OW16204   3.876   5.921   5.259
 5102SOL    HW116205   3.914   5.912   5.351
 5102SOL    HW216206   3.900   6.010   5.221
 5103SOL     OW16207   0.185   0.072   4.155
 5103SOL    HW116208   0.179   0.107   4.061
 5103SOL    HW216209   0.165   0.146   4.219
 5104SOL     OW16210   1.472   0.853   1.713
 5104SOL    HW116211   1.537   0.866   1.788
 5104SOL    HW216212   1.391   0.908   1.729
 5105SOL     OW16213   3.537   3.755   6.469
 5105SOL    HW116214   3.439   3.756   6.490
 5105SOL    HW216215   3.561   3.837   6.418
 5106SOL     OW16216   3.573   0.654   2.257
 5106SOL    HW116217   3.537   0.577   2.308
 5106SOL    HW216218   3.615   0.621   2.172
 5107SOL     OW16219   2.109   6.961   5.703
 5107SOL    HW116220   2.156   0.024   5.674
 5107SOL    HW216221   2.138   6.884   5.645
 5108SOL     OW16222   3.366   3.819   4.439
 5108SOL    HW116223   3.318   3.809   4.352
 5108SOL    HW216224   3.432   3.894   4.432
 5109SOL     OW16225   0.185   1.244   1.269
 5109SOL    HW116226   0.109   1.190   1.233
 5109SOL    HW216227   0.153   1.300   1.345
 5110SOL     OW16228   2.062   5.509   5.896
 5110SOL    HW116229   2.090   5.414   5.881
 5110SOL    HW216230   1.976   5.526   5.849
 5111SOL     OW16231   1.357   1.533   0.471
 5111SOL    HW116232   1.417   1.472   0.522
 5111SOL    HW216233   1.262   1.513   0.493
 5112SOL     OW16234   0.411   5.787   3.971
 5112SOL    HW116235   0.348   5.852   3.928
 5112SOL    HW216236   0.505   5.819   3.959
 5113SOL     OW16237   1.085   0.097   6.827
 5113SOL    HW116238   1.094   0.130   6.921
 5113SOL    HW216239   1.125   0.164   6.764
 5114SOL     OW16240   3.741   4.979   0.008
 5114SOL    HW116241   3.683   5.014   0.082
 5114SOL    HW216242   3.699   4.899   6.988
 5115SOL     OW16243   1.603   3.565   5.256
 5115SOL    HW116244   1.565   3.548   5.165
 5115SOL    HW216245   1.703   3.567   5.251
 5116SOL     OW16246   6.574   4.684   0.509
 5116SOL    HW116247   6.644   4.632   0.460
 5116SOL    HW216248   6.618   4.751   0.569
 5117SOL     OW16249   2.317   4.414   4.496
 5117SOL    HW116250   2.266   4.345   4.547
 5117SOL    HW216251   2.377   4.464   4.558
 5118SOL     OW16252   4.377   6.485   0.720
 5118SOL    HW116253   4.309   6.485   0.793
 5118SOL    HW216254   4.421   6.575   0.715
 5119SOL     OW16255   6.224   6.969   2.166
 5119SOL    HW116256   6.227   6.996   2.070
 5119SOL    HW216257   6.299   6.906   2.186
 5120SOL     OW16258   4.943   2.050   2.508
 5120SOL    HW116259   4.853   2.011   2.491
 5120SOL    HW216260   4.997   2.050   2.424
 5121SOL     OW16261   0.357   3.611   5.470
 5121SOL    HW116262   0.264   3.578   5.487
 5121SOL    HW216263   0.409   3.539   5.424
 5122SOL     OW16264   2.357   6.424   4.052
 5122SOL    HW116265   2.291   6.429   3.977
 5122SOL    HW216266   2.313   6.453   4.137
 5123SOL     OW16267   5.281   4.581   1.790
 5123SOL    HW116268   5.250   4.664   1.745
 5123SOL    HW216269   5.216   4.507   1.774
 5124SOL     OW16270   2.697   6.844   6.742
 5124SOL    HW116271   2.624   6.789   6.784
 5124SOL    HW216272   2.719   6.806   6.652
 5125SOL     OW16273   0.059   3.200   4.704
 5125SOL    HW116274   0.090   3.161   4.790
 5125SOL    HW216275   0.079   3.137   4.629
 5126SOL     OW16276   5.816   3.723   6.386
 5126SOL    HW116277   5.762   3.773   6.453
 5126SOL    HW216278   5.865   3.648   6.430
 5127SOL     OW16279   5.879   2.810   6.539
 5127SOL    HW116280   5.965   2.845   6.501
 5127SOL    HW216281   5.818   2.783   6.466
 5128SOL     OW16282   0.246   0.656   6.838
 5128SOL    HW116283   0.226   0.690   6.929
 5128SOL    HW216284   0.163   0.620   6.796
 5129SOL     OW16285   4.288   2.012   2.535
 5129SOL    HW116286   4.366   2.055   2.580
 5129SOL    HW216287   4.215   2.080   2.523
 5130SOL     OW16288   1.067   5.970   4.274
 5130SOL    HW116289   1.018   5.947   4.358
 5130SOL    HW216290   1.154   6.015   4.298
 5131SOL     OW16291   3.011   4.856   3.451
 5131SOL    HW116292   2.971   4.939   3.490
 5131SOL    HW216293   3.095   4.880   3.402
 5132SOL     OW16294   3.315   1.548   6.669
 5132SOL    HW116295   3.409   1.537   6.635
 5132SOL    HW216296   3.251   1.530   6.594
 5133SOL     OW16297   4.461   4.492   6.380
 5133SOL    HW116298   4.395   4.556   6.421
 5133SOL    HW216299   4.550   4.504   6.424
 5134SOL     OW16300   6.987   6.188   1.062
 5134SOL    HW116301   6.914   6.129   1.028
 5134SOL    HW216302   6.953   6.281   1.074
 5135SOL     OW16303   6.560   2.860   2.093
 5135SOL    HW116304   6.610   2.946   2.099
 5135SOL    HW216305   6.555   2.831   1.997
 5136SOL     OW16306   1.335   0.880   6.127
 5136SOL    HW116307   1.288   0.840   6.205
 5136SOL    HW216308   1.432   0.892   6.149
 5137SOL     OW16309   5.874   0.964   4.460
 5137SOL    HW116310   5.959   0.932   4.419
 5137SOL    HW216311   5.842   1.046   4.411
 5138SOL     OW16312   3.043   3.247   3.820
 5138SOL    HW116313   3.023   3.319   3.754
 5138SOL    HW216314   3.011   3.159   3.783
 5139SOL     OW16315   2.631   0.449   4.896
 5139SOL    HW116316   2.544   0.496   4.882
 5139SOL    HW216317   2.682   0.448   4.810
 5140SOL     OW16318   4.111   2.328   6.732
 5140SOL    HW116319   4.030   2.276   6.705
 5140SOL    HW216320   4.185   2.265   6.757
 5141SOL     OW16321   6.370   2.994   1.738
 5141SOL    HW116322   6.308   3.030   1.808
 5141SOL    HW216323   6.444   2.942   1.782
 5142SOL     OW16324   0.236   0.266   2.857
 5142SOL    HW116325   0.297   0.306   2.789
 5142SOL    HW216326   0.150   0.240   2.812
 5143SOL     OW16327   0.251   6.308   2.862
 5143SOL    HW116328   0.163   6.302   2.908
 5143SOL    HW216329   0.263   6.401   2.826
 5144SOL     OW16330   2.346   2.861   5.341
 5144SOL    HW116331   2.396   2.934   5.294
 5144SOL    HW216332   2.393   2.774   5.325
 5145SOL     OW16333   2.520   5.735   0.051
 5145SOL    HW116334   2.463   5.792   7.013
 5145SOL    HW216335   2.470   5.715   0.136
 5146SOL     OW16336   5.002   4.849   6.337
 5146SOL    HW116337   5.090   4.819   6.301
 5146SOL    HW216338   4.933   4.845   6.264
 5147SOL     OW16339   4.641   2.619   3.647
 5147SOL    HW116340   4.669   2.630   3.743
 5147SOL    HW216341   4.553   2.571   3.644
 5148SOL     OW16342   0.958   0.458   6.546
 5148SOL    HW116343   1.058   0.457   6.555
 5148SOL    HW216344   0.932   0.413   6.461
 5149SOL     OW16345   4.704   4.828   3.650
 5149SOL    HW116346   4.757   4.792   3.728
 5149SOL    HW216347   4.765   4.841   3.572
 5150SOL     OW16348   0.243   6.016   3.894
 5150SOL    HW116349   0.151   5.989   3.865
 5150SOL    HW216350   0.237   6.079   3.971
 5151SOL     OW16351   6.009   5.204   2.095
 5151SOL    HW116352   5.973   5.200   2.001
 5151SOL    HW216353   6.095   5.255   2.095
 5152SOL     OW16354   0.773   1.645   0.109
 5152SOL    HW116355   0.675   1.644   0.128
 5152SOL    HW216356   0.820   1.588   0.177
 5153SOL     OW16357   1.383   1.632   1.227
 5153SOL    HW116358   1.347   1.644   1.134
 5153SOL    HW216359   1.367   1.715   1.280
 5154SOL     OW16360   6.982   3.041   0.184
 5154SOL    HW116361   0.059   3.056   0.192
 5154SOL    HW216362   6.937   3.067   0.269
 5155SOL     OW16363   1.667   1.365   0.397
 5155SOL    HW116364   1.751   1.333   0.353
 5155SOL    HW216365   1.630   1.442   0.346
 5156SOL     OW16366   5.367   5.970   5.274
 5156SOL    HW116367   5.365   6.005   5.368
 5156SOL    HW216368   5.310   5.888   5.268
 5157SOL     OW16369   3.097   0.288   0.887
 5157SOL    HW116370   3.080   0.199   0.844
 5157SOL    HW216371   3.191   0.292   0.919
 5158SOL     OW16372   2.238   2.201   1.988
 5158SOL    HW116373   2.258   2.268   2.059
 5158SOL    HW216374   2.247   2.244   1.898
 5159SOL     OW16375   6.500   3.171   5.650
 5159SOL    HW116376   6.585   3.139   5.691
 5159SOL    HW216377   6.513   3.263   5.614
 5160SOL     OW16378   6.546   6.306   3.561
 5160SOL    HW116379   6.556   6.313   3.660
 5160SOL    HW216380   6.474   6.369   3.531
 5161SOL     OW16381   0.940   3.618   0.493
 5161SOL    HW116382   1.025   3.588   0.538
 5161SOL    HW216383   0.959   3.640   0.397
 5162SOL     OW16384   0.176   6.855   3.666
 5162SOL    HW116385   0.135   6.921   3.729
 5162SOL    HW216386   0.179   6.895   3.574
 5163SOL     OW16387   2.874   0.193   2.001
 5163SOL    HW116388   2.941   0.125   1.971
 5163SOL    HW216389   2.785   0.149   2.015
 5164SOL     OW16390   3.219   3.484   0.429
 5164SOL    HW116391   3.144   3.546   0.454
 5164SOL    HW216392   3.234   3.488   0.330
 5165SOL     OW16393   1.519   4.321   6.258
 5165SOL    HW116394   1.565   4.397   6.305
 5165SOL    HW216395   1.550   4.317   6.163
 5166SOL     OW16396   1.591   5.479   1.048
 5166SOL    HW116397   1.577   5.500   0.951
 5166SOL    HW216398   1.559   5.386   1.067
 5167SOL     OW16399   5.398   3.087   5.183
 5167SOL    HW116400   5.433   3.000   5.148
 5167SOL    HW216401   5.353   3.072   5.271
 5168SOL     OW16402   4.238   2.248   2.964
 5168SOL    HW116403   4.172   2.218   2.895
 5168SOL    HW216404   4.206   2.333   3.006
 5169SOL     OW16405   4.126   6.034   4.054
 5169SOL    HW116406   4.062   6.018   3.979
 5169SOL    HW216407   4.093   5.990   4.137
 5170SOL     OW16408   1.435   3.533   6.756
 5170SOL    HW116409   1.405   3.625   6.729
 5170SOL    HW216410   1.531   3.521   6.731
 5171SOL     OW16411   2.210   6.227   5.212
 5171SOL    HW116412   2.298   6.223   5.167
 5171SOL    HW216413   2.157   6.144   5.192
 5172SOL     OW16414   6.611   5.434   4.729
 5172SOL    HW116415   6.597   5.523   4.686
 5172SOL    HW216416   6.705   5.427   4.762
 5173SOL     OW16417   4.687   4.133   5.690
 5173SOL    HW116418   4.593   4.101   5.676
 5173SOL    HW216419   4.709   4.129   5.787
 5174SOL     OW16420   2.136   6.587   3.284
 5174SOL    HW116421   2.069   6.624   3.220
 5174SOL    HW216422   2.213   6.651   3.293
 5175SOL     OW16423   3.426   3.451   6.900
 5175SOL    HW116424   3.459   3.480   6.811
 5175SOL    HW216425   3.376   3.525   6.944
 5176SOL     OW16426   6.165   6.045   0.004
 5176SOL    HW116427   6.236   6.116   0.009
 5176SOL    HW216428   6.199   5.960   0.044
 5177SOL     OW16429   5.853   6.781   0.340
 5177SOL    HW116430   5.908   6.706   0.303
 5177SOL    HW216431   5.869   6.864   0.286
 5178SOL     OW16432   0.480   4.745   2.196
 5178SOL    HW116433   0.434   4.672   2.245
 5178SOL    HW216434   0.578   4.743   2.217
 5179SOL     OW16435   5.254   5.762   2.459
 5179SOL    HW116436   5.189   5.828   2.497
 5179SOL    HW216437   5.331   5.810   2.419
 5180SOL     OW16438   2.636   6.652   2.524
 5180SOL    HW116439   2.572   6.623   2.595
 5180SOL    HW216440   2.586   6.697   2.450
 5181SOL     OW16441   0.584   0.177   5.964
 5181SOL    HW116442   0.559   0.258   6.017
 5181SOL    HW216443   0.529   0.099   5.994
 5182SOL     OW16444   2.900   6.136   3.496
 5182SOL    HW116445   2.993   6.099   3.490
 5182SOL    HW216446   2.836   6.075   3.450
 5183SOL     OW16447   4.145   1.826   3.681
 5183SOL    HW116448   4.108   1.733   3.679
 5183SOL    HW216449   4.092   1.883   3.618
 5184SOL     OW16450   2.819   1.310   3.793
 5184SOL    HW116451   2.826   1.333   3.890
 5184SOL    HW216452   2.805   1.394   3.741
 5185SOL     OW16453   6.372   0.362   1.684
 5185SOL    HW116454   6.281   0.322   1.687
 5185SOL    HW216455   6.438   0.293   1.654
 5186SOL     OW16456   6.949   3.162   6.813
 5186SOL    HW116457   6.857   3.187   6.843
 5186SOL    HW216458   7.016   3.201   6.875
 5187SOL     OW16459   1.834   5.019   5.418
 5187SOL    HW116460   1.823   4.924   5.446
 5187SOL    HW216461   1.760   5.045   5.356
 5188SOL     OW16462   6.224   6.720   2.497
 5188SOL    HW116463   6.255   6.671   2.416
 5188SOL    HW216464   6.254   6.815   2.492
 5189SOL     OW16465   5.249   6.594   6.349
 5189SOL    HW116466   5.212   6.687   6.348
 5189SOL    HW216467   5.298   6.577   6.263
 5190SOL     OW16468   1.613   3.852   0.745
 5190SOL    HW116469   1.675   3.924   0.713
 5190SOL    HW216470   1.607   3.855   0.845
 5191SOL     OW16471   3.200   4.846   2.360
 5191SOL    HW116472   3.204   4.766   2.300
 5191SOL    HW216473   3.275   4.841   2.427
 5192SOL     OW16474   1.888   4.912   2.415
 5192SOL    HW116475   1.912   5.009   2.423
 5192SOL    HW216476   1.940   4.870   2.340
 5193SOL     OW16477   5.321   0.130   5.768
 5193SOL    HW116478   5.361   0.100   5.681
 5193SOL    HW216479   5.296   0.226   5.762
 5194SOL     OW16480   5.482   2.316   6.495
 5194SOL    HW116481   5.527   2.256   6.430
 5194SOL    HW216482   5.540   2.326   6.576
 5195SOL     OW16483   0.147   0.365   4.187
 5195SOL    HW116484   0.221   0.431   4.194
 5195SOL    HW216485   0.073   0.404   4.131
 5196SOL     OW16486   5.537   6.596   2.638
 5196SOL    HW116487   5.632   6.584   2.610
 5196SOL    HW216488   5.486   6.512   2.621
 5197SOL     OW16489   1.112   3.640   5.320
 5197SOL    HW116490   1.201   3.684   5.309
 5197SOL    HW216491   1.123   3.557   5.375
 5198SOL     OW16492   5.691   5.457   2.934
 5198SOL    HW116493   5.643   5.455   2.846
 5198SOL    HW216494   5.645   5.519   2.996
 5199SOL     OW16495   6.949   4.743   1.642
 5199SOL    HW116496   6.859   4.710   1.614
 5199SOL    HW216497   6.978   4.816   1.580
 5200SOL     OW16498   0.177   4.051   4.619
 5200SOL    HW116499   0.114   4.122   4.650
 5200SOL    HW216500   0.261   4.055   4.672
 5201SOL     OW16501   1.758   5.348   4.267
 5201SOL    HW116502   1.845   5.300   4.276
 5201SOL    HW216503   1.703   5.304   4.195
 5202SOL     OW16504   0.524   4.905   1.398
 5202SOL    HW116505   0.429   4.912   1.429
 5202SOL    HW216506   0.538   4.963   1.318
 5203SOL     OW16507   0.935   2.468   0.508
 5203SOL    HW116508   0.990   2.449   0.427
 5203SOL    HW216509   0.873   2.545   0.490
 5204SOL     OW16510   4.857   4.630   6.959
 5204SOL    HW116511   4.798   4.577   6.898
 5204SOL    HW216512   4.870   4.722   6.922
 5205SOL     OW16513   1.844   0.420   1.649
 5205SOL    HW116514   1.841   0.515   1.617
 5205SOL    HW216515   1.805   0.415   1.741
 5206SOL     OW16516   0.338   4.248   5.765
 5206SOL    HW116517   0.347   4.315   5.691
 5206SOL    HW216518   0.429   4.220   5.796
 5207SOL     OW16519   1.782   4.603   4.309
 5207SOL    HW116520   1.836   4.555   4.378
 5207SOL    HW216521   1.829   4.687   4.282
 5208SOL     OW16522   4.087   1.452   6.428
 5208SOL    HW116523   4.061   1.499   6.512
 5208SOL    HW216524   4.185   1.463   6.413
 5209SOL     OW16525   5.188   6.586   2.944
 5209SOL    HW116526   5.129   6.555   3.019
 5209SOL    HW216527   5.165   6.536   2.861
 5210SOL     OW16528   4.790   5.224   3.600
 5210SOL    HW116529   4.726   5.298   3.620
 5210SOL    HW216530   4.883   5.259   3.603
 5211SOL     OW16531   3.938   3.358   2.760
 5211SOL    HW116532   3.876   3.279   2.766
 5211SOL    HW216533   3.960   3.375   2.664
 5212SOL     OW16534   0.909   2.081   0.538
 5212SOL    HW116535   0.897   2.179   0.551
 5212SOL    HW216536   0.859   2.052   0.456
 5213SOL     OW16537   4.253   2.010   6.295
 5213SOL    HW116538   4.267   1.930   6.237
 5213SOL    HW216539   4.231   1.981   6.388
 5214SOL     OW16540   5.737   1.513   5.536
 5214SOL    HW116541   5.695   1.587   5.483
 5214SOL    HW216542   5.824   1.487   5.494
 5215SOL     OW16543   5.019   4.999   2.649
 5215SOL    HW116544   4.940   5.031   2.598
 5215SOL    HW216545   4.991   4.927   2.713
 5216SOL     OW16546   4.926   5.119   0.913
 5216SOL    HW116547   4.952   5.095   0.820
 5216SOL    HW216548   4.918   5.036   0.968
 5217SOL     OW16549   2.523   4.695   4.218
 5217SOL    HW116550   2.574   4.758   4.276
 5217SOL    HW216551   2.580   4.667   4.140
 5218SOL     OW16552   1.757   6.819   3.873
 5218SOL    HW116553   1.792   6.758   3.802
 5218SOL    HW216554   1.709   6.766   3.942
 5219SOL     OW16555   3.198   6.280   0.207
 5219SOL    HW116556   3.264   6.244   0.274
 5219SOL    HW216557   3.208   6.380   0.202
 5220SOL     OW16558   0.734   6.409   2.717
 5220SOL    HW116559   0.651   6.375   2.672
 5220SOL    HW216560   0.764   6.493   2.673
 5221SOL     OW16561   5.015   1.578   4.799
 5221SOL    HW116562   5.035   1.489   4.758
 5221SOL    HW216563   5.025   1.650   4.730
 5222SOL     OW16564   1.275   0.713   2.981
 5222SOL    HW116565   1.353   0.717   2.919
 5222SOL    HW216566   1.191   0.705   2.928
 5223SOL     OW16567   5.171   0.103   1.671
 5223SOL    HW116568   5.104   0.048   1.621
 5223SOL    HW216569   5.186   0.189   1.623
 5224SOL     OW16570   5.670   2.062   2.502
 5224SOL    HW116571   5.730   1.983   2.492
 5224SOL    HW216572   5.724   2.146   2.499
 5225SOL     OW16573   5.480   5.945   4.780
 5225SOL    HW116574   5.549   5.889   4.734
 5225SOL    HW216575   5.389   5.921   4.744
 5226SOL     OW16576   1.111   6.807   3.827
 5226SOL    HW116577   1.207   6.786   3.848
 5226SOL    HW216578   1.061   6.820   3.913
 5227SOL     OW16579   5.941   4.697   3.443
 5227SOL    HW116580   5.889   4.718   3.525
 5227SOL    HW216581   6.001   4.774   3.421
 5228SOL     OW16582   5.337   1.283   0.796
 5228SOL    HW116583   5.396   1.218   0.844
 5228SOL    HW216584   5.337   1.371   0.843
 5229SOL     OW16585   1.207   4.220   5.526
 5229SOL    HW116586   1.233   4.295   5.465
 5229SOL    HW216587   1.173   4.143   5.473
 5230SOL     OW16588   0.482   0.053   0.026
 5230SOL    HW116589   0.545   0.049   6.968
 5230SOL    HW216590   0.444   6.983   0.043
 5231SOL     OW16591   3.944   3.141   3.007
 5231SOL    HW116592   3.886   3.187   2.939
 5231SOL    HW216593   4.022   3.199   3.028
 5232SOL     OW16594   4.862   2.592   6.591
 5232SOL    HW116595   4.958   2.589   6.616
 5232SOL    HW216596   4.818   2.505   6.614
 5233SOL     OW16597   1.125   0.415   2.441
 5233SOL    HW116598   1.068   0.410   2.360
 5233SOL    HW216599   1.081   0.471   2.511
 5234SOL     OW16600   3.858   7.012   0.829
 5234SOL    HW116601   3.904   6.970   0.907
 5234SOL    HW216602   3.926   0.031   0.767
 5235SOL     OW16603   0.805   2.856   1.072
 5235SOL    HW116604   0.856   2.846   1.157
 5235SOL    HW216605   0.727   2.793   1.073
 5236SOL     OW16606   5.407   3.121   1.186
 5236SOL    HW116607   5.308   3.114   1.174
 5236SOL    HW216608   5.452   3.112   1.097
 5237SOL     OW16609   2.333   2.049   5.254
 5237SOL    HW116610   2.239   2.071   5.230
 5237SOL    HW216611   2.390   2.132   5.245
 5238SOL     OW16612   1.854   4.651   0.989
 5238SOL    HW116613   1.946   4.634   1.024
 5238SOL    HW216614   1.807   4.717   1.048
 5239SOL     OW16615   2.941   3.380   4.058
 5239SOL    HW116616   2.993   3.326   3.992
 5239SOL    HW216617   2.948   3.340   4.149
 5240SOL     OW16618   3.392   2.132   5.001
 5240SOL    HW116619   3.324   2.205   4.997
 5240SOL    HW216620   3.435   2.131   5.091
 5241SOL     OW16621   1.737   6.124   6.966
 5241SOL    HW116622   1.654   6.143   6.914
 5241SOL    HW216623   1.769   6.031   6.946
 5242SOL     OW16624   6.137   1.297   5.640
 5242SOL    HW116625   6.232   1.326   5.650
 5242SOL    HW216626   6.134   1.199   5.619
 5243SOL     OW16627   1.709   4.651   1.471
 5243SOL    HW116628   1.610   4.651   1.454
 5243SOL    HW216629   1.754   4.589   1.407
 5244SOL     OW16630   5.029   4.343   5.525
 5244SOL    HW116631   4.939   4.300   5.523
 5244SOL    HW216632   5.023   4.428   5.579
 5245SOL     OW16633   4.703   4.039   6.809
 5245SOL    HW116634   4.738   3.982   6.884
 5245SOL    HW216635   4.723   3.994   6.721
 5246SOL     OW16636   1.282   3.263   3.011
 5246SOL    HW116637   1.286   3.189   2.944
 5246SOL    HW216638   1.221   3.237   3.086
 5247SOL     OW16639   0.969   5.265   1.213
 5247SOL    HW116640   1.066   5.241   1.212
 5247SOL    HW216641   0.956   5.347   1.269
 5248SOL     OW16642   5.086   1.202   5.950
 5248SOL    HW116643   5.161   1.168   5.893
 5248SOL    HW216644   5.101   1.174   6.045
 5249SOL     OW16645   1.277   5.017   4.855
 5249SOL    HW116646   1.178   5.014   4.870
 5249SOL    HW216647   1.301   4.957   4.779
 5250SOL     OW16648   0.638   1.366   6.319
 5250SOL    HW116649   0.696   1.360   6.400
 5250SOL    HW216650   0.684   1.321   6.242
 5251SOL     OW16651   6.477   3.054   1.429
 5251SOL    HW116652   6.430   3.136   1.461
 5251SOL    HW216653   6.421   2.973   1.449
 5252SOL     OW16654   4.150   5.940   0.771
 5252SOL    HW116655   4.180   5.974   0.860
 5252SOL    HW216656   4.169   5.842   0.764
 5253SOL     OW16657   5.867   3.554   4.008
 5253SOL    HW116658   5.905   3.484   4.069
 5253SOL    HW216659   5.895   3.535   3.914
 5254SOL     OW16660   4.578   1.184   3.877
 5254SOL    HW116661   4.612   1.249   3.810
 5254SOL    HW216662   4.606   1.091   3.850
 5255SOL     OW16663   3.209   6.516   5.107
 5255SOL    HW116664   3.183   6.426   5.142
 5255SOL    HW216665   3.211   6.581   5.183
 5256SOL     OW16666   5.386   6.399   3.923
 5256SOL    HW116667   5.434   6.486   3.934
 5256SOL    HW216668   5.380   6.376   3.826
 5257SOL     OW16669   3.787   0.249   1.167
 5257SOL    HW116670   3.885   0.268   1.173
 5257SOL    HW216671   3.759   0.190   1.243
 5258SOL     OW16672   5.669   3.856   2.546
 5258SOL    HW116673   5.634   3.764   2.560
 5258SOL    HW216674   5.609   3.906   2.483
 5259SOL     OW16675   4.799   5.212   2.620
 5259SOL    HW116676   4.749   5.126   2.628
 5259SOL    HW216677   4.762   5.266   2.544
 5260SOL     OW16678   5.558   3.297   1.318
 5260SOL    HW116679   5.493   3.242   1.266
 5260SOL    HW216680   5.518   3.322   1.406
 5261SOL     OW16681   1.312   2.511   4.816
 5261SOL    HW116682   1.361   2.490   4.731
 5261SOL    HW216683   1.271   2.602   4.809
 5262SOL     OW16684   2.681   6.825   1.830
 5262SOL    HW116685   2.678   6.916   1.871
 5262SOL    HW216686   2.738   6.828   1.747
 5263SOL     OW16687   1.571   6.870   6.395
 5263SOL    HW116688   1.472   6.877   6.405
 5263SOL    HW216689   1.594   6.781   6.355
 5264SOL     OW16690   0.338   2.453   0.862
 5264SOL    HW116691   0.430   2.466   0.826
 5264SOL    HW216692   0.337   2.472   0.960
 5265SOL     OW16693   5.124   4.399   1.625
 5265SOL    HW116694   5.065   4.349   1.689
 5265SOL    HW216695   5.111   4.363   1.533
 5266SOL     OW16696   1.458   6.653   1.435
 5266SOL    HW116697   1.384   6.606   1.387
 5266SOL    HW216698   1.428   6.743   1.464
 5267SOL     OW16699   4.716   4.611   4.910
 5267SOL    HW116700   4.785   4.582   4.843
 5267SOL    HW216701   4.761   4.653   4.988
 5268SOL     OW16702   5.658   5.111   4.976
 5268SOL    HW116703   5.644   5.210   4.982
 5268SOL    HW216704   5.741   5.086   5.027
 5269SOL     OW16705   2.401   5.702   3.918
 5269SOL    HW116706   2.357   5.790   3.939
 5269SOL    HW216707   2.347   5.627   3.956
 5270SOL     OW16708   6.355   2.632   2.104
 5270SOL    HW116709   6.353   2.605   2.200
 5270SOL    HW216710   6.428   2.700   2.090
 5271SOL     OW16711   5.081   4.298   4.741
 5271SOL    HW116712   5.051   4.318   4.834
 5271SOL    HW216713   5.106   4.201   4.735
 5272SOL     OW16714   1.234   0.726   4.925
 5272SOL    HW116715   1.280   0.762   5.007
 5272SOL    HW216716   1.185   0.642   4.949
 5273SOL     OW16717   0.779   1.520   3.758
 5273SOL    HW116718   0.704   1.575   3.797
 5273SOL    HW216719   0.841   1.580   3.707
 5274SOL     OW16720   6.468   5.289   4.108
 5274SOL    HW116721   6.448   5.290   4.010
 5274SOL    HW216722   6.537   5.358   4.129
 5275SOL     OW16723   1.694   6.627   0.039
 5275SOL    HW116724   1.602   6.666   0.035
 5275SOL    HW216725   1.743   6.664   0.118
 5276SOL     OW16726   0.158   7.020   1.560
 5276SOL    HW116727   0.179   0.094   1.585
 5276SOL    HW216728   0.212   6.994   1.480
 5277SOL     OW16729   0.873   2.071   3.406
 5277SOL    HW116730   0.842   2.064   3.501
 5277SOL    HW216731   0.842   1.991   3.355
 5278SOL     OW16732   0.612   5.059   5.492
 5278SOL    HW116733   0.590   5.083   5.398
 5278SOL    HW216734   0.706   5.087   5.513
 5279SOL     OW16735   1.592   5.824   6.717
 5279SOL    HW116736   1.664   5.864   6.774
 5279SOL    HW216737   1.566   5.735   6.753
 5280SOL     OW16738   4.016   5.592   4.562
 5280SOL    HW116739   4.109   5.565   4.587
 5280SOL    HW216740   3.993   5.552   4.473
 5281SOL     OW16741   2.342   0.790   5.214
 5281SOL    HW116742   2.320   0.745   5.301
 5281SOL    HW216743   2.372   0.884   5.231
 5282SOL     OW16744   1.512   0.750   2.181
 5282SOL    HW116745   1.507   0.719   2.086
 5282SOL    HW216746   1.421   0.745   2.222
 5283SOL     OW16747   0.329   1.198   4.225
 5283SOL    HW116748   0.286   1.173   4.311
 5283SOL    HW216749   0.334   1.118   4.165
 5284SOL     OW16750   4.985   2.410   2.046
 5284SOL    HW116751   4.892   2.411   2.011
 5284SOL    HW216752   4.999   2.328   2.103
 5285SOL     OW16753   0.915   3.214   4.223
 5285SOL    HW116754   1.002   3.163   4.223
 5285SOL    HW216755   0.842   3.154   4.190
 5286SOL     OW16756   6.025   2.784   1.172
 5286SOL    HW116757   6.068   2.843   1.240
 5286SOL    HW216758   6.061   2.692   1.180
 5287SOL     OW16759   2.737   5.003   1.214
 5287SOL    HW116760   2.825   5.047   1.192
 5287SOL    HW216761   2.687   5.059   1.280
 5288SOL     OW16762   5.032   0.423   2.398
 5288SOL    HW116763   5.079   0.346   2.440
 5288SOL    HW216764   4.983   0.474   2.469
 5289SOL     OW16765   1.841   4.740   6.482
 5289SOL    HW116766   1.912   4.772   6.544
 5289SOL    HW216767   1.781   4.675   6.529
 5290SOL     OW16768   1.511   2.977   5.597
 5290SOL    HW116769   1.504   2.906   5.528
 5290SOL    HW216770   1.540   3.063   5.554
 5291SOL     OW16771   2.614   4.635   4.878
 5291SOL    HW116772   2.692   4.603   4.932
 5291SOL    HW216773   2.579   4.719   4.918
 5292SOL     OW16774   6.774   4.011   6.264
 5292SOL    HW116775   6.801   3.917   6.243
 5292SOL    HW216776   6.708   4.011   6.339
 5293SOL     OW16777   2.450   5.640   4.712
 5293SOL    HW116778   2.548   5.633   4.693
 5293SOL    HW216779   2.402   5.563   4.670
 5294SOL     OW16780   4.130   0.884   4.994
 5294SOL    HW116781   4.066   0.946   4.948
 5294SOL    HW216782   4.162   0.816   4.930
 5295SOL     OW16783   3.347   0.571   1.839
 5295SOL    HW116784   3.360   0.601   1.933
 5295SOL    HW216785   3.267   0.512   1.833
 5296SOL     OW16786   3.907   4.193   0.987
 5296SOL    HW116787   3.922   4.094   0.985
 5296SOL    HW216788   3.966   4.234   1.057
 5297SOL     OW16789   2.450   4.384   0.622
 5297SOL    HW116790   2.466   4.419   0.530
 5297SOL    HW216791   2.513   4.309   0.641
 5298SOL     OW16792   1.919   6.919   0.269
 5298SOL    HW116793   1.830   6.873   0.268
 5298SOL    HW216794   1.931   6.970   0.183
 5299SOL     OW16795   3.041   2.046   0.309
 5299SOL    HW116796   3.074   2.045   0.403
 5299SOL    HW216797   2.943   2.026   0.308
 5300SOL     OW16798   2.253   4.410   0.008
 5300SOL    HW116799   2.350   4.433   7.017
 5300SOL    HW216800   2.230   4.331   6.971
 5301SOL     OW16801   4.612   0.282   6.265
 5301SOL    HW116802   4.577   0.327   6.347
 5301SOL    HW216803   4.548   0.295   6.190
 5302SOL     OW16804   5.307   5.795   3.333
 5302SOL    HW116805   5.310   5.735   3.254
 5302SOL    HW216806   5.361   5.877   3.315
 5303SOL     OW16807   6.805   4.841   6.619
 5303SOL    HW116808   6.889   4.881   6.584
 5303SOL    HW216809   6.820   4.745   6.642
 5304SOL     OW16810   6.379   1.165   1.246
 5304SOL    HW116811   6.469   1.133   1.218
 5304SOL    HW216812   6.314   1.152   1.172
 5305SOL     OW16813   1.522   5.537   2.710
 5305SOL    HW116814   1.597   5.474   2.730
 5305SOL    HW216815   1.458   5.494   2.646
 5306SOL     OW16816   6.731   3.774   5.572
 5306SOL    HW116817   6.823   3.813   5.562
 5306SOL    HW216818   6.707   3.769   5.669
 5307SOL     OW16819   4.979   2.186   0.481
 5307SOL    HW116820   4.951   2.106   0.533
 5307SOL    HW216821   4.920   2.263   0.504
 5308SOL     OW16822   1.277   4.743   2.867
 5308SOL    HW116823   1.319   4.743   2.776
 5308SOL    HW216824   1.321   4.674   2.924
 5309SOL     OW16825   4.477   5.984   3.170
 5309SOL    HW116826   4.556   5.973   3.110
 5309SOL    HW216827   4.505   6.027   3.256
 5310SOL     OW16828   6.183   3.037   2.768
 5310SOL    HW116829   6.093   2.997   2.749
 5310SOL    HW216830   6.200   3.036   2.867
 5311SOL     OW16831   6.060   0.050   0.784
 5311SOL    HW116832   6.108   0.048   0.871
 5311SOL    HW216833   6.022   0.141   0.769
 5312SOL     OW16834   0.317   6.567   1.525
 5312SOL    HW116835   0.339   6.617   1.442
 5312SOL    HW216836   0.305   6.631   1.601
 5313SOL     OW16837   6.509   5.239   5.255
 5313SOL    HW116838   6.456   5.178   5.314
 5313SOL    HW216839   6.471   5.332   5.260
 5314SOL     OW16840   6.121   6.671   1.221
 5314SOL    HW116841   6.184   6.691   1.296
 5314SOL    HW216842   6.164   6.695   1.134
 5315SOL     OW16843   4.211   1.369   3.400
 5315SOL    HW116844   4.131   1.361   3.460
 5315SOL    HW216845   4.286   1.411   3.450
 5316SOL     OW16846   0.823   2.946   4.834
 5316SOL    HW116847   0.816   2.976   4.739
 5316SOL    HW216848   0.735   2.960   4.880
 5317SOL     OW16849   6.319   1.442   6.012
 5317SOL    HW116850   6.417   1.441   5.993
 5317SOL    HW216851   6.269   1.406   5.934
 5318SOL     OW16852   6.543   3.285   0.300
 5318SOL    HW116853   6.588   3.324   0.219
 5318SOL    HW216854   6.594   3.313   0.382
 5319SOL     OW16855   4.379   6.934   0.903
 5319SOL    HW116856   4.324   6.967   0.980
 5319SOL    HW216857   4.468   6.981   0.903
 5320SOL     OW16858   3.266   6.319   1.294
 5320SOL    HW116859   3.270   6.230   1.249
 5320SOL    HW216860   3.317   6.316   1.380
 5321SOL     OW16861   1.908   4.662   4.780
 5321SOL    HW116862   1.997   4.702   4.758
 5321SOL    HW216863   1.835   4.727   4.760
 5322SOL     OW16864   5.550   6.888   1.757
 5322SOL    HW116865   5.520   6.828   1.832
 5322SOL    HW216866   5.488   6.878   1.679
 5323SOL     OW16867   4.519   1.806   5.230
 5323SOL    HW116868   4.457   1.800   5.153
 5323SOL    HW216869   4.484   1.750   5.306
 5324SOL     OW16870   2.668   2.535   0.154
 5324SOL    HW116871   2.583   2.512   0.106
 5324SOL    HW216872   2.712   2.452   0.186
 5325SOL     OW16873   2.727   2.035   5.109
 5325SOL    HW116874   2.729   2.133   5.090
 5325SOL    HW216875   2.728   2.020   5.207
 5326SOL     OW16876   6.516   6.197   2.811
 5326SOL    HW116877   6.423   6.225   2.788
 5326SOL    HW216878   6.516   6.144   2.895
 5327SOL     OW16879   5.619   2.483   4.756
 5327SOL    HW116880   5.682   2.423   4.806
 5327SOL    HW216881   5.580   2.434   4.679
 5328SOL     OW16882   4.140   4.059   6.499
 5328SOL    HW116883   4.096   4.006   6.572
 5328SOL    HW216884   4.230   4.090   6.529
 5329SOL     OW16885   1.606   6.065   6.223
 5329SOL    HW116886   1.568   5.984   6.178
 5329SOL    HW216887   1.613   6.049   6.321
 5330SOL     OW16888   3.423   3.156   0.610
 5330SOL    HW116889   3.470   3.190   0.691
 5330SOL    HW216890   3.380   3.069   0.631
 5331SOL     OW16891   6.471   1.236   6.352
 5331SOL    HW116892   6.524   1.319   6.332
 5331SOL    HW216893   6.425   1.246   6.440
 5332SOL     OW16894   1.414   4.649   1.964
 5332SOL    HW116895   1.363   4.627   2.047
 5332SOL    HW216896   1.423   4.568   1.907
 5333SOL     OW16897   1.383   6.772   3.846
 5333SOL    HW116898   1.462   6.833   3.845
 5333SOL    HW216899   1.388   6.712   3.926
 5334SOL     OW16900   2.959   0.031   4.397
 5334SOL    HW116901   2.920   6.978   4.341
 5334SOL    HW216902   2.902   0.112   4.389
 5335SOL     OW16903   6.921   5.443   0.682
 5335SOL    HW116904   6.888   5.538   0.678
 5335SOL    HW216905   6.879   5.390   0.609
 5336SOL     OW16906   1.879   3.384   2.358
 5336SOL    HW116907   1.895   3.318   2.432
 5336SOL    HW216908   1.938   3.464   2.372
 5337SOL     OW16909   4.868   4.051   0.985
 5337SOL    HW116910   4.941   4.059   1.052
 5337SOL    HW216911   4.907   4.040   0.893
 5338SOL     OW16912   6.537   2.157   0.129
 5338SOL    HW116913   6.587   2.083   0.083
 5338SOL    HW216914   6.450   2.172   0.082
 5339SOL     OW16915   0.008   1.752   3.513
 5339SOL    HW116916   0.076   1.741   3.586
 5339SOL    HW216917   0.000   1.666   3.463
 5340SOL     OW16918   5.731   2.856   6.938
 5340SOL    HW116919   5.803   2.924   6.927
 5340SOL    HW216920   5.643   2.902   6.946
 5341SOL     OW16921   4.351   1.439   5.856
 5341SOL    HW116922   4.344   1.513   5.789
 5341SOL    HW216923   4.443   1.439   5.896
 5342SOL     OW16924   4.000   0.542   5.133
 5342SOL    HW116925   4.086   0.504   5.167
 5342SOL    HW216926   4.019   0.607   5.060
 5343SOL     OW16927   3.685   3.297   2.304
 5343SOL    HW116928   3.675   3.396   2.295
 5343SOL    HW216929   3.598   3.256   2.329
 5344SOL     OW16930   1.780   2.829   3.429
 5344SOL    HW116931   1.874   2.805   3.405
 5344SOL    HW216932   1.780   2.908   3.490
 5345SOL     OW16933   4.743   6.711   1.116
 5345SOL    HW116934   4.710   6.776   1.184
 5345SOL    HW216935   4.733   6.750   1.025
 5346SOL     OW16936   2.879   6.489   3.133
 5346SOL    HW116937   2.917   6.415   3.078
 5346SOL    HW216938   2.953   6.550   3.163
 5347SOL     OW16939   0.254   1.770   1.617
 5347SOL    HW116940   0.312   1.830   1.672
 5347SOL    HW216941   0.163   1.812   1.608
 5348SOL     OW16942   1.083   1.554   0.569
 5348SOL    HW116943   1.037   1.485   0.624
 5348SOL    HW216944   1.037   1.642   0.582
 5349SOL     OW16945   0.028   1.491   0.620
 5349SOL    HW116946   7.017   1.453   0.707
 5349SOL    HW216947   6.972   1.535   0.573
 5350SOL     OW16948   2.852   0.959   6.490
 5350SOL    HW116949   2.910   0.933   6.413
 5350SOL    HW216950   2.757   0.964   6.460
 5351SOL     OW16951   4.861   6.225   0.992
 5351SOL    HW116952   4.861   6.320   1.022
 5351SOL    HW216953   4.817   6.219   0.902
 5352SOL     OW16954   2.403   5.623   3.369
 5352SOL    HW116955   2.493   5.663   3.389
 5352SOL    HW216956   2.392   5.538   3.421
 5353SOL     OW16957   4.707   5.691   4.971
 5353SOL    HW116958   4.647   5.703   5.050
 5353SOL    HW216959   4.796   5.732   4.990
 5354SOL     OW16960   1.732   4.887   2.107
 5354SOL    HW116961   1.725   4.885   2.007
 5354SOL    HW216962   1.818   4.845   2.136
 5355SOL     OW16963   4.613   1.656   3.578
 5355SOL    HW116964   4.704   1.673   3.542
 5355SOL    HW216965   4.566   1.743   3.592
 5356SOL     OW16966   5.926   3.809   1.461
 5356SOL    HW116967   5.939   3.782   1.557
 5356SOL    HW216968   5.945   3.730   1.402
 5357SOL     OW16969   3.945   0.000   0.342
 5357SOL    HW116970   3.927   0.015   0.245
 5357SOL    HW216971   3.910   0.078   0.395
 5358SOL     OW16972   4.393   2.181   0.868
 5358SOL    HW116973   4.435   2.230   0.792
 5358SOL    HW216974   4.452   2.106   0.896
 5359SOL     OW16975   2.495   2.027   0.765
 5359SOL    HW116976   2.427   1.978   0.819
 5359SOL    HW216977   2.586   2.009   0.801
 5360SOL     OW16978   3.708   6.494   5.869
 5360SOL    HW116979   3.794   6.449   5.845
 5360SOL    HW216980   3.673   6.544   5.790
 5361SOL     OW16981   2.081   1.353   4.958
 5361SOL    HW116982   2.120   1.437   4.996
 5361SOL    HW216983   2.089   1.279   5.026
 5362SOL     OW16984   4.849   5.062   2.893
 5362SOL    HW116985   4.782   5.000   2.854
 5362SOL    HW216986   4.806   5.150   2.912
 5363SOL     OW16987   1.133   5.228   6.170
 5363SOL    HW116988   1.077   5.151   6.199
 5363SOL    HW216989   1.227   5.197   6.153
 5364SOL     OW16990   6.693   6.051   0.781
 5364SOL    HW116991   6.690   6.117   0.857
 5364SOL    HW216992   6.788   6.025   0.764
 5365SOL     OW16993   4.376   2.603   6.049
 5365SOL    HW116994   4.435   2.659   5.990
 5365SOL    HW216995   4.390   2.506   6.028
 5366SOL     OW16996   4.199   4.328   0.556
 5366SOL    HW116997   4.235   4.256   0.497
 5366SOL    HW216998   4.151   4.287   0.634
 5367SOL     OW16999   0.567   5.032   1.154
 5367SOL    HW117000   0.619   5.106   1.197
 5367SOL    HW217001   0.507   5.070   1.084
 5368SOL     OW17002   5.462   2.315   3.189
 5368SOL    HW117003   5.415   2.287   3.106
 5368SOL    HW217004   5.432   2.407   3.215
 5369SOL     OW17005   2.423   4.685   3.098
 5369SOL    HW117006   2.415   4.590   3.068
 5369SOL    HW217007   2.394   4.745   3.024
 5370SOL     OW17008   3.748   3.208   1.436
 5370SOL    HW117009   3.831   3.153   1.444
 5370SOL    HW217010   3.669   3.154   1.463
 5371SOL     OW17011   1.582   4.375   4.491
 5371SOL    HW117012   1.681   4.383   4.494
 5371SOL    HW217013   1.544   4.399   4.581
 5372SOL     OW17014   3.034   4.802   2.600
 5372SOL    HW117015   3.021   4.815   2.501
 5372SOL    HW217016   2.967   4.735   2.633
 5373SOL     OW17017   3.107   5.064   4.397
 5373SOL    HW117018   3.198   5.088   4.430
 5373SOL    HW217019   3.065   4.998   4.460
 5374SOL     OW17020   1.814   3.061   6.667
 5374SOL    HW117021   1.828   3.050   6.568
 5374SOL    HW217022   1.719   3.042   6.690
 5375SOL     OW17023   1.546   4.620   4.771
 5375SOL    HW117024   1.585   4.703   4.810
 5375SOL    HW217025   1.609   4.544   4.782
 5376SOL     OW17026   1.677   3.504   1.902
 5376SOL    HW117027   1.656   3.413   1.937
 5376SOL    HW217028   1.640   3.514   1.809
 5377SOL     OW17029   0.106   0.291   1.640
 5377SOL    HW117030   0.196   0.334   1.642
 5377SOL    HW217031   0.066   0.301   1.549
 5378SOL     OW17032   5.976   0.600   6.958
 5378SOL    HW117033   6.040   0.553   7.018
 5378SOL    HW217034   6.010   0.691   6.935
 5379SOL     OW17035   0.256   5.474   3.422
 5379SOL    HW117036   0.285   5.467   3.326
 5379SOL    HW217037   0.162   5.442   3.431
 5380SOL     OW17038   2.301   6.803   3.787
 5380SOL    HW117039   2.244   6.781   3.707
 5380SOL    HW217040   2.380   6.856   3.757
 5381SOL     OW17041   5.748   4.260   1.067
 5381SOL    HW117042   5.730   4.162   1.078
 5381SOL    HW217043   5.840   4.273   1.032
 5382SOL     OW17044   3.169   0.940   1.434
 5382SOL    HW117045   3.171   0.870   1.506
 5382SOL    HW217046   3.081   0.937   1.387
 5383SOL     OW17047   2.778   2.185   5.367
 5383SOL    HW117048   2.758   2.238   5.450
 5383SOL    HW217049   2.835   2.239   5.305
 5384SOL     OW17050   5.981   6.414   4.564
 5384SOL    HW117051   6.070   6.393   4.523
 5384SOL    HW217052   5.937   6.487   4.512
 5385SOL     OW17053   3.086   3.782   2.391
 5385SOL    HW117054   3.066   3.840   2.312
 5385SOL    HW217055   3.135   3.835   2.460
 5386SOL     OW17056   4.684   6.457   4.199
 5386SOL    HW117057   4.759   6.489   4.141
 5386SOL    HW217058   4.609   6.424   4.141
 5387SOL     OW17059   3.266   5.425   2.026
 5387SOL    HW117060   3.200   5.357   1.995
 5387SOL    HW217061   3.218   5.509   2.051
 5388SOL     OW17062   5.744   6.762   2.377
 5388SOL    HW117063   5.665   6.818   2.349
 5388SOL    HW217064   5.824   6.821   2.387
 5389SOL     OW17065   4.602   0.926   1.869
 5389SOL    HW117066   4.622   0.971   1.955
 5389SOL    HW217067   4.633   0.984   1.793
 5390SOL     OW17068   5.852   5.062   4.722
 5390SOL    HW117069   5.807   5.076   4.810
 5390SOL    HW217070   5.853   5.148   4.671
 5391SOL     OW17071   2.832   3.515   0.403
 5391SOL    HW117072   2.790   3.558   0.482
 5391SOL    HW217073   2.867   3.425   0.428
 5392SOL     OW17074   5.679   3.053   1.789
 5392SOL    HW117075   5.697   3.027   1.694
 5392SOL    HW217076   5.580   3.051   1.806
 5393SOL     OW17077   6.701   6.885   0.030
 5393SOL    HW117078   6.737   6.887   0.123
 5393SOL    HW217079   6.723   6.797   7.008
 5394SOL     OW17080   0.799   3.788   6.257
 5394SOL    HW117081   0.741   3.828   6.186
 5394SOL    HW217082   0.746   3.722   6.310
 5395SOL     OW17083   4.191   0.479   0.670
 5395SOL    HW117084   4.253   0.549   0.636
 5395SOL    HW217085   4.143   0.436   0.593
 5396SOL     OW17086   5.221   3.788   2.153
 5396SOL    HW117087   5.173   3.875   2.144
 5396SOL    HW217088   5.158   3.713   2.134
 5397SOL     OW17089   6.640   3.105   1.679
 5397SOL    HW117090   6.676   3.027   1.628
 5397SOL    HW217091   6.575   3.155   1.621
 5398SOL     OW17092   3.047   2.317   1.620
 5398SOL    HW117093   3.142   2.338   1.646
 5398SOL    HW217094   2.986   2.341   1.695
 5399SOL     OW17095   2.077   6.121   0.867
 5399SOL    HW117096   2.101   6.134   0.770
 5399SOL    HW217097   2.153   6.151   0.924
 5400SOL     OW17098   2.762   4.664   0.358
 5400SOL    HW117099   2.799   4.598   0.293
 5400SOL    HW217100   2.664   4.647   0.370
 5401SOL     OW17101   6.093   3.313   1.928
 5401SOL    HW117102   6.155   3.234   1.932
 5401SOL    HW217103   5.999   3.281   1.927
 5402SOL     OW17104   2.415   6.338   1.693
 5402SOL    HW117105   2.408   6.275   1.770
 5402SOL    HW217106   2.464   6.421   1.720
 5403SOL     OW17107   6.944   3.310   6.592
 5403SOL    HW117108   6.909   3.260   6.672
 5403SOL    HW217109   6.956   3.247   6.516
 5404SOL     OW17110   1.458   3.103   4.093
 5404SOL    HW117111   1.380   3.151   4.052
 5404SOL    HW217112   1.533   3.167   4.105
 5405SOL     OW17113   0.196   5.188   6.140
 5405SOL    HW117114   0.140   5.164   6.060
 5405SOL    HW217115   0.173   5.128   6.216
 5406SOL     OW17116   1.384   1.805   0.210
 5406SOL    HW117117   1.389   1.750   0.127
 5406SOL    HW217118   1.441   1.886   0.201
 5407SOL     OW17119   4.161   3.253   0.653
 5407SOL    HW117120   4.188   3.202   0.735
 5407SOL    HW217121   4.114   3.337   0.680
 5408SOL     OW17122   2.193   0.855   5.599
 5408SOL    HW117123   2.177   0.807   5.513
 5408SOL    HW217124   2.119   0.833   5.663
 5409SOL     OW17125   5.277   0.657   3.171
 5409SOL    HW117126   5.201   0.612   3.124
 5409SOL    HW217127   5.334   0.587   3.215
 5410SOL     OW17128   3.332   2.112   2.091
 5410SOL    HW117129   3.239   2.134   2.064
 5410SOL    HW217130   3.397   2.166   2.037
 5411SOL     OW17131   6.602   4.841   5.872
 5411SOL    HW117132   6.691   4.835   5.828
 5411SOL    HW217133   6.533   4.869   5.805
 5412SOL     OW17134   5.402   2.935   0.640
 5412SOL    HW117135   5.313   2.890   0.638
 5412SOL    HW217136   5.408   2.995   0.720
 5413SOL     OW17137   3.135   1.776   1.543
 5413SOL    HW117138   3.138   1.854   1.607
 5413SOL    HW217139   3.152   1.809   1.450
 5414SOL     OW17140   4.387   1.360   4.852
 5414SOL    HW117141   4.397   1.416   4.934
 5414SOL    HW217142   4.394   1.417   4.771
 5415SOL     OW17143   0.306   6.052   0.941
 5415SOL    HW117144   0.282   6.146   0.963
 5415SOL    HW217145   0.405   6.045   0.926
 5416SOL     OW17146   4.064   4.866   4.696
 5416SOL    HW117147   4.116   4.827   4.773
 5416SOL    HW217148   4.058   4.965   4.707
 5417SOL     OW17149   3.619   6.667   5.331
 5417SOL    HW117150   3.599   6.597   5.263
 5417SOL    HW217151   3.614   6.757   5.288
 5418SOL     OW17152   3.632   0.184   2.412
 5418SOL    HW117153   3.658   0.219   2.502
 5418SOL    HW217154   3.595   0.092   2.421
 5419SOL     OW17155   3.161   4.794   6.819
 5419SOL    HW117156   3.176   4.870   6.756
 5419SOL    HW217157   3.246   4.776   6.869
 5420SOL     OW17158   2.014   2.480   3.682
 5420SOL    HW117159   2.096   2.426   3.662
 5420SOL    HW217160   2.005   2.553   3.614
 5421SOL     OW17161   1.650   3.802   1.255
 5421SOL    HW117162   1.700   3.718   1.276
 5421SOL    HW217163   1.559   3.798   1.296
 5422SOL     OW17164   1.469   4.393   1.474
 5422SOL    HW117165   1.568   4.378   1.475
 5422SOL    HW217166   1.424   4.310   1.441
 5423SOL     OW17167   6.189   3.016   6.008
 5423SOL    HW117168   6.222   2.943   6.067
 5423SOL    HW217169   6.267   3.063   5.966
 5424SOL     OW17170   4.976   3.485   4.362
 5424SOL    HW117171   5.073   3.483   4.383
 5424SOL    HW217172   4.932   3.402   4.395
 5425SOL     OW17173   4.110   1.319   4.855
 5425SOL    HW117174   4.069   1.392   4.911
 5425SOL    HW217175   4.209   1.325   4.861
 5426SOL     OW17176   5.394   6.413   5.019
 5426SOL    HW117177   5.398   6.448   4.925
 5426SOL    HW217178   5.445   6.327   5.024
 5427SOL     OW17179   4.255   5.821   6.631
 5427SOL    HW117180   4.345   5.804   6.670
 5427SOL    HW217181   4.262   5.894   6.563
 5428SOL     OW17182   0.669   0.525   0.819
 5428SOL    HW117183   0.729   0.454   0.783
 5428SOL    HW217184   0.587   0.482   0.858
 5429SOL     OW17185   1.641   1.835   6.841
 5429SOL    HW117186   1.693   1.855   6.758
 5429SOL    HW217187   1.556   1.788   6.817
 5430SOL     OW17188   0.690   2.382   6.094
 5430SOL    HW117189   0.646   2.317   6.156
 5430SOL    HW217190   0.700   2.340   6.004
 5431SOL     OW17191   3.009   6.687   6.601
 5431SOL    HW117192   3.066   6.759   6.642
 5431SOL    HW217193   2.949   6.649   6.671
 5432SOL     OW17194   5.272   6.887   6.981
 5432SOL    HW117195   5.280   6.788   6.992
 5432SOL    HW217196   5.354   6.931   7.017
 5433SOL     OW17197   6.932   1.617   4.878
 5433SOL    HW117198   6.929   1.661   4.787
 5433SOL    HW217199   0.006   1.616   4.911
 5434SOL     OW17200   2.862   0.045   6.005
 5434SOL    HW117201   2.862   0.125   5.944
 5434SOL    HW217202   2.817   0.069   6.091
 5435SOL     OW17203   4.307   6.852   1.640
 5435SOL    HW117204   4.319   6.820   1.546
 5435SOL    HW217205   4.274   6.946   1.640
 5436SOL     OW17206   4.665   4.781   3.256
 5436SOL    HW117207   4.661   4.796   3.354
 5436SOL    HW217208   4.672   4.869   3.209
 5437SOL     OW17209   3.140   4.263   0.021
 5437SOL    HW117210   3.154   4.357   7.008
 5437SOL    HW217211   3.166   4.198   6.970
 5438SOL     OW17212   5.985   1.950   1.356
 5438SOL    HW117213   5.948   1.875   1.301
 5438SOL    HW217214   5.911   1.998   1.402
 5439SOL     OW17215   1.559   2.215   1.103
 5439SOL    HW117216   1.562   2.176   1.011
 5439SOL    HW217217   1.468   2.204   1.142
 5440SOL     OW17218   1.188   1.958   1.290
 5440SOL    HW117219   1.280   1.919   1.291
 5440SOL    HW217220   1.121   1.885   1.274
 5441SOL     OW17221   3.660   2.039   3.945
 5441SOL    HW117222   3.583   2.095   3.915
 5441SOL    HW217223   3.656   2.029   4.045
 5442SOL     OW17224   4.206   6.829   1.932
 5442SOL    HW117225   4.120   6.778   1.919
 5442SOL    HW217226   4.279   6.785   1.879
 5443SOL     OW17227   2.801   0.031   4.887
 5443SOL    HW117228   2.785   6.955   4.864
 5443SOL    HW217229   2.876   0.066   4.831
 5444SOL     OW17230   0.861   6.821   4.098
 5444SOL    HW117231   0.802   6.787   4.171
 5444SOL    HW217232   0.805   6.870   4.031
 5445SOL     OW17233   6.326   4.063   3.041
 5445SOL    HW117234   6.287   4.028   2.956
 5445SOL    HW217235   6.337   3.988   3.106
 5446SOL     OW17236   5.826   5.962   4.720
 5446SOL    HW117237   5.751   5.906   4.684
 5446SOL    HW217238   5.821   6.053   4.680
 5447SOL     OW17239   3.887   2.623   0.303
 5447SOL    HW117240   3.932   2.615   0.392
 5447SOL    HW217241   3.820   2.697   0.305
 5448SOL     OW17242   4.914   2.358   5.577
 5448SOL    HW117243   4.923   2.454   5.550
 5448SOL    HW217244   4.917   2.300   5.496
 5449SOL     OW17245   1.069   2.999   0.028
 5449SOL    HW117246   1.041   2.969   0.119
 5449SOL    HW217247   1.168   3.012   0.026
 5450SOL     OW17248   2.063   0.935   1.491
 5450SOL    HW117249   2.149   0.980   1.514
 5450SOL    HW217250   2.061   0.913   1.394
 5451SOL     OW17251   0.706   6.085   3.318
 5451SOL    HW117252   0.724   6.176   3.279
 5451SOL    HW217253   0.608   6.076   3.337
 5452SOL     OW17254   2.032   4.128   0.177
 5452SOL    HW117255   1.952   4.068   0.185
 5452SOL    HW217256   2.013   4.198   0.108
 5453SOL     OW17257   6.263   3.962   0.377
 5453SOL    HW117258   6.331   4.030   0.350
 5453SOL    HW217259   6.288   3.873   0.339
 5454SOL     OW17260   6.988   4.683   6.391
 5454SOL    HW117261   6.990   4.783   6.379
 5454SOL    HW217262   6.901   4.656   6.432
 5455SOL     OW17263   6.848   2.991   1.073
 5455SOL    HW117264   6.829   2.935   0.992
 5455SOL    HW217265   6.913   3.063   1.048
 5456SOL     OW17266   3.035   0.600   6.514
 5456SOL    HW117267   3.067   0.601   6.609
 5456SOL    HW217268   3.041   0.507   6.478
 5457SOL     OW17269   5.640   2.549   0.950
 5457SOL    HW117270   5.721   2.532   1.005
 5457SOL    HW217271   5.659   2.619   0.881
 5458SOL     OW17272   1.359   4.396   0.019
 5458SOL    HW117273   1.291   4.431   6.975
 5458SOL    HW217274   1.311   4.360   0.100
 5459SOL     OW17275   2.085   5.110   0.121
 5459SOL    HW117276   1.995   5.082   0.154
 5459SOL    HW217277   2.098   5.208   0.135
 5460SOL     OW17278   2.981   0.611   1.282
 5460SOL    HW117279   2.971   0.709   1.296
 5460SOL    HW217280   2.909   0.562   1.330
 5461SOL     OW17281   4.876   6.621   4.881
 5461SOL    HW117282   4.881   6.576   4.970
 5461SOL    HW217283   4.961   6.607   4.831
 5462SOL     OW17284   1.527   0.135   0.685
 5462SOL    HW117285   1.591   0.202   0.724
 5462SOL    HW217286   1.438   0.144   0.731
 5463SOL     OW17287   5.857   2.436   0.356
 5463SOL    HW117288   5.778   2.496   0.368
 5463SOL    HW217289   5.937   2.478   0.399
 5464SOL     OW17290   1.945   0.875   4.228
 5464SOL    HW117291   1.890   0.805   4.274
 5464SOL    HW217292   1.981   0.938   4.296
 5465SOL     OW17293   3.474   6.965   4.773
 5465SOL    HW117294   3.390   6.924   4.740
 5465SOL    HW217295   3.546   6.896   4.778
 5466SOL     OW17296   4.734   4.176   4.587
 5466SOL    HW117297   4.740   4.212   4.494
 5466SOL    HW217298   4.665   4.226   4.638
 5467SOL     OW17299   5.546   1.266   2.556
 5467SOL    HW117300   5.491   1.209   2.495
 5467SOL    HW217301   5.499   1.275   2.644
 5468SOL     OW17302   4.635   1.937   4.879
 5468SOL    HW117303   4.688   2.014   4.916
 5468SOL    HW217304   4.655   1.926   4.782
 5469SOL     OW17305   4.288   4.594   5.919
 5469SOL    HW117306   4.297   4.653   5.838
 5469SOL    HW217307   4.357   4.621   5.986
 5470SOL     OW17308   1.823   5.017   3.822
 5470SOL    HW117309   1.869   4.968   3.748
 5470SOL    HW217310   1.820   4.959   3.903
 5471SOL     OW17311   6.156   5.703   1.454
 5471SOL    HW117312   6.180   5.739   1.544
 5471SOL    HW217313   6.227   5.730   1.388
 5472SOL     OW17314   4.086   3.892   6.039
 5472SOL    HW117315   4.060   3.805   5.997
 5472SOL    HW217316   4.008   3.928   6.091
 5473SOL     OW17317   1.410   3.303   3.594
 5473SOL    HW117318   1.502   3.264   3.597
 5473SOL    HW217319   1.414   3.400   3.620
 5474SOL     OW17320   2.020   5.215   4.320
 5474SOL    HW117321   2.057   5.146   4.258
 5474SOL    HW217322   2.040   5.189   4.415
 5475SOL     OW17323   3.396   2.126   1.020
 5475SOL    HW117324   3.354   2.162   0.937
 5475SOL    HW217325   3.386   2.193   1.094
 5476SOL     OW17326   1.062   2.930   6.379
 5476SOL    HW117327   1.127   2.889   6.444
 5476SOL    HW217328   1.113   2.978   6.307
 5477SOL     OW17329   2.159   3.124   3.414
 5477SOL    HW117330   2.128   3.091   3.504
 5477SOL    HW217331   2.240   3.072   3.386
 5478SOL     OW17332   5.218   5.968   5.690
 5478SOL    HW117333   5.197   5.873   5.669
 5478SOL    HW217334   5.138   6.012   5.730
 5479SOL     OW17335   4.816   0.280   4.782
 5479SOL    HW117336   4.808   0.253   4.686
 5479SOL    HW217337   4.761   0.362   4.799
 5480SOL     OW17338   0.916   4.187   4.406
 5480SOL    HW117339   0.903   4.140   4.319
 5480SOL    HW217340   0.986   4.258   4.396
 5481SOL     OW17341   3.297   6.797   4.709
 5481SOL    HW117342   3.216   6.755   4.749
 5481SOL    HW217343   3.352   6.728   4.662
 5482SOL     OW17344   2.983   4.512   1.433
 5482SOL    HW117345   3.048   4.474   1.499
 5482SOL    HW217346   2.895   4.465   1.443
 5483SOL     OW17347   0.348   2.599   6.026
 5483SOL    HW117348   0.413   2.585   5.951
 5483SOL    HW217349   0.385   2.667   6.090
 5484SOL     OW17350   4.548   0.873   4.346
 5484SOL    HW117351   4.584   0.819   4.422
 5484SOL    HW217352   4.544   0.969   4.373
 5485SOL     OW17353   2.928   6.594   5.486
 5485SOL    HW117354   2.861   6.626   5.553
 5485SOL    HW217355   2.931   6.494   5.488
 5486SOL     OW17356   2.899   5.872   4.660
 5486SOL    HW117357   2.822   5.898   4.718
 5486SOL    HW217358   2.981   5.920   4.689
 5487SOL     OW17359   2.573   4.708   5.894
 5487SOL    HW117360   2.554   4.739   5.800
 5487SOL    HW217361   2.671   4.721   5.914
 5488SOL     OW17362   6.189   1.002   0.695
 5488SOL    HW117363   6.102   1.052   0.696
 5488SOL    HW217364   6.190   0.939   0.617
 5489SOL     OW17365   6.542   3.154   2.236
 5489SOL    HW117366   6.632   3.141   2.196
 5489SOL    HW217367   6.552   3.182   2.332
 5490SOL     OW17368   1.361   7.007   2.743
 5490SOL    HW117369   1.447   6.976   2.703
 5490SOL    HW217370   1.284   6.959   2.701
 5491SOL     OW17371   6.733   3.715   0.860
 5491SOL    HW117372   6.788   3.716   0.944
 5491SOL    HW217373   6.651   3.660   0.874
 5492SOL     OW17374   0.666   1.168   5.441
 5492SOL    HW117375   0.568   1.150   5.437
 5492SOL    HW217376   0.717   1.082   5.437
 5493SOL     OW17377   4.175   3.694   1.735
 5493SOL    HW117378   4.110   3.626   1.702
 5493SOL    HW217379   4.157   3.712   1.832
 5494SOL     OW17380   6.134   4.233   5.198
 5494SOL    HW117381   6.093   4.278   5.277
 5494SOL    HW217382   6.110   4.283   5.114
 5495SOL     OW17383   6.160   0.544   0.545
 5495SOL    HW117384   6.104   0.560   0.626
 5495SOL    HW217385   6.240   0.604   0.548
 5496SOL     OW17386   4.180   0.679   4.476
 5496SOL    HW117387   4.221   0.671   4.385
 5496SOL    HW217388   4.088   0.717   4.468
 5497SOL     OW17389   1.141   0.781   6.335
 5497SOL    HW117390   1.180   0.699   6.376
 5497SOL    HW217391   1.060   0.756   6.282
 5498SOL     OW17392   0.574   5.415   2.179
 5498SOL    HW117393   0.640   5.490   2.176
 5498SOL    HW217394   0.537   5.400   2.087
 5499SOL     OW17395   1.224   0.412   4.973
 5499SOL    HW117396   1.128   0.385   4.974
 5499SOL    HW217397   1.281   0.333   4.951
 5500SOL     OW17398   2.309   0.834   0.384
 5500SOL    HW117399   2.374   0.907   0.362
 5500SOL    HW217400   2.316   0.811   0.481
 5501SOL     OW17401   3.847   2.508   6.874
 5501SOL    HW117402   3.808   2.558   6.952
 5501SOL    HW217403   3.914   2.566   6.828
 5502SOL     OW17404   4.301   1.969   0.263
 5502SOL    HW117405   4.370   1.928   0.322
 5502SOL    HW217406   4.232   2.014   0.320
 5503SOL     OW17407   0.422   3.798   0.661
 5503SOL    HW117408   0.327   3.809   0.690
 5503SOL    HW217409   0.472   3.744   0.729
 5504SOL     OW17410   3.695   0.750   6.484
 5504SOL    HW117411   3.775   0.801   6.453
 5504SOL    HW217412   3.615   0.781   6.432
 5505SOL     OW17413   2.277   4.609   4.313
 5505SOL    HW117414   2.367   4.642   4.283
 5505SOL    HW217415   2.289   4.536   4.380
 5506SOL     OW17416   0.144   3.768   6.431
 5506SOL    HW117417   0.209   3.811   6.368
 5506SOL    HW217418   0.178   3.678   6.457
 5507SOL     OW17419   2.916   0.340   6.761
 5507SOL    HW117420   2.880   0.296   6.843
 5507SOL    HW217421   2.839   0.366   6.702
 5508SOL     OW17422   0.474   0.802   6.754
 5508SOL    HW117423   0.442   0.872   6.690
 5508SOL    HW217424   0.396   0.751   6.789
 5509SOL     OW17425   0.234   5.375   0.173
 5509SOL    HW117426   0.165   5.383   0.102
 5509SOL    HW217427   0.190   5.377   0.263
 5510SOL     OW17428   3.979   5.122   7.014
 5510SOL    HW117429   4.013   5.074   6.932
 5510SOL    HW217430   3.890   5.084   0.019
 5511SOL     OW17431   0.775   1.370   5.570
 5511SOL    HW117432   0.722   1.303   5.518
 5511SOL    HW217433   0.774   1.458   5.522
 5512SOL     OW17434   3.503   0.791   2.674
 5512SOL    HW117435   3.421   0.827   2.630
 5512SOL    HW217436   3.483   0.700   2.710
 5513SOL     OW17437   3.966   4.624   6.921
 5513SOL    HW117438   3.949   4.673   6.835
 5513SOL    HW217439   4.051   4.573   6.914
 5514SOL     OW17440   2.763   0.541   6.098
 5514SOL    HW117441   2.690   0.488   6.141
 5514SOL    HW217442   2.851   0.496   6.113
 5515SOL     OW17443   2.530   5.928   1.932
 5515SOL    HW117444   2.461   5.855   1.938
 5515SOL    HW217445   2.562   5.950   2.024
 5516SOL     OW17446   2.418   2.606   5.057
 5516SOL    HW117447   2.430   2.659   5.141
 5516SOL    HW217448   2.347   2.649   5.001
 5517SOL     OW17449   1.730   3.514   3.269
 5517SOL    HW117450   1.749   3.544   3.175
 5517SOL    HW217451   1.632   3.517   3.285
 5518SOL     OW17452   4.851   4.119   5.479
 5518SOL    HW117453   4.780   4.127   5.548
 5518SOL    HW217454   4.909   4.040   5.499
 5519SOL     OW17455   5.011   2.460   3.592
 5519SOL    HW117456   5.026   2.383   3.530
 5519SOL    HW217457   4.936   2.439   3.654
 5520SOL     OW17458   5.023   6.891   2.178
 5520SOL    HW117459   4.992   6.822   2.114
 5520SOL    HW217460   5.103   6.938   2.140
 5521SOL     OW17461   5.849   5.811   1.692
 5521SOL    HW117462   5.798   5.736   1.650
 5521SOL    HW217463   5.911   5.775   1.762
 5522SOL     OW17464   6.082   5.765   0.678
 5522SOL    HW117465   6.147   5.825   0.632
 5522SOL    HW217466   6.128   5.679   0.702
 5523SOL     OW17467   5.392   1.109   2.415
 5523SOL    HW117468   5.310   1.129   2.361
 5523SOL    HW217469   5.413   1.011   2.409
 5524SOL     OW17470   2.911   1.056   4.384
 5524SOL    HW117471   2.932   0.964   4.350
 5524SOL    HW217472   2.835   1.094   4.332
 5525SOL     OW17473   6.089   1.735   1.133
 5525SOL    HW117474   6.167   1.681   1.163
 5525SOL    HW217475   6.020   1.675   1.094
 5526SOL     OW17476   4.584   5.006   3.122
 5526SOL    HW117477   4.602   5.105   3.119
 5526SOL    HW217478   4.489   4.989   3.098
 5527SOL     OW17479   5.920   1.967   4.088
 5527SOL    HW117480   5.895   1.979   3.992
 5527SOL    HW217481   5.957   2.053   4.124
 5528SOL     OW17482   0.875   1.818   1.323
 5528SOL    HW117483   0.838   1.827   1.415
 5528SOL    HW217484   0.964   1.774   1.328
 5529SOL     OW17485   3.621   0.583   1.984
 5529SOL    HW117486   3.562   0.639   1.925
 5529SOL    HW217487   3.597   0.487   1.975
 5530SOL     OW17488   6.565   2.439   1.315
 5530SOL    HW117489   6.565   2.348   1.274
 5530SOL    HW217490   6.520   2.435   1.405
 5531SOL     OW17491   2.450   4.331   1.437
 5531SOL    HW117492   2.350   4.329   1.437
 5531SOL    HW217493   2.485   4.283   1.356
 5532SOL     OW17494   1.764   3.180   1.344
 5532SOL    HW117495   1.669   3.172   1.376
 5532SOL    HW217496   1.764   3.196   1.245
 5533SOL     OW17497   4.506   1.829   3.983
 5533SOL    HW117498   4.567   1.763   4.028
 5533SOL    HW217499   4.447   1.871   4.051
 5534SOL     OW17500   1.072   1.042   4.260
 5534SOL    HW117501   0.992   1.080   4.215
 5534SOL    HW217502   1.082   1.083   4.351
 5535SOL     OW17503   0.625   2.219   3.164
 5535SOL    HW117504   0.661   2.281   3.234
 5535SOL    HW217505   0.569   2.271   3.099
 5536SOL     OW17506   3.845   0.003   4.450
 5536SOL    HW117507   3.857   0.032   4.544
 5536SOL    HW217508   3.828   0.083   4.392
 5537SOL     OW17509   3.528   0.770   3.218
 5537SOL    HW117510   3.555   0.740   3.127
 5537SOL    HW217511   3.607   0.809   3.265
 5538SOL     OW17512   4.417   5.732   4.566
 5538SOL    HW117513   4.504   5.716   4.612
 5538SOL    HW217514   4.370   5.645   4.552
 5539SOL     OW17515   2.220   3.620   0.220
 5539SOL    HW117516   2.175   3.681   0.285
 5539SOL    HW217517   2.157   3.598   0.146
 5540SOL     OW17518   5.726   4.740   1.942
 5540SOL    HW117519   5.655   4.670   1.952
 5540SOL    HW217520   5.792   4.731   2.016
 5541SOL     OW17521   4.483   1.274   5.342
 5541SOL    HW117522   4.511   1.246   5.434
 5541SOL    HW217523   4.502   1.199   5.278
 5542SOL     OW17524   5.026   4.565   5.722
 5542SOL    HW117525   5.076   4.620   5.788
 5542SOL    HW217526   4.941   4.533   5.764
 5543SOL     OW17527   6.764   2.097   6.040
 5543SOL    HW117528   6.822   2.118   5.961
 5543SOL    HW217529   6.781   2.163   6.113
 5544SOL     OW17530   6.011   1.311   5.898
 5544SOL    HW117531   6.029   1.290   5.802
 5544SOL    HW217532   5.967   1.400   5.906
 5545SOL     OW17533   3.059   2.134   2.028
 5545SOL    HW117534   2.994   2.209   2.037
 5545SOL    HW217535   3.015   2.048   2.053
 5546SOL     OW17536   2.079   4.856   5.735
 5546SOL    HW117537   2.137   4.899   5.804
 5546SOL    HW217538   2.029   4.780   5.776
 5547SOL     OW17539   4.096   5.674   4.946
 5547SOL    HW117540   4.055   5.723   4.869
 5547SOL    HW217541   4.166   5.731   4.989
 5548SOL     OW17542   6.803   3.693   5.249
 5548SOL    HW117543   6.754   3.780   5.247
 5548SOL    HW217544   6.881   3.700   5.310
 5549SOL     OW17545   3.314   4.337   6.510
 5549SOL    HW117546   3.299   4.249   6.554
 5549SOL    HW217547   3.396   4.380   6.548
 5550SOL     OW17548   3.698   6.469   1.480
 5550SOL    HW117549   3.711   6.504   1.387
 5550SOL    HW217550   3.691   6.545   1.544
 5551SOL     OW17551   0.683   1.017   3.141
 5551SOL    HW117552   0.653   0.974   3.226
 5551SOL    HW217553   0.758   0.964   3.101
 5552SOL     OW17554   0.311   2.813   2.180
 5552SOL    HW117555   0.229   2.755   2.187
 5552SOL    HW217556   0.293   2.888   2.116
 5553SOL     OW17557   4.891   6.002   0.112
 5553SOL    HW117558   4.934   6.091   0.096
 5553SOL    HW217559   4.814   6.013   0.175
 5554SOL     OW17560   2.770   1.913   4.866
 5554SOL    HW117561   2.786   1.995   4.811
 5554SOL    HW217562   2.771   1.938   4.963
 5555SOL     OW17563   0.130   5.992   3.048
 5555SOL    HW117564   0.205   6.057   3.038
 5555SOL    HW217565   0.068   6.000   2.970
 5556SOL     OW17566   0.704   1.076   4.372
 5556SOL    HW117567   0.723   1.173   4.386
 5556SOL    HW217568   0.606   1.064   4.354
 5557SOL     OW17569   2.593   0.397   3.580
 5557SOL    HW117570   2.615   0.450   3.498
 5557SOL    HW217571   2.516   0.439   3.627
 5558SOL     OW17572   5.165   2.650   4.630
 5558SOL    HW117573   5.155   2.684   4.724
 5558SOL    HW217574   5.220   2.567   4.631
 5559SOL     OW17575   1.600   0.530   1.447
 5559SOL    HW117576   1.576   0.450   1.391
 5559SOL    HW217577   1.699   0.543   1.446
 5560SOL     OW17578   0.245   0.727   4.008
 5560SOL    HW117579   0.248   0.628   4.024
 5560SOL    HW217580   0.216   0.744   3.913
 5561SOL     OW17581   1.480   3.567   3.604
 5561SOL    HW117582   1.445   3.623   3.529
 5561SOL    HW217583   1.570   3.600   3.631
 5562SOL     OW17584   2.154   2.302   5.667
 5562SOL    HW117585   2.073   2.339   5.712
 5562SOL    HW217586   2.184   2.365   5.595
 5563SOL     OW17587   3.996   5.108   0.960
 5563SOL    HW117588   3.960   5.023   0.999
 5563SOL    HW217589   4.007   5.097   0.861
 5564SOL     OW17590   6.036   4.357   1.376
 5564SOL    HW117591   6.041   4.413   1.458
 5564SOL    HW217592   6.063   4.412   1.297
 5565SOL     OW17593   2.879   3.425   5.508
 5565SOL    HW117594   2.956   3.376   5.468
 5565SOL    HW217595   2.893   3.524   5.497
 5566SOL     OW17596   1.955   4.387   0.687
 5566SOL    HW117597   1.989   4.378   0.594
 5566SOL    HW217598   2.031   4.379   0.751
 5567SOL     OW17599   1.697   5.941   2.189
 5567SOL    HW117600   1.659   5.950   2.281
 5567SOL    HW217601   1.647   6.002   2.127
 5568SOL     OW17602   3.704   2.040   1.462
 5568SOL    HW117603   3.701   2.071   1.556
 5568SOL    HW217604   3.659   1.951   1.455
 5569SOL     OW17605   5.641   1.920   0.159
 5569SOL    HW117606   5.599   1.830   0.159
 5569SOL    HW217607   5.626   1.964   0.070
 5570SOL     OW17608   6.513   4.010   5.727
 5570SOL    HW117609   6.419   3.976   5.730
 5570SOL    HW217610   6.550   4.012   5.820
 5571SOL     OW17611   6.555   4.532   6.453
 5571SOL    HW117612   6.524   4.441   6.479
 5571SOL    HW217613   6.540   4.546   6.355
 5572SOL     OW17614   5.277   2.762   5.653
 5572SOL    HW117615   5.254   2.803   5.741
 5572SOL    HW217616   5.357   2.704   5.662
 5573SOL     OW17617   0.749   3.894   0.711
 5573SOL    HW117618   0.848   3.902   0.711
 5573SOL    HW217619   0.718   3.851   0.626
 5574SOL     OW17620   0.065   5.871   4.409
 5574SOL    HW117621   0.146   5.873   4.351
 5574SOL    HW217622   0.057   5.781   4.452
 5575SOL     OW17623   1.795   1.363   1.064
 5575SOL    HW117624   1.803   1.266   1.039
 5575SOL    HW217625   1.788   1.372   1.163
 5576SOL     OW17626   6.470   5.873   0.048
 5576SOL    HW117627   6.451   5.819   6.987
 5576SOL    HW217628   6.425   5.830   0.127
 5577SOL     OW17629   2.245   3.784   5.277
 5577SOL    HW117630   2.322   3.846   5.262
 5577SOL    HW217631   2.173   3.804   5.211
 5578SOL     OW17632   4.059   1.920   5.953
 5578SOL    HW117633   4.155   1.933   5.927
 5578SOL    HW217634   4.004   1.994   5.915
 5579SOL     OW17635   5.021   4.992   0.688
 5579SOL    HW117636   5.000   4.899   0.721
 5579SOL    HW217637   5.119   5.007   0.691
 5580SOL     OW17638   5.396   1.037   1.383
 5580SOL    HW117639   5.457   0.957   1.382
 5580SOL    HW217640   5.447   1.117   1.414
 5581SOL     OW17641   2.919   2.468   0.476
 5581SOL    HW117642   2.883   2.535   0.540
 5581SOL    HW217643   2.845   2.433   0.419
 5582SOL     OW17644   3.830   3.427   3.248
 5582SOL    HW117645   3.767   3.360   3.287
 5582SOL    HW217646   3.787   3.471   3.169
 5583SOL     OW17647   3.551   0.509   0.556
 5583SOL    HW117648   3.625   0.453   0.520
 5583SOL    HW217649   3.522   0.575   0.487
 5584SOL     OW17650   5.932   2.869   2.721
 5584SOL    HW117651   5.925   2.769   2.720
 5584SOL    HW217652   5.977   2.900   2.637
 5585SOL     OW17653   6.838   6.820   4.217
 5585SOL    HW117654   6.923   6.796   4.171
 5585SOL    HW217655   6.772   6.745   4.208
 5586SOL     OW17656   2.335   1.175   6.584
 5586SOL    HW117657   2.296   1.249   6.639
 5586SOL    HW217658   2.424   1.202   6.549
 5587SOL     OW17659   3.463   0.320   3.765
 5587SOL    HW117660   3.427   0.360   3.849
 5587SOL    HW217661   3.557   0.350   3.751
 5588SOL     OW17662   4.254   6.978   6.030
 5588SOL    HW117663   4.306   0.043   6.023
 5588SOL    HW217664   4.279   6.918   5.954
 5589SOL     OW17665   3.963   2.839   6.511
 5589SOL    HW117666   3.950   2.744   6.485
 5589SOL    HW217667   4.047   2.848   6.565
 5590SOL     OW17668   0.141   6.594   3.419
 5590SOL    HW117669   0.081   6.674   3.421
 5590SOL    HW217670   0.132   6.544   3.505
 5591SOL     OW17671   4.865   0.869   7.011
 5591SOL    HW117672   4.889   0.784   6.964
 5591SOL    HW217673   4.869   0.855   0.089
 5592SOL     OW17674   2.611   2.464   2.873
 5592SOL    HW117675   2.676   2.477   2.798
 5592SOL    HW217676   2.660   2.437   2.955
 5593SOL     OW17677   1.263   3.037   4.992
 5593SOL    HW117678   1.298   2.956   5.040
 5593SOL    HW217679   1.333   3.108   4.991
 5594SOL     OW17680   2.455   0.598   6.477
 5594SOL    HW117681   2.532   0.653   6.443
 5594SOL    HW217682   2.449   0.607   6.576
 5595SOL     OW17683   0.272   1.643   5.609
 5595SOL    HW117684   0.308   1.567   5.662
 5595SOL    HW217685   0.173   1.649   5.622
 5596SOL     OW17686   4.543   1.196   2.695
 5596SOL    HW117687   4.531   1.293   2.715
 5596SOL    HW217688   4.545   1.182   2.596
 5597SOL     OW17689   0.427   0.955   6.180
 5597SOL    HW117690   0.404   0.858   6.170
 5597SOL    HW217691   0.517   0.963   6.223
 5598SOL     OW17692   7.015   2.352   4.072
 5598SOL    HW117693   6.986   2.354   3.976
 5598SOL    HW217694   6.946   2.306   4.127
 5599SOL     OW17695   4.717   2.868   3.548
 5599SOL    HW117696   4.758   2.901   3.633
 5599SOL    HW217697   4.695   2.771   3.556
 5600SOL     OW17698   2.366   1.441   2.079
 5600SOL    HW117699   2.340   1.469   2.171
 5600SOL    HW217700   2.361   1.519   2.017
 5601SOL     OW17701   6.079   3.171   5.341
 5601SOL    HW117702   6.149   3.235   5.374
 5601SOL    HW217703   6.111   3.128   5.257
 5602SOL     OW17704   6.608   2.357   2.466
 5602SOL    HW117705   6.553   2.403   2.536
 5602SOL    HW217706   6.551   2.337   2.387
 5603SOL     OW17707   4.395   0.936   5.433
 5603SOL    HW117708   4.357   0.860   5.486
 5603SOL    HW217709   4.321   0.989   5.391
 5604SOL     OW17710   1.190   0.052   3.335
 5604SOL    HW117711   1.264   0.036   3.400
 5604SOL    HW217712   1.199   0.143   3.295
 5605SOL     OW17713   4.043   6.592   3.949
 5605SOL    HW117714   4.116   6.659   3.939
 5605SOL    HW217715   4.043   6.556   4.042
 5606SOL     OW17716   4.973   2.692   0.578
 5606SOL    HW117717   4.981   2.790   0.562
 5606SOL    HW217718   4.982   2.673   0.676
 5607SOL     OW17719   6.423   2.431   2.929
 5607SOL    HW117720   6.361   2.355   2.908
 5607SOL    HW217721   6.371   2.517   2.928
 5608SOL     OW17722   5.133   0.818   3.505
 5608SOL    HW117723   5.149   0.734   3.454
 5608SOL    HW217724   5.181   0.814   3.593
 5609SOL     OW17725   0.154   0.326   0.873
 5609SOL    HW117726   0.063   0.293   0.899
 5609SOL    HW217727   0.156   0.426   0.880
 5610SOL     OW17728   5.067   5.315   1.039
 5610SOL    HW117729   5.005   5.254   0.988
 5610SOL    HW217730   5.014   5.368   1.106
 5611SOL     OW17731   6.291   5.143   1.742
 5611SOL    HW117732   6.298   5.241   1.722
 5611SOL    HW217733   6.198   5.123   1.774
 5612SOL     OW17734   3.802   2.369   0.223
 5612SOL    HW117735   3.837   2.461   0.236
 5612SOL    HW217736   3.707   2.364   0.255
 5613SOL     OW17737   5.809   4.876   6.216
 5613SOL    HW117738   5.720   4.837   6.237
 5613SOL    HW217739   5.875   4.850   6.287
 5614SOL     OW17740   5.107   3.383   3.751
 5614SOL    HW117741   5.036   3.323   3.787
 5614SOL    HW217742   5.090   3.400   3.654
 5615SOL     OW17743   0.108   2.614   3.046
 5615SOL    HW117744   0.179   2.608   2.976
 5615SOL    HW217745   0.055   2.698   3.032
 5616SOL     OW17746   1.559   3.029   2.775
 5616SOL    HW117747   1.573   3.055   2.871
 5616SOL    HW217748   1.644   3.042   2.724
 5617SOL     OW17749   1.606   5.363   6.273
 5617SOL    HW117750   1.691   5.348   6.223
 5617SOL    HW217751   1.577   5.458   6.262
 5618SOL     OW17752   5.258   6.981   2.097
 5618SOL    HW117753   5.291   0.025   2.028
 5618SOL    HW217754   5.293   6.890   2.077
 5619SOL     OW17755   3.457   3.075   3.575
 5619SOL    HW117756   3.553   3.071   3.547
 5619SOL    HW217757   3.442   3.013   3.652
 5620SOL     OW17758   4.756   4.574   4.249
 5620SOL    HW117759   4.852   4.593   4.229
 5620SOL    HW217760   4.717   4.516   4.177
 5621SOL     OW17761   0.376   2.394   6.629
 5621SOL    HW117762   0.283   2.378   6.661
 5621SOL    HW217763   0.376   2.407   6.530
 5622SOL     OW17764   4.734   5.822   3.810
 5622SOL    HW117765   4.677   5.747   3.841
 5622SOL    HW217766   4.726   5.899   3.873
 5623SOL     OW17767   4.938   5.195   4.389
 5623SOL    HW117768   4.887   5.230   4.467
 5623SOL    HW217769   5.035   5.194   4.410
 5624SOL     OW17770   5.539   4.965   3.148
 5624SOL    HW117771   5.580   4.874   3.160
 5624SOL    HW217772   5.591   5.032   3.201
 5625SOL     OW17773   1.955   5.953   5.603
 5625SOL    HW117774   1.931   5.980   5.696
 5625SOL    HW217775   2.054   5.959   5.592
 5626SOL     OW17776   0.828   4.381   6.772
 5626SOL    HW117777   0.875   4.449   6.716
 5626SOL    HW217778   0.837   4.291   6.731
 5627SOL     OW17779   1.013   5.350   6.775
 5627SOL    HW117780   0.950   5.390   6.842
 5627SOL    HW217781   1.049   5.422   6.716
 5628SOL     OW17782   2.771   3.424   0.727
 5628SOL    HW117783   2.731   3.335   0.706
 5628SOL    HW217784   2.871   3.415   0.733
 5629SOL     OW17785   5.804   3.692   2.753
 5629SOL    HW117786   5.733   3.639   2.707
 5629SOL    HW217787   5.852   3.633   2.818
 5630SOL     OW17788   1.180   3.967   6.689
 5630SOL    HW117789   1.146   3.934   6.777
 5630SOL    HW217790   1.250   3.905   6.654
 5631SOL     OW17791   3.712   1.508   1.983
 5631SOL    HW117792   3.686   1.445   1.910
 5631SOL    HW217793   3.650   1.497   2.061
 5632SOL     OW17794   4.778   6.613   5.858
 5632SOL    HW117795   4.685   6.640   5.882
 5632SOL    HW217796   4.778   6.517   5.829
 5633SOL     OW17797   0.927   5.142   5.231
 5633SOL    HW117798   0.942   5.241   5.233
 5633SOL    HW217799   0.874   5.115   5.312
 5634SOL     OW17800   2.404   0.355   1.123
 5634SOL    HW117801   2.333   0.422   1.105
 5634SOL    HW217802   2.367   0.262   1.114
 5635SOL     OW17803   3.139   0.923   1.005
 5635SOL    HW117804   3.101   1.015   1.016
 5635SOL    HW217805   3.204   0.905   1.079
 5636SOL     OW17806   5.350   1.515   5.980
 5636SOL    HW117807   5.384   1.439   5.924
 5636SOL    HW217808   5.276   1.561   5.932
 5637SOL     OW17809   5.095   6.561   4.720
 5637SOL    HW117810   5.049   6.514   4.646
 5637SOL    HW217811   5.133   6.648   4.687
 5638SOL     OW17812   6.502   5.172   1.244
 5638SOL    HW117813   6.553   5.105   1.190
 5638SOL    HW217814   6.487   5.254   1.190
 5639SOL     OW17815   2.414   0.458   1.962
 5639SOL    HW117816   2.402   0.508   1.876
 5639SOL    HW217817   2.382   0.514   2.038
 5640SOL     OW17818   3.321   0.087   2.622
 5640SOL    HW117819   3.410   0.049   2.646
 5640SOL    HW217820   3.311   0.177   2.664
 5641SOL     OW17821   6.656   4.224   3.684
 5641SOL    HW117822   6.711   4.141   3.698
 5641SOL    HW217823   6.630   4.262   3.772
 5642SOL     OW17824   1.842   3.691   6.777
 5642SOL    HW117825   1.821   3.612   6.835
 5642SOL    HW217826   1.846   3.662   6.682
 5643SOL     OW17827   4.988   2.441   4.967
 5643SOL    HW117828   4.924   2.433   5.044
 5643SOL    HW217829   4.939   2.474   4.887
 5644SOL     OW17830   4.538   1.148   4.819
 5644SOL    HW117831   4.490   1.067   4.851
 5644SOL    HW217832   4.481   1.229   4.832
 5645SOL     OW17833   6.173   5.752   4.046
 5645SOL    HW117834   6.253   5.757   4.106
 5645SOL    HW217835   6.102   5.696   4.088
 5646SOL     OW17836   0.466   6.212   4.025
 5646SOL    HW117837   0.508   6.256   3.945
 5646SOL    HW217838   0.416   6.280   4.078
 5647SOL     OW17839   5.895   5.112   6.097
 5647SOL    HW117840   5.991   5.096   6.119
 5647SOL    HW217841   5.839   5.036   6.130
 5648SOL     OW17842   1.779   1.410   4.857
 5648SOL    HW117843   1.856   1.349   4.873
 5648SOL    HW217844   1.812   1.494   4.814
 5649SOL     OW17845   1.192   0.495   5.247
 5649SOL    HW117846   1.110   0.550   5.263
 5649SOL    HW217847   1.188   0.453   5.156
 5650SOL     OW17848   6.252   4.822   0.079
 5650SOL    HW117849   6.313   4.803   0.155
 5650SOL    HW217850   6.279   4.768   7.020
 5651SOL     OW17851   6.495   1.394   3.132
 5651SOL    HW117852   6.452   1.359   3.049
 5651SOL    HW217853   6.459   1.485   3.151
 5652SOL     OW17854   5.216   4.709   0.269
 5652SOL    HW117855   5.127   4.732   0.307
 5652SOL    HW217856   5.251   4.627   0.314
 5653SOL     OW17857   2.125   6.156   6.356
 5653SOL    HW117858   2.088   6.229   6.298
 5653SOL    HW217859   2.053   6.119   6.414
 5654SOL     OW17860   1.027   5.606   5.689
 5654SOL    HW117861   0.987   5.562   5.770
 5654SOL    HW217862   1.083   5.683   5.718
 5655SOL     OW17863   0.127   3.908   3.862
 5655SOL    HW117864   0.198   3.900   3.792
 5655SOL    HW217865   0.168   3.948   3.945
 5656SOL     OW17866   3.274   4.697   6.299
 5656SOL    HW117867   3.249   4.664   6.390
 5656SOL    HW217868   3.308   4.791   6.306
 5657SOL     OW17869   4.570   6.188   1.835
 5657SOL    HW117870   4.633   6.227   1.903
 5657SOL    HW217871   4.618   6.179   1.747
 5658SOL     OW17872   4.652   6.543   5.163
 5658SOL    HW117873   4.750   6.529   5.148
 5658SOL    HW217874   4.630   6.639   5.147
 5659SOL     OW17875   3.504   3.462   2.584
 5659SOL    HW117876   3.514   3.364   2.571
 5659SOL    HW217877   3.407   3.485   2.588
 5660SOL     OW17878   6.129   0.046   1.046
 5660SOL    HW117879   6.071   0.026   1.125
 5660SOL    HW217880   6.224   0.052   1.076
 5661SOL     OW17881   6.969   5.904   5.026
 5661SOL    HW117882   6.876   5.940   5.020
 5661SOL    HW217883   6.972   5.826   5.088
 5662SOL     OW17884   2.247   4.054   4.301
 5662SOL    HW117885   2.333   4.071   4.349
 5662SOL    HW217886   2.207   4.141   4.272
 5663SOL     OW17887   1.466   3.907   0.286
 5663SOL    HW117888   1.393   3.967   0.318
 5663SOL    HW217889   1.539   3.904   0.354
 5664SOL     OW17890   0.183   4.961   3.122
 5664SOL    HW117891   0.261   4.906   3.093
 5664SOL    HW217892   0.185   4.973   3.221
 5665SOL     OW17893   2.449   2.075   6.196
 5665SOL    HW117894   2.439   1.988   6.245
 5665SOL    HW217895   2.536   2.117   6.220
 5666SOL     OW17896   6.169   5.518   0.420
 5666SOL    HW117897   6.227   5.583   0.470
 5666SOL    HW217898   6.168   5.431   0.468
 5667SOL     OW17899   0.498   5.560   3.508
 5667SOL    HW117900   0.553   5.477   3.507
 5667SOL    HW217901   0.412   5.543   3.460
 5668SOL     OW17902   5.908   2.220   5.192
 5668SOL    HW117903   5.846   2.172   5.254
 5668SOL    HW217904   5.956   2.293   5.242
 5669SOL     OW17905   6.953   3.097   5.552
 5669SOL    HW117906   6.872   3.088   5.494
 5669SOL    HW217907   0.006   3.139   5.500
 5670SOL     OW17908   1.804   3.970   3.728
 5670SOL    HW117909   1.726   3.944   3.785
 5670SOL    HW217910   1.795   4.066   3.702
 5671SOL     OW17911   1.750   1.573   5.066
 5671SOL    HW117912   1.841   1.612   5.073
 5671SOL    HW217913   1.755   1.482   5.024
 5672SOL     OW17914   5.301   4.727   5.570
 5672SOL    HW117915   5.379   4.667   5.585
 5672SOL    HW217916   5.240   4.686   5.502
 5673SOL     OW17917   1.246   0.448   2.048
 5673SOL    HW117918   1.331   0.499   2.034
 5673SOL    HW217919   1.174   0.510   2.080
 5674SOL     OW17920   6.365   3.604   1.138
 5674SOL    HW117921   6.352   3.559   1.226
 5674SOL    HW217922   6.430   3.679   1.148
 5675SOL     OW17923   4.142   2.194   5.559
 5675SOL    HW117924   4.135   2.230   5.466
 5675SOL    HW217925   4.176   2.100   5.556
 5676SOL     OW17926   2.998   0.215   1.385
 5676SOL    HW117927   2.939   0.182   1.311
 5676SOL    HW217928   3.094   0.202   1.359
 5677SOL     OW17929   6.738   0.174   4.103
 5677SOL    HW117930   6.655   0.219   4.134
 5677SOL    HW217931   6.781   0.125   4.180
 5678SOL     OW17932   1.624   5.554   3.227
 5678SOL    HW117933   1.526   5.574   3.221
 5678SOL    HW217934   1.647   5.528   3.321
 5679SOL     OW17935   1.923   6.394   5.011
 5679SOL    HW117936   1.863   6.473   5.021
 5679SOL    HW217937   1.885   6.316   5.061
 5680SOL     OW17938   2.197   6.994   6.082
 5680SOL    HW117939   2.160   6.904   6.062
 5680SOL    HW217940   2.208   7.004   6.181
 5681SOL     OW17941   0.781   3.676   0.931
 5681SOL    HW117942   0.854   3.609   0.924
 5681SOL    HW217943   0.807   3.760   0.883
 5682SOL     OW17944   0.700   3.644   3.775
 5682SOL    HW117945   0.727   3.558   3.732
 5682SOL    HW217946   0.678   3.627   3.871
 5683SOL     OW17947   3.653   2.526   5.490
 5683SOL    HW117948   3.575   2.589   5.489
 5683SOL    HW217949   3.723   2.558   5.426
 5684SOL     OW17950   3.195   4.094   3.249
 5684SOL    HW117951   3.273   4.123   3.306
 5684SOL    HW217952   3.214   4.003   3.212
 5685SOL     OW17953   6.781   5.258   2.139
 5685SOL    HW117954   6.694   5.210   2.144
 5685SOL    HW217955   6.764   5.356   2.127
 5686SOL     OW17956   3.448   5.765   6.901
 5686SOL    HW117957   3.519   5.823   6.942
 5686SOL    HW217958   3.358   5.806   6.915
 5687SOL     OW17959   4.985   5.352   5.770
 5687SOL    HW117960   5.042   5.433   5.754
 5687SOL    HW217961   5.044   5.274   5.794
 5688SOL     OW17962   5.985   1.721   2.060
 5688SOL    HW117963   5.995   1.735   1.961
 5688SOL    HW217964   6.068   1.678   2.096
 5689SOL     OW17965   3.505   2.390   0.610
 5689SOL    HW117966   3.523   2.482   0.646
 5689SOL    HW217967   3.463   2.398   0.519
 5690SOL     OW17968   5.010   6.627   1.341
 5690SOL    HW117969   5.084   6.562   1.356
 5690SOL    HW217970   5.048   6.718   1.325
 5691SOL     OW17971   1.723   0.437   1.914
 5691SOL    HW117972   1.736   0.479   2.004
 5691SOL    HW217973   1.658   0.361   1.922
 5692SOL     OW17974   5.552   3.042   6.878
 5692SOL    HW117975   5.551   3.092   6.791
 5692SOL    HW217976   5.535   3.107   6.953
 5693SOL     OW17977   4.564   2.612   3.349
 5693SOL    HW117978   4.513   2.529   3.372
 5693SOL    HW217979   4.556   2.678   3.423
 5694SOL     OW17980   0.187   1.511   4.218
 5694SOL    HW117981   0.230   1.598   4.195
 5694SOL    HW217982   0.253   1.437   4.207
 5695SOL     OW17983   2.004   3.525   3.303
 5695SOL    HW117984   2.049   3.438   3.282
 5695SOL    HW217985   1.906   3.517   3.284
 5696SOL     OW17986   3.130   6.924   5.246
 5696SOL    HW117987   3.115   6.893   5.153
 5696SOL    HW217988   3.188   7.006   5.246
 5697SOL     OW17989   6.728   3.343   0.104
 5697SOL    HW117990   6.810   3.347   0.162
 5697SOL    HW217991   6.750   3.383   0.015
 5698SOL     OW17992   0.241   4.123   2.133
 5698SOL    HW117993   0.303   4.107   2.210
 5698SOL    HW217994   0.282   4.190   2.071
 5699SOL     OW17995   5.811   0.898   5.102
 5699SOL    HW117996   5.872   0.836   5.151
 5699SOL    HW217997   5.864   0.967   5.054
 5700SOL     OW17998   1.013   5.717   3.487
 5700SOL    HW117999   1.025   5.816   3.494
 5700SOL    HW218000   1.097   5.675   3.453
 5701SOL     OW18001   5.743   5.333   1.703
 5701SOL    HW118002   5.688   5.255   1.733
 5701SOL    HW218003   5.786   5.376   1.783
 5702SOL     OW18004   1.813   0.774   6.389
 5702SOL    HW118005   1.765   0.762   6.476
 5702SOL    HW218006   1.896   0.827   6.404
 5703SOL     OW18007   3.947   3.880   0.730
 5703SOL    HW118008   3.874   3.893   0.797
 5703SOL    HW218009   4.025   3.836   0.774
 5704SOL     OW18010   3.659   5.507   3.339
 5704SOL    HW118011   3.716   5.445   3.394
 5704SOL    HW218012   3.644   5.592   3.390
 5705SOL     OW18013   6.256   1.574   1.975
 5705SOL    HW118014   6.256   1.626   1.889
 5705SOL    HW218015   6.242   1.477   1.954
 5706SOL     OW18016   2.084   1.258   6.848
 5706SOL    HW118017   2.098   1.162   6.875
 5706SOL    HW218018   2.010   1.298   6.902
 5707SOL     OW18019   3.284   2.455   7.017
 5707SOL    HW118020   3.375   2.439   0.035
 5707SOL    HW218021   3.230   2.371   7.020
 5708SOL     OW18022   5.372   6.735   1.961
 5708SOL    HW118023   5.287   6.747   1.910
 5708SOL    HW218024   5.356   6.679   2.042
 5709SOL     OW18025   1.430   1.012   2.780
 5709SOL    HW118026   1.451   0.915   2.785
 5709SOL    HW218027   1.441   1.045   2.687
 5710SOL     OW18028   3.415   3.565   6.099
 5710SOL    HW118029   3.499   3.511   6.103
 5710SOL    HW218030   3.350   3.521   6.038
 5711SOL     OW18031   3.962   0.922   3.954
 5711SOL    HW118032   3.872   0.941   3.993
 5711SOL    HW218033   3.956   0.917   3.855
 5712SOL     OW18034   6.778   5.802   6.431
 5712SOL    HW118035   6.778   5.843   6.340
 5712SOL    HW218036   6.690   5.758   6.448
 5713SOL     OW18037   6.558   2.023   3.062
 5713SOL    HW118038   6.639   1.965   3.068
 5713SOL    HW218039   6.535   2.037   2.966
 5714SOL     OW18040   1.797   1.159   6.975
 5714SOL    HW118041   1.707   1.128   6.944
 5714SOL    HW218042   1.861   1.082   6.970
 5715SOL     OW18043   1.479   6.771   3.252
 5715SOL    HW118044   1.435   6.794   3.339
 5715SOL    HW218045   1.431   6.817   3.177
 5716SOL     OW18046   2.181   3.078   6.171
 5716SOL    HW118047   2.194   3.162   6.118
 5716SOL    HW218048   2.092   3.080   6.215
 5717SOL     OW18049   0.728   4.113   0.879
 5717SOL    HW118050   0.737   4.056   0.797
 5717SOL    HW218051   0.634   4.109   0.913
 5718SOL     OW18052   2.253   4.347   5.425
 5718SOL    HW118053   2.342   4.373   5.463
 5718SOL    HW218054   2.261   4.258   5.379
 5719SOL     OW18055   3.204   1.036   6.279
 5719SOL    HW118056   3.118   1.003   6.240
 5719SOL    HW218057   3.271   1.045   6.205
 5720SOL     OW18058   1.360   4.828   4.344
 5720SOL    HW118059   1.399   4.736   4.346
 5720SOL    HW218060   1.260   4.821   4.351
 5721SOL     OW18061   0.690   4.655   1.403
 5721SOL    HW118062   0.608   4.711   1.396
 5721SOL    HW218063   0.725   4.636   1.311
 5722SOL     OW18064   5.170   0.145   4.437
 5722SOL    HW118065   5.166   0.172   4.533
 5722SOL    HW218066   5.122   0.213   4.381
 5723SOL     OW18067   1.982   5.257   0.839
 5723SOL    HW118068   2.064   5.234   0.891
 5723SOL    HW218069   2.004   5.259   0.741
 5724SOL     OW18070   5.167   1.868   6.700
 5724SOL    HW118071   5.161   1.963   6.731
 5724SOL    HW218072   5.160   1.865   6.601
 5725SOL     OW18073   4.835   5.343   6.311
 5725SOL    HW118074   4.876   5.421   6.264
 5725SOL    HW218075   4.776   5.375   6.385
 5726SOL     OW18076   5.793   3.311   6.246
 5726SOL    HW118077   5.716   3.301   6.184
 5726SOL    HW218078   5.801   3.230   6.303
 5727SOL     OW18079   6.628   1.953   4.161
 5727SOL    HW118080   6.639   1.897   4.243
 5727SOL    HW218081   6.566   1.907   4.097
 5728SOL     OW18082   6.237   0.326   6.061
 5728SOL    HW118083   6.204   0.323   5.967
 5728SOL    HW218084   6.326   0.282   6.067
 5729SOL     OW18085   0.527   2.605   5.824
 5729SOL    HW118086   0.492   2.686   5.776
 5729SOL    HW218087   0.589   2.635   5.897
 5730SOL     OW18088   5.234   4.618   6.263
 5730SOL    HW118089   5.196   4.562   6.189
 5730SOL    HW218090   5.281   4.697   6.224
 5731SOL     OW18091   3.352   0.967   4.008
 5731SOL    HW118092   3.347   1.050   3.953
 5731SOL    HW218093   3.328   0.888   3.952
 5732SOL     OW18094   5.671   4.225   4.798
 5732SOL    HW118095   5.610   4.299   4.827
 5732SOL    HW218096   5.736   4.205   4.871
 5733SOL     OW18097   3.240   1.159   0.507
 5733SOL    HW118098   3.241   1.086   0.439
 5733SOL    HW218099   3.157   1.152   0.562
 5734SOL     OW18100   2.336   5.962   5.786
 5734SOL    HW118101   2.303   5.995   5.698
 5734SOL    HW218102   2.300   5.871   5.803
 5735SOL     OW18103   4.072   0.509   1.886
 5735SOL    HW118104   4.146   0.470   1.832
 5735SOL    HW218105   3.999   0.442   1.895
 5736SOL     OW18106   4.975   4.490   6.745
 5736SOL    HW118107   4.960   4.563   6.678
 5736SOL    HW218108   4.968   4.528   6.837
 5737SOL     OW18109   3.916   5.455   0.989
 5737SOL    HW118110   4.003   5.463   0.940
 5737SOL    HW218111   3.854   5.528   0.957
 5738SOL     OW18112   2.945   1.313   6.981
 5738SOL    HW118113   2.854   1.273   6.966
 5738SOL    HW218114   2.944   1.366   0.045
 5739SOL     OW18115   1.875   0.762   5.516
 5739SOL    HW118116   1.861   0.672   5.556
 5739SOL    HW218117   1.788   0.802   5.490
 5740SOL     OW18118   5.642   3.207   2.258
 5740SOL    HW118119   5.658   3.290   2.205
 5740SOL    HW218120   5.585   3.229   2.337
 5741SOL     OW18121   0.214   3.648   4.583
 5741SOL    HW118122   0.311   3.636   4.561
 5741SOL    HW218123   0.176   3.721   4.526
 5742SOL     OW18124   5.130   0.351   3.987
 5742SOL    HW118125   5.148   0.449   3.980
 5742SOL    HW218126   5.216   0.301   3.995
 5743SOL     OW18127   4.226   3.581   6.318
 5743SOL    HW118128   4.150   3.559   6.256
 5743SOL    HW218129   4.241   3.680   6.319
 5744SOL     OW18130   5.825   6.633   2.676
 5744SOL    HW118131   5.823   6.714   2.734
 5744SOL    HW218132   5.869   6.655   2.589
 5745SOL     OW18133   1.730   2.255   2.066
 5745SOL    HW118134   1.802   2.255   1.997
 5745SOL    HW218135   1.730   2.343   2.115
 5746SOL     OW18136   4.176   0.342   3.619
 5746SOL    HW118137   4.193   0.328   3.521
 5746SOL    HW218138   4.085   0.308   3.642
 5747SOL     OW18139   0.666   6.164   0.853
 5747SOL    HW118140   0.596   6.234   0.867
 5747SOL    HW218141   0.652   6.089   0.918
 5748SOL     OW18142   0.485   5.725   0.536
 5748SOL    HW118143   0.554   5.778   0.585
 5748SOL    HW218144   0.419   5.787   0.495
 5749SOL     OW18145   1.832   5.667   5.816
 5749SOL    HW118146   1.874   5.693   5.730
 5749SOL    HW218147   1.739   5.633   5.799
 5750SOL     OW18148   6.365   4.498   4.028
 5750SOL    HW118149   6.401   4.499   3.935
 5750SOL    HW218150   6.349   4.404   4.057
 5751SOL     OW18151   1.846   3.554   4.333
 5751SOL    HW118152   1.943   3.536   4.316
 5751SOL    HW218153   1.804   3.473   4.375
 5752SOL     OW18154   5.057   0.179   0.574
 5752SOL    HW118155   4.974   0.235   0.573
 5752SOL    HW218156   5.066   0.133   0.663
 5753SOL     OW18157   3.645   4.064   4.954
 5753SOL    HW118158   3.660   3.972   4.918
 5753SOL    HW218159   3.561   4.102   4.914
 5754SOL     OW18160   1.031   5.779   1.256
 5754SOL    HW118161   0.949   5.799   1.310
 5754SOL    HW218162   1.093   5.858   1.258
 5755SOL     OW18163   1.153   2.538   6.791
 5755SOL    HW118164   1.210   2.611   6.827
 5755SOL    HW218165   1.070   2.530   6.845
 5756SOL     OW18166   5.899   6.146   1.447
 5756SOL    HW118167   5.976   6.134   1.384
 5756SOL    HW218168   5.900   6.240   1.482
 5757SOL     OW18169   6.107   6.846   4.430
 5757SOL    HW118170   6.033   6.867   4.493
 5757SOL    HW218171   6.085   6.762   4.380
 5758SOL     OW18172   7.012   0.379   2.522
 5758SOL    HW118173   6.998   0.455   2.458
 5758SOL    HW218174   0.040   0.305   2.475
 5759SOL     OW18175   4.292   0.284   1.011
 5759SOL    HW118176   4.288   0.384   1.013
 5759SOL    HW218177   4.289   0.252   0.917
 5760SOL     OW18178   0.714   3.038   1.554
 5760SOL    HW118179   0.701   2.951   1.602
 5760SOL    HW218180   0.624   3.077   1.533
 5761SOL     OW18181   5.503   6.376   4.588
 5761SOL    HW118182   5.457   6.291   4.613
 5761SOL    HW218183   5.482   6.397   4.492
 5762SOL     OW18184   5.858   5.030   0.203
 5762SOL    HW118185   5.784   4.981   0.251
 5762SOL    HW218186   5.944   5.014   0.251
 5763SOL     OW18187   5.398   6.909   0.288
 5763SOL    HW118188   5.414   6.970   0.210
 5763SOL    HW218189   5.472   6.842   0.293
 5764SOL     OW18190   4.402   6.084   4.008
 5764SOL    HW118191   4.314   6.036   4.005
 5764SOL    HW218192   4.419   6.128   3.920
 5765SOL     OW18193   6.680   5.326   1.389
 5765SOL    HW118194   6.643   5.401   1.445
 5765SOL    HW218195   6.610   5.256   1.376
 5766SOL     OW18196   0.266   1.787   4.224
 5766SOL    HW118197   0.208   1.864   4.196
 5766SOL    HW218198   0.346   1.783   4.165
 5767SOL     OW18199   2.633   0.227   0.234
 5767SOL    HW118200   2.587   0.303   0.280
 5767SOL    HW218201   2.566   0.171   0.186
 5768SOL     OW18202   0.785   6.782   4.732
 5768SOL    HW118203   0.720   6.711   4.705
 5768SOL    HW218204   0.759   6.820   4.821
 5769SOL     OW18205   1.423   4.630   6.491
 5769SOL    HW118206   1.476   4.548   6.511
 5769SOL    HW218207   1.410   4.683   6.575
 5770SOL     OW18208   2.073   4.885   1.618
 5770SOL    HW118209   2.156   4.837   1.590
 5770SOL    HW218210   2.008   4.820   1.657
 5771SOL     OW18211   2.064   5.342   3.542
 5771SOL    HW118212   2.056   5.263   3.602
 5771SOL    HW218213   2.061   5.312   3.447
 5772SOL     OW18214   3.829   0.519   2.130
 5772SOL    HW118215   3.768   0.574   2.073
 5772SOL    HW218216   3.869   0.446   2.075
 5773SOL     OW18217   4.267   1.825   2.992
 5773SOL    HW118218   4.198   1.807   2.921
 5773SOL    HW218219   4.332   1.893   2.958
 5774SOL     OW18220   0.246   6.145   2.601
 5774SOL    HW118221   0.239   6.197   2.686
 5774SOL    HW218222   0.315   6.188   2.542
 5775SOL     OW18223   0.005   5.780   1.891
 5775SOL    HW118224   0.056   5.765   1.806
 5775SOL    HW218225   0.009   5.697   1.947
 5776SOL     OW18226   2.411   0.478   4.262
 5776SOL    HW118227   2.324   0.455   4.218
 5776SOL    HW218228   2.486   0.467   4.196
 5777SOL     OW18229   1.949   6.215   3.182
 5777SOL    HW118230   1.867   6.270   3.197
 5777SOL    HW218231   2.026   6.256   3.230
 5778SOL     OW18232   0.473   1.436   0.644
 5778SOL    HW118233   0.400   1.485   0.691
 5778SOL    HW218234   0.549   1.498   0.625
 5779SOL     OW18235   5.646   2.343   6.731
 5779SOL    HW118236   5.729   2.298   6.698
 5779SOL    HW218237   5.672   2.420   6.791
 5780SOL     OW18238   5.448   5.731   3.606
 5780SOL    HW118239   5.376   5.693   3.548
 5780SOL    HW218240   5.445   5.831   3.601
 5781SOL     OW18241   0.731   4.097   5.680
 5781SOL    HW118242   0.748   4.017   5.623
 5781SOL    HW218243   0.776   4.177   5.640
 5782SOL     OW18244   6.969   1.090   0.511
 5782SOL    HW118245   7.012   1.016   0.460
 5782SOL    HW218246   6.990   1.081   0.608
 5783SOL     OW18247   1.917   1.706   1.398
 5783SOL    HW118248   1.910   1.692   1.497
 5783SOL    HW218249   1.825   1.706   1.358
 5784SOL     OW18250   0.509   6.462   6.463
 5784SOL    HW118251   0.420   6.445   6.505
 5784SOL    HW218252   0.581   6.429   6.524
 5785SOL     OW18253   1.572   1.530   1.004
 5785SOL    HW118254   1.607   1.623   0.996
 5785SOL    HW218255   1.648   1.467   1.023
 5786SOL     OW18256   6.389   4.247   1.113
 5786SOL    HW118257   6.361   4.245   1.209
 5786SOL    HW218258   6.315   4.212   1.055
 5787SOL     OW18259   3.163   1.985   5.775
 5787SOL    HW118260   3.158   1.992   5.874
 5787SOL    HW218261   3.105   2.055   5.733
 5788SOL     OW18262   3.267   0.794   3.043
 5788SOL    HW118263   3.351   0.749   3.073
 5788SOL    HW218264   3.288   0.861   2.971
 5789SOL     OW18265   4.095   5.129   5.983
 5789SOL    HW118266   4.150   5.046   5.984
 5789SOL    HW218267   4.044   5.136   6.068
 5790SOL     OW18268   0.708   3.059   4.199
 5790SOL    HW118269   0.614   3.085   4.220
 5790SOL    HW218270   0.710   2.964   4.170
 5791SOL     OW18271   2.820   0.762   2.505
 5791SOL    HW118272   2.795   0.688   2.567
 5791SOL    HW218273   2.740   0.818   2.485
 5792SOL     OW18274   0.020   2.300   3.227
 5792SOL    HW118275   7.014   2.340   3.139
 5792SOL    HW218276   0.063   2.370   3.284
 5793SOL     OW18277   6.377   1.264   3.960
 5793SOL    HW118278   6.444   1.326   3.918
 5793SOL    HW218279   6.341   1.202   3.890
 5794SOL     OW18280   3.840   3.606   6.977
 5794SOL    HW118281   3.769   3.647   0.014
 5794SOL    HW218282   3.925   3.657   6.989
 5795SOL     OW18283   6.043   4.366   5.740
 5795SOL    HW118284   6.045   4.362   5.640
 5795SOL    HW218285   6.092   4.287   5.777
 5796SOL     OW18286   3.688   1.704   6.914
 5796SOL    HW118287   3.762   1.760   6.950
 5796SOL    HW218288   3.601   1.753   6.924
 5797SOL     OW18289   3.471   1.890   4.955
 5797SOL    HW118290   3.452   1.988   4.966
 5797SOL    HW218291   3.443   1.861   4.864
 5798SOL     OW18292   7.002   4.490   5.277
 5798SOL    HW118293   6.966   4.572   5.232
 5798SOL    HW218294   6.954   4.410   5.243
 5799SOL     OW18295   5.456   0.001   3.473
 5799SOL    HW118296   5.489   6.954   3.407
 5799SOL    HW218297   5.534   0.048   3.514
 5800SOL     OW18298   5.705   4.804   0.535
 5800SOL    HW118299   5.700   4.874   0.463
 5800SOL    HW218300   5.619   4.754   0.538
 5801SOL     OW18301   1.358   1.067   3.700
 5801SOL    HW118302   1.389   1.154   3.663
 5801SOL    HW218303   1.263   1.077   3.732
 5802SOL     OW18304   0.256   4.186   6.179
 5802SOL    HW118305   0.301   4.121   6.240
 5802SOL    HW218306   0.300   4.276   6.187
 5803SOL     OW18307   1.524   4.792   0.806
 5803SOL    HW118308   1.433   4.831   0.820
 5803SOL    HW218309   1.534   4.709   0.861
 5804SOL     OW18310   5.966   4.104   4.367
 5804SOL    HW118311   5.934   4.195   4.395
 5804SOL    HW218312   6.037   4.074   4.430
 5805SOL     OW18313   5.135   3.630   6.342
 5805SOL    HW118314   5.138   3.720   6.386
 5805SOL    HW218315   5.071   3.632   6.265
 5806SOL     OW18316   0.307   6.392   6.959
 5806SOL    HW118317   0.329   6.470   6.901
 5806SOL    HW218318   0.250   6.327   6.908
 5807SOL     OW18319   1.432   3.598   1.135
 5807SOL    HW118320   1.413   3.669   1.068
 5807SOL    HW218321   1.430   3.637   1.227
 5808SOL     OW18322   5.818   4.496   2.237
 5808SOL    HW118323   5.858   4.587   2.222
 5808SOL    HW218324   5.804   4.483   2.335
 5809SOL     OW18325   0.022   3.446   4.571
 5809SOL    HW118326   0.033   3.381   4.646
 5809SOL    HW218327   0.085   3.523   4.584
 5810SOL     OW18328   2.862   1.720   3.164
 5810SOL    HW118329   2.860   1.754   3.257
 5810SOL    HW218330   2.944   1.663   3.151
 5811SOL     OW18331   2.733   0.197   4.376
 5811SOL    HW118332   2.716   0.236   4.466
 5811SOL    HW218333   2.747   0.271   4.310
 5812SOL     OW18334   4.737   0.453   3.621
 5812SOL    HW118335   4.760   0.550   3.622
 5812SOL    HW218336   4.768   0.411   3.706
 5813SOL     OW18337   1.613   1.060   5.074
 5813SOL    HW118338   1.648   1.016   4.992
 5813SOL    HW218339   1.684   1.061   5.144
 5814SOL     OW18340   6.741   4.914   1.281
 5814SOL    HW118341   6.677   4.921   1.357
 5814SOL    HW218342   6.765   4.818   1.266
 5815SOL     OW18343   3.799   1.892   3.171
 5815SOL    HW118344   3.747   1.953   3.231
 5815SOL    HW218345   3.895   1.922   3.170
 5816SOL     OW18346   4.573   0.962   7.006
 5816SOL    HW118347   4.632   0.898   0.035
 5816SOL    HW218348   4.628   1.021   6.947
 5817SOL     OW18349   5.342   3.129   5.479
 5817SOL    HW118350   5.281   3.050   5.470
 5817SOL    HW218351   5.291   3.207   5.515
 5818SOL     OW18352   5.464   0.057   6.107
 5818SOL    HW118353   5.513   0.140   6.081
 5818SOL    HW218354   5.462   7.014   6.029
 5819SOL     OW18355   5.621   0.457   1.200
 5819SOL    HW118356   5.552   0.401   1.245
 5819SOL    HW218357   5.579   0.542   1.167
 5820SOL     OW18358   5.522   6.835   3.286
 5820SOL    HW118359   5.563   6.830   3.195
 5820SOL    HW218360   5.424   6.817   3.279
 5821SOL     OW18361   3.125   0.427   1.834
 5821SOL    HW118362   3.090   0.430   1.741
 5821SOL    HW218363   3.051   0.445   1.898
 5822SOL     OW18364   0.421   1.960   2.565
 5822SOL    HW118365   0.427   2.037   2.629
 5822SOL    HW218366   0.451   1.990   2.474
 5823SOL     OW18367   1.610   1.793   4.580
 5823SOL    HW118368   1.612   1.882   4.535
 5823SOL    HW218369   1.673   1.731   4.533
 5824SOL     OW18370   5.776   6.691   3.469
 5824SOL    HW118371   5.865   6.648   3.454
 5824SOL    HW218372   5.776   6.741   3.555
 5825SOL     OW18373   2.364   0.302   6.743
 5825SOL    HW118374   2.408   0.392   6.737
 5825SOL    HW218375   2.348   0.278   6.839
 5826SOL     OW18376   6.719   6.406   4.768
 5826SOL    HW118377   6.630   6.397   4.722
 5826SOL    HW218378   6.724   6.339   4.843
 5827SOL     OW18379   0.634   5.731   4.697
 5827SOL    HW118380   0.567   5.704   4.629
 5827SOL    HW218381   0.587   5.777   4.773
 5828SOL     OW18382   0.527   3.434   2.640
 5828SOL    HW118383   0.498   3.358   2.699
 5828SOL    HW218384   0.598   3.402   2.578
 5829SOL     OW18385   2.767   1.113   1.685
 5829SOL    HW118386   2.711   1.031   1.698
 5829SOL    HW218387   2.862   1.092   1.708
 5830SOL     OW18388   3.318   1.024   6.029
 5830SOL    HW118389   3.335   0.936   5.984
 5830SOL    HW218390   3.366   1.096   5.978
 5831SOL     OW18391   5.511   6.900   3.002
 5831SOL    HW118392   5.448   6.972   3.032
 5831SOL    HW218393   5.480   6.862   2.915
 5832SOL     OW18394   4.221   3.526   5.103
 5832SOL    HW118395   4.149   3.505   5.170
 5832SOL    HW218396   4.202   3.476   5.018
 5833SOL     OW18397   3.440   3.677   4.023
 5833SOL    HW118398   3.452   3.627   3.937
 5833SOL    HW218399   3.344   3.674   4.051
 5834SOL     OW18400   5.654   1.792   0.616
 5834SOL    HW118401   5.676   1.877   0.665
 5834SOL    HW218402   5.586   1.812   0.545
 5835SOL     OW18403   5.146   2.121   3.699
 5835SOL    HW118404   5.166   2.216   3.723
 5835SOL    HW218405   5.230   2.073   3.677
 5836SOL     OW18406   3.679   6.174   1.795
 5836SOL    HW118407   3.769   6.149   1.829
 5836SOL    HW218408   3.632   6.231   1.862
 5837SOL     OW18409   4.791   4.007   0.478
 5837SOL    HW118410   4.749   3.933   0.531
 5837SOL    HW218411   4.792   3.982   0.381
 5838SOL     OW18412   1.507   1.659   5.612
 5838SOL    HW118413   1.466   1.723   5.547
 5838SOL    HW218414   1.569   1.597   5.563
 5839SOL     OW18415   6.827   3.417   3.069
 5839SOL    HW118416   6.821   3.508   3.028
 5839SOL    HW218417   6.849   3.426   3.166
 5840SOL     OW18418   1.693   5.327   6.787
 5840SOL    HW118419   1.673   5.363   6.696
 5840SOL    HW218420   1.789   5.299   6.791
 5841SOL     OW18421   6.289   2.518   3.729
 5841SOL    HW118422   6.193   2.540   3.712
 5841SOL    HW218423   6.296   2.431   3.778
 5842SOL     OW18424   4.065   2.931   1.154
 5842SOL    HW118425   3.986   2.942   1.215
 5842SOL    HW218426   4.149   2.951   1.204
 5843SOL     OW18427   1.793   3.033   2.627
 5843SOL    HW118428   1.863   3.001   2.564
 5843SOL    HW218429   1.818   3.007   2.720
 5844SOL     OW18430   0.423   6.151   6.243
 5844SOL    HW118431   0.397   6.230   6.299
 5844SOL    HW218432   0.519   6.129   6.260
 5845SOL     OW18433   0.982   2.339   4.228
 5845SOL    HW118434   0.999   2.349   4.130
 5845SOL    HW218435   1.012   2.422   4.275
 5846SOL     OW18436   0.072   2.255   5.402
 5846SOL    HW118437   0.102   2.260   5.307
 5846SOL    HW218438   0.092   2.342   5.448
 5847SOL     OW18439   2.376   2.776   2.492
 5847SOL    HW118440   2.422   2.852   2.447
 5847SOL    HW218441   2.290   2.756   2.445
 5848SOL     OW18442   1.325   4.785   3.153
 5848SOL    HW118443   1.258   4.852   3.185
 5848SOL    HW218444   1.395   4.771   3.224
 5849SOL     OW18445   1.664   0.655   5.720
 5849SOL    HW118446   1.570   0.643   5.753
 5849SOL    HW218447   1.686   0.580   5.658
 5850SOL     OW18448   0.903   4.541   2.444
 5850SOL    HW118449   0.990   4.590   2.434
 5850SOL    HW218450   0.832   4.605   2.474
 5851SOL     OW18451   5.917   4.126   2.173
 5851SOL    HW118452   5.912   4.042   2.227
 5851SOL    HW218453   5.955   4.105   2.083
 5852SOL     OW18454   3.953   6.281   2.054
 5852SOL    HW118455   3.990   6.288   2.147
 5852SOL    HW218456   3.947   6.185   2.028
 5853SOL     OW18457   2.829   4.418   5.935
 5853SOL    HW118458   2.837   4.404   5.836
 5853SOL    HW218459   2.841   4.515   5.955
 5854SOL     OW18460   6.895   1.668   6.076
 5854SOL    HW118461   6.832   1.689   6.151
 5854SOL    HW218462   6.868   1.718   5.994
 5855SOL     OW18463   1.524   1.206   4.593
 5855SOL    HW118464   1.441   1.255   4.564
 5855SOL    HW218465   1.528   1.205   4.693
 5856SOL     OW18466   1.858   5.052   3.414
 5856SOL    HW118467   1.789   5.077   3.482
 5856SOL    HW218468   1.893   5.134   3.370
 5857SOL     OW18469   6.704   2.775   4.698
 5857SOL    HW118470   6.704   2.823   4.610
 5857SOL    HW218471   6.723   2.840   4.772
 5858SOL     OW18472   3.333   1.152   2.273
 5858SOL    HW118473   3.425   1.125   2.300
 5858SOL    HW218474   3.278   1.071   2.254
 5859SOL     OW18475   6.762   6.731   1.112
 5859SOL    HW118476   6.766   6.677   1.028
 5859SOL    HW218477   6.841   6.793   1.114
 5860SOL     OW18478   1.617   4.301   1.807
 5860SOL    HW118479   1.610   4.219   1.750
 5860SOL    HW218480   1.547   4.367   1.779
 5861SOL     OW18481   5.484   2.378   4.334
 5861SOL    HW118482   5.502   2.469   4.372
 5861SOL    HW218483   5.565   2.346   4.284
 5862SOL     OW18484   4.108   4.989   2.587
 5862SOL    HW118485   4.039   4.972   2.657
 5862SOL    HW218486   4.127   4.904   2.538
 5863SOL     OW18487   1.889   0.955   5.945
 5863SOL    HW118488   1.967   0.968   6.005
 5863SOL    HW218489   1.877   0.858   5.924
 5864SOL     OW18490   4.202   4.207   1.666
 5864SOL    HW118491   4.176   4.119   1.626
 5864SOL    HW218492   4.278   4.194   1.729
 5865SOL     OW18493   5.080   0.945   3.127
 5865SOL    HW118494   5.126   1.005   3.193
 5865SOL    HW218495   5.090   0.850   3.155
 5866SOL     OW18496   3.999   6.433   5.797
 5866SOL    HW118497   4.026   6.366   5.727
 5866SOL    HW218498   3.994   6.389   5.886
 5867SOL     OW18499   0.661   3.062   2.035
 5867SOL    HW118500   0.632   2.970   2.061
 5867SOL    HW218501   0.594   3.129   2.068
 5868SOL     OW18502   1.593   0.334   5.827
 5868SOL    HW118503   1.560   0.427   5.811
 5868SOL    HW218504   1.516   0.276   5.855
 5869SOL     OW18505   2.783   4.812   4.725
 5869SOL    HW118506   2.716   4.744   4.756
 5869SOL    HW218507   2.870   4.798   4.773
 5870SOL     OW18508   4.982   5.174   4.124
 5870SOL    HW118509   4.954   5.167   4.220
 5870SOL    HW218510   5.054   5.107   4.105
 5871SOL     OW18511   3.715   2.808   0.381
 5871SOL    HW118512   3.773   2.783   0.459
 5871SOL    HW218513   3.623   2.830   0.414
 5872SOL     OW18514   3.742   5.772   6.079
 5872SOL    HW118515   3.655   5.731   6.108
 5872SOL    HW218516   3.808   5.765   6.154
 5873SOL     OW18517   3.231   3.237   0.024
 5873SOL    HW118518   3.293   3.307   7.010
 5873SOL    HW218519   3.172   3.205   6.970
 5874SOL     OW18520   2.219   3.525   1.648
 5874SOL    HW118521   2.237   3.512   1.745
 5874SOL    HW218522   2.219   3.436   1.602
 5875SOL     OW18523   3.467   1.945   0.430
 5875SOL    HW118524   3.525   2.011   0.478
 5875SOL    HW218525   3.523   1.891   0.368
 5876SOL     OW18526   3.099   3.828   6.759
 5876SOL    HW118527   3.133   3.921   6.772
 5876SOL    HW218528   3.025   3.828   6.691
 5877SOL     OW18529   6.480   0.725   2.020
 5877SOL    HW118530   6.385   0.692   2.019
 5877SOL    HW218531   6.524   0.697   2.105
 5878SOL     OW18532   4.594   4.768   1.939
 5878SOL    HW118533   4.540   4.685   1.950
 5878SOL    HW218534   4.539   4.838   1.894
 5879SOL     OW18535   3.835   3.117   6.285
 5879SOL    HW118536   3.887   3.086   6.205
 5879SOL    HW218537   3.763   3.181   6.256
 5880SOL     OW18538   5.135   3.313   5.607
 5880SOL    HW118539   5.101   3.222   5.634
 5880SOL    HW218540   5.072   3.354   5.542
 5881SOL     OW18541   1.500   6.374   1.803
 5881SOL    HW118542   1.419   6.433   1.802
 5881SOL    HW218543   1.497   6.315   1.883
 5882SOL     OW18544   1.526   5.880   6.026
 5882SOL    HW118545   1.465   5.823   5.970
 5882SOL    HW218546   1.616   5.836   6.032
 5883SOL     OW18547   0.059   4.191   1.102
 5883SOL    HW118548   6.989   4.177   1.061
 5883SOL    HW218549   0.053   4.175   1.201
 5884SOL     OW18550   6.332   1.880   4.001
 5884SOL    HW118551   6.299   1.789   4.027
 5884SOL    HW218552   6.333   1.887   3.901
 5885SOL     OW18553   0.361   5.220   6.841
 5885SOL    HW118554   0.376   5.288   6.912
 5885SOL    HW218555   0.444   5.213   6.784
 5886SOL     OW18556   1.454   4.098   3.878
 5886SOL    HW118557   1.390   4.097   3.801
 5886SOL    HW218558   1.481   4.004   3.900
 5887SOL     OW18559   1.943   2.838   0.753
 5887SOL    HW118560   1.849   2.863   0.731
 5887SOL    HW218561   1.964   2.749   0.713
 5888SOL     OW18562   3.082   6.878   0.968
 5888SOL    HW118563   3.014   6.838   1.030
 5888SOL    HW218564   3.158   6.916   1.020
 5889SOL     OW18565   6.753   0.924   1.390
 5889SOL    HW118566   6.675   0.892   1.337
 5889SOL    HW218567   6.748   0.888   1.483
 5890SOL     OW18568   2.896   6.357   2.432
 5890SOL    HW118569   2.806   6.313   2.438
 5890SOL    HW218570   2.889   6.439   2.375
 5891SOL     OW18571   2.570   3.632   0.605
 5891SOL    HW118572   2.650   3.599   0.655
 5891SOL    HW218573   2.528   3.557   0.555
 5892SOL     OW18574   0.911   3.425   0.920
 5892SOL    HW118575   0.990   3.418   0.859
 5892SOL    HW218576   0.838   3.365   0.887
 5893SOL     OW18577   0.767   5.604   2.216
 5893SOL    HW118578   0.769   5.625   2.314
 5893SOL    HW218579   0.752   5.688   2.164
 5894SOL     OW18580   2.169   5.567   6.126
 5894SOL    HW118581   2.109   5.543   6.050
 5894SOL    HW218582   2.116   5.615   6.196
 5895SOL     OW18583   5.576   2.747   4.660
 5895SOL    HW118584   5.583   2.669   4.723
 5895SOL    HW218585   5.480   2.773   4.651
 5896SOL     OW18586   5.912   2.587   1.940
 5896SOL    HW118587   5.838   2.652   1.924
 5896SOL    HW218588   5.883   2.495   1.912
 5897SOL     OW18589   4.516   1.776   0.787
 5897SOL    HW118590   4.561   1.688   0.771
 5897SOL    HW218591   4.551   1.816   0.871
 5898SOL     OW18592   1.959   1.663   5.295
 5898SOL    HW118593   1.977   1.573   5.334
 5898SOL    HW218594   2.028   1.684   5.226
 5899SOL     OW18595   6.791   5.172   5.737
 5899SOL    HW118596   6.828   5.124   5.658
 5899SOL    HW218597   6.789   5.271   5.718
 5900SOL     OW18598   6.103   6.284   3.275
 5900SOL    HW118599   6.203   6.274   3.277
 5900SOL    HW218600   6.075   6.323   3.187
 5901SOL     OW18601   2.037   0.368   5.714
 5901SOL    HW118602   1.988   0.454   5.728
 5901SOL    HW218603   2.111   0.361   5.781
 5902SOL     OW18604   5.096   4.575   5.020
 5902SOL    HW118605   5.183   4.580   4.969
 5902SOL    HW218606   5.041   4.500   4.985
 5903SOL     OW18607   6.207   1.776   6.183
 5903SOL    HW118608   6.112   1.752   6.165
 5903SOL    HW218609   6.252   1.801   6.097
 5904SOL     OW18610   2.493   4.469   2.453
 5904SOL    HW118611   2.521   4.374   2.461
 5904SOL    HW218612   2.438   4.495   2.533
 5905SOL     OW18613   6.262   1.151   4.398
 5905SOL    HW118614   6.163   1.170   4.396
 5905SOL    HW218615   6.287   1.114   4.488
 5906SOL     OW18616   4.891   0.468   5.159
 5906SOL    HW118617   4.974   0.524   5.160
 5906SOL    HW218618   4.915   0.371   5.162
 5907SOL     OW18619   1.580   2.895   6.773
 5907SOL    HW118620   1.516   2.821   6.792
 5907SOL    HW218621   1.667   2.877   6.820
 5908SOL     OW18622   4.592   3.161   6.224
 5908SOL    HW118623   4.683   3.179   6.261
 5908SOL    HW218624   4.598   3.091   6.153
 5909SOL     OW18625   6.699   5.303   4.332
 5909SOL    HW118626   6.725   5.261   4.419
 5909SOL    HW218627   6.674   5.232   4.267
 5910SOL     OW18628   2.150   4.049   1.331
 5910SOL    HW118629   2.079   3.995   1.376
 5910SOL    HW218630   2.231   3.992   1.317
 5911SOL     OW18631   6.315   6.341   6.065
 5911SOL    HW118632   6.309   6.425   6.119
 5911SOL    HW218633   6.277   6.265   6.118
 5912SOL     OW18634   6.720   3.652   6.814
 5912SOL    HW118635   6.752   3.633   6.721
 5912SOL    HW218636   6.653   3.726   6.812
 5913SOL     OW18637   1.868   1.596   6.049
 5913SOL    HW118638   1.942   1.606   5.982
 5913SOL    HW218639   1.860   1.500   6.075
 5914SOL     OW18640   1.540   6.138   0.132
 5914SOL    HW118641   1.484   6.215   0.100
 5914SOL    HW218642   1.616   6.124   0.068
 5915SOL     OW18643   4.783   2.676   2.645
 5915SOL    HW118644   4.838   2.614   2.589
 5915SOL    HW218645   4.767   2.761   2.595
 5916SOL     OW18646   3.814   0.330   5.904
 5916SOL    HW118647   3.727   0.315   5.858
 5916SOL    HW218648   3.803   0.401   5.974
 5917SOL     OW18649   2.929   3.777   3.326
 5917SOL    HW118650   2.988   3.808   3.251
 5917SOL    HW218651   2.908   3.680   3.314
 5918SOL     OW18652   2.138   3.194   4.268
 5918SOL    HW118653   2.073   3.198   4.345
 5918SOL    HW218654   2.211   3.129   4.291
 5919SOL     OW18655   1.507   3.146   6.625
 5919SOL    HW118656   1.504   3.062   6.680
 5919SOL    HW218657   1.488   3.224   6.684
 5920SOL     OW18658   3.537   6.780   6.939
 5920SOL    HW118659   3.573   6.778   6.846
 5920SOL    HW218660   3.444   6.817   6.939
 5921SOL     OW18661   4.008   4.929   5.092
 5921SOL    HW118662   4.072   4.854   5.077
 5921SOL    HW218663   3.919   4.893   5.120
 5922SOL     OW18664   6.189   4.368   2.440
 5922SOL    HW118665   6.108   4.427   2.440
 5922SOL    HW218666   6.166   4.280   2.482
 5923SOL     OW18667   0.192   6.674   3.900
 5923SOL    HW118668   0.291   6.666   3.905
 5923SOL    HW218669   0.166   6.714   3.812
 5924SOL     OW18670   5.290   2.413   4.633
 5924SOL    HW118671   5.339   2.343   4.582
 5924SOL    HW218672   5.257   2.374   4.719
 5925SOL     OW18673   5.819   5.824   1.045
 5925SOL    HW118674   5.774   5.869   0.967
 5925SOL    HW218675   5.773   5.850   1.129
 5926SOL     OW18676   3.445   4.969   1.428
 5926SOL    HW118677   3.411   5.042   1.486
 5926SOL    HW218678   3.368   4.921   1.385
 5927SOL     OW18679   3.100   5.769   2.610
 5927SOL    HW118680   3.065   5.691   2.660
 5927SOL    HW218681   3.173   5.813   2.663
 5928SOL     OW18682   1.456   7.016   2.314
 5928SOL    HW118683   1.378   0.057   2.321
 5928SOL    HW218684   1.515   0.008   2.393
 5929SOL     OW18685   1.301   6.914   6.345
 5929SOL    HW118686   1.262   6.850   6.279
 5929SOL    HW218687   1.281   7.008   6.316
 5930SOL     OW18688   6.814   1.354   4.461
 5930SOL    HW118689   6.746   1.423   4.437
 5930SOL    HW218690   6.901   1.400   4.482
 5931SOL     OW18691   6.603   5.551   1.226
 5931SOL    HW118692   6.651   5.639   1.220
 5931SOL    HW218693   6.670   5.479   1.243
 5932SOL     OW18694   3.082   0.033   0.749
 5932SOL    HW118695   3.062   6.995   0.828
 5932SOL    HW218696   3.112   6.997   0.672
 5933SOL     OW18697   6.410   3.913   3.261
 5933SOL    HW118698   6.494   3.924   3.206
 5933SOL    HW218699   6.407   3.983   3.332
 5934SOL     OW18700   3.734   3.615   2.697
 5934SOL    HW118701   3.654   3.571   2.656
 5934SOL    HW218702   3.753   3.575   2.786
 5935SOL     OW18703   4.133   3.420   4.069
 5935SOL    HW118704   4.093   3.329   4.072
 5935SOL    HW218705   4.153   3.444   3.974
 5936SOL     OW18706   5.199   5.681   6.197
 5936SOL    HW118707   5.113   5.629   6.189
 5936SOL    HW218708   5.192   5.766   6.145
 5937SOL     OW18709   1.885   3.448   1.097
 5937SOL    HW118710   1.791   3.443   1.064
 5937SOL    HW218711   1.947   3.438   1.019
 5938SOL     OW18712   1.556   4.397   2.608
 5938SOL    HW118713   1.656   4.393   2.598
 5938SOL    HW218714   1.516   4.311   2.577
 5939SOL     OW18715   3.756   0.037   2.949
 5939SOL    HW118716   3.781   7.010   3.033
 5939SOL    HW218717   3.779   0.134   2.958
 5940SOL     OW18718   4.072   6.077   2.991
 5940SOL    HW118719   3.981   6.039   3.007
 5940SOL    HW218720   4.074   6.172   3.021
 5941SOL     OW18721   6.211   4.703   2.423
 5941SOL    HW118722   6.251   4.793   2.405
 5941SOL    HW218723   6.191   4.658   2.336
 5942SOL     OW18724   4.405   2.941   6.074
 5942SOL    HW118725   4.402   2.881   6.154
 5942SOL    HW218726   4.484   2.917   6.018
 5943SOL     OW18727   1.278   5.984   0.463
 5943SOL    HW118728   1.259   5.943   0.552
 5943SOL    HW218729   1.368   6.027   0.463
 5944SOL     OW18730   5.207   1.757   2.575
 5944SOL    HW118731   5.258   1.813   2.510
 5944SOL    HW218732   5.210   1.800   2.665
 5945SOL     OW18733   6.464   5.032   6.038
 5945SOL    HW118734   6.512   4.960   5.988
 5945SOL    HW218735   6.472   5.118   5.989
 5946SOL     OW18736   4.767   3.061   5.483
 5946SOL    HW118737   4.733   2.971   5.457
 5946SOL    HW218738   4.739   3.129   5.415
 5947SOL     OW18739   4.392   3.533   1.699
 5947SOL    HW118740   4.464   3.595   1.668
 5947SOL    HW218741   4.313   3.586   1.730
 5948SOL     OW18742   3.632   4.888   2.291
 5948SOL    HW118743   3.614   4.869   2.195
 5948SOL    HW218744   3.612   4.807   2.346
 5949SOL     OW18745   4.458   4.725   1.294
 5949SOL    HW118746   4.440   4.780   1.376
 5949SOL    HW218747   4.397   4.646   1.293
 5950SOL     OW18748   6.522   2.789   4.165
 5950SOL    HW118749   6.593   2.725   4.137
 5950SOL    HW218750   6.459   2.804   4.089
 5951SOL     OW18751   2.193   5.676   3.639
 5951SOL    HW118752   2.270   5.612   3.632
 5951SOL    HW218753   2.139   5.672   3.555
 5952SOL     OW18754   0.039   6.569   4.320
 5952SOL    HW118755   0.062   6.639   4.252
 5952SOL    HW218756   7.001   6.500   4.277
 5953SOL     OW18757   6.915   3.133   6.355
 5953SOL    HW118758   6.832   3.080   6.370
 5953SOL    HW218759   6.959   3.103   6.270
 5954SOL     OW18760   0.233   4.883   6.705
 5954SOL    HW118761   0.164   4.811   6.717
 5954SOL    HW218762   0.320   4.853   6.744
 5955SOL     OW18763   4.814   5.252   1.655
 5955SOL    HW118764   4.796   5.251   1.754
 5955SOL    HW218765   4.908   5.223   1.639
 5956SOL     OW18766   5.634   2.149   6.974
 5956SOL    HW118767   5.553   2.178   6.923
 5956SOL    HW218768   5.674   2.228   0.000
 5957SOL     OW18769   5.869   6.203   6.081
 5957SOL    HW118770   5.929   6.275   6.045
 5957SOL    HW218771   5.925   6.126   6.113
 5958SOL     OW18772   6.559   5.463   1.987
 5958SOL    HW118773   6.520   5.371   1.978
 5958SOL    HW218774   6.600   5.473   2.077
 5959SOL     OW18775   2.092   1.695   5.908
 5959SOL    HW118776   2.178   1.664   5.949
 5959SOL    HW218777   2.094   1.795   5.899
 5960SOL     OW18778   3.267   0.447   3.583
 5960SOL    HW118779   3.333   0.415   3.650
 5960SOL    HW218780   3.201   0.374   3.563
 5961SOL     OW18781   3.051   1.099   5.388
 5961SOL    HW118782   3.148   1.106   5.368
 5961SOL    HW218783   3.004   1.054   5.311
 5962SOL     OW18784   5.205   5.195   2.328
 5962SOL    HW118785   5.111   5.163   2.336
 5962SOL    HW218786   5.250   5.190   2.417
 5963SOL     OW18787   3.997   3.930   2.475
 5963SOL    HW118788   4.045   3.852   2.516
 5963SOL    HW218789   4.023   3.938   2.379
 5964SOL     OW18790   0.387   4.991   5.606
 5964SOL    HW118791   0.484   4.995   5.580
 5964SOL    HW218792   0.377   5.017   5.703
 5965SOL     OW18793   2.633   2.334   5.585
 5965SOL    HW118794   2.639   2.424   5.627
 5965SOL    HW218795   2.554   2.285   5.623
 5966SOL     OW18796   3.018   5.787   4.270
 5966SOL    HW118797   3.091   5.724   4.243
 5966SOL    HW218798   3.051   5.881   4.263
 5967SOL     OW18799   4.491   6.676   2.556
 5967SOL    HW118800   4.581   6.636   2.574
 5967SOL    HW218801   4.500   6.746   2.486
 5968SOL     OW18802   6.749   2.489   3.611
 5968SOL    HW118803   6.713   2.492   3.704
 5968SOL    HW218804   6.733   2.399   3.571
 5969SOL     OW18805   5.999   3.680   3.213
 5969SOL    HW118806   5.980   3.759   3.155
 5969SOL    HW218807   5.926   3.612   3.202
 5970SOL     OW18808   1.492   3.394   3.165
 5970SOL    HW118809   1.434   3.363   3.089
 5970SOL    HW218810   1.450   3.475   3.206
 5971SOL     OW18811   2.216   6.888   2.625
 5971SOL    HW118812   2.120   6.907   2.648
 5971SOL    HW218813   2.241   6.938   2.542
 5972SOL     OW18814   4.908   6.588   0.296
 5972SOL    HW118815   4.948   6.660   0.353
 5972SOL    HW218816   4.808   6.597   0.297
 5973SOL     OW18817   1.193   4.655   3.377
 5973SOL    HW118818   1.272   4.605   3.342
 5973SOL    HW218819   1.120   4.655   3.308
 5974SOL     OW18820   0.118   3.958   0.179
 5974SOL    HW118821   0.105   3.926   0.085
 5974SOL    HW218822   0.200   4.014   0.184
 5975SOL     OW18823   2.683   2.957   0.915
 5975SOL    HW118824   2.600   2.915   0.879
 5975SOL    HW218825   2.659   3.033   0.976
 5976SOL     OW18826   2.999   3.229   4.804
 5976SOL    HW118827   2.955   3.286   4.873
 5976SOL    HW218828   3.018   3.285   4.723
 5977SOL     OW18829   1.211   3.818   2.445
 5977SOL    HW118830   1.256   3.888   2.390
 5977SOL    HW218831   1.158   3.862   2.517
 5978SOL     OW18832   5.499   4.995   1.609
 5978SOL    HW118833   5.422   5.012   1.671
 5978SOL    HW218834   5.583   4.988   1.662
 5979SOL     OW18835   6.763   0.692   3.298
 5979SOL    HW118836   6.722   0.603   3.276
 5979SOL    HW218837   6.773   0.699   3.397
 5980SOL     OW18838   6.067   4.124   0.215
 5980SOL    HW118839   6.034   4.129   0.309
 5980SOL    HW218840   6.132   4.048   0.206
 5981SOL     OW18841   5.132   1.222   2.350
 5981SOL    HW118842   5.100   1.207   2.443
 5981SOL    HW218843   5.125   1.320   2.328
 5982SOL     OW18844   7.000   1.742   6.637
 5982SOL    HW118845   0.009   1.828   6.595
 5982SOL    HW218846   6.980   1.758   6.734
 5983SOL     OW18847   2.046   1.062   4.409
 5983SOL    HW118848   2.062   1.160   4.416
 5983SOL    HW218849   2.109   1.014   4.470
 5984SOL     OW18850   0.158   6.388   5.087
 5984SOL    HW118851   0.149   6.299   5.131
 5984SOL    HW218852   0.092   6.452   5.127
 5985SOL     OW18853   4.535   1.813   4.353
 5985SOL    HW118854   4.445   1.849   4.377
 5985SOL    HW218855   4.525   1.736   4.291
 5986SOL     OW18856   3.359   2.901   2.575
 5986SOL    HW118857   3.302   2.841   2.519
 5986SOL    HW218858   3.454   2.897   2.542
 5987SOL     OW18859   3.916   6.654   4.952
 5987SOL    HW118860   3.989   6.654   4.884
 5987SOL    HW218861   3.930   6.730   5.015
 5988SOL     OW18862   4.041   6.532   4.222
 5988SOL    HW118863   4.090   6.506   4.306
 5988SOL    HW218864   3.951   6.569   4.246
 5989SOL     OW18865   2.754   0.781   5.961
 5989SOL    HW118866   2.740   0.688   5.996
 5989SOL    HW218867   2.684   0.801   5.892
 5990SOL     OW18868   3.247   4.834   1.303
 5990SOL    HW118869   3.205   4.813   1.391
 5990SOL    HW218870   3.177   4.863   1.238
 5991SOL     OW18871   2.937   5.162   4.863
 5991SOL    HW118872   2.981   5.239   4.816
 5991SOL    HW218873   2.981   5.076   4.835
 5992SOL     OW18874   4.465   0.428   3.819
 5992SOL    HW118875   4.402   0.351   3.808
 5992SOL    HW218876   4.440   0.500   3.755
 5993SOL     OW18877   2.761   5.996   5.302
 5993SOL    HW118878   2.743   5.958   5.392
 5993SOL    HW218879   2.699   5.955   5.235
 5994SOL     OW18880   6.480   2.494   2.662
 5994SOL    HW118881   6.506   2.474   2.757
 5994SOL    HW218882   6.397   2.549   2.661
 5995SOL     OW18883   0.003   4.923   1.149
 5995SOL    HW118884   0.010   4.847   1.084
 5995SOL    HW218885   0.031   5.008   1.103
 5996SOL     OW18886   0.051   5.145   5.617
 5996SOL    HW118887   0.137   5.121   5.572
 5996SOL    HW218888   6.997   5.095   5.574
 5997SOL     OW18889   0.846   6.788   2.248
 5997SOL    HW118890   0.760   6.744   2.273
 5997SOL    HW218891   0.904   6.794   2.329
 5998SOL     OW18892   5.579   2.386   2.612
 5998SOL    HW118893   5.564   2.480   2.644
 5998SOL    HW218894   5.581   2.324   2.690
 5999SOL     OW18895   1.078   1.817   2.408
 5999SOL    HW118896   1.017   1.837   2.484
 5999SOL    HW218897   1.169   1.793   2.443
 6000SOL     OW18898   4.529   5.768   2.041
 6000SOL    HW118899   4.567   5.776   2.133
 6000SOL    HW218900   4.596   5.800   1.974
 6001SOL     OW18901   6.892   2.185   6.783
 6001SOL    HW118902   6.876   2.255   6.852
 6001SOL    HW218903   6.808   2.169   6.731
 6002SOL     OW18904   2.096   0.414   1.756
 6002SOL    HW118905   2.105   0.315   1.766
 6002SOL    HW218906   2.014   0.435   1.704
 6003SOL     OW18907   4.823   4.113   4.879
 6003SOL    HW118908   4.867   4.024   4.892
 6003SOL    HW218909   4.792   4.121   4.785
 6004SOL     OW18910   0.246   3.367   2.551
 6004SOL    HW118911   0.203   3.449   2.510
 6004SOL    HW218912   0.345   3.372   2.540
 6005SOL     OW18913   2.946   5.807   2.898
 6005SOL    HW118914   2.991   5.718   2.907
 6005SOL    HW218915   2.895   5.827   2.981
 6006SOL     OW18916   2.627   6.783   6.438
 6006SOL    HW118917   2.545   6.835   6.414
 6006SOL    HW218918   2.648   6.717   6.366
 6007SOL     OW18919   6.143   2.365   4.202
 6007SOL    HW118920   6.056   2.393   4.241
 6007SOL    HW218921   6.216   2.423   4.238
 6008SOL     OW18922   3.060   4.394   6.378
 6008SOL    HW118923   3.051   4.394   6.278
 6008SOL    HW218924   3.157   4.393   6.403
 6009SOL     OW18925   2.823   1.756   4.519
 6009SOL    HW118926   2.902   1.723   4.570
 6009SOL    HW218927   2.752   1.785   4.583
 6010SOL     OW18928   1.597   3.996   3.139
 6010SOL    HW118929   1.557   3.943   3.063
 6010SOL    HW218930   1.563   3.960   3.226
 6011SOL     OW18931   4.956   3.343   2.582
 6011SOL    HW118932   4.908   3.412   2.637
 6011SOL    HW218933   4.970   3.261   2.638
 6012SOL     OW18934   6.604   3.200   0.957
 6012SOL    HW118935   6.642   3.275   1.012
 6012SOL    HW218936   6.564   3.131   1.018
 6013SOL     OW18937   5.544   0.961   2.740
 6013SOL    HW118938   5.500   0.903   2.809
 6013SOL    HW218939   5.523   1.057   2.759
 6014SOL     OW18940   6.229   0.334   0.370
 6014SOL    HW118941   6.165   0.259   0.385
 6014SOL    HW218942   6.204   0.411   0.428
 6015SOL     OW18943   6.030   1.700   4.156
 6015SOL    HW118944   6.033   1.797   4.132
 6015SOL    HW218945   6.012   1.646   4.073
 6016SOL     OW18946   1.906   0.553   5.167
 6016SOL    HW118947   1.968   0.604   5.227
 6016SOL    HW218948   1.939   0.459   5.158
 6017SOL     OW18949   6.511   5.393   3.068
 6017SOL    HW118950   6.474   5.328   3.134
 6017SOL    HW218951   6.455   5.392   2.985
 6018SOL     OW18952   2.477   3.678   0.852
 6018SOL    HW118953   2.560   3.664   0.907
 6018SOL    HW218954   2.503   3.695   0.757
 6019SOL     OW18955   3.626   0.459   4.285
 6019SOL    HW118956   3.534   0.493   4.267
 6019SOL    HW218957   3.644   0.463   4.384
 6020SOL     OW18958   3.744   0.823   2.775
 6020SOL    HW118959   3.780   0.916   2.777
 6020SOL    HW218960   3.652   0.823   2.736
 6021SOL     OW18961   4.445   1.318   2.133
 6021SOL    HW118962   4.498   1.402   2.139
 6021SOL    HW218963   4.347   1.339   2.131
 6022SOL     OW18964   4.442   1.437   3.554
 6022SOL    HW118965   4.491   1.362   3.510
 6022SOL    HW218966   4.499   1.519   3.553
 6023SOL     OW18967   0.486   1.425   2.718
 6023SOL    HW118968   0.555   1.427   2.645
 6023SOL    HW218969   0.515   1.483   2.793
 6024SOL     OW18970   0.384   4.912   2.009
 6024SOL    HW118971   0.460   4.963   1.969
 6024SOL    HW218972   0.419   4.832   2.057
 6025SOL     OW18973   4.622   1.473   1.082
 6025SOL    HW118974   4.688   1.524   1.028
 6025SOL    HW218975   4.537   1.462   1.030
 6026SOL     OW18976   6.829   4.595   5.533
 6026SOL    HW118977   6.824   4.515   5.473
 6026SOL    HW218978   6.920   4.636   5.526
 6027SOL     OW18979   2.899   3.720   6.950
 6027SOL    HW118980   2.874   3.629   6.918
 6027SOL    HW218981   2.968   3.759   6.889
 6028SOL     OW18982   1.186   3.209   0.220
 6028SOL    HW118983   1.272   3.191   0.267
 6028SOL    HW218984   1.128   3.128   0.225
 6029SOL     OW18985   1.998   6.190   1.477
 6029SOL    HW118986   1.938   6.217   1.402
 6029SOL    HW218987   1.997   6.090   1.487
 6030SOL     OW18988   1.830   0.666   1.576
 6030SOL    HW118989   1.827   0.739   1.644
 6030SOL    HW218990   1.879   0.697   1.495
 6031SOL     OW18991   5.000   6.732   5.493
 6031SOL    HW118992   5.020   6.718   5.396
 6031SOL    HW218993   5.070   6.688   5.549
 6032SOL     OW18994   0.809   3.021   2.608
 6032SOL    HW118995   0.841   2.928   2.594
 6032SOL    HW218996   0.750   3.025   2.689
 6033SOL     OW18997   0.903   1.197   4.118
 6033SOL    HW118998   0.836   1.157   4.056
 6033SOL    HW218999   0.981   1.232   4.066
 6034SOL     OW19000   1.830   3.926   4.734
 6034SOL    HW119001   1.854   3.830   4.719
 6034SOL    HW219002   1.848   3.950   4.829
 6035SOL     OW19003   6.192   0.678   3.955
 6035SOL    HW119004   6.170   0.671   3.858
 6035SOL    HW219005   6.257   0.753   3.969
 6036SOL     OW19006   0.716   6.166   5.218
 6036SOL    HW119007   0.806   6.186   5.178
 6036SOL    HW219008   0.653   6.240   5.196
 6037SOL     OW19009   6.087   5.938   4.769
 6037SOL    HW119010   5.993   5.908   4.751
 6037SOL    HW219011   6.088   6.037   4.784
 6038SOL     OW19012   6.007   3.662   5.953
 6038SOL    HW119013   6.003   3.611   6.040
 6038SOL    HW219014   5.987   3.758   5.970
 6039SOL     OW19015   3.224   3.307   2.475
 6039SOL    HW119016   3.202   3.335   2.382
 6039SOL    HW219017   3.163   3.233   2.503
 6040SOL     OW19018   0.234   1.787   0.121
 6040SOL    HW119019   0.286   1.856   0.171
 6040SOL    HW219020   0.146   1.774   0.165
 6041SOL     OW19021   1.372   2.446   0.079
 6041SOL    HW119022   1.446   2.388   0.114
 6041SOL    HW219023   1.367   2.530   0.133
 6042SOL     OW19024   4.647   5.264   3.117
 6042SOL    HW119025   4.610   5.344   3.165
 6042SOL    HW219026   4.685   5.293   3.030
 6043SOL     OW19027   0.876   4.542   4.513
 6043SOL    HW119028   0.800   4.518   4.453
 6043SOL    HW219029   0.960   4.500   4.477
 6044SOL     OW19030   0.587   0.762   1.365
 6044SOL    HW119031   0.503   0.798   1.323
 6044SOL    HW219032   0.665   0.779   1.304
 6045SOL     OW19033   6.890   3.936   1.998
 6045SOL    HW119034   6.900   4.028   1.958
 6045SOL    HW219035   6.971   3.915   2.053
 6046SOL     OW19036   3.080   2.362   0.649
 6046SOL    HW119037   3.116   2.431   0.713
 6046SOL    HW219038   3.015   2.405   0.587
 6047SOL     OW19039   6.350   7.015   4.337
 6047SOL    HW119040   6.314   0.067   4.278
 6047SOL    HW219041   6.294   7.008   4.419
 6048SOL     OW19042   4.336   6.698   4.933
 6048SOL    HW119043   4.425   6.736   4.960
 6048SOL    HW219044   4.334   6.601   4.955
 6049SOL     OW19045   6.042   4.520   0.027
 6049SOL    HW119046   6.087   4.431   0.019
 6049SOL    HW219047   6.054   4.570   6.961
 6050SOL     OW19048   4.386   4.882   5.501
 6050SOL    HW119049   4.452   4.947   5.540
 6050SOL    HW219050   4.297   4.896   5.545
 6051SOL     OW19051   1.691   1.950   2.706
 6051SOL    HW119052   1.744   2.001   2.774
 6051SOL    HW219053   1.753   1.898   2.648
 6052SOL     OW19054   0.072   1.206   0.968
 6052SOL    HW119055   0.129   1.192   0.886
 6052SOL    HW219056   0.032   1.297   0.965
 6053SOL     OW19057   1.734   6.578   6.508
 6053SOL    HW119058   1.760   6.633   6.587
 6053SOL    HW219059   1.813   6.568   6.447
 6054SOL     OW19060   2.187   4.218   0.416
 6054SOL    HW119061   2.133   4.173   0.344
 6054SOL    HW219062   2.275   4.172   0.425
 6055SOL     OW19063   5.001   0.766   5.110
 6055SOL    HW119064   4.968   0.777   5.204
 6055SOL    HW219065   5.041   0.851   5.078
 6056SOL     OW19066   4.607   1.994   6.653
 6056SOL    HW119067   4.517   1.950   6.661
 6056SOL    HW219068   4.642   2.016   6.744
 6057SOL     OW19069   2.984   1.097   4.980
 6057SOL    HW119070   3.054   1.113   4.911
 6057SOL    HW219071   3.015   1.132   5.068
 6058SOL     OW19072   5.770   2.260   3.959
 6058SOL    HW119073   5.790   2.176   3.909
 6058SOL    HW219074   5.694   2.307   3.914
 6059SOL     OW19075   5.667   4.394   6.987
 6059SOL    HW119076   5.627   4.466   0.024
 6059SOL    HW219077   5.763   4.414   6.970
 6060SOL     OW19078   4.101   5.628   5.961
 6060SOL    HW119079   4.080   5.553   6.024
 6060SOL    HW219080   4.104   5.714   6.012
 6061SOL     OW19081   3.092   2.036   6.402
 6061SOL    HW119082   3.183   2.071   6.378
 6061SOL    HW219083   3.099   1.941   6.431
 6062SOL     OW19084   1.982   0.541   4.715
 6062SOL    HW119085   2.007   0.561   4.620
 6062SOL    HW219086   1.884   0.527   4.721
 6063SOL     OW19087   4.333   0.604   6.572
 6063SOL    HW119088   4.248   0.618   6.521
 6063SOL    HW219089   4.404   0.572   6.509
 6064SOL     OW19090   0.864   5.412   3.517
 6064SOL    HW119091   0.875   5.507   3.488
 6064SOL    HW219092   0.935   5.390   3.584
 6065SOL     OW19093   0.038   0.369   0.502
 6065SOL    HW119094   0.091   0.451   0.526
 6065SOL    HW219095   6.961   0.392   0.499
 6066SOL     OW19096   4.366   2.604   0.585
 6066SOL    HW119097   4.275   2.607   0.543
 6066SOL    HW219098   4.434   2.631   0.517
 6067SOL     OW19099   6.166   1.363   6.499
 6067SOL    HW119100   6.186   1.376   6.402
 6067SOL    HW219101   6.231   1.298   6.537
 6068SOL     OW19102   4.483   2.506   4.613
 6068SOL    HW119103   4.579   2.536   4.607
 6068SOL    HW219104   4.450   2.520   4.706
 6069SOL     OW19105   6.984   4.387   4.914
 6069SOL    HW119106   6.998   4.348   5.005
 6069SOL    HW219107   6.892   4.426   4.908
 6070SOL     OW19108   3.859   2.516   6.006
 6070SOL    HW119109   3.859   2.442   6.073
 6070SOL    HW219110   3.951   2.556   6.000
 6071SOL     OW19111   3.829   6.312   5.434
 6071SOL    HW119112   3.875   6.396   5.402
 6071SOL    HW219113   3.892   6.260   5.492
 6072SOL     OW19114   0.140   2.074   1.407
 6072SOL    HW119115   0.105   2.006   1.470
 6072SOL    HW219116   0.067   2.104   1.345
 6073SOL     OW19117   6.333   2.621   0.602
 6073SOL    HW119118   6.340   2.641   0.699
 6073SOL    HW219119   6.289   2.698   0.555
 6074SOL     OW19120   0.669   6.880   4.952
 6074SOL    HW119121   0.611   6.954   4.986
 6074SOL    HW219122   0.629   6.792   4.977
 6075SOL     OW19123   5.467   3.934   0.393
 6075SOL    HW119124   5.477   3.924   0.294
 6075SOL    HW219125   5.484   3.845   0.437
 6076SOL     OW19126   2.165   5.741   4.142
 6076SOL    HW119127   2.222   5.681   4.198
 6076SOL    HW219128   2.071   5.708   4.143
 6077SOL     OW19129   5.983   6.229   2.124
 6077SOL    HW119130   6.060   6.258   2.067
 6077SOL    HW219131   6.003   6.249   2.220
 6078SOL     OW19132   2.721   4.635   4.022
 6078SOL    HW119133   2.764   4.710   3.971
 6078SOL    HW219134   2.660   4.584   3.961
 6079SOL     OW19135   2.561   1.820   6.406
 6079SOL    HW119136   2.614   1.760   6.347
 6079SOL    HW219137   2.606   1.909   6.414
 6080SOL     OW19138   5.773   2.320   1.616
 6080SOL    HW119139   5.842   2.325   1.689
 6080SOL    HW219140   5.691   2.370   1.644
 6081SOL     OW19141   6.728   3.434   3.766
 6081SOL    HW119142   6.662   3.498   3.727
 6081SOL    HW219143   6.696   3.340   3.753
 6082SOL     OW19144   4.287   1.157   3.249
 6082SOL    HW119145   4.332   1.187   3.165
 6082SOL    HW219146   4.262   1.237   3.304
 6083SOL     OW19147   1.580   6.332   6.546
 6083SOL    HW119148   1.488   6.344   6.507
 6083SOL    HW219149   1.626   6.421   6.549
 6084SOL     OW19150   0.123   5.405   5.675
 6084SOL    HW119151   0.097   5.313   5.646
 6084SOL    HW219152   0.042   5.453   5.709
 6085SOL     OW19153   5.340   3.575   0.431
 6085SOL    HW119154   5.391   3.544   0.351
 6085SOL    HW219155   5.367   3.522   0.511
 6086SOL     OW19156   3.399   2.116   4.335
 6086SOL    HW119157   3.474   2.128   4.400
 6086SOL    HW219158   3.432   2.137   4.243
 6087SOL     OW19159   5.816   6.191   6.536
 6087SOL    HW119160   5.913   6.208   6.554
 6087SOL    HW219161   5.772   6.158   6.619
 6088SOL     OW19162   1.001   0.265   4.969
 6088SOL    HW119163   1.027   0.177   4.930
 6088SOL    HW219164   0.909   0.289   4.939
 6089SOL     OW19165   6.839   3.412   0.954
 6089SOL    HW119166   6.764   3.474   0.931
 6089SOL    HW219167   6.834   3.388   1.051
 6090SOL     OW19168   1.013   5.098   4.908
 6090SOL    HW119169   1.001   5.105   5.007
 6090SOL    HW219170   0.924   5.104   4.863
 6091SOL     OW19171   6.480   1.914   2.070
 6091SOL    HW119172   6.571   1.954   2.084
 6091SOL    HW219173   6.487   1.835   2.010
 6092SOL     OW19174   2.055   1.933   2.351
 6092SOL    HW119175   2.033   1.992   2.273
 6092SOL    HW219176   2.079   1.842   2.318
 6093SOL     OW19177   1.345   2.594   1.069
 6093SOL    HW119178   1.429   2.599   1.016
 6093SOL    HW219179   1.346   2.511   1.126
 6094SOL     OW19180   0.953   1.164   1.672
 6094SOL    HW119181   0.989   1.130   1.585
 6094SOL    HW219182   0.902   1.091   1.717
 6095SOL     OW19183   6.280   3.140   6.285
 6095SOL    HW119184   6.335   3.123   6.204
 6095SOL    HW219185   6.279   3.238   6.305
 6096SOL     OW19186   3.986   2.139   3.679
 6096SOL    HW119187   4.033   2.068   3.627
 6096SOL    HW219188   3.889   2.137   3.658
 6097SOL     OW19189   2.690   1.729   2.365
 6097SOL    HW119190   2.602   1.776   2.359
 6097SOL    HW219191   2.692   1.670   2.445
 6098SOL     OW19192   1.931   2.400   5.768
 6098SOL    HW119193   1.953   2.377   5.863
 6098SOL    HW219194   1.835   2.426   5.762
 6099SOL     OW19195   6.149   6.223   5.383
 6099SOL    HW119196   6.126   6.305   5.435
 6099SOL    HW219197   6.096   6.221   5.298
 6100SOL     OW19198   6.613   2.650   0.001
 6100SOL    HW119199   6.550   2.574   7.007
 6100SOL    HW219200   6.608   2.680   0.096
 6101SOL     OW19201   6.782   1.165   5.560
 6101SOL    HW119202   6.825   1.169   5.470
 6101SOL    HW219203   6.709   1.097   5.560
 6102SOL     OW19204   2.996   0.509   4.542
 6102SOL    HW119205   3.059   0.536   4.469
 6102SOL    HW219206   3.037   0.435   4.596
 6103SOL     OW19207   6.171   6.911   5.449
 6103SOL    HW119208   6.136   6.897   5.541
 6103SOL    HW219209   6.118   6.983   5.404
 6104SOL     OW19210   6.527   1.882   6.785
 6104SOL    HW119211   6.482   1.850   6.701
 6104SOL    HW219212   6.560   1.803   6.837
 6105SOL     OW19213   3.290   5.957   4.968
 6105SOL    HW119214   3.291   5.863   4.934
 6105SOL    HW219215   3.330   6.017   4.900
 6106SOL     OW19216   3.431   5.217   5.876
 6106SOL    HW119217   3.463   5.139   5.823
 6106SOL    HW219218   3.435   5.300   5.821
 6107SOL     OW19219   1.977   4.811   5.231
 6107SOL    HW119220   1.941   4.796   5.324
 6107SOL    HW219221   1.926   4.754   5.167
 6108SOL     OW19222   0.541   2.051   4.562
 6108SOL    HW119223   0.639   2.064   4.574
 6108SOL    HW219224   0.519   1.954   4.568
 6109SOL     OW19225   5.774   3.936   1.073
 6109SOL    HW119226   5.854   3.984   1.038
 6109SOL    HW219227   5.724   3.894   0.997
 6110SOL     OW19228   3.337   1.521   4.920
 6110SOL    HW119229   3.321   1.435   4.873
 6110SOL    HW219230   3.435   1.543   4.918
 6111SOL     OW19231   1.445   5.087   3.401
 6111SOL    HW119232   1.454   4.990   3.377
 6111SOL    HW219233   1.504   5.142   3.341
 6112SOL     OW19234   0.728   1.724   3.116
 6112SOL    HW119235   0.702   1.817   3.092
 6112SOL    HW219236   0.668   1.659   3.071
 6113SOL     OW19237   1.656   6.533   5.616
 6113SOL    HW119238   1.712   6.523   5.698
 6113SOL    HW219239   1.560   6.530   5.640
 6114SOL     OW19240   4.692   5.754   0.659
 6114SOL    HW119241   4.647   5.685   0.601
 6114SOL    HW219242   4.755   5.808   0.603
 6115SOL     OW19243   5.358   5.163   2.541
 6115SOL    HW119244   5.453   5.152   2.512
 6115SOL    HW219245   5.356   5.185   2.639
 6116SOL     OW19246   3.883   1.049   2.077
 6116SOL    HW119247   3.787   1.072   2.061
 6116SOL    HW219248   3.891   0.993   2.159
 6117SOL     OW19249   5.458   6.732   4.495
 6117SOL    HW119250   5.458   6.829   4.470
 6117SOL    HW219251   5.444   6.724   4.594
 6118SOL     OW19252   6.110   0.743   3.686
 6118SOL    HW119253   6.176   0.775   3.618
 6118SOL    HW219254   6.103   0.810   3.760
 6119SOL     OW19255   6.762   5.156   4.850
 6119SOL    HW119256   6.726   5.108   4.930
 6119SOL    HW219257   6.691   5.163   4.780
 6120SOL     OW19258   2.772   0.591   2.721
 6120SOL    HW119259   2.824   0.628   2.798
 6120SOL    HW219260   2.803   0.498   2.702
 6121SOL     OW19261   0.395   2.460   4.176
 6121SOL    HW119262   0.340   2.386   4.137
 6121SOL    HW219263   0.339   2.514   4.239
 6122SOL     OW19264   4.178   5.556   3.028
 6122SOL    HW119265   4.091   5.592   3.060
 6122SOL    HW219266   4.247   5.629   3.028
 6123SOL     OW19267   5.851   1.196   2.290
 6123SOL    HW119268   5.860   1.182   2.388
 6123SOL    HW219269   5.867   1.292   2.268
 6124SOL     OW19270   3.541   0.263   5.896
 6124SOL    HW119271   3.524   0.353   5.857
 6124SOL    HW219272   3.485   0.194   5.849
 6125SOL     OW19273   2.383   6.165   1.907
 6125SOL    HW119274   2.419   6.072   1.909
 6125SOL    HW219275   2.356   6.192   2.000
 6126SOL     OW19276   5.102   5.140   2.985
 6126SOL    HW119277   5.024   5.083   2.960
 6126SOL    HW219278   5.144   5.177   2.903
 6127SOL     OW19279   2.150   5.603   1.378
 6127SOL    HW119280   2.238   5.554   1.384
 6127SOL    HW219281   2.088   5.552   1.320
 6128SOL     OW19282   5.155   2.067   0.283
 6128SOL    HW119283   5.181   1.978   0.322
 6128SOL    HW219284   5.066   2.095   0.320
 6129SOL     OW19285   6.193   4.556   3.499
 6129SOL    HW119286   6.243   4.564   3.413
 6129SOL    HW219287   6.100   4.591   3.487
 6130SOL     OW19288   5.190   3.617   2.608
 6130SOL    HW119289   5.110   3.580   2.654
 6130SOL    HW219290   5.273   3.592   2.659
 6131SOL     OW19291   6.071   0.996   5.577
 6131SOL    HW119292   6.055   0.961   5.669
 6131SOL    HW219293   6.127   0.930   5.527
 6132SOL     OW19294   4.570   2.780   0.902
 6132SOL    HW119295   4.474   2.800   0.879
 6132SOL    HW219296   4.628   2.855   0.870
 6133SOL     OW19297   0.861   4.194   1.369
 6133SOL    HW119298   0.939   4.182   1.308
 6133SOL    HW219299   0.842   4.107   1.416
 6134SOL     OW19300   4.536   3.643   6.486
 6134SOL    HW119301   4.566   3.595   6.404
 6134SOL    HW219302   4.490   3.579   6.547
 6135SOL     OW19303   5.857   0.283   1.375
 6135SOL    HW119304   5.949   0.306   1.343
 6135SOL    HW219305   5.794   0.286   1.298
 6136SOL     OW19306   0.885   2.016   1.646
 6136SOL    HW119307   0.976   2.019   1.603
 6136SOL    HW219308   0.876   2.092   1.710
 6137SOL     OW19309   2.836   6.278   5.835
 6137SOL    HW119310   2.928   6.293   5.799
 6137SOL    HW219311   2.775   6.350   5.805
 6138SOL     OW19312   3.759   5.971   2.745
 6138SOL    HW119313   3.736   6.062   2.711
 6138SOL    HW219314   3.729   5.902   2.678
 6139SOL     OW19315   1.996   4.856   4.472
 6139SOL    HW119316   2.032   4.947   4.491
 6139SOL    HW219317   2.036   4.791   4.537
 6140SOL     OW19318   1.832   6.529   0.902
 6140SOL    HW119319   1.880   6.458   0.954
 6140SOL    HW219320   1.807   6.604   0.964
 6141SOL     OW19321   6.404   5.615   6.180
 6141SOL    HW119322   6.457   5.537   6.147
 6141SOL    HW219323   6.307   5.597   6.167
 6142SOL     OW19324   0.267   4.467   1.341
 6142SOL    HW119325   0.288   4.551   1.392
 6142SOL    HW219326   0.170   4.445   1.353
 6143SOL     OW19327   5.524   5.339   6.327
 6143SOL    HW119328   5.496   5.380   6.414
 6143SOL    HW219329   5.452   5.277   6.296
 6144SOL     OW19330   0.371   4.482   3.983
 6144SOL    HW119331   0.358   4.393   3.940
 6144SOL    HW219332   0.386   4.470   4.081
 6145SOL     OW19333   5.173   5.776   2.840
 6145SOL    HW119334   5.211   5.776   2.933
 6145SOL    HW219335   5.166   5.681   2.808
 6146SOL     OW19336   5.937   1.618   3.915
 6146SOL    HW119337   5.951   1.696   3.853
 6146SOL    HW219338   5.905   1.539   3.862
 6147SOL     OW19339   1.838   3.477   2.660
 6147SOL    HW119340   1.855   3.392   2.710
 6147SOL    HW219341   1.779   3.458   2.582
 6148SOL     OW19342   6.198   6.394   4.390
 6148SOL    HW119343   6.251   6.310   4.394
 6148SOL    HW219344   6.131   6.388   4.316
 6149SOL     OW19345   2.739   5.978   3.058
 6149SOL    HW119346   2.696   6.007   2.972
 6149SOL    HW219347   2.704   6.034   3.133
 6150SOL     OW19348   4.699   5.842   5.740
 6150SOL    HW119349   4.689   5.920   5.677
 6150SOL    HW219350   4.609   5.803   5.759
 6151SOL     OW19351   5.045   2.637   5.575
 6151SOL    HW119352   5.128   2.685   5.601
 6151SOL    HW219353   4.972   2.656   5.641
 6152SOL     OW19354   6.437   4.273   6.549
 6152SOL    HW119355   6.401   4.352   6.599
 6152SOL    HW219356   6.529   4.253   6.582
 6153SOL     OW19357   4.062   3.472   1.630
 6153SOL    HW119358   3.995   3.462   1.556
 6153SOL    HW219359   4.038   3.411   1.705
 6154SOL     OW19360   5.479   3.269   2.765
 6154SOL    HW119361   5.425   3.338   2.815
 6154SOL    HW219362   5.575   3.295   2.767
 6155SOL     OW19363   0.143   3.896   5.280
 6155SOL    HW119364   0.199   3.978   5.274
 6155SOL    HW219365   0.176   3.828   5.214
 6156SOL     OW19366   6.453   0.183   3.856
 6156SOL    HW119367   6.542   0.155   3.819
 6156SOL    HW219368   6.406   0.102   3.892
 6157SOL     OW19369   2.678   1.079   3.720
 6157SOL    HW119370   2.732   1.153   3.760
 6157SOL    HW219371   2.707   0.992   3.759
 6158SOL     OW19372   4.655   1.562   5.552
 6158SOL    HW119373   4.734   1.543   5.493
 6158SOL    HW219374   4.673   1.527   5.644
 6159SOL     OW19375   5.379   2.912   6.717
 6159SOL    HW119376   5.411   2.940   6.807
 6159SOL    HW219377   5.450   2.930   6.649
 6160SOL     OW19378   5.666   5.933   1.936
 6160SOL    HW119379   5.600   5.874   1.890
 6160SOL    HW219380   5.706   5.996   1.870
 6161SOL     OW19381   5.582   0.710   5.830
 6161SOL    HW119382   5.611   0.720   5.735
 6161SOL    HW219383   5.660   0.725   5.891
 6162SOL     OW19384   6.575   4.716   5.053
 6162SOL    HW119385   6.651   4.778   5.036
 6162SOL    HW219386   6.502   4.765   5.100
 6163SOL     OW19387   6.655   4.157   2.321
 6163SOL    HW119388   6.738   4.184   2.273
 6163SOL    HW219389   6.676   4.081   2.383
 6164SOL     OW19390   3.895   1.906   0.819
 6164SOL    HW119391   3.813   1.961   0.838
 6164SOL    HW219392   3.908   1.839   0.892
 6165SOL     OW19393   3.573   5.824   0.146
 6165SOL    HW119394   3.666   5.796   0.169
 6165SOL    HW219395   3.521   5.744   0.116
 6166SOL     OW19396   2.780   1.669   5.804
 6166SOL    HW119397   2.751   1.574   5.796
 6166SOL    HW219398   2.703   1.729   5.786
 6167SOL     OW19399   0.315   4.234   3.292
 6167SOL    HW119400   0.256   4.221   3.372
 6167SOL    HW219401   0.274   4.188   3.213
 6168SOL     OW19402   0.133   3.436   2.958
 6168SOL    HW119403   0.110   3.416   3.053
 6168SOL    HW219404   0.114   3.356   2.901
 6169SOL     OW19405   1.787   4.066   2.416
 6169SOL    HW119406   1.819   4.074   2.322
 6169SOL    HW219407   1.861   4.089   2.479
 6170SOL     OW19408   0.602   3.180   5.313
 6170SOL    HW119409   0.677   3.158   5.251
 6170SOL    HW219410   0.612   3.274   5.345
 6171SOL     OW19411   0.133   0.393   6.492
 6171SOL    HW119412   0.040   0.356   6.485
 6171SOL    HW219413   0.196   0.319   6.514
 6172SOL     OW19414   0.227   3.640   3.259
 6172SOL    HW119415   0.178   3.704   3.319
 6172SOL    HW219416   0.233   3.678   3.167
 6173SOL     OW19417   6.936   6.756   3.362
 6173SOL    HW119418   6.993   6.838   3.369
 6173SOL    HW219419   6.843   6.782   3.338
 6174SOL     OW19420   5.313   3.861   2.782
 6174SOL    HW119421   5.337   3.893   2.690
 6174SOL    HW219422   5.385   3.800   2.816
 6175SOL     OW19423   2.380   2.204   5.571
 6175SOL    HW119424   2.417   2.244   5.486
 6175SOL    HW219425   2.298   2.255   5.598
 6176SOL     OW19426   4.427   4.061   5.634
 6176SOL    HW119427   4.440   4.051   5.535
 6176SOL    HW219428   4.363   4.135   5.652
 6177SOL     OW19429   6.246   1.007   1.881
 6177SOL    HW119430   6.150   0.998   1.854
 6177SOL    HW219431   6.267   0.943   1.954
 6178SOL     OW19432   3.817   4.337   1.466
 6178SOL    HW119433   3.781   4.375   1.550
 6178SOL    HW219434   3.836   4.411   1.401
 6179SOL     OW19435   5.665   4.739   3.204
 6179SOL    HW119436   5.652   4.716   3.300
 6179SOL    HW219437   5.597   4.693   3.148
 6180SOL     OW19438   2.671   4.056   0.239
 6180SOL    HW119439   2.626   3.968   0.222
 6180SOL    HW219440   2.739   4.045   0.311
 6181SOL     OW19441   4.996   5.488   6.139
 6181SOL    HW119442   4.933   5.504   6.063
 6181SOL    HW219443   5.052   5.408   6.120
 6182SOL     OW19444   3.392   2.488   0.351
 6182SOL    HW119445   3.298   2.487   0.316
 6182SOL    HW219446   3.455   2.508   0.276
 6183SOL     OW19447   0.931   1.517   1.111
 6183SOL    HW119448   0.900   1.439   1.056
 6183SOL    HW219449   0.950   1.487   1.204
 6184SOL     OW19450   2.431   0.589   5.741
 6184SOL    HW119451   2.391   0.553   5.657
 6184SOL    HW219452   2.504   0.654   5.719
 6185SOL     OW19453   3.170   3.068   5.478
 6185SOL    HW119454   3.183   3.047   5.575
 6185SOL    HW219455   3.259   3.080   5.434
 6186SOL     OW19456   6.526   1.761   2.308
 6186SOL    HW119457   6.451   1.694   2.309
 6186SOL    HW219458   6.521   1.816   2.225
 6187SOL     OW19459   5.474   1.942   5.411
 6187SOL    HW119460   5.414   2.007   5.364
 6187SOL    HW219461   5.428   1.908   5.493
 6188SOL     OW19462   1.092   1.780   5.118
 6188SOL    HW119463   1.127   1.730   5.038
 6188SOL    HW219464   1.113   1.877   5.109
 6189SOL     OW19465   6.367   6.418   1.276
 6189SOL    HW119466   6.460   6.444   1.248
 6189SOL    HW219467   6.309   6.412   1.194
 6190SOL     OW19468   0.320   2.451   5.362
 6190SOL    HW119469   0.244   2.454   5.297
 6190SOL    HW219470   0.354   2.357   5.369
 6191SOL     OW19471   4.105   3.519   6.573
 6191SOL    HW119472   4.148   3.569   6.498
 6191SOL    HW219473   4.049   3.582   6.628
 6192SOL     OW19474   2.593   1.587   0.276
 6192SOL    HW119475   2.546   1.606   0.363
 6192SOL    HW219476   2.616   1.490   0.271
 6193SOL     OW19477   4.711   5.471   6.702
 6193SOL    HW119478   4.738   5.517   6.617
 6193SOL    HW219479   4.735   5.529   6.780
 6194SOL     OW19480   5.893   0.188   5.859
 6194SOL    HW119481   5.868   0.108   5.913
 6194SOL    HW219482   5.990   0.185   5.837
 6195SOL     OW19483   6.499   6.562   5.928
 6195SOL    HW119484   6.523   6.479   5.978
 6195SOL    HW219485   6.447   6.537   5.846
 6196SOL     OW19486   5.681   4.052   3.243
 6196SOL    HW119487   5.636   4.079   3.158
 6196SOL    HW219488   5.626   4.083   3.321
 6197SOL     OW19489   3.633   5.903   1.547
 6197SOL    HW119490   3.580   5.983   1.574
 6197SOL    HW219491   3.728   5.915   1.575
 6198SOL     OW19492   6.428   6.756   6.841
 6198SOL    HW119493   6.404   6.843   6.885
 6198SOL    HW219494   6.433   6.770   6.742
 6199SOL     OW19495   1.237   0.324   0.591
 6199SOL    HW119496   1.253   0.420   0.617
 6199SOL    HW219497   1.238   0.267   0.673
 6200SOL     OW19498   2.197   2.068   2.545
 6200SOL    HW119499   2.162   2.018   2.466
 6200SOL    HW219500   2.131   2.137   2.574
 6201SOL     OW19501   7.007   4.133   3.747
 6201SOL    HW119502   6.941   4.179   3.806
 6201SOL    HW219503   6.991   4.034   3.750
 6202SOL     OW19504   6.287   1.972   2.843
 6202SOL    HW119505   6.325   2.064   2.830
 6202SOL    HW219506   6.240   1.967   2.931
 6203SOL     OW19507   6.957   6.585   1.798
 6203SOL    HW119508   6.897   6.523   1.850
 6203SOL    HW219509   0.019   6.536   1.771
 6204SOL     OW19510   2.398   0.370   5.286
 6204SOL    HW119511   2.457   0.295   5.257
 6204SOL    HW219512   2.370   0.423   5.206
 6205SOL     OW19513   5.022   4.479   3.025
 6205SOL    HW119514   5.064   4.481   2.934
 6205SOL    HW219515   5.063   4.551   3.081
 6206SOL     OW19516   5.554   1.855   3.497
 6206SOL    HW119517   5.627   1.790   3.517
 6206SOL    HW219518   5.553   1.874   3.399
 6207SOL     OW19519   2.303   4.969   4.803
 6207SOL    HW119520   2.394   4.957   4.762
 6207SOL    HW219521   2.293   5.063   4.835
 6208SOL     OW19522   3.633   3.412   5.171
 6208SOL    HW119523   3.700   3.466   5.120
 6208SOL    HW219524   3.603   3.463   5.251
 6209SOL     OW19525   3.739   2.637   1.270
 6209SOL    HW119526   3.732   2.595   1.179
 6209SOL    HW219527   3.740   2.737   1.259
 6210SOL     OW19528   4.830   1.837   4.178
 6210SOL    HW119529   4.913   1.787   4.202
 6210SOL    HW219530   4.855   1.923   4.134
 6211SOL     OW19531   5.321   4.633   5.286
 6211SOL    HW119532   5.407   4.677   5.258
 6211SOL    HW219533   5.261   4.625   5.206
 6212SOL     OW19534   4.530   4.868   4.984
 6212SOL    HW119535   4.561   4.943   5.043
 6212SOL    HW219536   4.510   4.903   4.892
 6213SOL     OW19537   4.005   6.093   0.619
 6213SOL    HW119538   4.048   6.034   0.688
 6213SOL    HW219539   4.023   6.189   0.641
 6214SOL     OW19540   6.146   5.605   6.148
 6214SOL    HW119541   6.084   5.637   6.220
 6214SOL    HW219542   6.094   5.553   6.080
 6215SOL     OW19543   5.560   2.612   5.907
 6215SOL    HW119544   5.638   2.555   5.932
 6215SOL    HW219545   5.476   2.557   5.910
 6216SOL     OW19546   4.565   2.301   3.087
 6216SOL    HW119547   4.537   2.211   3.054
 6216SOL    HW219548   4.611   2.291   3.176
 6217SOL     OW19549   0.364   4.530   2.324
 6217SOL    HW119550   0.288   4.580   2.365
 6217SOL    HW219551   0.364   4.436   2.358
 6218SOL     OW19552   4.760   6.706   0.001
 6218SOL    HW119553   4.803   6.780   0.054
 6218SOL    HW219554   4.668   6.734   6.994
 6219SOL     OW19555   1.376   0.409   6.209
 6219SOL    HW119556   1.451   0.345   6.225
 6219SOL    HW219557   1.411   0.489   6.160
 6220SOL     OW19558   4.075   0.655   0.843
 6220SOL    HW119559   4.115   0.580   0.790
 6220SOL    HW219560   4.071   0.737   0.786
 6221SOL     OW19561   6.008   5.458   6.789
 6221SOL    HW119562   6.062   5.541   6.780
 6221SOL    HW219563   6.039   5.407   6.870
 6222SOL     OW19564   6.294   1.648   2.257
 6222SOL    HW119565   6.247   1.584   2.317
 6222SOL    HW219566   6.291   1.613   2.163
 6223SOL     OW19567   0.159   5.122   3.385
 6223SOL    HW119568   0.192   5.144   3.477
 6223SOL    HW219569   0.074   5.172   3.368
 6224SOL     OW19570   4.077   1.211   6.647
 6224SOL    HW119571   4.096   1.113   6.642
 6224SOL    HW219572   4.007   1.234   6.580
 6225SOL     OW19573   4.553   6.194   6.678
 6225SOL    HW119574   4.628   6.146   6.724
 6225SOL    HW219575   4.560   6.292   6.698
 6226SOL     OW19576   1.744   1.270   4.436
 6226SOL    HW119577   1.834   1.268   4.481
 6226SOL    HW219578   1.673   1.244   4.501
 6227SOL     OW19579   2.836   4.401   5.425
 6227SOL    HW119580   2.879   4.431   5.340
 6227SOL    HW219581   2.785   4.478   5.465
 6228SOL     OW19582   1.420   3.585   3.908
 6228SOL    HW119583   1.468   3.530   3.840
 6228SOL    HW219584   1.328   3.605   3.876
 6229SOL     OW19585   0.864   4.109   3.837
 6229SOL    HW119586   0.960   4.098   3.862
 6229SOL    HW219587   0.819   4.170   3.902
 6230SOL     OW19588   0.206   0.698   2.471
 6230SOL    HW119589   0.242   0.701   2.564
 6230SOL    HW219590   0.194   0.791   2.437
 6231SOL     OW19591   1.438   5.156   6.908
 6231SOL    HW119592   1.516   5.197   6.861
 6231SOL    HW219593   1.470   5.086   6.971
 6232SOL     OW19594   4.303   1.090   6.363
 6232SOL    HW119595   4.304   0.993   6.342
 6232SOL    HW219596   4.264   1.141   6.286
 6233SOL     OW19597   6.907   3.950   1.425
 6233SOL    HW119598   6.889   3.858   1.390
 6233SOL    HW219599   6.947   3.944   1.516
 6234SOL     OW19600   4.422   5.905   4.791
 6234SOL    HW119601   4.461   5.982   4.741
 6234SOL    HW219602   4.386   5.839   4.725
 6235SOL     OW19603   6.622   0.818   2.692
 6235SOL    HW119604   6.665   0.743   2.743
 6235SOL    HW219605   6.604   0.894   2.754
 6236SOL     OW19606   0.930   5.505   1.356
 6236SOL    HW119607   0.962   5.482   1.448
 6236SOL    HW219608   0.931   5.604   1.344
 6237SOL     OW19609   3.526   1.568   0.605
 6237SOL    HW119610   3.592   1.629   0.560
 6237SOL    HW219611   3.465   1.528   0.536
 6238SOL     OW19612   2.503   0.089   4.261
 6238SOL    HW119613   2.425   0.125   4.313
 6238SOL    HW219614   2.584   0.089   4.319
 6239SOL     OW19615   4.570   1.287   3.376
 6239SOL    HW119616   4.531   1.255   3.290
 6239SOL    HW219617   4.654   1.338   3.358
 6240SOL     OW19618   3.827   3.175   3.830
 6240SOL    HW119619   3.789   3.088   3.861
 6240SOL    HW219620   3.754   3.232   3.794
 6241SOL     OW19621   3.626   0.323   2.646
 6241SOL    HW119622   3.533   0.340   2.614
 6241SOL    HW219623   3.639   0.366   2.735
 6242SOL     OW19624   2.838   1.966   3.352
 6242SOL    HW119625   2.916   2.028   3.346
 6242SOL    HW219626   2.772   1.989   3.280
 6243SOL     OW19627   4.887   1.427   5.980
 6243SOL    HW119628   4.917   1.336   5.953
 6243SOL    HW219629   4.833   1.421   6.065
 6244SOL     OW19630   4.720   4.404   2.589
 6244SOL    HW119631   4.752   4.350   2.667
 6244SOL    HW219632   4.780   4.482   2.576
 6245SOL     OW19633   0.200   4.515   2.653
 6245SOL    HW119634   0.110   4.557   2.660
 6245SOL    HW219635   0.193   4.417   2.670
 6246SOL     OW19636   6.622   6.620   4.196
 6246SOL    HW119637   6.524   6.635   4.187
 6246SOL    HW219638   6.638   6.540   4.253
 6247SOL     OW19639   6.496   6.686   3.105
 6247SOL    HW119640   6.414   6.712   3.155
 6247SOL    HW219641   6.525   6.595   3.135
 6248SOL     OW19642   3.621   3.064   6.023
 6248SOL    HW119643   3.700   3.036   5.969
 6248SOL    HW219644   3.549   2.995   6.015
 6249SOL     OW19645   5.741   2.960   1.517
 6249SOL    HW119646   5.784   2.888   1.463
 6249SOL    HW219647   5.644   2.966   1.492
 6250SOL     OW19648   6.454   0.064   0.518
 6250SOL    HW119649   6.456   0.085   0.420
 6250SOL    HW219650   6.372   0.010   0.538
 6251SOL     OW19651   2.462   6.624   4.368
 6251SOL    HW119652   2.551   6.628   4.413
 6251SOL    HW219653   2.474   6.637   4.269
 6252SOL     OW19654   3.050   5.562   6.820
 6252SOL    HW119655   3.044   5.650   6.774
 6252SOL    HW219656   2.989   5.561   6.899
 6253SOL     OW19657   3.649   5.143   4.662
 6253SOL    HW119658   3.711   5.083   4.613
 6253SOL    HW219659   3.558   5.102   4.664
 6254SOL     OW19660   0.639   6.908   1.110
 6254SOL    HW119661   0.634   7.000   1.072
 6254SOL    HW219662   0.662   6.843   1.037
 6255SOL     OW19663   0.450   1.452   1.953
 6255SOL    HW119664   0.431   1.416   1.861
 6255SOL    HW219665   0.365   1.479   1.996
 6256SOL     OW19666   4.988   5.917   2.227
 6256SOL    HW119667   4.999   5.823   2.195
 6256SOL    HW219668   4.977   5.917   2.326
 6257SOL     OW19669   3.250   4.113   1.316
 6257SOL    HW119670   3.155   4.142   1.309
 6257SOL    HW219671   3.273   4.098   1.412
 6258SOL     OW19672   3.884   5.194   4.873
 6258SOL    HW119673   3.930   5.248   4.803
 6258SOL    HW219674   3.809   5.142   4.831
 6259SOL     OW19675   3.349   0.506   4.319
 6259SOL    HW119676   3.325   0.586   4.373
 6259SOL    HW219677   3.282   0.433   4.336
 6260SOL     OW19678   1.209   1.816   0.446
 6260SOL    HW119679   1.246   1.908   0.438
 6260SOL    HW219680   1.279   1.750   0.416
 6261SOL     OW19681   3.425   0.516   1.049
 6261SOL    HW119682   3.425   0.497   0.951
 6261SOL    HW219683   3.351   0.581   1.070
 6262SOL     OW19684   5.777   0.187   2.559
 6262SOL    HW119685   5.703   0.122   2.576
 6262SOL    HW219686   5.773   0.218   2.464
 6263SOL     OW19687   6.246   5.771   5.971
 6263SOL    HW119688   6.232   5.708   6.047
 6263SOL    HW219689   6.337   5.811   5.977
 6264SOL     OW19690   1.812   0.419   0.309
 6264SOL    HW119691   1.903   0.388   0.283
 6264SOL    HW219692   1.766   0.346   0.360
 6265SOL     OW19693   4.914   0.614   6.918
 6265SOL    HW119694   4.868   0.542   6.969
 6265SOL    HW219695   4.956   0.576   6.836
 6266SOL     OW19696   2.490   5.116   2.923
 6266SOL    HW119697   2.454   5.171   2.847
 6266SOL    HW219698   2.469   5.020   2.907
 6267SOL     OW19699   1.959   6.438   4.721
 6267SOL    HW119700   1.876   6.443   4.777
 6267SOL    HW219701   1.989   6.343   4.714
 6268SOL     OW19702   3.408   1.365   1.274
 6268SOL    HW119703   3.497   1.358   1.320
 6268SOL    HW219704   3.345   1.297   1.311
 6269SOL     OW19705   6.276   5.236   0.412
 6269SOL    HW119706   6.364   5.262   0.372
 6269SOL    HW219707   6.286   5.227   0.511
 6270SOL     OW19708   2.150   6.122   0.595
 6270SOL    HW119709   2.116   6.204   0.548
 6270SOL    HW219710   2.248   6.114   0.581
 6271SOL     OW19711   5.682   3.224   6.007
 6271SOL    HW119712   5.632   3.138   6.012
 6271SOL    HW219713   5.780   3.206   6.006
 6272SOL     OW19714   0.555   6.830   0.669
 6272SOL    HW119715   0.468   6.877   0.679
 6272SOL    HW219716   0.601   6.861   0.586
 6273SOL     OW19717   0.712   6.639   1.424
 6273SOL    HW119718   0.744   6.725   1.464
 6273SOL    HW219719   0.788   6.575   1.416
 6274SOL     OW19720   3.215   5.798   3.972
 6274SOL    HW119721   3.291   5.781   4.036
 6274SOL    HW219722   3.176   5.711   3.943
 6275SOL     OW19723   2.165   5.390   6.948
 6275SOL    HW119724   2.175   5.461   7.018
 6275SOL    HW219725   2.250   5.337   6.941
 6276SOL     OW19726   1.776   5.658   3.030
 6276SOL    HW119727   1.704   5.623   3.091
 6276SOL    HW219728   1.814   5.582   2.978
 6277SOL     OW19729   5.246   3.520   0.972
 6277SOL    HW119730   5.167   3.461   0.988
 6277SOL    HW219731   5.238   3.563   0.882
 6278SOL     OW19732   2.557   1.345   6.455
 6278SOL    HW119733   2.569   1.403   6.536
 6278SOL    HW219734   2.511   1.398   6.383
 6279SOL     OW19735   2.486   0.082   1.713
 6279SOL    HW119736   2.431   0.018   1.660
 6279SOL    HW219737   2.528   0.149   1.652
 6280SOL     OW19738   6.254   2.412   0.259
 6280SOL    HW119739   6.283   2.317   0.263
 6280SOL    HW219740   6.196   2.426   0.178
 6281SOL     OW19741   5.567   3.836   6.212
 6281SOL    HW119742   5.645   3.836   6.275
 6281SOL    HW219743   5.487   3.875   6.258
 6282SOL     OW19744   0.053   3.395   6.319
 6282SOL    HW119745   0.042   3.455   6.241
 6282SOL    HW219746   7.008   3.319   6.313
 6283SOL     OW19747   1.171   6.306   4.865
 6283SOL    HW119748   1.189   6.269   4.774
 6283SOL    HW219749   1.091   6.261   4.904
 6284SOL     OW19750   1.616   4.316   5.979
 6284SOL    HW119751   1.699   4.344   5.932
 6284SOL    HW219752   1.547   4.389   5.971
 6285SOL     OW19753   0.969   3.700   2.993
 6285SOL    HW119754   0.991   3.703   3.091
 6285SOL    HW219755   1.052   3.714   2.939
 6286SOL     OW19756   0.786   2.675   0.449
 6286SOL    HW119757   0.746   2.760   0.484
 6286SOL    HW219758   0.740   2.649   0.364
 6287SOL     OW19759   5.145   4.908   4.861
 6287SOL    HW119760   5.118   4.846   4.786
 6287SOL    HW219761   5.232   4.879   4.898
 6288SOL     OW19762   3.692   3.366   6.298
 6288SOL    HW119763   3.612   3.360   6.357
 6288SOL    HW219764   3.748   3.444   6.325
 6289SOL     OW19765   2.513   4.388   5.522
 6289SOL    HW119766   2.569   4.463   5.487
 6289SOL    HW219767   2.563   4.302   5.511
 6290SOL     OW19768   5.181   5.823   4.160
 6290SOL    HW119769   5.111   5.813   4.231
 6290SOL    HW219770   5.271   5.804   4.200
 6291SOL     OW19771   4.066   3.751   2.714
 6291SOL    HW119772   4.095   3.774   2.807
 6291SOL    HW219773   3.966   3.741   2.712
 6292SOL     OW19774   1.524   3.243   4.528
 6292SOL    HW119775   1.442   3.268   4.476
 6292SOL    HW219776   1.536   3.306   4.604
 6293SOL     OW19777   3.469   1.052   6.510
 6293SOL    HW119778   3.455   0.959   6.475
 6293SOL    HW219779   3.395   1.111   6.479
 6294SOL     OW19780   1.575   1.726   2.839
 6294SOL    HW119781   1.486   1.745   2.880
 6294SOL    HW219782   1.616   1.812   2.808
 6295SOL     OW19783   5.519   3.615   5.840
 6295SOL    HW119784   5.573   3.532   5.851
 6295SOL    HW219785   5.463   3.608   5.757
 6296SOL     OW19786   0.755   3.060   0.220
 6296SOL    HW119787   0.664   3.068   0.259
 6296SOL    HW219788   0.750   3.010   0.133
 6297SOL     OW19789   6.069   0.972   4.241
 6297SOL    HW119790   6.145   0.930   4.290
 6297SOL    HW219791   6.101   1.054   4.193
 6298SOL     OW19792   6.641   5.801   0.701
 6298SOL    HW119793   6.598   5.889   0.721
 6298SOL    HW219794   6.614   5.735   0.771
 6299SOL     OW19795   4.089   1.333   2.671
 6299SOL    HW119796   4.129   1.263   2.730
 6299SOL    HW219797   4.025   1.290   2.608
 6300SOL     OW19798   2.158   1.368   5.965
 6300SOL    HW119799   2.152   1.440   6.034
 6300SOL    HW219800   2.220   1.396   5.892
 6301SOL     OW19801   3.711   6.366   0.128
 6301SOL    HW119802   3.674   6.299   0.064
 6301SOL    HW219803   3.753   6.441   0.077
 6302SOL     OW19804   3.100   2.444   6.625
 6302SOL    HW119805   3.070   2.348   6.623
 6302SOL    HW219806   3.200   2.448   6.617
 6303SOL     OW19807   0.952   6.089   4.865
 6303SOL    HW119808   0.963   6.143   4.949
 6303SOL    HW219809   0.854   6.072   4.849
 6304SOL     OW19810   4.207   1.169   3.630
 6304SOL    HW119811   4.148   1.172   3.550
 6304SOL    HW219812   4.218   1.262   3.666
 6305SOL     OW19813   0.780   5.680   6.149
 6305SOL    HW119814   0.776   5.620   6.228
 6305SOL    HW219815   0.871   5.674   6.107
 6306SOL     OW19816   6.968   5.236   4.012
 6306SOL    HW119817   6.887   5.205   4.061
 6306SOL    HW219818   6.946   5.247   3.915
 6307SOL     OW19819   3.917   2.976   2.338
 6307SOL    HW119820   3.822   2.980   2.306
 6307SOL    HW219821   3.969   2.914   2.279
 6308SOL     OW19822   0.162   2.588   0.727
 6308SOL    HW119823   0.227   2.540   0.786
 6308SOL    HW219824   0.157   2.543   0.638
 6309SOL     OW19825   2.483   6.280   4.574
 6309SOL    HW119826   2.408   6.333   4.534
 6309SOL    HW219827   2.557   6.342   4.600
 6310SOL     OW19828   1.724   6.799   2.957
 6310SOL    HW119829   1.759   6.876   3.009
 6310SOL    HW219830   1.764   6.714   2.990
 6311SOL     OW19831   5.754   1.265   6.138
 6311SOL    HW119832   5.713   1.239   6.051
 6311SOL    HW219833   5.819   1.194   6.167
 6312SOL     OW19834   3.589   5.904   6.643
 6312SOL    HW119835   3.605   5.845   6.722
 6312SOL    HW219836   3.645   5.987   6.652
 6313SOL     OW19837   5.364   5.249   4.695
 6313SOL    HW119838   5.434   5.187   4.730
 6313SOL    HW219839   5.275   5.203   4.694
 6314SOL     OW19840   1.896   6.925   2.370
 6314SOL    HW119841   1.873   7.013   2.329
 6314SOL    HW219842   1.964   6.879   2.314
 6315SOL     OW19843   2.153   2.504   4.605
 6315SOL    HW119844   2.089   2.576   4.633
 6315SOL    HW219845   2.245   2.542   4.598
 6316SOL     OW19846   5.009   1.328   4.682
 6316SOL    HW119847   5.096   1.285   4.707
 6316SOL    HW219848   4.985   1.302   4.588
 6317SOL     OW19849   5.190   4.744   1.601
 6317SOL    HW119850   5.242   4.713   1.521
 6317SOL    HW219851   5.129   4.819   1.574
 6318SOL     OW19852   6.806   6.479   0.267
 6318SOL    HW119853   6.714   6.487   0.304
 6318SOL    HW219854   6.872   6.475   0.343
 6319SOL     OW19855   4.953   0.998   4.191
 6319SOL    HW119856   4.956   0.929   4.119
 6319SOL    HW219857   4.879   1.063   4.173
 6320SOL     OW19858   6.272   0.840   5.859
 6320SOL    HW119859   6.267   0.756   5.914
 6320SOL    HW219860   6.335   0.904   5.902
 6321SOL     OW19861   6.356   2.446   6.697
 6321SOL    HW119862   6.453   2.435   6.677
 6321SOL    HW219863   6.311   2.491   6.620
 6322SOL     OW19864   1.160   1.290   2.029
 6322SOL    HW119865   1.233   1.299   2.097
 6322SOL    HW219866   1.089   1.358   2.048
 6323SOL     OW19867   2.406   4.543   1.119
 6323SOL    HW119868   2.462   4.556   1.038
 6323SOL    HW219869   2.362   4.453   1.116
 6324SOL     OW19870   4.548   1.650   1.294
 6324SOL    HW119871   4.608   1.609   1.225
 6324SOL    HW219872   4.572   1.746   1.307
 6325SOL     OW19873   1.725   2.970   4.055
 6325SOL    HW119874   1.681   3.058   4.075
 6325SOL    HW219875   1.817   2.969   4.095
 6326SOL     OW19876   5.354   4.814   6.151
 6326SOL    HW119877   5.432   4.791   6.209
 6326SOL    HW219878   5.386   4.858   6.067
 6327SOL     OW19879   0.213   0.462   3.900
 6327SOL    HW119880   0.115   0.478   3.899
 6327SOL    HW219881   0.231   0.367   3.925
 6328SOL     OW19882   4.416   3.585   5.273
 6328SOL    HW119883   4.502   3.597   5.225
 6328SOL    HW219884   4.341   3.575   5.207
 6329SOL     OW19885   0.716   2.656   6.019
 6329SOL    HW119886   0.740   2.727   6.086
 6329SOL    HW219887   0.725   2.566   6.062
 6330SOL     OW19888   5.203   1.678   3.180
 6330SOL    HW119889   5.129   1.639   3.125
 6330SOL    HW219890   5.260   1.736   3.123
 6331SOL     OW19891   1.104   3.480   3.776
 6331SOL    HW119892   1.065   3.537   3.704
 6331SOL    HW219893   1.116   3.387   3.742
 6332SOL     OW19894   3.201   1.480   0.080
 6332SOL    HW119895   3.113   1.468   0.124
 6332SOL    HW219896   3.204   1.568   0.032
 6333SOL     OW19897   5.150   1.595   0.642
 6333SOL    HW119898   5.191   1.552   0.562
 6333SOL    HW219899   5.191   1.558   0.725
 6334SOL     OW19900   1.536   1.502   1.923
 6334SOL    HW119901   1.627   1.507   1.964
 6334SOL    HW219902   1.473   1.562   1.973
 6335SOL     OW19903   6.247   1.559   6.968
 6335SOL    HW119904   6.201   1.481   7.010
 6335SOL    HW219905   6.179   1.623   6.933
 6336SOL     OW19906   0.855   3.668   5.691
 6336SOL    HW119907   0.919   3.743   5.706
 6336SOL    HW219908   0.820   3.636   5.780
 6337SOL     OW19909   4.921   5.455   5.468
 6337SOL    HW119910   4.992   5.386   5.485
 6337SOL    HW219911   4.846   5.443   5.534
 6338SOL     OW19912   2.349   1.312   3.146
 6338SOL    HW119913   2.391   1.403   3.148
 6338SOL    HW219914   2.332   1.281   3.239
 6339SOL     OW19915   0.544   4.952   3.603
 6339SOL    HW119916   0.478   5.020   3.572
 6339SOL    HW219917   0.502   4.861   3.597
 6340SOL     OW19918   2.545   4.124   0.674
 6340SOL    HW119919   2.580   4.118   0.768
 6340SOL    HW219920   2.569   4.041   0.624
 6341SOL     OW19921   0.230   5.287   3.065
 6341SOL    HW119922   0.140   5.291   3.108
 6341SOL    HW219923   0.252   5.193   3.041
 6342SOL     OW19924   2.192   1.162   1.096
 6342SOL    HW119925   2.174   1.242   1.153
 6342SOL    HW219926   2.288   1.162   1.068
 6343SOL     OW19927   1.151   5.495   0.912
 6343SOL    HW119928   1.107   5.444   0.987
 6343SOL    HW219929   1.131   5.592   0.922
 6344SOL     OW19930   6.829   1.002   4.082
 6344SOL    HW119931   6.844   0.971   4.176
 6344SOL    HW219932   6.810   1.100   4.081
 6345SOL     OW19933   5.841   3.223   1.953
 6345SOL    HW119934   5.795   3.152   1.901
 6345SOL    HW219935   5.772   3.285   1.992
 6346SOL     OW19936   0.082   4.618   5.855
 6346SOL    HW119937   0.090   4.548   5.784
 6346SOL    HW219938   0.027   4.583   5.931
 6347SOL     OW19939   1.811   2.154   3.044
 6347SOL    HW119940   1.872   2.220   3.088
 6347SOL    HW219941   1.859   2.110   2.968
 6348SOL     OW19942   0.623   1.904   6.212
 6348SOL    HW119943   0.632   1.824   6.271
 6348SOL    HW219944   0.686   1.894   6.135
 6349SOL     OW19945   6.960   0.990   0.031
 6349SOL    HW119946   6.933   0.988   6.955
 6349SOL    HW219947   0.012   1.058   0.044
 6350SOL     OW19948   0.936   5.592   1.954
 6350SOL    HW119949   1.021   5.608   2.004
 6350SOL    HW219950   0.868   5.551   2.015
 6351SOL     OW19951   5.382   3.060   2.112
 6351SOL    HW119952   5.326   3.054   2.194
 6351SOL    HW219953   5.467   3.108   2.133
 6352SOL     OW19954   2.982   0.780   4.344
 6352SOL    HW119955   2.997   0.768   4.245
 6352SOL    HW219956   2.889   0.750   4.367
 6353SOL     OW19957   3.197   6.418   5.573
 6353SOL    HW119958   3.250   6.358   5.513
 6353SOL    HW219959   3.101   6.417   5.544
 6354SOL     OW19960   4.878   5.477   1.213
 6354SOL    HW119961   4.849   5.412   1.283
 6354SOL    HW219962   4.817   5.557   1.215
 6355SOL     OW19963   2.534   4.567   0.856
 6355SOL    HW119964   2.520   4.496   0.786
 6355SOL    HW219965   2.491   4.652   0.826
 6356SOL     OW19966   6.607   4.904   6.420
 6356SOL    HW119967   6.661   4.885   6.502
 6356SOL    HW219968   6.560   4.821   6.391
 6357SOL     OW19969   5.898   1.386   1.968
 6357SOL    HW119970   5.948   1.437   1.899
 6357SOL    HW219971   5.934   1.409   2.059
 6358SOL     OW19972   1.313   2.249   5.687
 6358SOL    HW119973   1.291   2.335   5.641
 6358SOL    HW219974   1.247   2.233   5.761
 6359SOL     OW19975   5.269   6.577   0.663
 6359SOL    HW119976   5.238   6.511   0.731
 6359SOL    HW219977   5.369   6.575   0.658
 6360SOL     OW19978   0.768   1.916   2.305
 6360SOL    HW119979   0.684   1.958   2.271
 6360SOL    HW219980   0.829   1.988   2.340
 6361SOL     OW19981   0.027   0.634   6.666
 6361SOL    HW119982   0.049   0.713   6.609
 6361SOL    HW219983   0.051   0.550   6.616
 6362SOL     OW19984   1.429   5.694   0.423
 6362SOL    HW119985   1.340   5.694   0.378
 6362SOL    HW219986   1.417   5.679   0.521
 6363SOL     OW19987   2.384   4.415   3.041
 6363SOL    HW119988   2.438   4.432   2.959
 6363SOL    HW219989   2.362   4.317   3.046
 6364SOL     OW19990   2.405   2.673   4.395
 6364SOL    HW119991   2.453   2.616   4.461
 6364SOL    HW219992   2.339   2.731   4.442
 6365SOL     OW19993   5.395   6.748   2.800
 6365SOL    HW119994   5.315   6.698   2.835
 6365SOL    HW219995   5.447   6.689   2.739
 6366SOL     OW19996   6.161   0.326   4.989
 6366SOL    HW119997   6.241   0.273   5.017
 6366SOL    HW219998   6.183   0.380   4.908
 6367SOL     OW19999   2.008   2.059   2.116
 6367SOL    HW120000   2.085   2.098   2.065
 6367SOL    HW220001   1.954   2.133   2.156
 6368SOL     OW20002   4.886   3.246   4.512
 6368SOL    HW120003   4.847   3.154   4.514
 6368SOL    HW220004   4.937   3.263   4.597
 6369SOL     OW20005   4.423   5.205   6.926
 6369SOL    HW120006   4.352   5.150   6.970
 6369SOL    HW220007   4.410   5.205   6.827
 6370SOL     OW20008   5.229   3.365   4.431
 6370SOL    HW120009   5.232   3.358   4.331
 6370SOL    HW220010   5.274   3.449   4.460
 6371SOL     OW20011   5.094   4.369   1.058
 6371SOL    HW120012   5.118   4.400   0.966
 6371SOL    HW220013   5.010   4.315   1.054
 6372SOL     OW20014   6.901   1.410   2.156
 6372SOL    HW120015   6.864   1.495   2.192
 6372SOL    HW220016   6.827   1.356   2.115
 6373SOL     OW20017   4.516   4.419   1.495
 6373SOL    HW120018   4.546   4.364   1.573
 6373SOL    HW220019   4.595   4.459   1.451
 6374SOL     OW20020   4.781   3.932   6.582
 6374SOL    HW120021   4.823   3.848   6.549
 6374SOL    HW220022   4.704   3.957   6.523
 6375SOL     OW20023   5.180   2.227   1.892
 6375SOL    HW120024   5.103   2.279   1.929
 6375SOL    HW220025   5.178   2.134   1.931
 6376SOL     OW20026   3.478   0.899   6.986
 6376SOL    HW120027   3.395   0.869   0.012
 6376SOL    HW220028   3.543   0.823   6.981
 6377SOL     OW20029   0.256   0.756   0.347
 6377SOL    HW120030   0.316   0.682   0.319
 6377SOL    HW220031   0.311   0.834   0.378
 6378SOL     OW20032   5.312   5.098   1.807
 6378SOL    HW120033   5.343   5.058   1.894
 6378SOL    HW220034   5.216   5.077   1.794
 6379SOL     OW20035   1.945   5.454   6.419
 6379SOL    HW120036   2.021   5.403   6.380
 6379SOL    HW220037   1.885   5.392   6.469
 6380SOL     OW20038   1.290   3.618   4.886
 6380SOL    HW120039   1.334   3.661   4.808
 6380SOL    HW220040   1.192   3.607   4.868
 6381SOL     OW20041   4.346   2.457   0.250
 6381SOL    HW120042   4.344   2.399   0.332
 6381SOL    HW220043   4.316   2.404   0.171
 6382SOL     OW20044   1.656   1.949   0.580
 6382SOL    HW120045   1.712   2.007   0.522
 6382SOL    HW220046   1.638   1.862   0.533
 6383SOL     OW20047   2.494   2.050   2.074
 6383SOL    HW120048   2.536   2.133   2.037
 6383SOL    HW220049   2.496   1.978   2.005
 6384SOL     OW20050   6.585   2.713   2.329
 6384SOL    HW120051   6.580   2.779   2.254
 6384SOL    HW220052   6.649   2.640   2.303
 6385SOL     OW20053   6.868   2.751   1.222
 6385SOL    HW120054   6.791   2.695   1.190
 6385SOL    HW220055   6.859   2.844   1.186
 6386SOL     OW20056   2.592   3.905   0.520
 6386SOL    HW120057   2.601   3.819   0.570
 6386SOL    HW220058   2.674   3.921   0.466
 6387SOL     OW20059   6.701   6.816   6.614
 6387SOL    HW120060   6.717   6.838   6.518
 6387SOL    HW220061   6.778   6.761   6.648
 6388SOL     OW20062   6.494   5.536   2.342
 6388SOL    HW120063   6.458   5.449   2.377
 6388SOL    HW220064   6.459   5.611   2.398
 6389SOL     OW20065   0.471   0.887   0.478
 6389SOL    HW120066   0.465   0.986   0.479
 6389SOL    HW220067   0.487   0.853   0.571
 6390SOL     OW20068   5.400   0.373   6.613
 6390SOL    HW120069   5.448   0.450   6.655
 6390SOL    HW220070   5.422   0.369   6.516
 6391SOL     OW20071   0.866   1.400   5.146
 6391SOL    HW120072   0.888   1.396   5.244
 6391SOL    HW220073   0.778   1.445   5.133
 6392SOL     OW20074   3.814   6.935   3.195
 6392SOL    HW120075   3.815   6.835   3.203
 6392SOL    HW220076   3.853   6.975   3.278
 6393SOL     OW20077   0.812   5.099   6.994
 6393SOL    HW120078   0.782   5.186   0.012
 6393SOL    HW220079   0.755   5.025   0.011
 6394SOL     OW20080   1.502   5.700   1.390
 6394SOL    HW120081   1.498   5.640   1.310
 6394SOL    HW220082   1.431   5.673   1.455
 6395SOL     OW20083   2.214   4.165   2.982
 6395SOL    HW120084   2.139   4.162   2.916
 6395SOL    HW220085   2.191   4.108   3.061
 6396SOL     OW20086   1.019   3.740   6.509
 6396SOL    HW120087   1.010   3.777   6.602
 6396SOL    HW220088   1.057   3.811   6.449
 6397SOL     OW20089   5.829   3.038   4.299
 6397SOL    HW120090   5.766   3.113   4.317
 6397SOL    HW220091   5.836   3.023   4.200
 6398SOL     OW20092   2.063   0.496   0.984
 6398SOL    HW120093   2.050   0.400   1.005
 6398SOL    HW220094   1.990   0.550   1.027
 6399SOL     OW20095   3.041   1.149   6.062
 6399SOL    HW120096   3.132   1.113   6.043
 6399SOL    HW220097   3.047   1.246   6.087
 6400SOL     OW20098   1.727   6.284   3.543
 6400SOL    HW120099   1.669   6.358   3.577
 6400SOL    HW220100   1.820   6.319   3.526
 6401SOL     OW20101   3.904   5.630   3.125
 6401SOL    HW120102   3.892   5.531   3.117
 6401SOL    HW220103   3.903   5.656   3.222
 6402SOL     OW20104   2.050   4.401   5.069
 6402SOL    HW120105   2.141   4.361   5.063
 6402SOL    HW220106   2.037   4.440   5.160
 6403SOL     OW20107   4.629   5.460   5.308
 6403SOL    HW120108   4.712   5.422   5.350
 6403SOL    HW220109   4.575   5.506   5.378
 6404SOL     OW20110   4.695   0.047   1.769
 6404SOL    HW120111   4.600   0.019   1.757
 6404SOL    HW220112   4.703   0.103   1.852
 6405SOL     OW20113   5.336   1.899   2.783
 6405SOL    HW120114   5.293   1.987   2.766
 6405SOL    HW220115   5.269   1.837   2.824
 6406SOL     OW20116   6.998   3.087   3.497
 6406SOL    HW120117   6.948   3.074   3.582
 6406SOL    HW220118   0.045   3.013   3.486
 6407SOL     OW20119   0.763   6.040   2.496
 6407SOL    HW120120   0.799   6.004   2.410
 6407SOL    HW220121   0.793   5.982   2.572
 6408SOL     OW20122   6.588   0.629   2.260
 6408SOL    HW120123   6.605   0.582   2.346
 6408SOL    HW220124   6.675   0.654   2.217
 6409SOL     OW20125   5.246   5.412   3.458
 6409SOL    HW120126   5.324   5.380   3.403
 6409SOL    HW220127   5.170   5.434   3.397
 6410SOL     OW20128   1.923   1.657   6.517
 6410SOL    HW120129   1.834   1.618   6.493
 6410SOL    HW220130   1.963   1.700   6.435
 6411SOL     OW20131   0.734   2.388   2.333
 6411SOL    HW120132   0.767   2.483   2.332
 6411SOL    HW220133   0.739   2.350   2.241
 6412SOL     OW20134   3.528   1.045   0.366
 6412SOL    HW120135   3.582   0.987   0.305
 6412SOL    HW220136   3.558   1.032   0.461
 6413SOL     OW20137   4.734   6.448   3.122
 6413SOL    HW120138   4.640   6.418   3.136
 6413SOL    HW220139   4.757   6.444   3.025
 6414SOL     OW20140   1.448   0.282   0.009
 6414SOL    HW120141   1.378   0.216   0.036
 6414SOL    HW220142   1.469   0.341   0.087
 6415SOL     OW20143   0.182   2.261   3.532
 6415SOL    HW120144   0.206   2.356   3.553
 6415SOL    HW220145   0.084   2.253   3.517
 6416SOL     OW20146   2.388   6.681   0.038
 6416SOL    HW120147   2.418   6.642   0.125
 6416SOL    HW220148   2.318   6.623   7.019
 6417SOL     OW20149   4.047   2.282   0.191
 6417SOL    HW120150   4.094   2.321   0.112
 6417SOL    HW220151   3.951   2.310   0.189
 6418SOL     OW20152   4.743   4.416   0.425
 6418SOL    HW120153   4.690   4.334   0.447
 6418SOL    HW220154   4.758   4.421   0.326
 6419SOL     OW20155   1.154   6.525   6.176
 6419SOL    HW120156   1.067   6.476   6.173
 6419SOL    HW220157   1.189   6.523   6.270
 6420SOL     OW20158   2.202   3.833   4.559
 6420SOL    HW120159   2.271   3.892   4.517
 6420SOL    HW220160   2.187   3.861   4.654
 6421SOL     OW20161   3.985   6.808   2.277
 6421SOL    HW120162   3.966   6.883   2.341
 6421SOL    HW220163   3.900   6.761   2.254
 6422SOL     OW20164   5.787   2.145   4.485
 6422SOL    HW120165   5.859   2.076   4.472
 6422SOL    HW220166   5.765   2.187   4.397
 6423SOL     OW20167   1.863   4.391   4.539
 6423SOL    HW120168   1.860   4.408   4.638
 6423SOL    HW220169   1.930   4.319   4.521
 6424SOL     OW20170   6.550   4.724   5.418
 6424SOL    HW120171   6.624   4.660   5.399
 6424SOL    HW220172   6.520   4.767   5.333
 6425SOL     OW20173   6.424   5.694   4.178
 6425SOL    HW120174   6.450   5.684   4.274
 6425SOL    HW220175   6.489   5.645   4.121
 6426SOL     OW20176   4.829   3.978   5.136
 6426SOL    HW120177   4.801   4.072   5.115
 6426SOL    HW220178   4.872   3.938   5.054
 6427SOL     OW20179   3.744   3.149   2.796
 6427SOL    HW120180   3.744   3.058   2.837
 6427SOL    HW220181   3.668   3.157   2.731
 6428SOL     OW20182   5.632   2.935   0.458
 6428SOL    HW120183   5.696   2.867   0.493
 6428SOL    HW220184   5.565   2.958   0.528
 6429SOL     OW20185   2.059   1.095   5.127
 6429SOL    HW120186   1.977   1.041   5.143
 6429SOL    HW220187   2.124   1.079   5.202
 6430SOL     OW20188   6.383   0.404   5.250
 6430SOL    HW120189   6.349   0.437   5.339
 6430SOL    HW220190   6.327   0.444   5.177
 6431SOL     OW20191   3.580   4.746   1.494
 6431SOL    HW120192   3.560   4.758   1.591
 6431SOL    HW220193   3.567   4.832   1.446
 6432SOL     OW20194   5.061   4.493   6.064
 6432SOL    HW120195   5.070   4.394   6.064
 6432SOL    HW220196   4.970   4.518   6.099
 6433SOL     OW20197   3.196   4.942   6.585
 6433SOL    HW120198   3.250   5.018   6.549
 6433SOL    HW220199   3.253   4.860   6.589
 6434SOL     OW20200   4.334   5.124   6.529
 6434SOL    HW120201   4.375   5.119   6.438
 6434SOL    HW220202   4.241   5.161   6.522
 6435SOL     OW20203   5.287   1.791   1.438
 6435SOL    HW120204   5.288   1.831   1.530
 6435SOL    HW220205   5.372   1.815   1.391
 6436SOL     OW20206   6.571   4.519   4.253
 6436SOL    HW120207   6.482   4.528   4.208
 6436SOL    HW220208   6.559   4.519   4.352
 6437SOL     OW20209   0.996   2.196   5.545
 6437SOL    HW120210   1.091   2.214   5.521
 6437SOL    HW220211   0.989   2.106   5.589
 6438SOL     OW20212   0.743   4.835   1.103
 6438SOL    HW120213   0.712   4.743   1.127
 6438SOL    HW220214   0.673   4.902   1.129
 6439SOL     OW20215   5.001   0.155   3.309
 6439SOL    HW120216   4.911   0.186   3.279
 6439SOL    HW220217   5.009   0.056   3.292
 6440SOL     OW20218   3.425   2.102   6.637
 6440SOL    HW120219   3.379   2.095   6.726
 6440SOL    HW220220   3.357   2.106   6.564
 6441SOL     OW20221   0.593   1.506   2.455
 6441SOL    HW120222   0.517   1.563   2.487
 6441SOL    HW220223   0.657   1.562   2.402
 6442SOL     OW20224   2.635   2.421   5.062
 6442SOL    HW120225   2.555   2.481   5.067
 6442SOL    HW220226   2.717   2.476   5.046
 6443SOL     OW20227   4.631   3.113   0.361
 6443SOL    HW120228   4.658   3.033   0.415
 6443SOL    HW220229   4.532   3.114   0.350
 6444SOL     OW20230   6.451   3.385   4.790
 6444SOL    HW120231   6.477   3.474   4.827
 6444SOL    HW220232   6.442   3.319   4.865
 6445SOL     OW20233   3.071   3.193   3.413
 6445SOL    HW120234   3.002   3.149   3.355
 6445SOL    HW220235   3.159   3.149   3.399
 6446SOL     OW20236   1.944   1.206   6.599
 6446SOL    HW120237   1.995   1.273   6.545
 6446SOL    HW220238   1.966   1.217   6.696
 6447SOL     OW20239   5.855   3.367   1.456
 6447SOL    HW120240   5.768   3.355   1.409
 6447SOL    HW220241   5.886   3.278   1.490
 6448SOL     OW20242   3.252   5.506   1.285
 6448SOL    HW120243   3.279   5.573   1.355
 6448SOL    HW220244   3.334   5.470   1.241
 6449SOL     OW20245   2.479   5.761   1.081
 6449SOL    HW120246   2.447   5.760   0.986
 6449SOL    HW220247   2.458   5.673   1.124
 6450SOL     OW20248   0.917   4.560   0.961
 6450SOL    HW120249   0.856   4.546   1.039
 6450SOL    HW220250   0.997   4.612   0.990
 6451SOL     OW20251   4.906   2.358   1.265
 6451SOL    HW120252   4.921   2.283   1.329
 6451SOL    HW220253   4.838   2.421   1.303
 6452SOL     OW20254   4.760   2.078   3.447
 6452SOL    HW120255   4.843   2.040   3.407
 6452SOL    HW220256   4.701   2.003   3.478
 6453SOL     OW20257   2.483   0.838   1.463
 6453SOL    HW120258   2.559   0.872   1.519
 6453SOL    HW220259   2.514   0.829   1.368
 6454SOL     OW20260   5.414   2.597   3.242
 6454SOL    HW120261   5.341   2.596   3.312
 6454SOL    HW220262   5.375   2.574   3.153
 6455SOL     OW20263   6.290   3.808   3.648
 6455SOL    HW120264   6.258   3.725   3.602
 6455SOL    HW220265   6.226   3.832   3.721
 6456SOL     OW20266   5.885   1.276   2.813
 6456SOL    HW120267   5.883   1.178   2.834
 6456SOL    HW220268   5.980   1.306   2.807
 6457SOL     OW20269   3.530   6.975   1.820
 6457SOL    HW120270   3.612   6.919   1.826
 6457SOL    HW220271   3.452   6.925   1.858
 6458SOL     OW20272   0.022   5.468   3.811
 6458SOL    HW120273   7.009   5.378   3.782
 6458SOL    HW220274   0.122   5.466   3.817
 6459SOL     OW20275   6.826   3.285   2.827
 6459SOL    HW120276   6.784   3.195   2.818
 6459SOL    HW220277   6.823   3.314   2.923
 6460SOL     OW20278   0.726   5.484   6.344
 6460SOL    HW120279   0.749   5.390   6.321
 6460SOL    HW220280   0.649   5.486   6.407
 6461SOL     OW20281   1.681   5.150   1.177
 6461SOL    HW120282   1.754   5.200   1.222
 6461SOL    HW220283   1.596   5.162   1.227
 6462SOL     OW20284   1.488   3.546   5.530
 6462SOL    HW120285   1.505   3.529   5.433
 6462SOL    HW220286   1.561   3.504   5.584
 6463SOL     OW20287   5.060   1.792   1.303
 6463SOL    HW120288   5.064   1.771   1.205
 6463SOL    HW220289   5.153   1.802   1.339
 6464SOL     OW20290   0.925   4.508   3.877
 6464SOL    HW120291   0.983   4.493   3.797
 6464SOL    HW220292   0.966   4.579   3.935
 6465SOL     OW20293   3.498   1.202   3.543
 6465SOL    HW120294   3.407   1.166   3.522
 6465SOL    HW220295   3.506   1.294   3.505
 6466SOL     OW20296   0.031   3.761   0.646
 6466SOL    HW120297   0.018   3.750   0.548
 6466SOL    HW220298   6.992   3.834   0.680
 6467SOL     OW20299   2.851   2.960   0.700
 6467SOL    HW120300   2.808   3.034   0.649
 6467SOL    HW220301   2.806   2.951   0.789
 6468SOL     OW20302   2.333   1.514   0.776
 6468SOL    HW120303   2.274   1.434   0.783
 6468SOL    HW220304   2.321   1.572   0.856
 6469SOL     OW20305   3.131   1.298   2.493
 6469SOL    HW120306   3.083   1.258   2.415
 6469SOL    HW220307   3.203   1.359   2.460
 6470SOL     OW20308   6.702   1.959   0.028
 6470SOL    HW120309   6.794   1.950   7.011
 6470SOL    HW220310   6.646   1.881   7.021
 6471SOL     OW20311   0.843   6.663   5.771
 6471SOL    HW120312   0.817   6.697   5.862
 6471SOL    HW220313   0.783   6.587   5.745
 6472SOL     OW20314   6.581   6.327   2.584
 6472SOL    HW120315   6.651   6.270   2.542
 6472SOL    HW220316   6.556   6.289   2.673
 6473SOL     OW20317   2.555   1.510   3.672
 6473SOL    HW120318   2.606   1.592   3.700
 6473SOL    HW220319   2.520   1.465   3.754
 6474SOL     OW20320   3.730   5.709   4.858
 6474SOL    HW120321   3.717   5.659   4.943
 6474SOL    HW220322   3.643   5.714   4.809
 6475SOL     OW20323   5.916   5.146   2.600
 6475SOL    HW120324   5.921   5.085   2.521
 6475SOL    HW220325   5.974   5.226   2.584
 6476SOL     OW20326   3.893   1.776   6.487
 6476SOL    HW120327   3.889   1.819   6.397
 6476SOL    HW220328   3.984   1.786   6.525
 6477SOL     OW20329   6.476   6.011   1.264
 6477SOL    HW120330   6.479   5.911   1.273
 6477SOL    HW220331   6.504   6.052   1.351
 6478SOL     OW20332   3.306   5.851   0.945
 6478SOL    HW120333   3.206   5.852   0.952
 6478SOL    HW220334   3.341   5.942   0.961
 6479SOL     OW20335   3.463   6.445   3.395
 6479SOL    HW120336   3.464   6.366   3.333
 6479SOL    HW220337   3.373   6.455   3.436
 6480SOL     OW20338   3.886   2.166   6.628
 6480SOL    HW120339   3.895   2.114   6.543
 6480SOL    HW220340   3.803   2.222   6.625
 6481SOL     OW20341   3.529   2.738   1.550
 6481SOL    HW120342   3.531   2.651   1.500
 6481SOL    HW220343   3.474   2.727   1.633
 6482SOL     OW20344   5.805   4.129   5.748
 6482SOL    HW120345   5.795   4.085   5.838
 6482SOL    HW220346   5.820   4.227   5.761
 6483SOL     OW20347   1.621   6.457   4.878
 6483SOL    HW120348   1.624   6.361   4.848
 6483SOL    HW220349   1.530   6.477   4.914
 6484SOL     OW20350   2.627   0.882   3.522
 6484SOL    HW120351   2.527   0.876   3.531
 6484SOL    HW220352   2.658   0.971   3.552
 6485SOL     OW20353   2.137   6.552   4.993
 6485SOL    HW120354   2.198   6.513   4.924
 6485SOL    HW220355   2.056   6.493   5.003
 6486SOL     OW20356   1.535   5.274   3.244
 6486SOL    HW120357   1.633   5.289   3.235
 6486SOL    HW220358   1.488   5.361   3.257
 6487SOL     OW20359   5.464   4.706   3.898
 6487SOL    HW120360   5.376   4.676   3.936
 6487SOL    HW220361   5.451   4.734   3.803
 6488SOL     OW20362   4.194   5.182   4.741
 6488SOL    HW120363   4.220   5.142   4.828
 6488SOL    HW220364   4.198   5.282   4.748
 6489SOL     OW20365   4.838   2.640   5.783
 6489SOL    HW120366   4.756   2.598   5.744
 6489SOL    HW220367   4.825   2.654   5.881
 6490SOL     OW20368   2.184   2.522   6.869
 6490SOL    HW120369   2.194   2.604   6.925
 6490SOL    HW220370   2.095   2.479   6.888
 6491SOL     OW20371   2.556   6.855   1.489
 6491SOL    HW120372   2.492   6.778   1.491
 6491SOL    HW220373   2.644   6.826   1.528
 6492SOL     OW20374   3.678   3.184   4.452
 6492SOL    HW120375   3.755   3.233   4.495
 6492SOL    HW220376   3.665   3.096   4.497
 6493SOL     OW20377   0.926   4.053   5.339
 6493SOL    HW120378   0.855   3.998   5.383
 6493SOL    HW220379   1.013   4.004   5.343
 6494SOL     OW20380   6.512   0.558   1.596
 6494SOL    HW120381   6.554   0.613   1.668
 6494SOL    HW220382   6.463   0.481   1.637
 6495SOL     OW20383   6.125   0.136   3.633
 6495SOL    HW120384   6.063   0.061   3.612
 6495SOL    HW220385   6.175   0.161   3.550
 6496SOL     OW20386   3.620   1.322   1.441
 6496SOL    HW120387   3.694   1.387   1.421
 6496SOL    HW220388   3.562   1.359   1.513
 6497SOL     OW20389   0.269   1.581   0.729
 6497SOL    HW120390   0.284   1.679   0.743
 6497SOL    HW220391   0.172   1.561   0.733
 6498SOL     OW20392   0.854   4.902   4.138
 6498SOL    HW120393   0.808   4.955   4.209
 6498SOL    HW220394   0.856   4.954   4.053
 6499SOL     OW20395   4.900   3.614   3.422
 6499SOL    HW120396   4.879   3.555   3.343
 6499SOL    HW220397   4.826   3.679   3.435
 6500SOL     OW20398   1.257   4.236   2.901
 6500SOL    HW120399   1.311   4.317   2.926
 6500SOL    HW220400   1.186   4.221   2.969
 6501SOL     OW20401   6.007   1.857   1.811
 6501SOL    HW120402   5.911   1.883   1.803
 6501SOL    HW220403   6.065   1.935   1.787
 6502SOL     OW20404   6.893   3.397   2.103
 6502SOL    HW120405   6.901   3.364   2.009
 6502SOL    HW220406   6.806   3.447   2.113
 6503SOL     OW20407   6.855   3.403   5.441
 6503SOL    HW120408   6.835   3.498   5.463
 6503SOL    HW220409   6.793   3.342   5.491
 6504SOL     OW20410   4.909   6.049   6.249
 6504SOL    HW120411   4.947   6.099   6.326
 6504SOL    HW220412   4.827   6.001   6.278
 6505SOL     OW20413   0.027   5.652   0.228
 6505SOL    HW120414   0.028   5.561   0.186
 6505SOL    HW220415   0.057   5.720   0.161
 6506SOL     OW20416   0.036   3.848   2.454
 6506SOL    HW120417   6.979   3.786   2.455
 6506SOL    HW220418   0.105   3.817   2.520
 6507SOL     OW20419   3.459   4.914   6.848
 6507SOL    HW120420   3.475   4.945   6.755
 6507SOL    HW220421   3.526   4.844   6.873
 6508SOL     OW20422   0.815   0.183   2.679
 6508SOL    HW120423   0.856   0.122   2.610
 6508SOL    HW220424   0.787   0.129   2.758
 6509SOL     OW20425   2.879   1.843   6.190
 6509SOL    HW120426   2.904   1.886   6.278
 6509SOL    HW220427   2.821   1.764   6.207
 6510SOL     OW20428   3.588   5.715   5.779
 6510SOL    HW120429   3.687   5.710   5.786
 6510SOL    HW220430   3.562   5.793   5.722
 6511SOL     OW20431   3.000   1.509   1.016
 6511SOL    HW120432   3.011   1.474   1.109
 6511SOL    HW220433   3.011   1.434   0.950
 6512SOL     OW20434   3.704   1.473   0.030
 6512SOL    HW120435   3.737   1.406   6.985
 6512SOL    HW220436   3.689   1.561   7.005
 6513SOL     OW20437   2.389   4.836   2.833
 6513SOL    HW120438   2.487   4.822   2.841
 6513SOL    HW220439   2.353   4.780   2.758
 6514SOL     OW20440   5.206   6.475   5.715
 6514SOL    HW120441   5.115   6.435   5.708
 6514SOL    HW220442   5.274   6.413   5.675
 6515SOL     OW20443   1.390   4.760   2.561
 6515SOL    HW120444   1.314   4.824   2.552
 6515SOL    HW220445   1.459   4.780   2.492
 6516SOL     OW20446   6.566   3.778   1.597
 6516SOL    HW120447   6.482   3.832   1.606
 6516SOL    HW220448   6.626   3.796   1.674
 6517SOL     OW20449   0.081   3.449   1.007
 6517SOL    HW120450   7.009   3.438   0.972
 6517SOL    HW220451   0.126   3.524   0.959
 6518SOL     OW20452   0.646   1.824   2.717
 6518SOL    HW120453   0.572   1.873   2.670
 6518SOL    HW220454   0.700   1.889   2.770
 6519SOL     OW20455   1.484   1.323   3.343
 6519SOL    HW120456   1.530   1.259   3.405
 6519SOL    HW220457   1.533   1.326   3.256
 6520SOL     OW20458   0.175   5.139   6.666
 6520SOL    HW120459   0.206   5.044   6.678
 6520SOL    HW220460   0.217   5.196   6.736
 6521SOL     OW20461   1.244   4.145   3.723
 6521SOL    HW120462   1.197   4.214   3.667
 6521SOL    HW220463   1.197   4.136   3.811
 6522SOL     OW20464   2.471   3.245   5.417
 6522SOL    HW120465   2.473   3.184   5.338
 6522SOL    HW220466   2.376   3.262   5.444
 6523SOL     OW20467   6.004   0.132   0.415
 6523SOL    HW120468   6.003   0.094   0.322
 6523SOL    HW220469   5.911   0.129   0.452
 6524SOL     OW20470   2.389   2.733   0.889
 6524SOL    HW120471   2.405   2.722   0.987
 6524SOL    HW220472   2.384   2.644   0.845
 6525SOL     OW20473   0.763   5.358   3.117
 6525SOL    HW120474   0.755   5.420   3.195
 6525SOL    HW220475   0.734   5.405   3.034
 6526SOL     OW20476   0.827   5.847   6.749
 6526SOL    HW120477   0.757   5.882   6.686
 6526SOL    HW220478   0.893   5.920   6.769
 6527SOL     OW20479   7.010   1.735   0.296
 6527SOL    HW120480   6.919   1.727   0.336
 6527SOL    HW220481   0.053   1.674   0.344
 6528SOL     OW20482   4.548   0.303   7.008
 6528SOL    HW120483   4.487   0.334   6.935
 6528SOL    HW220484   4.532   0.206   0.006
 6529SOL     OW20485   5.916   0.807   2.744
 6529SOL    HW120486   5.869   0.881   2.792
 6529SOL    HW220487   5.861   0.724   2.750
 6530SOL     OW20488   0.939   3.244   2.825
 6530SOL    HW120489   1.027   3.264   2.783
 6530SOL    HW220490   0.866   3.284   2.770
 6531SOL     OW20491   3.663   4.275   5.152
 6531SOL    HW120492   3.674   4.355   5.093
 6531SOL    HW220493   3.649   4.193   5.097
 6532SOL     OW20494   1.302   0.582   0.635
 6532SOL    HW120495   1.361   0.585   0.555
 6532SOL    HW220496   1.351   0.620   0.714
 6533SOL     OW20497   4.880   3.439   0.824
 6533SOL    HW120498   4.788   3.413   0.853
 6533SOL    HW220499   4.947   3.393   0.883
 6534SOL     OW20500   6.800   4.844   3.184
 6534SOL    HW120501   6.810   4.832   3.086
 6534SOL    HW220502   6.704   4.864   3.206
 6535SOL     OW20503   5.469   2.799   5.345
 6535SOL    HW120504   5.434   2.746   5.421
 6535SOL    HW220505   5.550   2.850   5.374
 6536SOL     OW20506   0.721   4.351   5.359
 6536SOL    HW120507   0.718   4.451   5.368
 6536SOL    HW220508   0.769   4.312   5.438
 6537SOL     OW20509   6.235   5.341   4.222
 6537SOL    HW120510   6.329   5.333   4.188
 6537SOL    HW220511   6.173   5.346   4.144
 6538SOL     OW20512   1.759   3.150   5.852
 6538SOL    HW120513   1.708   3.229   5.884
 6538SOL    HW220514   1.747   3.074   5.917
 6539SOL     OW20515   5.424   1.272   5.845
 6539SOL    HW120516   5.494   1.264   5.773
 6539SOL    HW220517   5.419   1.185   5.895
 6540SOL     OW20518   6.191   2.598   5.462
 6540SOL    HW120519   6.242   2.628   5.381
 6540SOL    HW220520   6.152   2.678   5.508
 6541SOL     OW20521   6.214   0.912   5.051
 6541SOL    HW120522   6.249   0.999   5.085
 6541SOL    HW220523   6.274   0.838   5.082
 6542SOL     OW20524   1.362   4.414   3.268
 6542SOL    HW120525   1.432   4.357   3.224
 6542SOL    HW220526   1.274   4.366   3.265
 6543SOL     OW20527   3.751   2.167   5.097
 6543SOL    HW120528   3.662   2.129   5.070
 6543SOL    HW220529   3.790   2.219   5.021
 6544SOL     OW20530   1.204   6.564   1.612
 6544SOL    HW120531   1.187   6.586   1.708
 6544SOL    HW220532   1.296   6.591   1.587
 6545SOL     OW20533   4.501   6.703   0.827
 6545SOL    HW120534   4.599   6.722   0.819
 6545SOL    HW220535   4.454   6.785   0.860
 6546SOL     OW20536   4.642   3.576   6.221
 6546SOL    HW120537   4.711   3.648   6.226
 6546SOL    HW220538   4.559   3.612   6.178
 6547SOL     OW20539   0.104   5.441   6.232
 6547SOL    HW120540   0.161   5.370   6.191
 6547SOL    HW220541   0.038   5.398   6.293
 6548SOL     OW20542   0.358   1.525   5.280
 6548SOL    HW120543   0.397   1.437   5.304
 6548SOL    HW220544   0.267   1.512   5.241
 6549SOL     OW20545   4.891   1.061   2.230
 6549SOL    HW120546   4.907   0.978   2.284
 6549SOL    HW220547   4.957   1.131   2.257
 6550SOL     OW20548   6.096   6.650   3.758
 6550SOL    HW120549   6.118   6.554   3.741
 6550SOL    HW220550   6.012   6.674   3.708
 6551SOL     OW20551   3.128   3.923   0.737
 6551SOL    HW120552   3.172   4.011   0.716
 6551SOL    HW220553   3.197   3.851   0.738
 6552SOL     OW20554   1.942   6.077   0.271
 6552SOL    HW120555   1.977   6.015   0.201
 6552SOL    HW220556   1.877   6.028   0.329
 6553SOL     OW20557   0.828   1.239   3.714
 6553SOL    HW120558   0.779   1.191   3.786
 6553SOL    HW220559   0.824   1.338   3.731
 6554SOL     OW20560   2.034   1.467   4.115
 6554SOL    HW120561   1.956   1.512   4.073
 6554SOL    HW220562   2.047   1.376   4.075
 6555SOL     OW20563   6.504   4.097   3.484
 6555SOL    HW120564   6.562   4.153   3.543
 6555SOL    HW220565   6.523   4.000   3.502
 6556SOL     OW20566   4.849   2.930   2.859
 6556SOL    HW120567   4.943   2.963   2.864
 6556SOL    HW220568   4.834   2.885   2.771
 6557SOL     OW20569   2.375   0.663   2.145
 6557SOL    HW120570   2.336   0.610   2.221
 6557SOL    HW220571   2.387   0.758   2.173
 6558SOL     OW20572   5.426   5.491   6.557
 6558SOL    HW120573   5.344   5.540   6.527
 6558SOL    HW220574   5.472   5.544   6.628
 6559SOL     OW20575   0.277   1.949   6.103
 6559SOL    HW120576   0.200   2.002   6.066
 6559SOL    HW220577   0.347   1.938   6.031
 6560SOL     OW20578   5.340   4.842   0.572
 6560SOL    HW120579   5.328   4.809   0.478
 6560SOL    HW220580   5.318   4.940   0.576
 6561SOL     OW20581   3.457   4.520   6.909
 6561SOL    HW120582   3.472   4.500   7.006
 6561SOL    HW220583   3.545   4.526   6.862
 6562SOL     OW20584   5.481   3.042   0.938
 6562SOL    HW120585   5.577   3.048   0.911
 6562SOL    HW220586   5.457   2.946   0.957
 6563SOL     OW20587   5.308   5.765   4.971
 6563SOL    HW120588   5.264   5.758   4.882
 6563SOL    HW220589   5.279   5.689   5.029
 6564SOL     OW20590   6.204   3.631   2.853
 6564SOL    HW120591   6.268   3.638   2.777
 6564SOL    HW220592   6.248   3.582   2.929
 6565SOL     OW20593   5.499   0.819   3.281
 6565SOL    HW120594   5.465   0.912   3.293
 6565SOL    HW220595   5.432   0.767   3.228
 6566SOL     OW20596   4.959   6.172   2.928
 6566SOL    HW120597   5.049   6.153   2.969
 6566SOL    HW220598   4.942   6.270   2.928
 6567SOL     OW20599   4.336   1.129   1.023
 6567SOL    HW120600   4.419   1.077   1.004
 6567SOL    HW220601   4.346   1.222   0.988
 6568SOL     OW20602   4.300   1.540   1.264
 6568SOL    HW120603   4.239   1.617   1.244
 6568SOL    HW220604   4.392   1.575   1.285
 6569SOL     OW20605   0.226   4.011   5.673
 6569SOL    HW120606   0.264   4.083   5.732
 6569SOL    HW220607   0.300   3.969   5.620
 6570SOL     OW20608   4.011   0.004   1.946
 6570SOL    HW120609   3.927   7.002   1.996
 6570SOL    HW220610   4.086   6.967   1.979
 6571SOL     OW20611   3.339   5.452   2.717
 6571SOL    HW120612   3.316   5.421   2.625
 6571SOL    HW220613   3.256   5.458   2.772
 6572SOL     OW20614   1.089   5.740   4.133
 6572SOL    HW120615   1.083   5.833   4.170
 6572SOL    HW220616   1.128   5.679   4.203
 6573SOL     OW20617   1.810   1.625   3.604
 6573SOL    HW120618   1.838   1.531   3.584
 6573SOL    HW220619   1.710   1.628   3.614
 6574SOL     OW20620   1.884   5.514   1.935
 6574SOL    HW120621   1.870   5.595   1.990
 6574SOL    HW220622   1.901   5.540   1.840
 6575SOL     OW20623   6.781   1.349   3.058
 6575SOL    HW120624   6.690   1.372   3.092
 6575SOL    HW220625   6.812   1.263   3.100
 6576SOL     OW20626   4.256   6.022   0.993
 6576SOL    HW120627   4.255   6.122   0.987
 6576SOL    HW220628   4.268   5.995   1.088
 6577SOL     OW20629   2.983   0.932   3.639
 6577SOL    HW120630   3.005   1.029   3.646
 6577SOL    HW220631   2.945   0.900   3.726
 6578SOL     OW20632   1.168   4.774   1.846
 6578SOL    HW120633   1.137   4.742   1.757
 6578SOL    HW220634   1.262   4.742   1.862
 6579SOL     OW20635   6.492   1.060   4.140
 6579SOL    HW120636   6.550   1.065   4.221
 6579SOL    HW220637   6.488   1.150   4.096
 6580SOL     OW20638   2.287   1.415   6.745
 6580SOL    HW120639   2.253   1.501   6.708
 6580SOL    HW220640   2.210   1.357   6.771
 6581SOL     OW20641   0.410   2.290   0.531
 6581SOL    HW120642   0.342   2.234   0.579
 6581SOL    HW220643   0.385   2.387   0.539
 6582SOL     OW20644   6.553   1.602   3.641
 6582SOL    HW120645   6.573   1.700   3.640
 6582SOL    HW220646   6.638   1.551   3.632
 6583SOL     OW20647   3.773   5.538   6.552
 6583SOL    HW120648   3.698   5.564   6.613
 6583SOL    HW220649   3.860   5.565   6.593
 6584SOL     OW20650   3.631   2.654   0.651
 6584SOL    HW120651   3.651   2.702   0.736
 6584SOL    HW220652   3.605   2.719   0.580
 6585SOL     OW20653   5.862   6.610   0.969
 6585SOL    HW120654   5.892   6.517   0.944
 6585SOL    HW220655   5.862   6.619   1.068
 6586SOL     OW20656   6.647   2.127   6.640
 6586SOL    HW120657   6.616   2.054   6.701
 6586SOL    HW220658   6.646   2.094   6.546
 6587SOL     OW20659   1.802   4.777   5.471
 6587SOL    HW120660   1.733   4.729   5.416
 6587SOL    HW220661   1.848   4.711   5.531
 6588SOL     OW20662   6.625   2.917   0.618
 6588SOL    HW120663   6.634   2.875   0.708
 6588SOL    HW220664   6.652   3.013   0.623
 6589SOL     OW20665   0.173   0.427   2.174
 6589SOL    HW120666   0.176   0.403   2.077
 6589SOL    HW220667   0.103   0.498   2.188
 6590SOL     OW20668   1.575   7.001   3.850
 6590SOL    HW120669   1.579   0.020   3.758
 6590SOL    HW220670   1.655   6.943   3.865
 6591SOL     OW20671   5.647   4.247   4.377
 6591SOL    HW120672   5.725   4.304   4.404
 6591SOL    HW220673   5.627   4.182   4.450
 6592SOL     OW20674   6.377   6.929   3.165
 6592SOL    HW120675   6.310   6.862   3.131
 6592SOL    HW220676   6.412   6.983   3.088
 6593SOL     OW20677   2.873   2.198   2.284
 6593SOL    HW120678   2.873   2.258   2.205
 6593SOL    HW220679   2.793   2.138   2.280
 6594SOL     OW20680   5.078   0.825   6.425
 6594SOL    HW120681   5.067   0.813   6.326
 6594SOL    HW220682   5.044   0.743   6.472
 6595SOL     OW20683   1.187   2.465   5.518
 6595SOL    HW120684   1.254   2.530   5.553
 6595SOL    HW220685   1.100   2.512   5.502
 6596SOL     OW20686   6.024   6.822   2.295
 6596SOL    HW120687   6.052   6.791   2.386
 6596SOL    HW220688   6.092   6.887   2.260
 6597SOL     OW20689   1.242   4.587   2.206
 6597SOL    HW120690   1.192   4.673   2.199
 6597SOL    HW220691   1.274   4.573   2.299
 6598SOL     OW20692   1.504   4.615   4.273
 6598SOL    HW120693   1.481   4.519   4.263
 6598SOL    HW220694   1.599   4.624   4.304
 6599SOL     OW20695   6.066   5.213   6.391
 6599SOL    HW120696   5.979   5.255   6.364
 6599SOL    HW220697   6.048   5.124   6.432
 6600SOL     OW20698   4.617   6.810   5.095
 6600SOL    HW120699   4.701   6.864   5.087
 6600SOL    HW220700   4.541   6.869   5.121
 6601SOL     OW20701   1.576   2.377   1.654
 6601SOL    HW120702   1.648   2.436   1.618
 6601SOL    HW220703   1.520   2.428   1.719
 6602SOL     OW20704   1.548   6.289   1.541
 6602SOL    HW120705   1.502   6.342   1.613
 6602SOL    HW220706   1.556   6.194   1.570
 6603SOL     OW20707   0.379   3.657   2.972
 6603SOL    HW120708   0.313   3.582   2.969
 6603SOL    HW220709   0.425   3.664   2.884
 6604SOL     OW20710   2.415   5.835   2.485
 6604SOL    HW120711   2.504   5.848   2.530
 6604SOL    HW220712   2.360   5.918   2.496
 6605SOL     OW20713   6.621   5.027   1.040
 6605SOL    HW120714   6.663   4.969   1.110
 6605SOL    HW220715   6.679   5.107   1.024
 6606SOL     OW20716   1.777   3.608   3.026
 6606SOL    HW120717   1.848   3.679   3.019
 6606SOL    HW220718   1.783   3.547   2.947
 6607SOL     OW20719   5.943   3.930   3.456
 6607SOL    HW120720   5.890   3.920   3.540
 6607SOL    HW220721   6.024   3.986   3.474
 6608SOL     OW20722   1.454   6.119   5.939
 6608SOL    HW120723   1.482   6.026   5.963
 6608SOL    HW220724   1.527   6.164   5.888
 6609SOL     OW20725   4.692   1.800   5.758
 6609SOL    HW120726   4.770   1.834   5.812
 6609SOL    HW220727   4.718   1.797   5.662
 6610SOL     OW20728   2.907   5.014   0.855
 6610SOL    HW120729   2.823   4.974   0.818
 6610SOL    HW220730   2.986   4.973   0.810
 6611SOL     OW20731   4.261   1.536   4.343
 6611SOL    HW120732   4.196   1.502   4.275
 6611SOL    HW220733   4.354   1.515   4.313
 6612SOL     OW20734   0.275   0.659   6.429
 6612SOL    HW120735   0.214   0.737   6.423
 6612SOL    HW220736   0.221   0.576   6.445
 6613SOL     OW20737   4.641   6.570   0.221
 6613SOL    HW120738   4.703   6.615   0.156
 6613SOL    HW220739   4.548   6.603   0.207
 6614SOL     OW20740   4.474   5.611   0.804
 6614SOL    HW120741   4.530   5.581   0.882
 6614SOL    HW220742   4.527   5.600   0.720
 6615SOL     OW20743   3.284   4.652   6.576
 6615SOL    HW120744   3.351   4.595   6.622
 6615SOL    HW220745   3.192   4.627   6.607
 6616SOL     OW20746   4.045   0.971   5.587
 6616SOL    HW120747   4.103   0.900   5.627
 6616SOL    HW220748   4.101   1.030   5.529
 6617SOL     OW20749   3.827   0.598   4.127
 6617SOL    HW120750   3.882   0.660   4.183
 6617SOL    HW220751   3.762   0.549   4.185
 6618SOL     OW20752   0.109   2.571   3.304
 6618SOL    HW120753   0.083   2.582   3.208
 6618SOL    HW220754   0.065   2.643   3.358
 6619SOL     OW20755   4.759   6.025   4.043
 6619SOL    HW120756   4.739   6.109   4.093
 6619SOL    HW220757   4.720   5.947   4.092
 6620SOL     OW20758   0.402   3.523   3.420
 6620SOL    HW120759   0.331   3.563   3.361
 6620SOL    HW220760   0.479   3.586   3.427
 6621SOL     OW20761   3.969   3.171   4.566
 6621SOL    HW120762   3.977   3.203   4.661
 6621SOL    HW220763   4.028   3.227   4.508
 6622SOL     OW20764   0.902   5.579   0.743
 6622SOL    HW120765   0.989   5.550   0.783
 6622SOL    HW220766   0.864   5.655   0.796
 6623SOL     OW20767   3.563   3.513   5.422
 6623SOL    HW120768   3.531   3.432   5.471
 6623SOL    HW220769   3.609   3.574   5.486
 6624SOL     OW20770   1.801   2.166   3.519
 6624SOL    HW120771   1.840   2.213   3.598
 6624SOL    HW220772   1.737   2.226   3.471
 6625SOL     OW20773   6.268   3.624   5.918
 6625SOL    HW120774   6.334   3.664   5.982
 6625SOL    HW220775   6.179   3.616   5.963
 6626SOL     OW20776   2.426   6.377   5.065
 6626SOL    HW120777   2.363   6.447   5.097
 6626SOL    HW220778   2.520   6.412   5.070
 6627SOL     OW20779   1.849   5.723   4.229
 6627SOL    HW120780   1.843   5.648   4.163
 6627SOL    HW220781   1.760   5.734   4.275
 6628SOL     OW20782   4.120   6.183   4.313
 6628SOL    HW120783   4.144   6.165   4.218
 6628SOL    HW220784   4.109   6.096   4.362
 6629SOL     OW20785   4.953   5.781   5.882
 6629SOL    HW120786   4.989   5.851   5.944
 6629SOL    HW220787   4.872   5.815   5.835
 6630SOL     OW20788   1.799   1.060   1.155
 6630SOL    HW120789   1.876   0.997   1.172
 6630SOL    HW220790   1.755   1.083   1.241
 6631SOL     OW20791   1.813   3.936   6.151
 6631SOL    HW120792   1.820   3.991   6.068
 6631SOL    HW220793   1.755   3.856   6.134
 6632SOL     OW20794   1.215   1.316   1.320
 6632SOL    HW120795   1.125   1.360   1.327
 6632SOL    HW220796   1.250   1.326   1.227
 6633SOL     OW20797   3.536   5.598   6.177
 6633SOL    HW120798   3.462   5.615   6.112
 6633SOL    HW220799   3.507   5.625   6.269
 6634SOL     OW20800   4.344   1.913   4.157
 6634SOL    HW120801   4.268   1.850   4.171
 6634SOL    HW220802   4.339   1.987   4.225
 6635SOL     OW20803   5.077   5.032   3.569
 6635SOL    HW120804   5.008   4.959   3.570
 6635SOL    HW220805   5.140   5.016   3.493
 6636SOL     OW20806   4.354   0.569   0.113
 6636SOL    HW120807   4.391   0.498   0.174
 6636SOL    HW220808   4.403   0.566   0.026
 6637SOL     OW20809   1.332   1.751   1.579
 6637SOL    HW120810   1.420   1.795   1.595
 6637SOL    HW220811   1.346   1.659   1.544
 6638SOL     OW20812   3.322   3.576   3.757
 6638SOL    HW120813   3.307   3.504   3.690
 6638SOL    HW220814   3.261   3.653   3.738
 6639SOL     OW20815   4.863   2.677   1.646
 6639SOL    HW120816   4.850   2.776   1.637
 6639SOL    HW220817   4.929   2.658   1.718
 6640SOL     OW20818   1.007   2.885   4.992
 6640SOL    HW120819   0.938   2.889   4.920
 6640SOL    HW220820   1.065   2.967   4.987
 6641SOL     OW20821   5.072   1.816   1.009
 6641SOL    HW120822   5.166   1.821   0.976
 6641SOL    HW220823   5.034   1.908   1.016
 6642SOL     OW20824   0.864   5.911   0.139
 6642SOL    HW120825   0.961   5.928   0.156
 6642SOL    HW220826   0.854   5.858   0.055
 6643SOL     OW20827   3.982   6.300   6.851
 6643SOL    HW120828   4.074   6.282   6.886
 6643SOL    HW220829   3.938   6.370   6.906
 6644SOL     OW20830   1.891   6.617   3.736
 6644SOL    HW120831   1.950   6.597   3.815
 6644SOL    HW220832   1.937   6.589   3.652
 6645SOL     OW20833   5.658   2.617   0.336
 6645SOL    HW120834   5.628   2.628   0.431
 6645SOL    HW220835   5.579   2.599   0.278
 6646SOL     OW20836   4.591   0.013   6.306
 6646SOL    HW120837   4.610   0.107   6.279
 6646SOL    HW220838   4.572   6.978   6.225
 6647SOL     OW20839   4.556   5.215   1.227
 6647SOL    HW120840   4.561   5.156   1.146
 6647SOL    HW220841   4.649   5.242   1.253
 6648SOL     OW20842   2.898   6.191   6.096
 6648SOL    HW120843   2.823   6.203   6.161
 6648SOL    HW220844   2.868   6.218   6.005
 6649SOL     OW20845   5.199   3.206   6.939
 6649SOL    HW120846   5.183   3.110   6.961
 6649SOL    HW220847   5.214   3.216   6.841
 6650SOL     OW20848   2.212   1.782   5.186
 6650SOL    HW120849   2.311   1.791   5.199
 6650SOL    HW220850   2.169   1.872   5.196
 6651SOL     OW20851   6.850   1.573   6.505
 6651SOL    HW120852   6.920   1.636   6.539
 6651SOL    HW220853   6.796   1.539   6.583
 6652SOL     OW20854   0.132   4.508   0.738
 6652SOL    HW120855   0.122   4.506   0.639
 6652SOL    HW220856   0.168   4.597   0.767
 6653SOL     OW20857   5.756   4.480   0.631
 6653SOL    HW120858   5.773   4.493   0.729
 6653SOL    HW220859   5.839   4.504   0.580
 6654SOL     OW20860   6.838   4.588   3.105
 6654SOL    HW120861   6.937   4.576   3.116
 6654SOL    HW220862   6.809   4.670   3.153
 6655SOL     OW20863   6.514   5.088   2.221
 6655SOL    HW120864   6.442   5.031   2.261
 6655SOL    HW220865   6.549   5.151   2.290
 6656SOL     OW20866   3.888   1.539   2.641
 6656SOL    HW120867   3.934   1.450   2.639
 6656SOL    HW220868   3.792   1.527   2.616
 6657SOL     OW20869   5.627   2.610   3.437
 6657SOL    HW120870   5.698   2.585   3.371
 6657SOL    HW220871   5.541   2.627   3.388
 6658SOL     OW20872   6.592   5.459   5.699
 6658SOL    HW120873   6.617   5.392   5.629
 6658SOL    HW220874   6.492   5.467   5.703
 6659SOL     OW20875   0.717   5.248   2.338
 6659SOL    HW120876   0.657   5.318   2.300
 6659SOL    HW220877   0.742   5.184   2.265
 6660SOL     OW20878   6.888   6.303   3.623
 6660SOL    HW120879   6.876   6.204   3.620
 6660SOL    HW220880   6.885   6.340   3.531
 6661SOL     OW20881   3.709   5.901   4.045
 6661SOL    HW120882   3.803   5.898   4.012
 6661SOL    HW220883   3.707   5.879   4.143
 6662SOL     OW20884   3.493   6.701   2.556
 6662SOL    HW120885   3.431   6.682   2.631
 6662SOL    HW220886   3.578   6.740   2.592
 6663SOL     OW20887   1.232   4.023   6.105
 6663SOL    HW120888   1.195   4.098   6.049
 6663SOL    HW220889   1.260   3.948   6.046
 6664SOL     OW20890   2.646   0.463   1.274
 6664SOL    HW120891   2.562   0.437   1.227
 6664SOL    HW220892   2.725   0.439   1.218
 6665SOL     OW20893   2.395   0.763   5.977
 6665SOL    HW120894   2.307   0.718   5.992
 6665SOL    HW220895   2.443   0.719   5.901
 6666SOL     OW20896   4.115   6.309   5.563
 6666SOL    HW120897   4.103   6.303   5.464
 6666SOL    HW220898   4.185   6.377   5.584
 6667SOL     OW20899   6.910   6.248   0.071
 6667SOL    HW120900   6.893   6.340   0.105
 6667SOL    HW220901   6.823   6.201   0.057
 6668SOL     OW20902   0.428   5.451   0.486
 6668SOL    HW120903   0.442   5.549   0.499
 6668SOL    HW220904   0.516   5.407   0.467
 6669SOL     OW20905   1.553   0.986   3.156
 6669SOL    HW120906   1.458   1.010   3.136
 6669SOL    HW220907   1.611   1.066   3.140
 6670SOL     OW20908   4.104   2.243   1.221
 6670SOL    HW120909   4.020   2.261   1.273
 6670SOL    HW220910   4.182   2.286   1.267
 6671SOL     OW20911   4.590   5.978   0.525
 6671SOL    HW120912   4.506   6.028   0.548
 6671SOL    HW220913   4.598   5.899   0.585
 6672SOL     OW20914   1.744   2.255   0.825
 6672SOL    HW120915   1.763   2.285   0.732
 6672SOL    HW220916   1.772   2.326   0.890
 6673SOL     OW20917   5.950   3.515   3.760
 6673SOL    HW120918   5.940   3.595   3.700
 6673SOL    HW220919   6.016   3.451   3.719
 6674SOL     OW20920   7.002   2.473   0.100
 6674SOL    HW120921   6.989   2.535   0.178
 6674SOL    HW220922   0.040   2.517   0.032
 6675SOL     OW20923   5.321   1.690   6.906
 6675SOL    HW120924   5.377   1.636   6.844
 6675SOL    HW220925   5.272   1.761   6.855
 6676SOL     OW20926   1.340   3.798   3.472
 6676SOL    HW120927   1.314   3.790   3.375
 6676SOL    HW220928   1.428   3.846   3.479
 6677SOL     OW20929   0.189   1.598   0.422
 6677SOL    HW120930   0.172   1.545   0.505
 6677SOL    HW220931   0.224   1.538   0.350
 6678SOL     OW20932   2.193   4.186   6.863
 6678SOL    HW120933   2.147   4.257   6.810
 6678SOL    HW220934   2.165   4.096   6.830
 6679SOL     OW20935   1.810   0.787   4.013
 6679SOL    HW120936   1.867   0.810   4.092
 6679SOL    HW220937   1.797   0.688   4.009
 6680SOL     OW20938   6.002   6.932   1.262
 6680SOL    HW120939   6.015   6.834   1.243
 6680SOL    HW220940   5.905   6.954   1.260
 6681SOL     OW20941   3.389   6.430   1.749
 6681SOL    HW120942   3.345   6.352   1.793
 6681SOL    HW220943   3.453   6.473   1.813
 6682SOL     OW20944   3.000   4.719   6.158
 6682SOL    HW120945   3.062   4.797   6.152
 6682SOL    HW220946   3.050   4.640   6.196
 6683SOL     OW20947   6.652   3.827   6.540
 6683SOL    HW120948   6.620   3.900   6.480
 6683SOL    HW220949   6.752   3.823   6.537
 6684SOL     OW20950   2.697   6.768   0.759
 6684SOL    HW120951   2.784   6.734   0.724
 6684SOL    HW220952   2.661   6.837   0.696
 6685SOL     OW20953   5.104   3.654   6.851
 6685SOL    HW120954   5.031   3.597   6.813
 6685SOL    HW220955   5.094   3.660   6.950
 6686SOL     OW20956   4.766   5.164   3.897
 6686SOL    HW120957   4.767   5.181   3.799
 6686SOL    HW220958   4.842   5.212   3.941
 6687SOL     OW20959   6.540   2.185   1.797
 6687SOL    HW120960   6.550   2.283   1.816
 6687SOL    HW220961   6.615   2.135   1.838
 6688SOL     OW20962   4.404   5.598   0.284
 6688SOL    HW120963   4.399   5.695   0.304
 6688SOL    HW220964   4.317   5.554   0.308
 6689SOL     OW20965   1.894   4.322   5.916
 6689SOL    HW120966   1.938   4.362   5.836
 6689SOL    HW220967   1.878   4.224   5.901
 6690SOL     OW20968   0.776   6.999   5.876
 6690SOL    HW120969   0.732   6.942   5.807
 6690SOL    HW220970   0.706   0.022   5.933
 6691SOL     OW20971   2.509   2.586   3.130
 6691SOL    HW120972   2.597   2.566   3.087
 6691SOL    HW220973   2.510   2.555   3.225
 6692SOL     OW20974   4.820   5.274   1.366
 6692SOL    HW120975   4.809   5.270   1.465
 6692SOL    HW220976   4.881   5.201   1.336
 6693SOL     OW20977   4.304   1.932   4.505
 6693SOL    HW120978   4.401   1.957   4.501
 6693SOL    HW220979   4.257   1.992   4.570
 6694SOL     OW20980   3.071   4.499   1.176
 6694SOL    HW120981   3.027   4.488   1.264
 6694SOL    HW220982   3.170   4.486   1.186
 6695SOL     OW20983   2.684   2.336   6.096
 6695SOL    HW120984   2.685   2.236   6.103
 6695SOL    HW220985   2.731   2.376   6.175
 6696SOL     OW20986   4.114   3.449   4.393
 6696SOL    HW120987   4.025   3.456   4.348
 6696SOL    HW220988   4.187   3.455   4.324
 6697SOL     OW20989   4.401   2.303   2.489
 6697SOL    HW120990   4.419   2.328   2.584
 6697SOL    HW220991   4.304   2.316   2.468
 6698SOL     OW20992   3.237   4.140   1.056
 6698SOL    HW120993   3.259   4.125   1.153
 6698SOL    HW220994   3.273   4.064   1.002
 6699SOL     OW20995   1.581   4.546   5.525
 6699SOL    HW120996   1.621   4.457   5.545
 6699SOL    HW220997   1.589   4.565   5.427
 6700SOL     OW20998   5.788   6.811   0.035
 6700SOL    HW120999   5.691   6.795   0.015
 6700SOL    HW221000   5.839   6.726   0.021
 6701SOL     OW21001   6.138   0.699   1.431
 6701SOL    HW121002   6.038   0.701   1.425
 6701SOL    HW221003   6.171   0.605   1.417
 6702SOL     OW21004   2.812   2.751   1.036
 6702SOL    HW121005   2.817   2.741   1.136
 6702SOL    HW221006   2.743   2.819   1.013
 6703SOL     OW21007   0.242   1.205   6.815
 6703SOL    HW121008   0.231   1.118   6.862
 6703SOL    HW221009   0.153   1.237   6.783
 6704SOL     OW21010   3.005   0.631   5.460
 6704SOL    HW121011   3.103   0.644   5.474
 6704SOL    HW221012   2.968   0.572   5.532
 6705SOL     OW21013   6.660   3.521   2.186
 6705SOL    HW121014   6.668   3.613   2.149
 6705SOL    HW221015   6.573   3.481   2.158
 6706SOL     OW21016   0.435   6.924   2.139
 6706SOL    HW121017   0.490   6.958   2.215
 6706SOL    HW221018   0.384   6.999   2.099
 6707SOL     OW21019   5.576   0.625   2.080
 6707SOL    HW121020   5.567   0.711   2.029
 6707SOL    HW221021   5.485   0.594   2.109
 6708SOL     OW21022   0.770   4.103   1.854
 6708SOL    HW121023   0.738   4.184   1.806
 6708SOL    HW221024   0.814   4.041   1.789
 6709SOL     OW21025   2.110   5.163   2.733
 6709SOL    HW121026   2.114   5.102   2.812
 6709SOL    HW221027   2.196   5.214   2.726
 6710SOL     OW21028   4.103   1.429   0.967
 6710SOL    HW121029   4.045   1.507   0.989
 6710SOL    HW221030   4.085   1.354   1.032
 6711SOL     OW21031   3.855   6.033   6.566
 6711SOL    HW121032   3.905   5.957   6.608
 6711SOL    HW221033   3.864   6.028   6.466
 6712SOL     OW21034   5.562   3.956   1.664
 6712SOL    HW121035   5.562   3.879   1.601
 6712SOL    HW221036   5.581   4.041   1.614
 6713SOL     OW21037   1.503   6.245   4.524
 6713SOL    HW121038   1.563   6.170   4.496
 6713SOL    HW221039   1.442   6.214   4.597
 6714SOL     OW21040   5.069   1.246   0.779
 6714SOL    HW121041   5.045   1.207   0.868
 6714SOL    HW221042   5.168   1.262   0.776
 6715SOL     OW21043   1.369   1.060   0.592
 6715SOL    HW121044   1.285   1.051   0.645
 6715SOL    HW221045   1.376   1.154   0.558
 6716SOL     OW21046   6.640   5.593   3.180
 6716SOL    HW121047   6.737   5.571   3.174
 6716SOL    HW221048   6.586   5.517   3.144
 6717SOL     OW21049   4.391   1.646   5.671
 6717SOL    HW121050   4.392   1.721   5.736
 6717SOL    HW221051   4.472   1.651   5.613
 6718SOL     OW21052   3.510   0.415   1.614
 6718SOL    HW121053   3.452   0.461   1.682
 6718SOL    HW221054   3.487   0.449   1.523
 6719SOL     OW21055   1.746   0.811   0.163
 6719SOL    HW121056   1.658   0.769   0.143
 6719SOL    HW221057   1.732   0.901   0.204
 6720SOL     OW21058   1.490   0.617   6.076
 6720SOL    HW121059   1.468   0.641   5.981
 6720SOL    HW221060   1.522   0.699   6.124
 6721SOL     OW21061   0.380   1.803   0.451
 6721SOL    HW121062   0.312   1.731   0.439
 6721SOL    HW221063   0.382   1.861   0.370
 6722SOL     OW21064   6.516   3.224   0.702
 6722SOL    HW121065   6.427   3.181   0.714
 6722SOL    HW221066   6.560   3.236   0.791
 6723SOL     OW21067   1.696   2.182   6.550
 6723SOL    HW121068   1.650   2.111   6.604
 6723SOL    HW221069   1.739   2.248   6.611
 6724SOL     OW21070   1.834   3.700   5.822
 6724SOL    HW121071   1.758   3.712   5.885
 6724SOL    HW221072   1.822   3.616   5.769
 6725SOL     OW21073   5.356   2.718   3.554
 6725SOL    HW121074   5.415   2.688   3.628
 6725SOL    HW221075   5.260   2.711   3.582
 6726SOL     OW21076   0.059   0.920   5.197
 6726SOL    HW121077   0.041   0.921   5.295
 6726SOL    HW221078   0.137   0.860   5.177
 6727SOL     OW21079   1.097   4.875   5.941
 6727SOL    HW121080   1.038   4.844   5.867
 6727SOL    HW221081   1.042   4.901   6.020
 6728SOL     OW21082   3.934   2.073   3.963
 6728SOL    HW121083   3.836   2.083   3.947
 6728SOL    HW221084   3.969   1.998   3.907
 6729SOL     OW21085   4.857   1.631   1.855
 6729SOL    HW121086   4.798   1.596   1.781
 6729SOL    HW221087   4.893   1.554   1.908
 6730SOL     OW21088   0.768   1.350   1.761
 6730SOL    HW121089   0.786   1.431   1.706
 6730SOL    HW221090   0.819   1.273   1.723
 6731SOL     OW21091   3.113   6.617   6.885
 6731SOL    HW121092   3.014   6.603   6.892
 6731SOL    HW221093   3.149   6.562   6.809
 6732SOL     OW21094   6.658   5.733   4.737
 6732SOL    HW121095   6.754   5.726   4.710
 6732SOL    HW221096   6.613   5.803   4.682
 6733SOL     OW21097   4.419   4.983   6.290
 6733SOL    HW121098   4.448   4.941   6.204
 6733SOL    HW221099   4.342   4.932   6.328
 6734SOL     OW21100   6.003   1.278   4.418
 6734SOL    HW121101   5.910   1.309   4.399
 6734SOL    HW221102   6.023   1.290   4.515
 6735SOL     OW21103   5.997   3.129   3.435
 6735SOL    HW121104   5.976   3.052   3.375
 6735SOL    HW221105   5.918   3.190   3.440
 6736SOL     OW21106   3.381   4.133   0.619
 6736SOL    HW121107   3.373   4.229   0.593
 6736SOL    HW221108   3.391   4.077   0.537
 6737SOL     OW21109   0.323   3.797   1.239
 6737SOL    HW121110   0.320   3.869   1.169
 6737SOL    HW221111   0.244   3.737   1.229
 6738SOL     OW21112   2.034   6.069   3.728
 6738SOL    HW121113   2.126   6.053   3.692
 6738SOL    HW221114   2.010   5.994   3.790
 6739SOL     OW21115   6.628   6.743   4.651
 6739SOL    HW121116   6.606   6.671   4.717
 6739SOL    HW221117   6.724   6.735   4.625
 6740SOL     OW21118   0.769   6.639   3.758
 6740SOL    HW121119   0.760   6.650   3.659
 6740SOL    HW221120   0.748   6.726   3.804
 6741SOL     OW21121   4.565   2.022   5.846
 6741SOL    HW121122   4.583   2.057   5.938
 6741SOL    HW221123   4.623   1.942   5.829
 6742SOL     OW21124   5.658   4.777   3.503
 6742SOL    HW121125   5.570   4.796   3.547
 6742SOL    HW221126   5.685   4.682   3.523
 6743SOL     OW21127   4.398   4.140   1.105
 6743SOL    HW121128   4.454   4.140   1.188
 6743SOL    HW221129   4.397   4.048   1.065
 6744SOL     OW21130   0.266   5.693   5.877
 6744SOL    HW121131   0.263   5.605   5.831
 6744SOL    HW221132   0.207   5.692   5.957
 6745SOL     OW21133   7.008   6.137   4.445
 6745SOL    HW121134   0.012   6.041   4.431
 6745SOL    HW221135   0.049   6.196   4.392
 6746SOL     OW21136   2.112   1.419   2.630
 6746SOL    HW121137   2.110   1.475   2.712
 6746SOL    HW221138   2.206   1.389   2.613
 6747SOL     OW21139   0.912   6.520   6.399
 6747SOL    HW121140   0.950   6.437   6.359
 6747SOL    HW221141   0.973   6.552   6.472
 6748SOL     OW21142   2.359   1.602   4.497
 6748SOL    HW121143   2.321   1.694   4.493
 6748SOL    HW221144   2.341   1.562   4.587
 6749SOL     OW21145   3.517   4.752   0.809
 6749SOL    HW121146   3.514   4.849   0.785
 6749SOL    HW221147   3.556   4.742   0.901
 6750SOL     OW21148   3.182   1.271   4.812
 6750SOL    HW121149   3.257   1.208   4.835
 6750SOL    HW221150   3.178   1.281   4.713
 6751SOL     OW21151   3.980   0.151   4.008
 6751SOL    HW121152   4.066   0.100   4.018
 6751SOL    HW221153   3.976   0.192   3.917
 6752SOL     OW21154   2.375   6.090   2.181
 6752SOL    HW121155   2.339   6.097   2.274
 6752SOL    HW221156   2.473   6.074   2.184
 6753SOL     OW21157   3.911   2.867   5.240
 6753SOL    HW121158   3.914   2.910   5.150
 6753SOL    HW221159   3.919   2.937   5.311
 6754SOL     OW21160   6.534   1.863   1.707
 6754SOL    HW121161   6.537   1.804   1.787
 6754SOL    HW221162   6.550   1.808   1.625
 6755SOL     OW21163   2.123   5.311   6.217
 6755SOL    HW121164   2.128   5.391   6.158
 6755SOL    HW221165   2.198   5.248   6.195
 6756SOL     OW21166   2.497   2.274   5.263
 6756SOL    HW121167   2.519   2.301   5.169
 6756SOL    HW221168   2.560   2.203   5.293
 6757SOL     OW21169   3.664   0.680   0.743
 6757SOL    HW121170   3.715   0.610   0.793
 6757SOL    HW221171   3.611   0.638   0.670
 6758SOL     OW21172   6.023   2.366   2.341
 6758SOL    HW121173   5.974   2.309   2.407
 6758SOL    HW221174   6.002   2.336   2.248
 6759SOL     OW21175   0.666   3.281   3.257
 6759SOL    HW121176   0.588   3.252   3.312
 6759SOL    HW221177   0.633   3.317   3.170
 6760SOL     OW21178   5.035   2.638   2.791
 6760SOL    HW121179   4.981   2.703   2.738
 6760SOL    HW221180   4.975   2.565   2.825
 6761SOL     OW21181   4.738   2.018   4.630
 6761SOL    HW121182   4.740   1.933   4.578
 6761SOL    HW221183   4.673   2.081   4.588
 6762SOL     OW21184   6.879   5.882   4.223
 6762SOL    HW121185   6.784   5.899   4.249
 6762SOL    HW221186   6.937   5.884   4.304
 6763SOL     OW21187   4.980   5.475   5.192
 6763SOL    HW121188   4.966   5.474   5.291
 6763SOL    HW221189   4.919   5.408   5.149
 6764SOL     OW21190   1.724   5.592   1.250
 6764SOL    HW121191   1.659   5.570   1.177
 6764SOL    HW221192   1.770   5.678   1.228
 6765SOL     OW21193   6.520   5.087   2.688
 6765SOL    HW121194   6.608   5.118   2.725
 6765SOL    HW221195   6.450   5.096   2.758
 6766SOL     OW21196   5.224   0.369   0.481
 6766SOL    HW121197   5.171   0.285   0.488
 6766SOL    HW221198   5.320   0.347   0.470
 6767SOL     OW21199   2.992   1.094   0.655
 6767SOL    HW121200   2.903   1.130   0.627
 6767SOL    HW221201   2.992   0.994   0.647
 6768SOL     OW21202   1.791   0.954   0.887
 6768SOL    HW121203   1.704   0.929   0.843
 6768SOL    HW221204   1.771   1.001   0.973
 6769SOL     OW21205   4.221   2.495   1.597
 6769SOL    HW121206   4.195   2.580   1.551
 6769SOL    HW221207   4.147   2.428   1.588
 6770SOL     OW21208   6.623   6.949   2.170
 6770SOL    HW121209   6.589   7.002   2.092
 6770SOL    HW221210   6.633   7.009   2.249
 6771SOL     OW21211   4.071   1.997   3.093
 6771SOL    HW121212   4.091   2.078   3.149
 6771SOL    HW221213   4.149   1.977   3.034
 6772SOL     OW21214   2.873   1.919   2.702
 6772SOL    HW121215   2.942   1.974   2.654
 6772SOL    HW221216   2.796   1.978   2.726
 6773SOL     OW21217   6.864   4.252   2.201
 6773SOL    HW121218   6.942   4.277   2.258
 6773SOL    HW221219   6.897   4.208   2.118
 6774SOL     OW21220   0.671   2.641   6.563
 6774SOL    HW121221   0.683   2.594   6.650
 6774SOL    HW221222   0.691   2.738   6.575
 6775SOL     OW21223   2.673   4.423   1.038
 6775SOL    HW121224   2.642   4.477   0.960
 6775SOL    HW221225   2.755   4.465   1.076
 6776SOL     OW21226   5.821   5.327   0.132
 6776SOL    HW121227   5.873   5.252   0.091
 6776SOL    HW221228   5.754   5.289   0.196
 6777SOL     OW21229   4.489   4.573   6.099
 6777SOL    HW121230   4.483   4.539   6.192
 6777SOL    HW221231   4.547   4.512   6.044
 6778SOL     OW21232   0.616   5.112   3.100
 6778SOL    HW121233   0.586   5.143   3.190
 6778SOL    HW221234   0.660   5.187   3.051
 6779SOL     OW21235   0.387   4.908   0.668
 6779SOL    HW121236   0.431   4.987   0.626
 6779SOL    HW221237   0.418   4.825   0.624
 6780SOL     OW21238   0.535   2.771   2.666
 6780SOL    HW121239   0.523   2.860   2.710
 6780SOL    HW221240   0.517   2.779   2.568
 6781SOL     OW21241   4.965   6.056   5.712
 6781SOL    HW121242   4.879   6.103   5.734
 6781SOL    HW221243   4.956   6.010   5.624
 6782SOL     OW21244   6.559   1.488   2.637
 6782SOL    HW121245   6.511   1.531   2.713
 6782SOL    HW221246   6.492   1.455   2.570
 6783SOL     OW21247   6.759   6.179   6.464
 6783SOL    HW121248   6.855   6.152   6.470
 6783SOL    HW221249   6.701   6.098   6.475
 6784SOL     OW21250   4.033   4.140   6.983
 6784SOL    HW121251   4.023   4.098   0.053
 6784SOL    HW221252   4.110   4.098   6.936
 6785SOL     OW21253   5.995   5.748   1.902
 6785SOL    HW121254   5.982   5.834   1.951
 6785SOL    HW221255   6.056   5.689   1.954
 6786SOL     OW21256   1.570   2.530   6.496
 6786SOL    HW121257   1.507   2.461   6.531
 6786SOL    HW221258   1.642   2.547   6.564
 6787SOL     OW21259   1.605   3.867   1.806
 6787SOL    HW121260   1.541   3.832   1.874
 6787SOL    HW221261   1.693   3.821   1.816
 6788SOL     OW21262   2.975   3.815   1.763
 6788SOL    HW121263   3.073   3.831   1.763
 6788SOL    HW221264   2.956   3.718   1.756
 6789SOL     OW21265   1.094   6.671   2.135
 6789SOL    HW121266   1.174   6.731   2.128
 6789SOL    HW221267   1.012   6.727   2.149
 6790SOL     OW21268   1.883   3.029   0.023
 6790SOL    HW121269   1.949   2.981   6.986
 6790SOL    HW221270   1.930   3.095   0.081
 6791SOL     OW21271   4.241   2.955   6.875
 6791SOL    HW121272   4.270   2.876   6.930
 6791SOL    HW221273   4.220   3.031   6.935
 6792SOL     OW21274   6.095   6.254   0.194
 6792SOL    HW121275   6.141   6.269   0.107
 6792SOL    HW221276   6.007   6.208   0.177
 6793SOL     OW21277   1.577   2.610   0.918
 6793SOL    HW121278   1.591   2.598   0.820
 6793SOL    HW221279   1.641   2.552   0.968
 6794SOL     OW21280   4.804   0.952   4.540
 6794SOL    HW121281   4.810   0.933   4.638
 6794SOL    HW221282   4.837   0.873   4.489
 6795SOL     OW21283   2.816   5.880   0.750
 6795SOL    HW121284   2.783   5.894   0.843
 6795SOL    HW221285   2.899   5.935   0.735
 6796SOL     OW21286   5.365   1.224   2.771
 6796SOL    HW121287   5.399   1.257   2.859
 6796SOL    HW221288   5.309   1.294   2.728
 6797SOL     OW21289   5.717   3.694   2.117
 6797SOL    HW121290   5.713   3.754   2.037
 6797SOL    HW221291   5.639   3.713   2.176
 6798SOL     OW21292   5.391   5.532   2.435
 6798SOL    HW121293   5.334   5.610   2.458
 6798SOL    HW221294   5.361   5.493   2.348
 6799SOL     OW21295   5.025   5.795   0.200
 6799SOL    HW121296   4.991   5.755   0.285
 6799SOL    HW221297   4.967   5.872   0.173
 6800SOL     OW21298   1.832   4.684   0.054
 6800SOL    HW121299   1.747   4.676   0.105
 6800SOL    HW221300   1.899   4.618   0.089
 6801SOL     OW21301   1.745   2.448   2.278
 6801SOL    HW121302   1.673   2.424   2.343
 6801SOL    HW221303   1.759   2.547   2.279
 6802SOL     OW21304   1.966   6.322   1.038
 6802SOL    HW121305   1.889   6.297   1.096
 6802SOL    HW221306   1.980   6.251   0.969
 6803SOL     OW21307   5.037   2.088   6.034
 6803SOL    HW121308   5.125   2.042   6.042
 6803SOL    HW221309   5.052   2.186   6.017
 6804SOL     OW21310   1.702   5.680   3.505
 6804SOL    HW121311   1.610   5.713   3.523
 6804SOL    HW221312   1.713   5.589   3.544
 6805SOL     OW21313   6.022   0.094   4.860
 6805SOL    HW121314   6.042   0.177   4.913
 6805SOL    HW221315   6.092   0.081   4.790
 6806SOL     OW21316   4.395   1.249   4.505
 6806SOL    HW121317   4.464   1.205   4.563
 6806SOL    HW221318   4.408   1.348   4.507
 6807SOL     OW21319   2.927   2.889   6.771
 6807SOL    HW121320   2.992   2.823   6.808
 6807SOL    HW221321   2.920   2.876   6.672
 6808SOL     OW21322   6.852   2.510   4.812
 6808SOL    HW121323   6.796   2.566   4.750
 6808SOL    HW221324   6.940   2.555   4.826
 6809SOL     OW21325   2.440   4.150   6.534
 6809SOL    HW121326   2.483   4.130   6.621
 6809SOL    HW221327   2.452   4.247   6.513
 6810SOL     OW21328   7.018   0.623   2.676
 6810SOL    HW121329   0.032   0.593   2.765
 6810SOL    HW221330   6.996   0.542   2.620
 6811SOL     OW21331   6.226   4.960   0.980
 6811SOL    HW121332   6.311   4.940   0.932
 6811SOL    HW221333   6.174   4.875   0.991
 6812SOL     OW21334   4.019   3.515   2.977
 6812SOL    HW121335   3.992   3.474   2.890
 6812SOL    HW221336   4.066   3.446   3.032
 6813SOL     OW21337   4.691   2.071   1.148
 6813SOL    HW121338   4.755   2.050   1.221
 6813SOL    HW221339   4.612   2.120   1.186
 6814SOL     OW21340   2.721   3.484   0.993
 6814SOL    HW121341   2.790   3.433   1.043
 6814SOL    HW221342   2.750   3.495   0.897
 6815SOL     OW21343   2.554   0.245   2.099
 6815SOL    HW121344   2.565   0.255   2.198
 6815SOL    HW221345   2.511   0.328   2.062
 6816SOL     OW21346   6.382   4.963   6.880
 6816SOL    HW121347   6.339   4.944   6.792
 6816SOL    HW221348   6.313   4.960   6.953
 6817SOL     OW21349   6.687   1.728   5.652
 6817SOL    HW121350   6.705   1.640   5.607
 6817SOL    HW221351   6.743   1.799   5.610
 6818SOL     OW21352   3.335   6.610   2.344
 6818SOL    HW121353   3.398   6.633   2.418
 6818SOL    HW221354   3.271   6.686   2.330
 6819SOL     OW21355   2.939   0.668   3.805
 6819SOL    HW121356   3.019   0.685   3.748
 6819SOL    HW221357   2.894   0.584   3.775
 6820SOL     OW21358   1.088   4.176   3.453
 6820SOL    HW121359   1.008   4.136   3.499
 6820SOL    HW221360   1.061   4.262   3.410
 6821SOL     OW21361   2.187   2.373   4.950
 6821SOL    HW121362   2.117   2.420   4.897
 6821SOL    HW221363   2.171   2.389   5.048
 6822SOL     OW21364   5.664   1.873   5.923
 6822SOL    HW121365   5.659   1.901   5.827
 6822SOL    HW221366   5.604   1.795   5.938
 6823SOL     OW21367   3.451   3.239   3.082
 6823SOL    HW121368   3.371   3.297   3.098
 6823SOL    HW221369   3.501   3.273   3.003
 6824SOL     OW21370   0.553   4.046   6.608
 6824SOL    HW121371   0.545   3.946   6.609
 6824SOL    HW221372   0.540   4.081   6.701
 6825SOL     OW21373   5.396   0.245   2.163
 6825SOL    HW121374   5.457   0.195   2.102
 6825SOL    HW221375   5.441   0.260   2.251
 6826SOL     OW21376   2.130   3.368   2.704
 6826SOL    HW121377   2.082   3.280   2.695
 6826SOL    HW221378   2.228   3.353   2.696
 6827SOL     OW21379   5.233   5.665   6.487
 6827SOL    HW121380   5.206   5.696   6.396
 6827SOL    HW221381   5.275   5.741   6.536
 6828SOL     OW21382   1.334   2.370   1.248
 6828SOL    HW121383   1.399   2.331   1.314
 6828SOL    HW221384   1.250   2.315   1.249
 6829SOL     OW21385   5.144   6.523   3.687
 6829SOL    HW121386   5.209   6.448   3.696
 6829SOL    HW221387   5.107   6.524   3.594
 6830SOL     OW21388   5.229   1.802   3.410
 6830SOL    HW121389   5.244   1.745   3.329
 6830SOL    HW221390   5.242   1.747   3.492
 6831SOL     OW21391   0.862   0.769   5.855
 6831SOL    HW121392   0.899   0.684   5.893
 6831SOL    HW221393   0.929   0.812   5.795
 6832SOL     OW21394   2.912   4.809   2.350
 6832SOL    HW121395   2.893   4.751   2.271
 6832SOL    HW221396   3.002   4.851   2.340
 6833SOL     OW21397   3.669   4.737   6.957
 6833SOL    HW121398   3.766   4.719   6.943
 6833SOL    HW221399   3.628   4.663   7.010
 6834SOL     OW21400   4.471   6.707   2.168
 6834SOL    HW121401   4.389   6.708   2.224
 6834SOL    HW221402   4.451   6.746   2.078
 6835SOL     OW21403   3.924   0.073   4.704
 6835SOL    HW121404   4.004   0.021   4.676
 6835SOL    HW221405   3.938   0.170   4.685
 6836SOL     OW21406   3.337   6.387   0.548
 6836SOL    HW121407   3.405   6.424   0.484
 6836SOL    HW221408   3.294   6.462   0.599
 6837SOL     OW21409   1.933   3.456   1.694
 6837SOL    HW121410   1.922   3.474   1.792
 6837SOL    HW221411   2.023   3.489   1.664
 6838SOL     OW21412   2.350   1.377   0.003
 6838SOL    HW121413   2.264   1.390   0.051
 6838SOL    HW221414   2.339   1.403   6.927
 6839SOL     OW21415   4.189   1.193   0.753
 6839SOL    HW121416   4.253   1.116   0.755
 6839SOL    HW221417   4.119   1.180   0.823
 6840SOL     OW21418   2.203   1.533   6.179
 6840SOL    HW121419   2.173   1.591   6.255
 6840SOL    HW221420   2.300   1.549   6.160
 6841SOL     OW21421   6.595   2.800   6.145
 6841SOL    HW121422   6.632   2.840   6.060
 6841SOL    HW221423   6.632   2.848   6.223
 6842SOL     OW21424   1.886   5.278   2.060
 6842SOL    HW121425   1.916   5.368   2.030
 6842SOL    HW221426   1.935   5.208   2.009
 6843SOL     OW21427   5.395   6.424   6.805
 6843SOL    HW121428   5.426   6.436   6.711
 6843SOL    HW221429   5.451   6.354   6.850
 6844SOL     OW21430   4.914   0.583   4.206
 6844SOL    HW121431   4.961   0.646   4.268
 6844SOL    HW221432   4.889   0.500   4.256
 6845SOL     OW21433   4.838   2.740   3.045
 6845SOL    HW121434   4.817   2.811   2.979
 6845SOL    HW221435   4.763   2.732   3.111
 6846SOL     OW21436   2.829   3.969   0.436
 6846SOL    HW121437   2.920   3.944   0.402
 6846SOL    HW221438   2.837   4.009   0.527
 6847SOL     OW21439   5.943   3.588   4.478
 6847SOL    HW121440   5.945   3.489   4.469
 6847SOL    HW221441   5.848   3.619   4.476
 6848SOL     OW21442   5.290   4.296   3.341
 6848SOL    HW121443   5.206   4.322   3.390
 6848SOL    HW221444   5.309   4.365   3.271
 6849SOL     OW21445   3.746   3.600   6.428
 6849SOL    HW121446   3.804   3.617   6.507
 6849SOL    HW221447   3.671   3.665   6.427
 6850SOL     OW21448   4.053   1.582   3.275
 6850SOL    HW121449   4.119   1.654   3.296
 6850SOL    HW221450   4.088   1.495   3.310
 6851SOL     OW21451   1.877   3.127   3.283
 6851SOL    HW121452   1.892   3.109   3.380
 6851SOL    HW221453   1.939   3.198   3.252
 6852SOL     OW21454   2.848   5.399   0.329
 6852SOL    HW121455   2.757   5.358   0.323
 6852SOL    HW221456   2.897   5.359   0.407
 6853SOL     OW21457   5.162   3.116   6.360
 6853SOL    HW121458   5.094   3.103   6.288
 6853SOL    HW221459   5.211   3.202   6.344
 6854SOL     OW21460   5.476   5.978   5.916
 6854SOL    HW121461   5.379   5.979   5.941
 6854SOL    HW221462   5.485   5.959   5.818
 6855SOL     OW21463   3.776   4.968   3.226
 6855SOL    HW121464   3.847   4.908   3.264
 6855SOL    HW221465   3.689   4.948   3.270
 6856SOL     OW21466   1.212   2.296   6.921
 6856SOL    HW121467   1.134   2.263   6.975
 6856SOL    HW221468   1.248   2.380   6.961
 6857SOL     OW21469   1.090   3.726   6.141
 6857SOL    HW121470   1.087   3.742   6.042
 6857SOL    HW221471   1.019   3.781   6.186
 6858SOL     OW21472   3.083   4.369   1.644
 6858SOL    HW121473   3.012   4.400   1.707
 6858SOL    HW221474   3.172   4.404   1.675
 6859SOL     OW21475   0.685   1.114   2.718
 6859SOL    HW121476   0.630   1.095   2.637
 6859SOL    HW221477   0.625   1.149   2.791
 6860SOL     OW21478   0.657   6.576   1.746
 6860SOL    HW121479   0.634   6.552   1.652
 6860SOL    HW221480   0.633   6.672   1.763
 6861SOL     OW21481   4.795   2.849   5.156
 6861SOL    HW121482   4.766   2.856   5.251
 6861SOL    HW221483   4.838   2.760   5.141
 6862SOL     OW21484   0.698   5.096   5.843
 6862SOL    HW121485   0.736   5.188   5.833
 6862SOL    HW221486   0.598   5.101   5.837
 6863SOL     OW21487   6.935   0.097   5.031
 6863SOL    HW121488   6.969   0.045   5.109
 6863SOL    HW221489   6.922   0.036   4.953
 6864SOL     OW21490   1.684   3.838   5.213
 6864SOL    HW121491   1.632   3.755   5.230
 6864SOL    HW221492   1.643   3.914   5.265
 6865SOL     OW21493   1.808   0.044   4.588
 6865SOL    HW121494   1.753   0.128   4.596
 6865SOL    HW221495   1.778   6.999   4.656
 6866SOL     OW21496   0.251   4.341   1.859
 6866SOL    HW121497   0.191   4.283   1.804
 6866SOL    HW221498   0.199   4.420   1.893
 6867SOL     OW21499   2.223   3.306   0.364
 6867SOL    HW121500   2.141   3.292   0.310
 6867SOL    HW221501   2.290   3.358   0.311
 6868SOL     OW21502   2.727   4.979   5.041
 6868SOL    HW121503   2.812   4.935   5.012
 6868SOL    HW221504   2.701   5.048   4.975
 6869SOL     OW21505   3.593   0.239   6.171
 6869SOL    HW121506   3.564   0.313   6.233
 6869SOL    HW221507   3.565   0.261   6.078
 6870SOL     OW21508   0.282   2.789   0.391
 6870SOL    HW121509   0.239   2.849   0.458
 6870SOL    HW221510   0.220   2.776   0.313
 6871SOL     OW21511   0.319   4.006   2.706
 6871SOL    HW121512   0.319   4.006   2.806
 6871SOL    HW221513   0.277   3.922   2.672
 6872SOL     OW21514   2.123   2.932   1.327
 6872SOL    HW121515   2.201   2.990   1.303
 6872SOL    HW221516   2.109   2.936   1.426
 6873SOL     OW21517   1.194   3.893   4.610
 6873SOL    HW121518   1.156   3.983   4.633
 6873SOL    HW221519   1.128   3.843   4.554
 6874SOL     OW21520   5.652   6.015   2.796
 6874SOL    HW121521   5.557   5.995   2.820
 6874SOL    HW221522   5.700   6.051   2.877
 6875SOL     OW21523   1.392   2.885   1.166
 6875SOL    HW121524   1.360   2.796   1.132
 6875SOL    HW221525   1.484   2.875   1.203
 6876SOL     OW21526   4.548   5.500   3.214
 6876SOL    HW121527   4.455   5.468   3.234
 6876SOL    HW221528   4.543   5.590   3.170
 6877SOL     OW21529   1.583   3.376   2.241
 6877SOL    HW121530   1.671   3.337   2.270
 6877SOL    HW221531   1.550   3.326   2.161
 6878SOL     OW21532   2.165   0.353   4.158
 6878SOL    HW121533   2.069   0.324   4.159
 6878SOL    HW221534   2.223   0.274   4.138
 6879SOL     OW21535   2.214   1.768   0.573
 6879SOL    HW121536   2.226   1.863   0.602
 6879SOL    HW221537   2.161   1.719   0.642
 6880SOL     OW21538   1.542   5.573   6.827
 6880SOL    HW121539   1.603   5.496   6.808
 6880SOL    HW221540   1.514   5.572   6.922
 6881SOL     OW21541   1.027   3.321   0.564
 6881SOL    HW121542   1.112   3.269   0.571
 6881SOL    HW221543   0.993   3.316   0.470
 6882SOL     OW21544   2.713   6.558   0.127
 6882SOL    HW121545   2.789   6.509   0.169
 6882SOL    HW221546   2.724   6.656   0.140
 6883SOL     OW21547   5.208   0.032   6.732
 6883SOL    HW121548   5.267   0.100   6.776
 6883SOL    HW221549   5.147   7.013   6.801
 6884SOL     OW21550   2.086   3.980   2.768
 6884SOL    HW121551   2.080   3.936   2.858
 6884SOL    HW221552   2.146   3.926   2.709
 6885SOL     OW21553   5.360   5.849   3.876
 6885SOL    HW121554   5.372   5.757   3.839
 6885SOL    HW221555   5.294   5.846   3.951
 6886SOL     OW21556   4.891   1.430   6.359
 6886SOL    HW121557   4.875   1.471   6.449
 6886SOL    HW221558   4.983   1.393   6.354
 6887SOL     OW21559   5.253   6.151   5.991
 6887SOL    HW121560   5.272   6.199   6.077
 6887SOL    HW221561   5.290   6.203   5.915
 6888SOL     OW21562   5.983   5.028   6.574
 6888SOL    HW121563   5.908   5.085   6.609
 6888SOL    HW221564   5.945   4.942   6.539
 6889SOL     OW21565   1.025   2.877   6.793
 6889SOL    HW121566   1.047   2.909   6.885
 6889SOL    HW221567   0.966   2.945   6.748
 6890SOL     OW21568   4.038   5.419   2.421
 6890SOL    HW121569   4.111   5.482   2.395
 6890SOL    HW221570   3.976   5.464   2.486
 6891SOL     OW21571   1.986   1.803   1.119
 6891SOL    HW121572   2.083   1.789   1.141
 6891SOL    HW221573   1.931   1.787   1.201
 6892SOL     OW21574   3.423   0.818   4.255
 6892SOL    HW121575   3.410   0.868   4.170
 6892SOL    HW221576   3.471   0.732   4.237
 6893SOL     OW21577   6.611   2.906   6.890
 6893SOL    HW121578   6.650   2.977   6.948
 6893SOL    HW221579   6.634   2.816   6.928
 6894SOL     OW21580   5.539   5.224   0.591
 6894SOL    HW121581   5.492   5.183   0.669
 6894SOL    HW221582   5.523   5.323   0.591
 6895SOL     OW21583   1.316   6.062   1.426
 6895SOL    HW121584   1.390   6.043   1.491
 6895SOL    HW221585   1.266   6.144   1.454
 6896SOL     OW21586   4.561   2.243   4.601
 6896SOL    HW121587   4.508   2.327   4.592
 6896SOL    HW221588   4.565   2.197   4.512
 6897SOL     OW21589   5.238   4.099   5.180
 6897SOL    HW121590   5.336   4.108   5.200
 6897SOL    HW221591   5.227   4.050   5.093
 6898SOL     OW21592   2.286   1.587   1.058
 6898SOL    HW121593   2.252   1.635   1.140
 6898SOL    HW221594   2.229   1.507   1.041
 6899SOL     OW21595   6.096   6.137   2.849
 6899SOL    HW121596   6.102   6.051   2.797
 6899SOL    HW221597   6.170   6.198   2.821
 6900SOL     OW21598   6.391   4.348   5.787
 6900SOL    HW121599   6.360   4.437   5.821
 6900SOL    HW221600   6.489   4.353   5.766
 6901SOL     OW21601   4.674   4.481   6.804
 6901SOL    HW121602   4.680   4.400   6.863
 6901SOL    HW221603   4.594   4.535   6.830
 6902SOL     OW21604   0.439   5.832   6.361
 6902SOL    HW121605   0.484   5.833   6.272
 6902SOL    HW221606   0.410   5.739   6.383
 6903SOL     OW21607   2.587   4.991   4.629
 6903SOL    HW121608   2.658   4.961   4.692
 6903SOL    HW221609   2.601   4.948   4.540
 6904SOL     OW21610   0.054   6.513   4.857
 6904SOL    HW121611   0.080   6.455   4.933
 6904SOL    HW221612   0.068   6.609   4.882
 6905SOL     OW21613   5.152   5.574   5.746
 6905SOL    HW121614   5.184   5.620   5.664
 6905SOL    HW221615   5.109   5.641   5.807
 6906SOL     OW21616   3.793   1.452   3.694
 6906SOL    HW121617   3.790   1.494   3.784
 6906SOL    HW221618   3.708   1.473   3.645
 6907SOL     OW21619   6.220   1.383   0.826
 6907SOL    HW121620   6.126   1.405   0.797
 6907SOL    HW221621   6.233   1.412   0.920
 6908SOL     OW21622   2.823   4.313   0.024
 6908SOL    HW121623   2.732   4.279   7.018
 6908SOL    HW221624   2.886   4.236   0.034
 6909SOL     OW21625   5.824   5.423   2.207
 6909SOL    HW121626   5.877   5.341   2.186
 6909SOL    HW221627   5.736   5.396   2.246
 6910SOL     OW21628   1.463   2.658   3.702
 6910SOL    HW121629   1.444   2.745   3.656
 6910SOL    HW221630   1.560   2.655   3.726
 6911SOL     OW21631   2.825   0.275   5.852
 6911SOL    HW121632   2.865   0.354   5.899
 6911SOL    HW221633   2.741   0.303   5.805
 6912SOL     OW21634   1.967   3.510   6.254
 6912SOL    HW121635   2.004   3.555   6.172
 6912SOL    HW221636   1.868   3.520   6.256
 6913SOL     OW21637   4.575   5.837   6.034
 6913SOL    HW121638   4.629   5.866   6.113
 6913SOL    HW221639   4.517   5.913   6.004
 6914SOL     OW21640   6.644   3.532   1.744
 6914SOL    HW121641   6.689   3.622   1.741
 6914SOL    HW221642   6.548   3.544   1.770
 6915SOL     OW21643   1.199   3.263   2.686
 6915SOL    HW121644   1.252   3.242   2.767
 6915SOL    HW221645   1.160   3.179   2.648
 6916SOL     OW21646   4.406   6.284   0.037
 6916SOL    HW121647   4.449   6.370   0.011
 6916SOL    HW221648   4.468   6.208   0.016
 6917SOL     OW21649   5.712   5.601   1.574
 6917SOL    HW121650   5.744   5.513   1.608
 6917SOL    HW221651   5.682   5.591   1.479
 6918SOL     OW21652   2.144   3.157   1.846
 6918SOL    HW121653   2.083   3.192   1.917
 6918SOL    HW221654   2.212   3.227   1.823
 6919SOL     OW21655   6.736   6.284   3.036
 6919SOL    HW121656   6.663   6.330   2.985
 6919SOL    HW221657   6.703   6.263   3.129
 6920SOL     OW21658   5.230   0.438   5.781
 6920SOL    HW121659   5.145   0.428   5.731
 6920SOL    HW221660   5.234   0.527   5.825
 6921SOL     OW21661   3.644   0.171   4.302
 6921SOL    HW121662   3.580   0.190   4.376
 6921SOL    HW221663   3.664   0.255   4.252
 6922SOL     OW21664   1.119   5.861   5.744
 6922SOL    HW121665   1.158   5.924   5.677
 6922SOL    HW221666   1.177   5.859   5.825
 6923SOL     OW21667   6.419   6.772   2.264
 6923SOL    HW121668   6.434   6.676   2.289
 6923SOL    HW221669   6.505   6.811   2.230
 6924SOL     OW21670   3.483   6.628   0.420
 6924SOL    HW121671   3.569   6.679   0.418
 6924SOL    HW221672   3.497   6.538   0.378
 6925SOL     OW21673   5.959   5.952   6.187
 6925SOL    HW121674   5.921   5.869   6.147
 6925SOL    HW221675   5.949   5.949   6.286
 6926SOL     OW21676   2.780   2.005   0.339
 6926SOL    HW121677   2.745   2.018   0.432
 6926SOL    HW221678   2.714   2.041   0.273
 6927SOL     OW21679   4.338   0.699   0.586
 6927SOL    HW121680   4.354   0.729   0.681
 6927SOL    HW221681   4.426   0.690   0.539
 6928SOL     OW21682   4.415   5.050   0.628
 6928SOL    HW121683   4.491   5.115   0.621
 6928SOL    HW221684   4.381   5.050   0.722
 6929SOL     OW21685   5.892   5.545   1.082
 6929SOL    HW121686   5.905   5.484   1.003
 6929SOL    HW221687   5.865   5.636   1.051
 6930SOL     OW21688   0.215   0.578   0.543
 6930SOL    HW121689   0.313   0.592   0.552
 6930SOL    HW221690   0.181   0.630   0.464
 6931SOL     OW21691   2.507   2.743   1.432
 6931SOL    HW121692   2.465   2.655   1.457
 6931SOL    HW221693   2.471   2.815   1.491
 6932SOL     OW21694   4.515   5.491   0.068
 6932SOL    HW121695   4.487   5.397   0.049
 6932SOL    HW221696   4.468   5.524   0.150
 6933SOL     OW21697   2.887   5.798   6.752
 6933SOL    HW121698   2.909   5.785   6.656
 6933SOL    HW221699   2.812   5.737   6.778
 6934SOL     OW21700   5.104   3.890   6.428
 6934SOL    HW121701   5.066   3.934   6.510
 6934SOL    HW221702   5.192   3.932   6.406
 6935SOL     OW21703   5.337   5.249   1.600
 6935SOL    HW121704   5.375   5.186   1.532
 6935SOL    HW221705   5.332   5.204   1.689
 6936SOL     OW21706   0.775   1.907   4.944
 6936SOL    HW121707   0.685   1.863   4.939
 6936SOL    HW221708   0.837   1.863   4.879
 6937SOL     OW21709   5.520   5.761   0.402
 6937SOL    HW121710   5.431   5.795   0.370
 6937SOL    HW221711   5.506   5.682   0.462
 6938SOL     OW21712   0.872   0.473   4.673
 6938SOL    HW121713   0.922   0.509   4.593
 6938SOL    HW221714   0.886   0.535   4.750
 6939SOL     OW21715   6.053   4.658   3.858
 6939SOL    HW121716   6.013   4.698   3.940
 6939SOL    HW221717   5.993   4.586   3.823
 6940SOL     OW21718   4.086   6.529   0.812
 6940SOL    HW121719   4.000   6.573   0.839
 6940SOL    HW221720   4.154   6.542   0.884
 6941SOL     OW21721   3.461   3.181   2.357
 6941SOL    HW121722   3.395   3.224   2.418
 6941SOL    HW221723   3.417   3.105   2.309
 6942SOL     OW21724   6.027   6.793   1.627
 6942SOL    HW121725   6.016   6.710   1.682
 6942SOL    HW221726   5.941   6.812   1.578
 6943SOL     OW21727   4.139   4.877   6.452
 6943SOL    HW121728   4.090   4.952   6.497
 6943SOL    HW221729   4.079   4.834   6.385
 6944SOL     OW21730   1.168   3.938   5.377
 6944SOL    HW121731   1.258   3.967   5.346
 6944SOL    HW221732   1.122   3.887   5.304
 6945SOL     OW21733   5.450   2.753   1.036
 6945SOL    HW121734   5.478   2.779   1.128
 6945SOL    HW221735   5.519   2.693   0.996
 6946SOL     OW21736   4.645   5.771   2.286
 6946SOL    HW121737   4.576   5.778   2.358
 6946SOL    HW221738   4.730   5.735   2.324
 6947SOL     OW21739   5.099   5.253   5.462
 6947SOL    HW121740   5.142   5.217   5.544
 6947SOL    HW221741   5.054   5.178   5.413
 6948SOL     OW21742   0.628   5.022   0.176
 6948SOL    HW121743   0.613   4.923   0.186
 6948SOL    HW221744   0.555   5.061   0.119
 6949SOL     OW21745   2.791   2.180   3.927
 6949SOL    HW121746   2.738   2.123   3.864
 6949SOL    HW221747   2.821   2.124   4.004
 6950SOL     OW21748   0.873   7.001   5.081
 6950SOL    HW121749   0.789   6.971   5.038
 6950SOL    HW221750   0.947   7.001   5.014
 6951SOL     OW21751   0.007   4.944   6.498
 6951SOL    HW121752   0.014   5.000   6.415
 6951SOL    HW221753   0.091   4.953   6.551
 6952SOL     OW21754   3.506   5.221   2.876
 6952SOL    HW121755   3.551   5.217   2.786
 6952SOL    HW221756   3.469   5.313   2.890
 6953SOL     OW21757   4.938   1.157   1.288
 6953SOL    HW121758   4.963   1.189   1.379
 6953SOL    HW221759   4.887   1.071   1.296
 6954SOL     OW21760   6.337   3.692   0.336
 6954SOL    HW121761   6.405   3.670   0.267
 6954SOL    HW221762   6.307   3.608   0.382
 6955SOL     OW21763   5.221   6.640   2.463
 6955SOL    HW121764   5.320   6.649   2.461
 6955SOL    HW221765   5.179   6.731   2.468
 6956SOL     OW21766   5.268   5.446   2.204
 6956SOL    HW121767   5.248   5.349   2.214
 6956SOL    HW221768   5.230   5.480   2.118
 6957SOL     OW21769   5.251   5.276   6.260
 6957SOL    HW121770   5.179   5.260   6.327
 6957SOL    HW221771   5.242   5.210   6.185
 6958SOL     OW21772   3.161   2.998   3.708
 6958SOL    HW121773   3.208   3.082   3.682
 6958SOL    HW221774   3.113   2.961   3.629
 6959SOL     OW21775   1.026   4.183   3.060
 6959SOL    HW121776   1.020   4.244   3.139
 6959SOL    HW221777   0.965   4.105   3.073
 6960SOL     OW21778   2.858   4.887   0.482
 6960SOL    HW121779   2.843   4.805   0.426
 6960SOL    HW221780   2.935   4.871   0.544
 6961SOL     OW21781   4.270   2.329   5.756
 6961SOL    HW121782   4.239   2.423   5.762
 6961SOL    HW221783   4.213   2.278   5.691
 6962SOL     OW21784   2.794   6.602   5.957
 6962SOL    HW121785   2.892   6.609   5.943
 6962SOL    HW221786   2.751   6.559   5.877
 6963SOL     OW21787   5.124   6.818   0.952
 6963SOL    HW121788   5.222   6.823   0.967
 6963SOL    HW221789   5.097   6.723   0.936
 6964SOL     OW21790   1.691   0.156   6.034
 6964SOL    HW121791   1.667   0.242   5.989
 6964SOL    HW221792   1.778   0.122   5.998
 6965SOL     OW21793   0.462   2.069   6.848
 6965SOL    HW121794   0.542   2.066   6.909
 6965SOL    HW221795   0.387   2.115   6.895
 6966SOL     OW21796   1.145   0.407   1.738
 6966SOL    HW121797   1.228   0.462   1.752
 6966SOL    HW221798   1.078   0.429   1.808
 6967SOL     OW21799   4.508   1.130   5.844
 6967SOL    HW121800   4.510   1.227   5.867
 6967SOL    HW221801   4.424   1.089   5.880
 6968SOL     OW21802   3.597   6.444   2.497
 6968SOL    HW121803   3.570   6.535   2.528
 6968SOL    HW221804   3.622   6.388   2.576
 6969SOL     OW21805   2.155   1.623   1.670
 6969SOL    HW121806   2.149   1.712   1.625
 6969SOL    HW221807   2.228   1.569   1.628
 6970SOL     OW21808   3.471   4.491   6.314
 6970SOL    HW121809   3.395   4.552   6.336
 6970SOL    HW221810   3.466   4.464   6.218
 6971SOL     OW21811   0.137   4.481   0.459
 6971SOL    HW121812   0.099   4.389   0.463
 6971SOL    HW221813   0.076   4.540   0.407
 6972SOL     OW21814   5.079   3.811   2.443
 6972SOL    HW121815   5.109   3.813   2.348
 6972SOL    HW221816   5.145   3.760   2.498
 6973SOL     OW21817   0.894   3.272   3.464
 6973SOL    HW121818   0.985   3.240   3.438
 6973SOL    HW221819   0.840   3.290   3.381
 6974SOL     OW21820   3.652   3.808   2.529
 6974SOL    HW121821   3.663   3.905   2.554
 6974SOL    HW221822   3.687   3.751   2.603
 6975SOL     OW21823   3.227   5.674   4.928
 6975SOL    HW121824   3.199   5.697   4.834
 6975SOL    HW221825   3.235   5.575   4.936
 6976SOL     OW21826   4.980   3.986   6.002
 6976SOL    HW121827   5.072   3.959   5.975
 6976SOL    HW221828   4.980   4.012   6.099
 6977SOL     OW21829   3.988   4.596   1.075
 6977SOL    HW121830   4.080   4.584   1.039
 6977SOL    HW221831   3.925   4.533   1.029
 6978SOL     OW21832   5.468   3.727   1.827
 6978SOL    HW121833   5.386   3.742   1.771
 6978SOL    HW221834   5.509   3.816   1.850
 6979SOL     OW21835   1.235   3.894   1.810
 6979SOL    HW121836   1.249   3.969   1.874
 6979SOL    HW221837   1.186   3.820   1.857
 6980SOL     OW21838   1.373   6.352   2.827
 6980SOL    HW121839   1.411   6.323   2.916
 6980SOL    HW221840   1.336   6.444   2.835
 6981SOL     OW21841   3.715   3.196   6.606
 6981SOL    HW121842   3.715   3.241   6.696
 6981SOL    HW221843   3.629   3.216   6.559
 6982SOL     OW21844   1.679   0.876   3.794
 6982SOL    HW121845   1.732   0.856   3.876
 6982SOL    HW221846   1.582   0.878   3.816
 6983SOL     OW21847   4.921   0.773   4.005
 6983SOL    HW121848   4.963   0.749   3.917
 6983SOL    HW221849   4.918   0.692   4.063
 6984SOL     OW21850   0.369   2.791   3.230
 6984SOL    HW121851   0.338   2.744   3.147
 6984SOL    HW221852   0.374   2.725   3.305
 6985SOL     OW21853   6.329   3.176   0.449
 6985SOL    HW121854   6.376   3.220   0.373
 6985SOL    HW221855   6.383   3.099   0.482
 6986SOL     OW21856   3.948   4.935   5.509
 6986SOL    HW121857   4.021   4.881   5.550
 6986SOL    HW221858   3.882   4.961   5.579
 6987SOL     OW21859   0.785   1.689   6.091
 6987SOL    HW121860   0.836   1.610   6.057
 6987SOL    HW221861   0.731   1.662   6.171
 6988SOL     OW21862   3.028   1.473   6.360
 6988SOL    HW121863   3.056   1.527   6.280
 6988SOL    HW221864   3.092   1.397   6.373
 6989SOL     OW21865   0.021   5.465   3.115
 6989SOL    HW121866   6.965   5.447   3.052
 6989SOL    HW221867   0.063   5.553   3.093
 6990SOL     OW21868   3.492   2.465   1.506
 6990SOL    HW121869   3.516   2.381   1.457
 6990SOL    HW221870   3.533   2.463   1.597
 6991SOL     OW21871   5.873   3.912   2.354
 6991SOL    HW121872   5.790   3.890   2.406
 6991SOL    HW221873   5.904   3.831   2.306
 6992SOL     OW21874   0.685   6.757   0.099
 6992SOL    HW121875   0.757   6.822   0.074
 6992SOL    HW221876   0.601   6.780   0.050
 6993SOL     OW21877   4.661   1.265   1.788
 6993SOL    HW121878   4.685   1.253   1.884
 6993SOL    HW221879   4.712   1.200   1.733
 6994SOL     OW21880   2.254   0.080   4.122
 6994SOL    HW121881   2.297   0.006   4.174
 6994SOL    HW221882   2.168   0.048   4.082
 6995SOL     OW21883   0.115   3.563   1.245
 6995SOL    HW121884   0.161   3.502   1.309
 6995SOL    HW221885   0.111   3.520   1.155
 6996SOL     OW21886   0.842   1.731   6.782
 6996SOL    HW121887   0.919   1.678   6.747
 6996SOL    HW221888   0.867   1.828   6.789
 6997SOL     OW21889   6.218   5.444   5.206
 6997SOL    HW121890   6.170   5.524   5.240
 6997SOL    HW221891   6.303   5.473   5.162
 6998SOL     OW21892   6.635   1.393   0.034
 6998SOL    HW121893   6.708   1.388   6.986
 6998SOL    HW221894   6.626   1.487   0.067
 6999SOL     OW21895   0.690   3.460   0.546
 6999SOL    HW121896   0.692   3.427   0.641
 6999SOL    HW221897   0.784   3.480   0.516
 7000SOL     OW21898   6.720   0.048   2.732
 7000SOL    HW121899   6.776   0.116   2.686
 7000SOL    HW221900   6.751   0.037   2.826
 7001SOL     OW21901   0.999   1.559   4.512
 7001SOL    HW121902   0.991   1.639   4.451
 7001SOL    HW221903   0.910   1.542   4.555
 7002SOL     OW21904   6.790   5.682   2.925
 7002SOL    HW121905   6.770   5.734   3.008
 7002SOL    HW221906   6.725   5.709   2.853
 7003SOL     OW21907   6.335   4.972   1.293
 7003SOL    HW121908   6.307   4.924   1.210
 7003SOL    HW221909   6.400   5.044   1.270
 7004SOL     OW21910   1.968   5.838   0.107
 7004SOL    HW121911   1.884   5.785   0.097
 7004SOL    HW221912   2.019   5.837   0.021
 7005SOL     OW21913   1.050   6.749   0.049
 7005SOL    HW121914   1.075   6.679   7.003
 7005SOL    HW221915   0.983   6.812   0.008
 7006SOL     OW21916   1.125   0.212   4.595
 7006SOL    HW121917   1.036   0.216   4.550
 7006SOL    HW221918   1.144   0.299   4.641
 7007SOL     OW21919   3.685   6.978   5.471
 7007SOL    HW121920   3.704   0.049   5.504
 7007SOL    HW221921   3.619   6.983   5.395
 7008SOL     OW21922   6.133   4.318   3.798
 7008SOL    HW121923   6.104   4.350   3.708
 7008SOL    HW221924   6.200   4.382   3.837
 7009SOL     OW21925   4.688   5.744   1.206
 7009SOL    HW121926   4.740   5.765   1.289
 7009SOL    HW221927   4.609   5.688   1.229
 7010SOL     OW21928   5.462   3.936   2.089
 7010SOL    HW121929   5.366   3.918   2.066
 7010SOL    HW221930   5.489   4.024   2.051
 7011SOL     OW21931   3.347   6.131   0.014
 7011SOL    HW121932   3.295   6.058   6.990
 7011SOL    HW221933   3.287   6.179   0.078
 7012SOL     OW21934   0.049   2.007   0.344
 7012SOL    HW121935   0.028   1.913   0.317
 7012SOL    HW221936   7.021   2.028   0.428
 7013SOL     OW21937   2.574   1.480   6.702
 7013SOL    HW121938   2.612   1.475   6.794
 7013SOL    HW221939   2.476   1.457   6.705
 7014SOL     OW21940   6.364   3.263   1.608
 7014SOL    HW121941   6.365   3.179   1.662
 7014SOL    HW221942   6.303   3.330   1.652
 7015SOL     OW21943   5.080   5.860   0.845
 7015SOL    HW121944   5.149   5.790   0.863
 7015SOL    HW221945   5.001   5.845   0.904
 7016SOL     OW21946   3.290   5.227   0.478
 7016SOL    HW121947   3.272   5.314   0.433
 7016SOL    HW221948   3.216   5.163   0.456
 7017SOL     OW21949   4.575   5.339   4.193
 7017SOL    HW121950   4.662   5.376   4.160
 7017SOL    HW221951   4.564   5.245   4.160
 7018SOL     OW21952   4.915   3.318   4.053
 7018SOL    HW121953   4.877   3.268   4.131
 7018SOL    HW221954   4.912   3.260   3.972
 7019SOL     OW21955   5.034   5.075   1.934
 7019SOL    HW121956   5.011   4.988   1.889
 7019SOL    HW221957   4.970   5.092   2.008
 7020SOL     OW21958   0.449   2.737   6.260
 7020SOL    HW121959   0.441   2.721   6.359
 7020SOL    HW221960   0.516   2.809   6.243
 7021SOL     OW21961   0.737   2.083   5.129
 7021SOL    HW121962   0.811   2.145   5.155
 7021SOL    HW221963   0.770   2.020   5.058
 7022SOL     OW21964   3.903   1.571   0.674
 7022SOL    HW121965   3.945   1.603   0.758
 7022SOL    HW221966   3.833   1.635   0.644
 7023SOL     OW21967   0.392   2.170   1.262
 7023SOL    HW121968   0.437   2.084   1.238
 7023SOL    HW221969   0.301   2.150   1.299
 7024SOL     OW21970   3.606   3.320   3.762
 7024SOL    HW121971   3.560   3.311   3.851
 7024SOL    HW221972   3.538   3.311   3.689
 7025SOL     OW21973   3.680   6.824   0.445
 7025SOL    HW121974   3.721   6.884   0.514
 7025SOL    HW221975   3.732   6.830   0.360
 7026SOL     OW21976   3.742   2.430   1.063
 7026SOL    HW121977   3.725   2.332   1.073
 7026SOL    HW221978   3.840   2.446   1.052
 7027SOL     OW21979   1.948   5.039   1.923
 7027SOL    HW121980   2.016   5.079   1.861
 7027SOL    HW221981   1.995   4.992   1.998
 7028SOL     OW21982   3.277   0.105   3.256
 7028SOL    HW121983   3.324   0.021   3.285
 7028SOL    HW221984   3.321   0.140   3.173
 7029SOL     OW21985   3.417   3.418   4.991
 7029SOL    HW121986   3.496   3.391   5.045
 7029SOL    HW221987   3.409   3.358   4.911
 7030SOL     OW21988   6.245   1.436   4.972
 7030SOL    HW121989   6.274   1.507   4.908
 7030SOL    HW221990   6.325   1.382   5.000
 7031SOL     OW21991   4.437   6.853   0.515
 7031SOL    HW121992   4.523   6.803   0.526
 7031SOL    HW221993   4.384   6.848   0.600
 7032SOL     OW21994   3.718   6.808   4.812
 7032SOL    HW121995   3.767   6.863   4.745
 7032SOL    HW221996   3.783   6.756   4.867
 7033SOL     OW21997   1.335   2.039   5.258
 7033SOL    HW121998   1.289   2.049   5.346
 7033SOL    HW221999   1.268   2.042   5.184
 7034SOL     OW22000   6.337   1.636   3.133
 7034SOL    HW122001   6.346   1.723   3.181
 7034SOL    HW222002   6.254   1.590   3.163
 7035SOL     OW22003   1.838   0.685   1.012
 7035SOL    HW122004   1.835   0.771   0.960
 7035SOL    HW222005   1.747   0.644   1.013
 7036SOL     OW22006   0.181   1.130   2.019
 7036SOL    HW122007   0.223   1.132   2.110
 7036SOL    HW222008   0.142   1.219   1.998
 7037SOL     OW22009   0.942   0.680   6.192
 7037SOL    HW122010   0.842   0.690   6.196
 7037SOL    HW222011   0.970   0.666   6.097
 7038SOL     OW22012   1.537   2.782   6.385
 7038SOL    HW122013   1.540   2.696   6.437
 7038SOL    HW222014   1.620   2.834   6.403
 7039SOL     OW22015   0.383   6.133   3.037
 7039SOL    HW122016   0.480   6.156   3.041
 7039SOL    HW222017   0.336   6.196   2.975
 7040SOL     OW22018   4.577   2.538   5.371
 7040SOL    HW122019   4.529   2.508   5.289
 7040SOL    HW222020   4.674   2.546   5.352
 7041SOL     OW22021   1.587   0.465   3.647
 7041SOL    HW122022   1.639   0.420   3.719
 7041SOL    HW222023   1.490   0.446   3.660
 7042SOL     OW22024   4.435   6.181   5.336
 7042SOL    HW122025   4.431   6.164   5.434
 7042SOL    HW222026   4.344   6.170   5.296
 7043SOL     OW22027   2.086   4.437   2.461
 7043SOL    HW122028   1.996   4.473   2.434
 7043SOL    HW222029   2.095   4.440   2.560
 7044SOL     OW22030   5.063   6.393   4.018
 7044SOL    HW122031   5.090   6.298   4.004
 7044SOL    HW222032   5.139   6.454   3.993
 7045SOL     OW22033   6.071   5.862   2.688
 7045SOL    HW122034   5.984   5.816   2.708
 7045SOL    HW222035   6.061   5.919   2.606
 7046SOL     OW22036   3.116   2.191   4.488
 7046SOL    HW122037   3.187   2.246   4.444
 7046SOL    HW222038   3.128   2.194   4.587
 7047SOL     OW22039   0.941   6.809   0.449
 7047SOL    HW122040   0.894   6.722   0.430
 7047SOL    HW222041   0.873   6.880   0.467
 7048SOL     OW22042   6.633   5.610   5.007
 7048SOL    HW122043   6.638   5.668   4.926
 7048SOL    HW222044   6.692   5.530   4.994
 7049SOL     OW22045   3.613   1.084   2.559
 7049SOL    HW122046   3.617   1.166   2.501
 7049SOL    HW222047   3.569   1.010   2.509
 7050SOL     OW22048   4.208   3.593   1.061
 7050SOL    HW122049   4.244   3.664   1.122
 7050SOL    HW222050   4.116   3.568   1.090
 7051SOL     OW22051   0.621   0.332   1.224
 7051SOL    HW122052   0.685   0.403   1.197
 7051SOL    HW222053   0.633   0.311   1.321
 7052SOL     OW22054   5.847   0.298   2.247
 7052SOL    HW122055   5.939   0.263   2.233
 7052SOL    HW222056   5.811   0.334   2.161
 7053SOL     OW22057   1.768   2.672   3.745
 7053SOL    HW122058   1.803   2.581   3.766
 7053SOL    HW222059   1.793   2.697   3.651
 7054SOL     OW22060   6.794   0.399   0.490
 7054SOL    HW122061   6.793   0.432   0.396
 7054SOL    HW222062   6.706   0.356   0.512
 7055SOL     OW22063   2.422   0.596   6.755
 7055SOL    HW122064   2.440   0.695   6.757
 7055SOL    HW222065   2.338   0.576   6.805
 7056SOL     OW22066   6.935   5.185   1.465
 7056SOL    HW122067   6.966   5.265   1.517
 7056SOL    HW222068   6.838   5.196   1.441
 7057SOL     OW22069   3.218   4.902   5.064
 7057SOL    HW122070   3.315   4.913   5.042
 7057SOL    HW222071   3.198   4.944   5.152
 7058SOL     OW22072   5.259   2.903   5.866
 7058SOL    HW122073   5.201   2.983   5.851
 7058SOL    HW222074   5.262   2.882   5.964
 7059SOL     OW22075   1.911   0.687   4.948
 7059SOL    HW122076   1.895   0.630   5.029
 7059SOL    HW222077   1.962   0.635   4.880
 7060SOL     OW22078   3.459   0.421   2.361
 7060SOL    HW122079   3.373   0.400   2.315
 7060SOL    HW222080   3.510   0.336   2.377
 7061SOL     OW22081   1.120   2.388   3.147
 7061SOL    HW122082   1.142   2.482   3.172
 7061SOL    HW222083   1.140   2.327   3.224
 7062SOL     OW22084   3.783   1.616   3.202
 7062SOL    HW122085   3.875   1.601   3.241
 7062SOL    HW222086   3.770   1.713   3.185
 7063SOL     OW22087   0.847   0.897   2.039
 7063SOL    HW122088   0.922   0.953   2.073
 7063SOL    HW222089   0.798   0.857   2.117
 7064SOL     OW22090   4.673   2.044   5.217
 7064SOL    HW122091   4.631   1.954   5.228
 7064SOL    HW222092   4.603   2.115   5.232
 7065SOL     OW22093   3.636   4.194   5.648
 7065SOL    HW122094   3.565   4.207   5.579
 7065SOL    HW222095   3.683   4.280   5.665
 7066SOL     OW22096   3.888   0.360   0.007
 7066SOL    HW122097   3.906   0.385   6.933
 7066SOL    HW222098   3.898   0.262   0.019
 7067SOL     OW22099   1.777   3.477   6.967
 7067SOL    HW122100   1.680   3.473   6.993
 7067SOL    HW222101   1.797   3.402   6.905
 7068SOL     OW22102   4.914   4.059   4.291
 7068SOL    HW122103   4.985   4.129   4.280
 7068SOL    HW222104   4.934   4.005   4.373
 7069SOL     OW22105   5.749   6.853   6.354
 7069SOL    HW122106   5.750   6.917   6.277
 7069SOL    HW222107   5.704   6.895   6.432
 7070SOL     OW22108   0.403   6.538   4.965
 7070SOL    HW122109   0.343   6.484   5.025
 7070SOL    HW222110   0.497   6.534   4.999
 7071SOL     OW22111   5.076   5.942   6.039
 7071SOL    HW122112   5.025   5.977   6.118
 7071SOL    HW222113   5.127   6.017   5.997
 7072SOL     OW22114   0.041   3.521   6.747
 7072SOL    HW122115   7.012   3.447   6.701
 7072SOL    HW222116   7.007   3.605   6.743
 7073SOL     OW22117   5.404   1.299   3.039
 7073SOL    HW122118   5.486   1.250   3.070
 7073SOL    HW222119   5.343   1.313   3.118
 7074SOL     OW22120   5.374   4.155   2.782
 7074SOL    HW122121   5.370   4.116   2.690
 7074SOL    HW222122   5.286   4.143   2.827
 7075SOL     OW22123   3.461   5.541   3.796
 7075SOL    HW122124   3.530   5.501   3.856
 7075SOL    HW222125   3.443   5.480   3.720
 7076SOL     OW22126   5.725   2.725   2.300
 7076SOL    HW122127   5.697   2.820   2.318
 7076SOL    HW222128   5.790   2.724   2.224
 7077SOL     OW22129   3.364   5.562   0.944
 7077SOL    HW122130   3.314   5.648   0.954
 7077SOL    HW222131   3.328   5.494   1.008
 7078SOL     OW22132   4.981   0.149   0.163
 7078SOL    HW122133   4.921   0.091   0.108
 7078SOL    HW222134   4.928   0.192   0.236
 7079SOL     OW22135   1.402   0.124   4.464
 7079SOL    HW122136   1.440   0.031   4.466
 7079SOL    HW222137   1.307   0.120   4.433
 7080SOL     OW22138   4.212   1.670   5.133
 7080SOL    HW122139   4.179   1.762   5.155
 7080SOL    HW222140   4.213   1.657   5.034
 7081SOL     OW22141   1.450   1.399   0.083
 7081SOL    HW122142   1.449   1.322   0.147
 7081SOL    HW222143   1.502   1.375   0.002
 7082SOL     OW22144   6.347   4.575   2.911
 7082SOL    HW122145   6.412   4.502   2.933
 7082SOL    HW222146   6.350   4.595   2.813
 7083SOL     OW22147   6.934   3.299   2.559
 7083SOL    HW122148   6.921   3.251   2.646
 7083SOL    HW222149   6.853   3.353   2.538
 7084SOL     OW22150   0.833   5.463   6.924
 7084SOL    HW122151   0.814   5.554   6.958
 7084SOL    HW222152   0.794   5.394   6.985
 7085SOL     OW22153   1.086   3.241   1.992
 7085SOL    HW122154   1.059   3.312   2.056
 7085SOL    HW222155   1.131   3.283   1.913
 7086SOL     OW22156   5.684   1.105   4.256
 7086SOL    HW122157   5.591   1.070   4.268
 7086SOL    HW222158   5.692   1.147   4.165
 7087SOL     OW22159   5.460   3.172   3.245
 7087SOL    HW122160   5.398   3.132   3.313
 7087SOL    HW222161   5.438   3.135   3.155
 7088SOL     OW22162   6.119   1.889   4.870
 7088SOL    HW122163   6.043   1.953   4.871
 7088SOL    HW222164   6.118   1.834   4.954
 7089SOL     OW22165   3.140   5.566   1.723
 7089SOL    HW122166   3.087   5.647   1.749
 7089SOL    HW222167   3.083   5.505   1.668
 7090SOL     OW22168   4.656   1.887   1.406
 7090SOL    HW122169   4.748   1.913   1.375
 7090SOL    HW222170   4.661   1.853   1.500
 7091SOL     OW22171   0.171   6.747   6.220
 7091SOL    HW122172   0.216   6.670   6.175
 7091SOL    HW222173   0.073   6.744   6.203
 7092SOL     OW22174   4.397   1.823   6.725
 7092SOL    HW122175   4.464   1.751   6.707
 7092SOL    HW222176   4.330   1.792   6.792
 7093SOL     OW22177   3.406   3.624   1.190
 7093SOL    HW122178   3.464   3.543   1.199
 7093SOL    HW222179   3.402   3.673   1.277
 7094SOL     OW22180   3.113   0.277   5.078
 7094SOL    HW122181   3.125   0.237   4.987
 7094SOL    HW222182   3.166   0.224   5.144
 7095SOL     OW22183   2.659   4.709   5.231
 7095SOL    HW122184   2.629   4.791   5.183
 7095SOL    HW222185   2.732   4.664   5.179
 7096SOL     OW22186   6.990   0.863   1.098
 7096SOL    HW122187   0.019   0.923   1.161
 7096SOL    HW222188   6.947   0.788   1.150
 7097SOL     OW22189   4.808   0.749   1.826
 7097SOL    HW122190   4.808   0.668   1.884
 7097SOL    HW222191   4.717   0.791   1.827
 7098SOL     OW22192   1.060   6.396   4.142
 7098SOL    HW122193   1.039   6.358   4.052
 7098SOL    HW222194   0.991   6.366   4.208
 7099SOL     OW22195   3.170   2.139   4.130
 7099SOL    HW122196   3.176   2.099   4.222
 7099SOL    HW222197   3.076   2.167   4.113
 7100SOL     OW22198   5.828   4.030   1.319
 7100SOL    HW122199   5.818   4.001   1.224
 7100SOL    HW222200   5.892   3.969   1.366
 7101SOL     OW22201   2.099   6.481   5.317
 7101SOL    HW122202   2.143   6.395   5.290
 7101SOL    HW222203   2.001   6.474   5.300
 7102SOL     OW22204   5.833   0.730   1.574
 7102SOL    HW122205   5.849   0.672   1.654
 7102SOL    HW222206   5.785   0.813   1.603
 7103SOL     OW22207   4.652   4.295   3.055
 7103SOL    HW122208   4.583   4.346   3.004
 7103SOL    HW222209   4.664   4.336   3.145
 7104SOL     OW22210   5.235   3.717   3.714
 7104SOL    HW122211   5.194   3.660   3.642
 7104SOL    HW222212   5.254   3.808   3.677
 7105SOL     OW22213   3.324   4.115   4.257
 7105SOL    HW122214   3.244   4.055   4.250
 7105SOL    HW222215   3.319   4.186   4.187
 7106SOL     OW22216   2.986   3.014   1.110
 7106SOL    HW122217   2.929   2.932   1.105
 7106SOL    HW222218   3.082   2.986   1.124
 7107SOL     OW22219   3.505   0.571   6.577
 7107SOL    HW122220   3.590   0.622   6.564
 7107SOL    HW222221   3.455   0.567   6.490
 7108SOL     OW22222   3.991   0.249   2.358
 7108SOL    HW122223   4.070   0.247   2.296
 7108SOL    HW222224   3.907   0.239   2.305
 7109SOL     OW22225   2.080   6.513   5.906
 7109SOL    HW122226   2.177   6.512   5.881
 7109SOL    HW222227   2.032   6.443   5.853
 7110SOL     OW22228   3.402   6.371   4.366
 7110SOL    HW122229   3.500   6.387   4.377
 7110SOL    HW222230   3.382   6.351   4.270
 7111SOL     OW22231   6.993   0.352   4.416
 7111SOL    HW122232   0.013   0.387   4.500
 7111SOL    HW222233   0.042   0.345   4.345
 7112SOL     OW22234   1.871   5.210   4.605
 7112SOL    HW122235   1.964   5.179   4.627
 7112SOL    HW222236   1.840   5.274   4.675
 7113SOL     OW22237   3.921   5.126   5.784
 7113SOL    HW122238   3.893   5.220   5.763
 7113SOL    HW222239   3.998   5.127   5.847
 7114SOL     OW22240   5.039   5.457   0.533
 7114SOL    HW122241   5.113   5.422   0.476
 7114SOL    HW222242   5.076   5.484   0.622
 7115SOL     OW22243   6.204   3.911   0.023
 7115SOL    HW122244   6.188   3.954   6.955
 7115SOL    HW222245   6.298   3.929   0.053
 7116SOL     OW22246   6.563   4.237   4.180
 7116SOL    HW122247   6.588   4.320   4.230
 7116SOL    HW222248   6.464   4.223   4.187
 7117SOL     OW22249   6.021   6.943   3.067
 7117SOL    HW122250   5.943   6.965   3.126
 7117SOL    HW222251   6.072   0.007   3.048
 7118SOL     OW22252   4.287   4.270   5.314
 7118SOL    HW122253   4.234   4.187   5.334
 7118SOL    HW222254   4.237   4.324   5.246
 7119SOL     OW22255   3.622   6.231   5.295
 7119SOL    HW122256   3.707   6.251   5.344
 7119SOL    HW222257   3.601   6.307   5.233
 7120SOL     OW22258   4.898   0.706   0.574
 7120SOL    HW122259   4.982   0.677   0.620
 7120SOL    HW222260   4.861   0.788   0.619
 7121SOL     OW22261   1.671   6.143   2.456
 7121SOL    HW122262   1.617   6.224   2.479
 7121SOL    HW222263   1.743   6.130   2.524
 7122SOL     OW22264   2.442   0.949   6.171
 7122SOL    HW122265   2.423   0.874   6.109
 7122SOL    HW222266   2.447   1.035   6.120
 7123SOL     OW22267   4.979   5.138   5.984
 7123SOL    HW122268   4.946   5.142   5.890
 7123SOL    HW222269   4.901   5.130   6.047
 7124SOL     OW22270   1.774   2.355   1.283
 7124SOL    HW122271   1.690   2.302   1.299
 7124SOL    HW222272   1.772   2.438   1.339
 7125SOL     OW22273   1.409   6.135   1.086
 7125SOL    HW122274   1.360   6.047   1.085
 7125SOL    HW222275   1.446   6.151   1.177
 7126SOL     OW22276   3.761   5.627   1.333
 7126SOL    HW122277   3.729   5.608   1.426
 7126SOL    HW222278   3.685   5.664   1.279
 7127SOL     OW22279   2.566   0.167   5.156
 7127SOL    HW122280   2.537   0.146   5.063
 7127SOL    HW222281   2.653   0.217   5.153
 7128SOL     OW22282   4.292   3.856   6.234
 7128SOL    HW122283   4.300   3.954   6.252
 7128SOL    HW222284   4.220   3.839   6.167
 7129SOL     OW22285   0.758   7.005   0.563
 7129SOL    HW122286   0.799   0.012   0.650
 7129SOL    HW222287   0.734   0.065   0.510
 7130SOL     OW22288   3.524   6.878   4.331
 7130SOL    HW122289   3.557   6.945   4.265
 7130SOL    HW222290   3.517   6.921   4.421
 7131SOL     OW22291   3.803   1.089   2.823
 7131SOL    HW122292   3.714   1.130   2.802
 7131SOL    HW222293   3.854   1.151   2.883
 7132SOL     OW22294   5.517   4.454   0.923
 7132SOL    HW122295   5.479   4.519   0.858
 7132SOL    HW222296   5.617   4.458   0.919
 7133SOL     OW22297   4.132   5.346   2.856
 7133SOL    HW122298   4.113   5.268   2.916
 7133SOL    HW222299   4.135   5.430   2.910
 7134SOL     OW22300   5.622   5.275   0.973
 7134SOL    HW122301   5.595   5.183   0.945
 7134SOL    HW222302   5.721   5.286   0.961
 7135SOL     OW22303   2.069   3.067   1.070
 7135SOL    HW122304   2.150   3.038   1.019
 7135SOL    HW222305   1.997   2.998   1.060
 7136SOL     OW22306   1.968   1.648   1.887
 7136SOL    HW122307   2.012   1.656   1.976
 7136SOL    HW222308   2.036   1.658   1.814
 7137SOL     OW22309   2.640   2.379   1.293
 7137SOL    HW122310   2.732   2.370   1.332
 7137SOL    HW222311   2.647   2.394   1.194
 7138SOL     OW22312   0.968   2.262   0.954
 7138SOL    HW122313   0.882   2.228   0.915
 7138SOL    HW222314   1.034   2.187   0.959
 7139SOL     OW22315   6.410   6.143   1.027
 7139SOL    HW122316   6.405   6.109   1.121
 7139SOL    HW222317   6.506   6.147   0.998
 7140SOL     OW22318   6.921   3.198   0.428
 7140SOL    HW122319   6.913   3.233   0.522
 7140SOL    HW222320   6.910   3.273   0.364
 7141SOL     OW22321   3.686   0.501   1.109
 7141SOL    HW122322   3.591   0.490   1.082
 7141SOL    HW222323   3.719   0.416   1.150
 7142SOL     OW22324   3.213   0.113   4.874
 7142SOL    HW122325   3.311   0.113   4.856
 7142SOL    HW222326   3.162   0.108   4.788
 7143SOL     OW22327   3.025   4.616   6.662
 7143SOL    HW122328   2.973   4.555   6.721
 7143SOL    HW222329   3.050   4.699   6.713
 7144SOL     OW22330   6.684   0.408   5.312
 7144SOL    HW122331   6.597   0.361   5.325
 7144SOL    HW222332   6.760   0.345   5.329
 7145SOL     OW22333   4.900   2.193   6.309
 7145SOL    HW122334   4.947   2.146   6.234
 7145SOL    HW222335   4.922   2.290   6.306
 7146SOL     OW22336   1.649   1.932   5.545
 7146SOL    HW122337   1.589   1.886   5.479
 7146SOL    HW222338   1.738   1.887   5.546
 7147SOL     OW22339   6.167   6.235   1.906
 7147SOL    HW122340   6.235   6.162   1.903
 7147SOL    HW222341   6.210   6.322   1.883
 7148SOL     OW22342   6.517   6.884   0.983
 7148SOL    HW122343   6.442   6.818   0.985
 7148SOL    HW222344   6.567   6.874   0.897
 7149SOL     OW22345   6.095   4.697   5.365
 7149SOL    HW122346   6.156   4.629   5.406
 7149SOL    HW222347   6.021   4.719   5.429
 7150SOL     OW22348   3.746   3.361   6.814
 7150SOL    HW122349   3.723   3.431   6.881
 7150SOL    HW222350   3.846   3.349   6.811
 7151SOL     OW22351   3.637   0.920   1.255
 7151SOL    HW122352   3.693   0.844   1.221
 7151SOL    HW222353   3.696   0.989   1.297
 7152SOL     OW22354   6.081   1.184   6.163
 7152SOL    HW122355   6.052   1.195   6.068
 7152SOL    HW222356   6.089   1.273   6.206
 7153SOL     OW22357   3.551   6.165   1.284
 7153SOL    HW122358   3.525   6.249   1.236
 7153SOL    HW222359   3.574   6.186   1.379
 7154SOL     OW22360   4.302   1.739   2.130
 7154SOL    HW122361   4.306   1.664   2.063
 7154SOL    HW222362   4.214   1.785   2.123
 7155SOL     OW22363   2.876   1.262   2.050
 7155SOL    HW122364   2.889   1.331   2.120
 7155SOL    HW222365   2.823   1.300   1.974
 7156SOL     OW22366   6.172   3.507   6.787
 7156SOL    HW122367   6.128   3.493   6.876
 7156SOL    HW222368   6.219   3.596   6.787
 7157SOL     OW22369   6.465   4.713   6.636
 7157SOL    HW122370   6.520   4.654   6.695
 7157SOL    HW222371   6.489   4.698   6.541
 7158SOL     OW22372   4.309   6.636   4.144
 7158SOL    HW122373   4.341   6.628   4.050
 7158SOL    HW222374   4.241   6.565   4.163
 7159SOL     OW22375   1.059   6.288   3.122
 7159SOL    HW122376   1.040   6.323   3.030
 7159SOL    HW222377   1.074   6.189   3.116
 7160SOL     OW22378   6.834   0.099   3.565
 7160SOL    HW122379   6.836   0.166   3.639
 7160SOL    HW222380   6.796   0.013   3.599
 7161SOL     OW22381   4.103   3.428   3.342
 7161SOL    HW122382   4.128   3.504   3.401
 7161SOL    HW222383   4.005   3.409   3.352
 7162SOL     OW22384   0.421   6.117   1.252
 7162SOL    HW122385   0.475   6.045   1.294
 7162SOL    HW222386   0.326   6.111   1.284
 7163SOL     OW22387   0.332   1.680   2.538
 7163SOL    HW122388   0.302   1.643   2.625
 7163SOL    HW222389   0.355   1.777   2.549
 7164SOL     OW22390   2.008   0.962   6.521
 7164SOL    HW122391   2.098   0.968   6.479
 7164SOL    HW222392   1.965   1.053   6.521
 7165SOL     OW22393   5.586   1.239   0.310
 7165SOL    HW122394   5.621   1.261   0.401
 7165SOL    HW222395   5.533   1.155   0.314
 7166SOL     OW22396   6.061   6.355   5.949
 7166SOL    HW122397   6.149   6.352   5.997
 7166SOL    HW222398   6.063   6.293   5.870
 7167SOL     OW22399   5.984   2.301   4.572
 7167SOL    HW122400   5.908   2.242   4.542
 7167SOL    HW222401   5.954   2.396   4.570
 7168SOL     OW22402   2.692   1.365   1.894
 7168SOL    HW122403   2.666   1.443   1.837
 7168SOL    HW222404   2.623   1.293   1.887
 7169SOL     OW22405   1.376   3.780   6.644
 7169SOL    HW122406   1.408   3.744   6.557
 7169SOL    HW222407   1.454   3.811   6.698
 7170SOL     OW22408   3.653   1.352   0.746
 7170SOL    HW122409   3.752   1.362   0.749
 7170SOL    HW222410   3.614   1.424   0.688
 7171SOL     OW22411   6.777   4.384   0.820
 7171SOL    HW122412   6.791   4.479   0.846
 7171SOL    HW222413   6.744   4.332   0.899
 7172SOL     OW22414   1.654   1.627   4.107
 7172SOL    HW122415   1.575   1.570   4.083
 7172SOL    HW222416   1.734   1.595   4.058
 7173SOL     OW22417   4.666   5.580   6.178
 7173SOL    HW122418   4.703   5.526   6.103
 7173SOL    HW222419   4.636   5.669   6.143
 7174SOL     OW22420   6.667   4.271   2.002
 7174SOL    HW122421   6.649   4.359   1.957
 7174SOL    HW222422   6.709   4.287   2.091
 7175SOL     OW22423   5.871   3.447   6.749
 7175SOL    HW122424   5.906   3.500   6.826
 7175SOL    HW222425   5.777   3.418   6.768
 7176SOL     OW22426   0.743   0.693   5.513
 7176SOL    HW122427   0.667   0.650   5.465
 7176SOL    HW222428   0.739   0.668   5.610
 7177SOL     OW22429   1.532   5.429   3.651
 7177SOL    HW122430   1.615   5.402   3.602
 7177SOL    HW222431   1.453   5.387   3.607
 7178SOL     OW22432   1.539   0.558   4.980
 7178SOL    HW122433   1.581   0.628   5.038
 7178SOL    HW222434   1.441   0.577   4.971
 7179SOL     OW22435   3.475   5.834   6.412
 7179SOL    HW122436   3.548   5.860   6.476
 7179SOL    HW222437   3.429   5.916   6.379
 7180SOL     OW22438   1.628   4.180   1.364
 7180SOL    HW122439   1.728   4.178   1.368
 7180SOL    HW222440   1.590   4.167   1.455
 7181SOL     OW22441   2.589   1.855   5.781
 7181SOL    HW122442   2.632   1.944   5.765
 7181SOL    HW222443   2.530   1.833   5.704
 7182SOL     OW22444   1.530   1.818   4.838
 7182SOL    HW122445   1.502   1.725   4.860
 7182SOL    HW222446   1.585   1.818   4.754
 7183SOL     OW22447   1.039   6.775   1.818
 7183SOL    HW122448   0.977   6.832   1.872
 7183SOL    HW222449   1.131   6.812   1.823
 7184SOL     OW22450   6.183   6.751   3.993
 7184SOL    HW122451   6.109   6.741   4.058
 7184SOL    HW222452   6.151   6.726   3.901
 7185SOL     OW22453   4.140   1.228   4.289
 7185SOL    HW122454   4.150   1.307   4.229
 7185SOL    HW222455   4.218   1.223   4.352
 7186SOL     OW22456   0.554   0.230   6.645
 7186SOL    HW122457   0.599   0.316   6.670
 7186SOL    HW222458   0.548   0.224   6.546
 7187SOL     OW22459   3.195   3.022   3.994
 7187SOL    HW122460   3.137   3.021   3.913
 7187SOL    HW222461   3.181   3.108   4.044
 7188SOL     OW22462   3.501   4.074   6.876
 7188SOL    HW122463   3.518   3.991   6.929
 7188SOL    HW222464   3.545   4.152   6.920
 7189SOL     OW22465   6.341   2.602   5.698
 7189SOL    HW122466   6.245   2.574   5.706
 7189SOL    HW222467   6.387   2.547   5.629
 7190SOL     OW22468   6.022   5.371   1.657
 7190SOL    HW122469   6.080   5.449   1.633
 7190SOL    HW222470   5.933   5.381   1.613
 7191SOL     OW22471   0.242   4.704   4.066
 7191SOL    HW122472   0.266   4.611   4.039
 7191SOL    HW222473   0.218   4.757   3.985
 7192SOL     OW22474   2.008   4.387   6.739
 7192SOL    HW122475   2.008   4.319   6.666
 7192SOL    HW222476   1.919   4.434   6.742
 7193SOL     OW22477   2.606   2.121   2.328
 7193SOL    HW122478   2.560   2.095   2.412
 7193SOL    HW222479   2.551   2.091   2.249
 7194SOL     OW22480   2.922   2.791   6.248
 7194SOL    HW122481   2.829   2.814   6.218
 7194SOL    HW222482   2.975   2.875   6.259
 7195SOL     OW22483   0.042   4.085   5.479
 7195SOL    HW122484   0.059   4.014   5.410
 7195SOL    HW222485   0.095   4.065   5.562
 7196SOL     OW22486   3.340   4.178   1.758
 7196SOL    HW122487   3.434   4.169   1.792
 7196SOL    HW222488   3.338   4.153   1.661
 7197SOL     OW22489   2.579   3.664   5.669
 7197SOL    HW122490   2.592   3.643   5.572
 7197SOL    HW222491   2.513   3.739   5.679
 7198SOL     OW22492   0.383   0.277   1.879
 7198SOL    HW122493   0.380   0.295   1.780
 7198SOL    HW222494   0.290   0.258   1.912
 7199SOL     OW22495   0.297   0.968   2.508
 7199SOL    HW122496   0.233   1.012   2.572
 7199SOL    HW222497   0.259   0.972   2.415
 7200SOL     OW22498   0.964   2.510   1.079
 7200SOL    HW122499   0.880   2.497   1.133
 7200SOL    HW222500   1.001   2.421   1.053
 7201SOL     OW22501   5.521   5.418   4.027
 7201SOL    HW122502   5.421   5.428   4.032
 7201SOL    HW222503   5.558   5.482   3.960
 7202SOL     OW22504   4.861   0.573   5.476
 7202SOL    HW122505   4.792   0.634   5.435
 7202SOL    HW222506   4.822   0.527   5.555
 7203SOL     OW22507   0.464   1.749   1.157
 7203SOL    HW122508   0.454   1.740   1.256
 7203SOL    HW222509   0.560   1.740   1.132
 7204SOL     OW22510   6.561   0.223   1.536
 7204SOL    HW122511   6.652   0.264   1.541
 7204SOL    HW222512   6.570   0.125   1.522
 7205SOL     OW22513   3.166   1.915   4.545
 7205SOL    HW122514   3.140   2.011   4.531
 7205SOL    HW222515   3.087   1.856   4.529
 7206SOL     OW22516   1.887   3.198   0.653
 7206SOL    HW122517   1.967   3.137   0.646
 7206SOL    HW222518   1.914   3.290   0.627
 7207SOL     OW22519   1.804   1.188   4.185
 7207SOL    HW122520   1.799   1.215   4.281
 7207SOL    HW222521   1.900   1.173   4.159
 7208SOL     OW22522   3.007   0.493   4.188
 7208SOL    HW122523   2.990   0.564   4.120
 7208SOL    HW222524   2.921   0.470   4.234
 7209SOL     OW22525   2.961   1.745   2.322
 7209SOL    HW122526   3.015   1.715   2.400
 7209SOL    HW222527   2.870   1.771   2.354
 7210SOL     OW22528   2.929   1.291   3.373
 7210SOL    HW122529   2.989   1.264   3.448
 7210SOL    HW222530   2.835   1.261   3.393
 7211SOL     OW22531   3.263   5.411   4.916
 7211SOL    HW122532   3.360   5.408   4.894
 7211SOL    HW222533   3.245   5.359   4.999
 7212SOL     OW22534   6.603   4.026   6.014
 7212SOL    HW122535   6.687   4.057   5.969
 7212SOL    HW222536   6.607   4.050   6.111
 7213SOL     OW22537   3.960   1.567   0.410
 7213SOL    HW122538   3.945   1.565   0.509
 7213SOL    HW222539   4.023   1.641   0.388
 7214SOL     OW22540   0.055   0.842   6.454
 7214SOL    HW122541   0.094   0.933   6.440
 7214SOL    HW222542   7.006   0.825   6.384
 7215SOL     OW22543   6.958   3.013   2.595
 7215SOL    HW122544   6.986   3.070   2.518
 7215SOL    HW222545   0.006   2.942   2.611
 7216SOL     OW22546   3.356   6.056   2.562
 7216SOL    HW122547   3.360   5.977   2.623
 7216SOL    HW222548   3.284   6.041   2.494
 7217SOL     OW22549   1.147   3.539   3.423
 7217SOL    HW122550   1.109   3.572   3.509
 7217SOL    HW222551   1.113   3.597   3.348
 7218SOL     OW22552   6.533   4.761   4.776
 7218SOL    HW122553   6.441   4.800   4.766
 7218SOL    HW222554   6.548   4.737   4.872
 7219SOL     OW22555   3.427   5.986   2.104
 7219SOL    HW122556   3.459   6.075   2.073
 7219SOL    HW222557   3.401   5.930   2.025
 7220SOL     OW22558   5.774   4.609   4.654
 7220SOL    HW122559   5.857   4.611   4.599
 7220SOL    HW222560   5.724   4.695   4.642
 7221SOL     OW22561   3.709   5.827   4.310
 7221SOL    HW122562   3.637   5.871   4.363
 7221SOL    HW222563   3.709   5.729   4.329
 7222SOL     OW22564   0.228   6.288   4.379
 7222SOL    HW122565   0.302   6.353   4.362
 7222SOL    HW222566   0.183   6.309   4.465
 7223SOL     OW22567   0.419   2.945   1.597
 7223SOL    HW122568   0.409   2.955   1.498
 7223SOL    HW222569   0.478   2.867   1.616
 7224SOL     OW22570   3.831   2.111   3.343
 7224SOL    HW122571   3.826   2.085   3.440
 7224SOL    HW222572   3.740   2.140   3.312
 7225SOL     OW22573   1.281   0.138   0.818
 7225SOL    HW122574   1.288   0.163   0.915
 7225SOL    HW222575   1.228   0.054   0.809
 7226SOL     OW22576   6.248   6.365   0.989
 7226SOL    HW122577   6.308   6.413   0.923
 7226SOL    HW222578   6.286   6.275   1.009
 7227SOL     OW22579   2.511   1.133   1.865
 7227SOL    HW122580   2.575   1.058   1.852
 7227SOL    HW222581   2.461   1.120   1.951
 7228SOL     OW22582   0.175   3.611   2.148
 7228SOL    HW122583   0.229   3.613   2.232
 7228SOL    HW222584   0.123   3.696   2.140
 7229SOL     OW22585   0.284   0.213   4.753
 7229SOL    HW122586   0.270   0.186   4.848
 7229SOL    HW222587   0.252   0.140   4.693
 7230SOL     OW22588   2.153   5.091   4.554
 7230SOL    HW122589   2.221   5.076   4.483
 7230SOL    HW222590   2.195   5.075   4.644
 7231SOL     OW22591   4.716   1.313   6.190
 7231SOL    HW122592   4.652   1.278   6.258
 7231SOL    HW222593   4.803   1.335   6.235
 7232SOL     OW22594   5.779   6.796   3.030
 7232SOL    HW122595   5.845   6.850   2.979
 7232SOL    HW222596   5.690   6.841   3.028
 7233SOL     OW22597   6.389   1.148   5.105
 7233SOL    HW122598   6.419   1.243   5.097
 7233SOL    HW222599   6.454   1.089   5.058
 7234SOL     OW22600   5.073   4.040   2.728
 7234SOL    HW122601   4.994   4.011   2.674
 7234SOL    HW222602   5.144   3.969   2.723
 7235SOL     OW22603   0.474   6.367   1.165
 7235SOL    HW122604   0.481   6.370   1.066
 7235SOL    HW222605   0.469   6.272   1.196
 7236SOL     OW22606   2.370   2.705   3.473
 7236SOL    HW122607   2.468   2.689   3.461
 7236SOL    HW222608   2.355   2.765   3.551
 7237SOL     OW22609   5.238   0.932   0.201
 7237SOL    HW122610   5.159   0.881   0.236
 7237SOL    HW222611   5.240   0.926   0.101
 7238SOL     OW22612   4.409   2.950   0.635
 7238SOL    HW122613   4.478   3.015   0.668
 7238SOL    HW222614   4.363   2.988   0.554
 7239SOL     OW22615   0.545   3.116   2.415
 7239SOL    HW122616   0.541   3.163   2.327
 7239SOL    HW222617   0.632   3.068   2.423
 7240SOL     OW22618   6.977   1.862   5.848
 7240SOL    HW122619   0.025   1.876   5.920
 7240SOL    HW222620   6.944   1.951   5.816
 7241SOL     OW22621   2.890   1.928   2.083
 7241SOL    HW122622   2.927   1.893   2.169
 7241SOL    HW222623   2.889   1.855   2.015
 7242SOL     OW22624   6.808   5.386   5.004
 7242SOL    HW122625   6.786   5.302   4.955
 7242SOL    HW222626   6.829   5.365   5.100
 7243SOL     OW22627   6.296   3.784   6.656
 7243SOL    HW122628   6.318   3.702   6.603
 7243SOL    HW222629   6.369   3.802   6.721
 7244SOL     OW22630   6.930   6.637   6.596
 7244SOL    HW122631   7.015   6.680   6.567
 7244SOL    HW222632   6.940   6.602   6.689
 7245SOL     OW22633   1.258   2.890   6.663
 7245SOL    HW122634   1.168   2.879   6.704
 7245SOL    HW222635   1.307   2.803   6.667
 7246SOL     OW22636   3.174   0.240   3.920
 7246SOL    HW122637   3.192   0.164   3.982
 7246SOL    HW222638   3.246   0.309   3.932
 7247SOL     OW22639   2.515   2.564   5.346
 7247SOL    HW122640   2.521   2.567   5.446
 7247SOL    HW222641   2.540   2.473   5.313
 7248SOL     OW22642   3.625   0.954   4.551
 7248SOL    HW122643   3.559   0.902   4.605
 7248SOL    HW222644   3.666   1.025   4.607
 7249SOL     OW22645   3.749   5.317   1.545
 7249SOL    HW122646   3.659   5.341   1.511
 7249SOL    HW222647   3.740   5.269   1.633
 7250SOL     OW22648   5.057   5.886   5.374
 7250SOL    HW122649   4.990   5.818   5.406
 7250SOL    HW222650   5.032   5.915   5.282
 7251SOL     OW22651   0.347   6.026   5.532
 7251SOL    HW122652   0.293   5.946   5.560
 7251SOL    HW222653   0.445   6.005   5.541
 7252SOL     OW22654   3.013   3.953   2.049
 7252SOL    HW122655   3.100   3.907   2.034
 7252SOL    HW222656   2.970   3.975   1.961
 7253SOL     OW22657   1.422   5.462   5.355
 7253SOL    HW122658   1.522   5.457   5.344
 7253SOL    HW222659   1.378   5.407   5.284
 7254SOL     OW22660   5.015   4.159   3.858
 7254SOL    HW122661   4.983   4.120   3.945
 7254SOL    HW222662   4.965   4.117   3.783
 7255SOL     OW22663   5.138   3.213   6.650
 7255SOL    HW122664   5.203   3.247   6.582
 7255SOL    HW222665   5.105   3.123   6.623
 7256SOL     OW22666   3.526   6.447   6.384
 7256SOL    HW122667   3.599   6.513   6.402
 7256SOL    HW222668   3.563   6.369   6.334
 7257SOL     OW22669   0.798   1.185   4.613
 7257SOL    HW122670   0.737   1.131   4.555
 7257SOL    HW222671   0.751   1.208   4.698
 7258SOL     OW22672   5.749   1.988   3.060
 7258SOL    HW122673   5.701   1.928   3.124
 7258SOL    HW222674   5.754   1.943   2.970
 7259SOL     OW22675   0.843   3.959   3.023
 7259SOL    HW122676   0.874   3.870   2.991
 7259SOL    HW222677   0.747   3.954   3.050
 7260SOL     OW22678   5.297   2.810   0.367
 7260SOL    HW122679   5.375   2.831   0.309
 7260SOL    HW222680   5.285   2.711   0.374
 7261SOL     OW22681   0.159   4.011   0.518
 7261SOL    HW122682   0.120   3.928   0.480
 7261SOL    HW222683   0.112   4.091   0.481
 7262SOL     OW22684   5.726   2.154   5.984
 7262SOL    HW122685   5.726   2.057   5.960
 7262SOL    HW222686   5.804   2.200   5.941
 7263SOL     OW22687   0.680   5.320   0.058
 7263SOL    HW122688   0.693   5.338   0.156
 7263SOL    HW222689   0.599   5.369   0.026
 7264SOL     OW22690   5.429   1.031   0.361
 7264SOL    HW122691   5.370   0.990   0.291
 7264SOL    HW222692   5.382   1.027   0.449
 7265SOL     OW22693   4.192   5.784   5.475
 7265SOL    HW122694   4.100   5.745   5.469
 7265SOL    HW222695   4.212   5.836   5.392
 7266SOL     OW22696   6.934   0.254   3.842
 7266SOL    HW122697   6.935   0.344   3.797
 7266SOL    HW222698   6.858   0.250   3.906
 7267SOL     OW22699   6.352   5.541   4.907
 7267SOL    HW122700   6.451   5.533   4.896
 7267SOL    HW222701   6.307   5.459   4.872
 7268SOL     OW22702   6.360   6.177   4.429
 7268SOL    HW122703   6.394   6.180   4.523
 7268SOL    HW222704   6.285   6.110   4.423
 7269SOL     OW22705   2.588   5.041   5.490
 7269SOL    HW122706   2.576   5.049   5.391
 7269SOL    HW222707   2.511   5.085   5.537
 7270SOL     OW22708   0.915   1.591   4.035
 7270SOL    HW122709   0.878   1.592   4.128
 7270SOL    HW222710   0.852   1.543   3.975
 7271SOL     OW22711   0.668   4.370   3.527
 7271SOL    HW122712   0.641   4.389   3.433
 7271SOL    HW222713   0.694   4.455   3.572
 7272SOL     OW22714   5.891   5.824   2.311
 7272SOL    HW122715   5.924   5.858   2.399
 7272SOL    HW222716   5.827   5.890   2.271
 7273SOL     OW22717   6.954   2.680   5.614
 7273SOL    HW122718   6.909   2.712   5.530
 7273SOL    HW222719   6.988   2.759   5.665
 7274SOL     OW22720   0.373   4.471   0.300
 7274SOL    HW122721   0.285   4.479   0.347
 7274SOL    HW222722   0.434   4.412   0.354
 7275SOL     OW22723   6.384   0.267   2.801
 7275SOL    HW122724   6.476   0.295   2.774
 7275SOL    HW222725   6.319   0.293   2.730
 7276SOL     OW22726   4.585   6.691   3.912
 7276SOL    HW122727   4.671   6.646   3.937
 7276SOL    HW222728   4.605   6.771   3.855
 7277SOL     OW22729   4.359   0.339   5.677
 7277SOL    HW122730   4.288   0.273   5.649
 7277SOL    HW222731   4.435   0.334   5.613
 7278SOL     OW22732   3.361   3.962   2.297
 7278SOL    HW122733   3.357   3.912   2.384
 7278SOL    HW222734   3.289   4.031   2.295
 7279SOL     OW22735   4.043   5.926   0.393
 7279SOL    HW122736   4.016   5.944   0.298
 7279SOL    HW222737   4.010   6.000   0.451
 7280SOL     OW22738   4.498   7.014   5.697
 7280SOL    HW122739   4.411   0.016   5.741
 7280SOL    HW222740   4.491   6.925   5.652
 7281SOL     OW22741   3.979   1.862   6.204
 7281SOL    HW122742   3.969   1.949   6.252
 7281SOL    HW222743   4.010   1.880   6.110
 7282SOL     OW22744   5.881   5.491   1.903
 7282SOL    HW122745   5.907   5.586   1.886
 7282SOL    HW222746   5.796   5.490   1.957
 7283SOL     OW22747   2.852   1.067   2.945
 7283SOL    HW122748   2.783   1.008   2.903
 7283SOL    HW222749   2.906   1.014   3.010
 7284SOL     OW22750   0.007   3.731   4.983
 7284SOL    HW122751   0.002   3.633   4.967
 7284SOL    HW222752   0.094   3.753   5.027
 7285SOL     OW22753   4.474   5.592   1.688
 7285SOL    HW122754   4.443   5.552   1.774
 7285SOL    HW222755   4.494   5.689   1.700
 7286SOL     OW22756   2.436   2.643   1.152
 7286SOL    HW122757   2.465   2.561   1.101
 7286SOL    HW222758   2.462   2.633   1.248
 7287SOL     OW22759   6.380   0.887   6.602
 7287SOL    HW122760   6.330   0.809   6.640
 7287SOL    HW222761   6.458   0.853   6.548
 7288SOL     OW22762   4.046   0.089   6.423
 7288SOL    HW122763   3.979   0.088   6.348
 7288SOL    HW222764   4.001   0.062   6.508
 7289SOL     OW22765   5.582   1.791   3.206
 7289SOL    HW122766   5.509   1.799   3.138
 7289SOL    HW222767   5.582   1.699   3.244
 7290SOL     OW22768   2.449   5.280   5.309
 7290SOL    HW122769   2.534   5.298   5.259
 7290SOL    HW222770   2.371   5.311   5.254
 7291SOL     OW22771   2.606   6.497   1.296
 7291SOL    HW122772   2.514   6.523   1.267
 7291SOL    HW222773   2.606   6.403   1.328
 7292SOL     OW22774   2.932   6.792   3.140
 7292SOL    HW122775   2.976   6.752   3.060
 7292SOL    HW222776   2.989   6.776   3.221
 7293SOL     OW22777   1.475   1.572   4.901
 7293SOL    HW122778   1.388   1.550   4.946
 7293SOL    HW222779   1.527   1.488   4.887
 7294SOL     OW22780   2.762   5.130   0.075
 7294SOL    HW122781   2.711   5.192   0.134
 7294SOL    HW222782   2.731   5.036   0.090
 7295SOL     OW22783   0.598   2.186   0.332
 7295SOL    HW122784   0.630   2.092   0.341
 7295SOL    HW222785   0.532   2.206   0.405
 7296SOL     OW22786   3.102   4.806   0.618
 7296SOL    HW122787   3.137   4.748   0.544
 7296SOL    HW222788   3.065   4.748   0.690
 7297SOL     OW22789   4.103   6.337   0.614
 7297SOL    HW122790   4.201   6.317   0.602
 7297SOL    HW222791   4.093   6.424   0.662
 7298SOL     OW22792   5.617   3.709   4.578
 7298SOL    HW122793   5.622   3.763   4.494
 7298SOL    HW222794   5.614   3.770   4.657
 7299SOL     OW22795   6.483   2.394   0.499
 7299SOL    HW122796   6.532   2.413   0.414
 7299SOL    HW222797   6.415   2.466   0.515
 7300SOL     OW22798   4.754   6.076   0.755
 7300SOL    HW122799   4.662   6.047   0.781
 7300SOL    HW222800   4.748   6.153   0.691
 7301SOL     OW22801   7.004   0.104   6.038
 7301SOL    HW122802   0.055   0.149   6.092
 7301SOL    HW222803   6.928   0.078   6.098
 7302SOL     OW22804   0.216   1.445   0.185
 7302SOL    HW122805   0.131   1.472   0.140
 7302SOL    HW222806   0.282   1.415   0.116
 7303SOL     OW22807   3.678   0.176   6.805
 7303SOL    HW122808   3.578   0.168   6.802
 7303SOL    HW222809   3.709   0.237   6.732
 7304SOL     OW22810   4.436   3.663   6.060
 7304SOL    HW122811   4.435   3.694   5.964
 7304SOL    HW222812   4.385   3.728   6.116
 7305SOL     OW22813   5.003   2.132   0.003
 7305SOL    HW122814   5.031   2.185   0.084
 7305SOL    HW222815   4.981   2.038   0.031
 7306SOL     OW22816   4.920   4.078   1.475
 7306SOL    HW122817   4.872   4.051   1.559
 7306SOL    HW222818   4.856   4.122   1.413
 7307SOL     OW22819   3.082   6.774   1.620
 7307SOL    HW122820   3.176   6.742   1.622
 7307SOL    HW222821   3.027   6.722   1.685
 7308SOL     OW22822   6.636   3.677   4.194
 7308SOL    HW122823   6.631   3.761   4.139
 7308SOL    HW222824   6.715   3.623   4.165
 7309SOL     OW22825   5.258   6.213   0.573
 7309SOL    HW122826   5.199   6.152   0.521
 7309SOL    HW222827   5.353   6.184   0.564
 7310SOL     OW22828   2.345   5.404   1.354
 7310SOL    HW122829   2.350   5.417   1.255
 7310SOL    HW222830   2.344   5.306   1.374
 7311SOL     OW22831   2.762   2.123   1.945
 7311SOL    HW122832   2.803   2.044   1.990
 7311SOL    HW222833   2.815   2.205   1.968
 7312SOL     OW22834   0.086   1.980   5.565
 7312SOL    HW122835   0.070   2.067   5.520
 7312SOL    HW222836   0.184   1.970   5.585
 7313SOL     OW22837   4.322   2.401   6.416
 7313SOL    HW122838   4.369   2.373   6.500
 7313SOL    HW222839   4.374   2.473   6.371
 7314SOL     OW22840   6.429   3.875   5.075
 7314SOL    HW122841   6.338   3.915   5.068
 7314SOL    HW222842   6.421   3.776   5.091
 7315SOL     OW22843   5.844   6.986   3.920
 7315SOL    HW122844   5.753   0.005   3.928
 7315SOL    HW222845   5.912   0.038   3.930
 7316SOL     OW22846   3.587   3.006   5.505
 7316SOL    HW122847   3.541   3.061   5.436
 7316SOL    HW222848   3.670   3.054   5.536
 7317SOL     OW22849   4.143   0.945   2.451
 7317SOL    HW122850   4.050   0.980   2.441
 7317SOL    HW222851   4.192   0.953   2.364
 7318SOL     OW22852   0.854   1.570   1.586
 7318SOL    HW122853   0.947   1.569   1.622
 7318SOL    HW222854   0.810   1.657   1.609
 7319SOL     OW22855   6.194   4.283   0.003
 7319SOL    HW122856   6.124   4.265   0.071
 7319SOL    HW222857   6.186   4.217   6.949
 7320SOL     OW22858   0.415   3.600   2.330
 7320SOL    HW122859   0.496   3.602   2.389
 7320SOL    HW222860   0.434   3.650   2.246
 7321SOL     OW22861   2.454   1.333   4.810
 7321SOL    HW122862   2.524   1.357   4.744
 7321SOL    HW222863   2.367   1.374   4.783
 7322SOL     OW22864   1.274   3.848   3.209
 7322SOL    HW122865   1.282   3.946   3.226
 7322SOL    HW222866   1.197   3.831   3.148
 7323SOL     OW22867   1.676   2.301   3.330
 7323SOL    HW122868   1.608   2.257   3.271
 7323SOL    HW222869   1.760   2.316   3.278
 7324SOL     OW22870   5.601   0.733   3.528
 7324SOL    HW122871   5.614   0.635   3.515
 7324SOL    HW222872   5.556   0.772   3.447
 7325SOL     OW22873   4.310   6.383   6.376
 7325SOL    HW122874   4.398   6.358   6.336
 7325SOL    HW222875   4.271   6.303   6.424
 7326SOL     OW22876   2.528   6.174   5.400
 7326SOL    HW122877   2.588   6.138   5.471
 7326SOL    HW222878   2.462   6.105   5.374
 7327SOL     OW22879   0.962   3.070   5.932
 7327SOL    HW122880   1.015   3.095   5.851
 7327SOL    HW222881   0.891   3.004   5.906
 7328SOL     OW22882   3.087   0.473   0.175
 7328SOL    HW122883   3.167   0.488   0.118
 7328SOL    HW222884   3.115   0.463   0.271
 7329SOL     OW22885   4.312   3.320   1.097
 7329SOL    HW122886   4.292   3.416   1.079
 7329SOL    HW222887   4.405   3.311   1.134
 7330SOL     OW22888   3.430   1.833   0.012
 7330SOL    HW122889   3.359   1.771   7.001
 7330SOL    HW222890   3.396   1.885   0.091
 7331SOL     OW22891   5.381   1.137   1.813
 7331SOL    HW122892   5.450   1.206   1.835
 7331SOL    HW222893   5.370   1.075   1.890
 7332SOL     OW22894   2.476   6.175   6.965
 7332SOL    HW122895   2.551   6.238   6.946
 7332SOL    HW222896   2.455   6.122   6.883
 7333SOL     OW22897   0.601   4.830   3.126
 7333SOL    HW122898   0.691   4.812   3.087
 7333SOL    HW222899   0.585   4.929   3.128
 7334SOL     OW22900   3.696   5.414   5.334
 7334SOL    HW122901   3.627   5.483   5.313
 7334SOL    HW222902   3.716   5.361   5.252
 7335SOL     OW22903   1.604   2.537   2.514
 7335SOL    HW122904   1.533   2.474   2.485
 7335SOL    HW222905   1.564   2.627   2.534
 7336SOL     OW22906   1.675   5.856   3.927
 7336SOL    HW122907   1.745   5.882   3.861
 7336SOL    HW222908   1.689   5.761   3.955
 7337SOL     OW22909   1.442   3.047   2.103
 7337SOL    HW122910   1.447   2.962   2.050
 7337SOL    HW222911   1.525   3.058   2.157
 7338SOL     OW22912   6.585   2.449   1.856
 7338SOL    HW122913   6.566   2.515   1.928
 7338SOL    HW222914   6.608   2.497   1.771
 7339SOL     OW22915   6.225   6.096   4.119
 7339SOL    HW122916   6.228   6.081   4.218
 7339SOL    HW222917   6.141   6.056   4.081
 7340SOL     OW22918   2.353   0.392   0.062
 7340SOL    HW122919   2.439   0.425   0.023
 7340SOL    HW222920   2.343   0.427   0.155
 7341SOL     OW22921   6.305   2.077   0.269
 7341SOL    HW122922   6.397   2.107   0.243
 7341SOL    HW222923   6.288   1.985   0.234
 7342SOL     OW22924   6.392   6.850   2.885
 7342SOL    HW122925   6.437   6.775   2.935
 7342SOL    HW222926   6.439   6.936   2.905
 7343SOL     OW22927   4.923   2.575   0.319
 7343SOL    HW122928   4.858   2.499   0.313
 7343SOL    HW222929   4.918   2.616   0.410
 7344SOL     OW22930   1.171   6.110   5.965
 7344SOL    HW122931   1.262   6.109   5.925
 7344SOL    HW222932   1.125   6.195   5.942
 7345SOL     OW22933   3.823   3.132   5.660
 7345SOL    HW122934   3.783   3.215   5.700
 7345SOL    HW222935   3.842   3.065   5.732
 7346SOL     OW22936   3.503   5.826   2.376
 7346SOL    HW122937   3.498   5.908   2.319
 7346SOL    HW222938   3.438   5.758   2.343
 7347SOL     OW22939   6.628   1.948   0.375
 7347SOL    HW122940   6.620   2.027   0.313
 7347SOL    HW222941   6.628   1.980   0.470
 7348SOL     OW22942   1.834   4.366   3.045
 7348SOL    HW122943   1.930   4.392   3.041
 7348SOL    HW222944   1.823   4.272   3.012
 7349SOL     OW22945   4.261   0.537   1.070
 7349SOL    HW122946   4.271   0.589   1.155
 7349SOL    HW222947   4.265   0.599   0.992
 7350SOL     OW22948   2.814   0.733   5.297
 7350SOL    HW122949   2.817   0.685   5.210
 7350SOL    HW222950   2.885   0.697   5.358
 7351SOL     OW22951   4.441   4.770   3.702
 7351SOL    HW122952   4.539   4.766   3.684
 7351SOL    HW222953   4.402   4.849   3.654
 7352SOL     OW22954   0.377   2.404   3.259
 7352SOL    HW122955   0.289   2.452   3.258
 7352SOL    HW222956   0.439   2.449   3.324
 7353SOL     OW22957   5.763   0.124   6.564
 7353SOL    HW122958   5.670   0.088   6.561
 7353SOL    HW222959   5.776   0.176   6.649
 7354SOL     OW22960   1.472   1.572   3.171
 7354SOL    HW122961   1.488   1.554   3.268
 7354SOL    HW222962   1.374   1.578   3.154
 7355SOL     OW22963   0.171   1.966   6.574
 7355SOL    HW122964   0.163   2.030   6.650
 7355SOL    HW222965   0.243   1.997   6.512
 7356SOL     OW22966   3.918   3.510   5.617
 7356SOL    HW122967   3.995   3.470   5.665
 7356SOL    HW222968   3.833   3.469   5.650
 7357SOL     OW22969   5.160   5.666   1.540
 7357SOL    HW122970   5.191   5.753   1.578
 7357SOL    HW222971   5.239   5.614   1.507
 7358SOL     OW22972   6.129   2.260   2.632
 7358SOL    HW122973   6.198   2.217   2.573
 7358SOL    HW222974   6.110   2.352   2.599
 7359SOL     OW22975   4.417   0.524   5.902
 7359SOL    HW122976   4.378   0.457   5.838
 7359SOL    HW222977   4.513   0.539   5.879
 7360SOL     OW22978   2.755   3.441   5.260
 7360SOL    HW122979   2.782   3.402   5.348
 7360SOL    HW222980   2.768   3.373   5.188
 7361SOL     OW22981   4.813   0.167   2.394
 7361SOL    HW122982   4.865   0.234   2.447
 7361SOL    HW222983   4.865   0.081   2.388
 7362SOL     OW22984   4.088   5.622   6.333
 7362SOL    HW122985   4.137   5.589   6.414
 7362SOL    HW222986   4.145   5.689   6.285
 7363SOL     OW22987   3.960   1.138   0.905
 7363SOL    HW122988   3.865   1.110   0.918
 7363SOL    HW222989   3.996   1.175   0.992
 7364SOL     OW22990   4.435   0.182   1.566
 7364SOL    HW122991   4.370   0.111   1.541
 7364SOL    HW222992   4.387   0.269   1.576
 7365SOL     OW22993   6.390   4.650   2.647
 7365SOL    HW122994   6.444   4.721   2.600
 7365SOL    HW222995   6.329   4.606   2.582
 7366SOL     OW22996   2.521   1.360   3.894
 7366SOL    HW122997   2.581   1.307   3.834
 7366SOL    HW222998   2.574   1.395   3.971
 7367SOL     OW22999   4.796   1.502   6.624
 7367SOL    HW123000   4.852   1.421   6.643
 7367SOL    HW223001   4.848   1.584   6.648
 7368SOL     OW23002   4.066   3.168   2.475
 7368SOL    HW123003   4.039   3.115   2.395
 7368SOL    HW223004   4.166   3.166   2.483
 7369SOL     OW23005   4.531   2.615   0.366
 7369SOL    HW123006   4.466   2.570   0.304
 7369SOL    HW223007   4.573   2.693   0.319
 7370SOL     OW23008   2.064   1.641   4.990
 7370SOL    HW123009   2.021   1.698   4.919
 7370SOL    HW223010   2.147   1.686   5.022
 7371SOL     OW23011   4.150   6.760   3.402
 7371SOL    HW123012   4.173   6.855   3.422
 7371SOL    HW223013   4.052   6.747   3.413
 7372SOL     OW23014   4.014   0.433   4.826
 7372SOL    HW123015   4.094   0.433   4.765
 7372SOL    HW223016   4.033   0.378   4.907
 7373SOL     OW23017   4.917   2.374   4.598
 7373SOL    HW123018   4.827   2.411   4.576
 7373SOL    HW223019   4.987   2.425   4.547
 7374SOL     OW23020   0.694   1.246   4.859
 7374SOL    HW123021   0.705   1.185   4.937
 7374SOL    HW223022   0.662   1.335   4.890
 7375SOL     OW23023   2.027   3.050   2.246
 7375SOL    HW123024   1.942   3.059   2.195
 7375SOL    HW223025   2.058   3.140   2.276
 7376SOL     OW23026   0.523   3.619   1.151
 7376SOL    HW123027   0.446   3.681   1.164
 7376SOL    HW223028   0.543   3.610   1.054
 7377SOL     OW23029   3.196   5.818   0.383
 7377SOL    HW123030   3.184   5.805   0.284
 7377SOL    HW223031   3.176   5.732   0.430
 7378SOL     OW23032   1.920   6.462   4.132
 7378SOL    HW123033   1.917   6.413   4.045
 7378SOL    HW223034   1.912   6.396   4.207
 7379SOL     OW23035   4.378   0.648   1.283
 7379SOL    HW123036   4.363   0.641   1.382
 7379SOL    HW223037   4.460   0.702   1.265
 7380SOL     OW23038   5.975   4.355   3.532
 7380SOL    HW123039   5.926   4.309   3.459
 7380SOL    HW223040   6.068   4.378   3.502
 7381SOL     OW23041   3.887   1.084   0.252
 7381SOL    HW123042   3.856   1.127   0.337
 7381SOL    HW223043   3.828   1.112   0.176
 7382SOL     OW23044   0.209   1.673   6.006
 7382SOL    HW123045   0.285   1.692   5.943
 7382SOL    HW223046   0.218   1.731   6.087
 7383SOL     OW23047   1.770   0.123   1.759
 7383SOL    HW123048   1.699   0.181   1.801
 7383SOL    HW223049   1.847   0.113   1.822
 7384SOL     OW23050   0.741   6.814   0.874
 7384SOL    HW123051   0.801   6.746   0.832
 7384SOL    HW223052   0.669   6.839   0.809
 7385SOL     OW23053   4.344   5.101   2.725
 7385SOL    HW123054   4.375   5.195   2.713
 7385SOL    HW223055   4.263   5.085   2.669
 7386SOL     OW23056   6.282   3.100   0.811
 7386SOL    HW123057   6.259   3.084   0.907
 7386SOL    HW223058   6.208   3.068   0.752
 7387SOL     OW23059   6.529   4.441   5.505
 7387SOL    HW123060   6.558   4.399   5.590
 7387SOL    HW223061   6.599   4.427   5.435
 7388SOL     OW23062   1.820   6.582   2.311
 7388SOL    HW123063   1.792   6.491   2.280
 7388SOL    HW223064   1.849   6.637   2.233
 7389SOL     OW23065   6.863   2.842   0.470
 7389SOL    HW123066   6.775   2.880   0.497
 7389SOL    HW223067   6.937   2.900   0.506
 7390SOL     OW23068   2.616   2.028   2.789
 7390SOL    HW123069   2.576   2.053   2.701
 7390SOL    HW223070   2.629   1.929   2.793
 7391SOL     OW23071   3.297   2.942   2.830
 7391SOL    HW123072   3.365   2.931   2.903
 7391SOL    HW223073   3.339   2.917   2.743
 7392SOL     OW23074   4.402   4.978   6.735
 7392SOL    HW123075   4.480   4.926   6.700
 7392SOL    HW223076   4.361   5.030   6.659
 7393SOL     OW23077   6.106   4.980   4.658
 7393SOL    HW123078   6.011   4.996   4.685
 7393SOL    HW223079   6.132   5.047   4.589
 7394SOL     OW23080   2.214   2.228   5.932
 7394SOL    HW123081   2.143   2.291   5.965
 7394SOL    HW223082   2.204   2.216   5.833
 7395SOL     OW23083   2.648   4.132   0.938
 7395SOL    HW123084   2.723   4.085   0.985
 7395SOL    HW223085   2.665   4.230   0.938
 7396SOL     OW23086   2.660   5.137   1.479
 7396SOL    HW123087   2.734   5.098   1.533
 7396SOL    HW223088   2.586   5.069   1.469
 7397SOL     OW23089   5.625   3.485   4.338
 7397SOL    HW123090   5.696   3.460   4.271
 7397SOL    HW223091   5.543   3.514   4.289
 7398SOL     OW23092   2.000   4.489   2.790
 7398SOL    HW123093   1.956   4.400   2.776
 7398SOL    HW223094   2.006   4.508   2.888
 7399SOL     OW23095   5.121   2.124   4.462
 7399SOL    HW123096   5.082   2.141   4.552
 7399SOL    HW223097   5.220   2.136   4.465
 7400SOL     OW23098   5.300   2.291   5.522
 7400SOL    HW123099   5.275   2.299   5.618
 7400SOL    HW223100   5.370   2.359   5.500
 7401SOL     OW23101   1.161   2.889   3.976
 7401SOL    HW123102   1.240   2.840   4.012
 7401SOL    HW223103   1.165   2.890   3.876
 7402SOL     OW23104   2.764   5.698   5.271
 7402SOL    HW123105   2.850   5.681   5.223
 7402SOL    HW223106   2.782   5.738   5.360
 7403SOL     OW23107   1.099   2.570   4.283
 7403SOL    HW123108   1.131   2.618   4.202
 7403SOL    HW223109   1.108   2.630   4.363
 7404SOL     OW23110   2.983   3.747   1.201
 7404SOL    HW123111   2.892   3.762   1.163
 7404SOL    HW223112   2.991   3.794   1.289
 7405SOL     OW23113   3.109   5.650   5.548
 7405SOL    HW123114   3.158   5.675   5.632
 7405SOL    HW223115   3.037   5.717   5.530
 7406SOL     OW23116   0.793   0.632   5.080
 7406SOL    HW123117   0.732   0.710   5.095
 7406SOL    HW223118   0.744   0.560   5.030
 7407SOL     OW23119   0.709   6.086   6.208
 7407SOL    HW123120   0.800   6.059   6.240
 7407SOL    HW223121   0.714   6.117   6.113
 7408SOL     OW23122   3.511   3.832   5.301
 7408SOL    HW123123   3.589   3.887   5.333
 7408SOL    HW223124   3.457   3.803   5.380
 7409SOL     OW23125   6.171   4.291   0.551
 7409SOL    HW123126   6.227   4.308   0.632
 7409SOL    HW223127   6.150   4.379   0.507
 7410SOL     OW23128   6.997   0.162   1.427
 7410SOL    HW123129   7.017   0.082   1.483
 7410SOL    HW223130   6.921   0.213   1.468
 7411SOL     OW23131   0.833   2.393   5.641
 7411SOL    HW123132   0.887   2.334   5.580
 7411SOL    HW223133   0.895   2.439   5.705
 7412SOL     OW23134   3.881   0.103   7.007
 7412SOL    HW123135   3.833   0.141   6.928
 7412SOL    HW223136   3.912   0.010   6.985
 7413SOL     OW23137   4.220   6.066   3.268
 7413SOL    HW123138   4.137   6.040   3.218
 7413SOL    HW223139   4.300   6.034   3.217
 7414SOL     OW23140   2.291   2.223   4.189
 7414SOL    HW123141   2.300   2.230   4.288
 7414SOL    HW223142   2.247   2.306   4.154
 7415SOL     OW23143   4.134   6.017   6.905
 7415SOL    HW123144   4.113   5.942   6.842
 7415SOL    HW223145   4.195   6.082   6.860
 7416SOL     OW23146   0.776   1.622   2.309
 7416SOL    HW123147   0.759   1.720   2.321
 7416SOL    HW223148   0.854   1.609   2.247
 7417SOL     OW23149   1.229   2.009   3.884
 7417SOL    HW123150   1.304   2.074   3.900
 7417SOL    HW223151   1.164   2.014   3.960
 7418SOL     OW23152   1.376   3.672   6.145
 7418SOL    HW123153   1.395   3.574   6.133
 7418SOL    HW223154   1.278   3.684   6.162
 7419SOL     OW23155   6.510   4.302   3.900
 7419SOL    HW123156   6.538   4.266   3.988
 7419SOL    HW223157   6.433   4.248   3.864
 7420SOL     OW23158   6.848   0.242   1.827
 7420SOL    HW123159   6.872   0.181   1.751
 7420SOL    HW223160   6.757   0.221   1.860
 7421SOL     OW23161   4.995   3.914   1.845
 7421SOL    HW123162   5.011   3.828   1.797
 7421SOL    HW223163   4.896   3.930   1.854
 7422SOL     OW23164   5.775   2.836   1.949
 7422SOL    HW123165   5.701   2.888   1.905
 7422SOL    HW223166   5.841   2.900   1.988
 7423SOL     OW23167   5.383   1.878   5.647
 7423SOL    HW123168   5.330   1.928   5.716
 7423SOL    HW223169   5.413   1.791   5.685
 7424SOL     OW23170   0.449   0.952   4.519
 7424SOL    HW123171   0.468   0.866   4.472
 7424SOL    HW223172   0.357   0.984   4.494
 7425SOL     OW23173   5.541   7.016   0.591
 7425SOL    HW123174   5.460   6.958   0.606
 7425SOL    HW223175   5.598   7.014   0.673
 7426SOL     OW23176   3.443   2.877   5.974
 7426SOL    HW123177   3.367   2.864   6.038
 7426SOL    HW223178   3.480   2.788   5.947
 7427SOL     OW23179   3.937   1.657   3.960
 7427SOL    HW123180   3.998   1.722   4.006
 7427SOL    HW223181   3.986   1.614   3.885
 7428SOL     OW23182   4.406   6.108   5.606
 7428SOL    HW123183   4.421   6.009   5.617
 7428SOL    HW223184   4.372   6.146   5.691
 7429SOL     OW23185   1.881   0.180   2.306
 7429SOL    HW123186   1.810   0.243   2.273
 7429SOL    HW223187   1.952   0.171   2.237
 7430SOL     OW23188   6.299   5.057   2.911
 7430SOL    HW123189   6.209   5.101   2.918
 7430SOL    HW223190   6.291   4.974   2.855
 7431SOL     OW23191   1.863   2.231   5.024
 7431SOL    HW123192   1.827   2.140   5.043
 7431SOL    HW223193   1.868   2.284   5.109
 7432SOL     OW23194   1.585   0.257   3.421
 7432SOL    HW123195   1.609   0.353   3.430
 7432SOL    HW223196   1.536   0.242   3.335
 7433SOL     OW23197   2.484   0.020   6.549
 7433SOL    HW123198   2.554   7.001   6.609
 7433SOL    HW223199   2.512   0.112   6.521
 7434SOL     OW23200   3.948   5.964   5.545
 7434SOL    HW123201   3.896   5.983   5.628
 7434SOL    HW223202   4.046   5.962   5.566
 7435SOL     OW23203   4.993   6.528   3.175
 7435SOL    HW123204   5.047   6.508   3.257
 7435SOL    HW223205   4.912   6.471   3.173
 7436SOL     OW23206   5.516   3.442   6.350
 7436SOL    HW123207   5.611   3.462   6.375
 7436SOL    HW223208   5.495   3.483   6.262
 7437SOL     OW23209   4.330   6.325   1.186
 7437SOL    HW123210   4.322   6.237   1.233
 7437SOL    HW223211   4.422   6.335   1.149
 7438SOL     OW23212   2.502   0.982   6.950
 7438SOL    HW123213   2.508   0.906   7.015
 7438SOL    HW223214   2.472   0.947   6.861
 7439SOL     OW23215   0.994   4.487   6.460
 7439SOL    HW123216   1.056   4.525   6.391
 7439SOL    HW223217   1.018   4.522   6.550
 7440SOL     OW23218   5.104   3.037   3.684
 7440SOL    HW123219   5.162   3.028   3.603
 7440SOL    HW223220   5.136   2.975   3.755
 7441SOL     OW23221   6.268   6.431   1.521
 7441SOL    HW123222   6.317   6.424   1.434
 7441SOL    HW223223   6.193   6.365   1.522
 7442SOL     OW23224   5.095   0.477   5.369
 7442SOL    HW123225   5.020   0.536   5.401
 7442SOL    HW223226   5.071   0.381   5.387
 7443SOL     OW23227   0.104   0.334   1.930
 7443SOL    HW123228   0.070   0.265   1.993
 7443SOL    HW223229   0.061   0.322   1.840
 7444SOL     OW23230   0.575   6.529   6.198
 7444SOL    HW123231   0.567   6.520   6.297
 7444SOL    HW223232   0.649   6.471   6.165
 7445SOL     OW23233   4.346   6.005   1.507
 7445SOL    HW123234   4.443   5.990   1.488
 7445SOL    HW223235   4.335   6.029   1.603
 7446SOL     OW23236   5.164   3.756   0.332
 7446SOL    HW123237   5.095   3.753   0.404
 7446SOL    HW223238   5.245   3.707   0.362
 7447SOL     OW23239   0.857   4.844   1.549
 7447SOL    HW123240   0.798   4.900   1.608
 7447SOL    HW223241   0.801   4.780   1.496
 7448SOL     OW23242   4.757   5.130   6.168
 7448SOL    HW123243   4.708   5.155   6.085
 7448SOL    HW223244   4.744   5.202   6.236
 7449SOL     OW23245   0.345   4.380   0.060
 7449SOL    HW123246   0.357   4.416   0.153
 7449SOL    HW223247   0.413   4.421   7.021
 7450SOL     OW23248   5.412   1.618   5.707
 7450SOL    HW123249   5.313   1.617   5.723
 7450SOL    HW223250   5.435   1.552   5.635
 7451SOL     OW23251   5.567   4.929   2.344
 7451SOL    HW123252   5.578   5.018   2.389
 7451SOL    HW223253   5.539   4.861   2.411
 7452SOL     OW23254   5.728   5.393   4.935
 7452SOL    HW123255   5.825   5.413   4.925
 7452SOL    HW223256   5.690   5.448   5.010
 7453SOL     OW23257   4.287   5.559   6.510
 7453SOL    HW123258   4.344   5.492   6.556
 7453SOL    HW223259   4.324   5.650   6.524
 7454SOL     OW23260   3.811   2.316   0.642
 7454SOL    HW123261   3.749   2.239   0.627
 7454SOL    HW223262   3.758   2.401   0.646
 7455SOL     OW23263   6.854   2.753   2.933
 7455SOL    HW123264   6.910   2.692   2.876
 7455SOL    HW223265   6.762   2.761   2.894
 7456SOL     OW23266   3.152   2.350   5.460
 7456SOL    HW123267   3.230   2.293   5.483
 7456SOL    HW223268   3.171   2.401   5.376
 7457SOL     OW23269   2.987   0.066   2.971
 7457SOL    HW123270   2.904   0.016   2.997
 7457SOL    HW223271   3.062   0.001   2.958
 7458SOL     OW23272   1.248   6.027   5.550
 7458SOL    HW123273   1.339   5.991   5.532
 7458SOL    HW223274   1.201   6.047   5.464
 7459SOL     OW23275   6.178   1.288   3.130
 7459SOL    HW123276   6.163   1.372   3.181
 7459SOL    HW223277   6.213   1.217   3.191
 7460SOL     OW23278   1.181   0.200   1.277
 7460SOL    HW123279   1.153   0.288   1.241
 7460SOL    HW223280   1.101   0.143   1.294
 7461SOL     OW23281   1.058   5.405   5.960
 7461SOL    HW123282   1.094   5.351   6.036
 7461SOL    HW223283   1.134   5.436   5.902
 7462SOL     OW23284   1.310   5.055   1.193
 7462SOL    HW123285   1.318   5.148   1.157
 7462SOL    HW223286   1.227   5.048   1.249
 7463SOL     OW23287   3.993   4.518   0.175
 7463SOL    HW123288   3.992   4.575   0.093
 7463SOL    HW223289   3.908   4.530   0.226
 7464SOL     OW23290   6.402   6.182   5.384
 7464SOL    HW123291   6.310   6.218   5.396
 7464SOL    HW223292   6.417   6.160   5.288
 7465SOL     OW23293   2.398   5.120   0.158
 7465SOL    HW123294   2.437   5.185   0.224
 7465SOL    HW223295   2.424   5.148   0.066
 7466SOL     OW23296   0.575   6.631   4.646
 7466SOL    HW123297   0.493   6.594   4.690
 7466SOL    HW223298   0.616   6.561   4.588
 7467SOL     OW23299   0.071   3.335   5.971
 7467SOL    HW123300   0.138   3.321   6.043
 7467SOL    HW223301   0.113   3.316   5.882
 7468SOL     OW23302   6.272   3.281   5.910
 7468SOL    HW123303   6.205   3.251   5.842
 7468SOL    HW223304   6.279   3.381   5.906
 7469SOL     OW23305   6.800   2.336   0.920
 7469SOL    HW123306   6.761   2.387   0.844
 7469SOL    HW223307   6.892   2.371   0.940
 7470SOL     OW23308   5.565   3.585   4.051
 7470SOL    HW123309   5.663   3.579   4.030
 7470SOL    HW223310   5.514   3.592   3.965
 7471SOL     OW23311   5.453   5.587   6.185
 7471SOL    HW123312   5.361   5.624   6.196
 7471SOL    HW223313   5.461   5.503   6.238
 7472SOL     OW23314   6.098   5.962   5.503
 7472SOL    HW123315   6.019   5.924   5.455
 7472SOL    HW223316   6.141   6.032   5.446
 7473SOL     OW23317   4.008   6.370   3.772
 7473SOL    HW123318   4.055   6.313   3.839
 7473SOL    HW223319   4.020   6.467   3.797
 7474SOL     OW23320   6.644   1.921   5.321
 7474SOL    HW123321   6.581   1.990   5.356
 7474SOL    HW223322   6.716   1.905   5.389
 7475SOL     OW23323   4.603   2.513   0.911
 7475SOL    HW123324   4.559   2.601   0.932
 7475SOL    HW223325   4.685   2.503   0.967
 7476SOL     OW23326   2.327   1.057   2.979
 7476SOL    HW123327   2.338   1.148   3.019
 7476SOL    HW223328   2.268   1.063   2.899
 7477SOL     OW23329   0.881   4.335   5.591
 7477SOL    HW123330   0.979   4.343   5.606
 7477SOL    HW223331   0.832   4.385   5.663
 7478SOL     OW23332   0.552   1.701   5.334
 7478SOL    HW123333   0.631   1.639   5.332
 7478SOL    HW223334   0.469   1.648   5.318
 7479SOL     OW23335   6.273   3.162   6.735
 7479SOL    HW123336   6.287   3.096   6.808
 7479SOL    HW223337   6.177   3.190   6.734
 7480SOL     OW23338   3.647   5.165   2.391
 7480SOL    HW123339   3.659   5.068   2.373
 7480SOL    HW223340   3.565   5.198   2.344
 7481SOL     OW23341   0.094   4.113   6.860
 7481SOL    HW123342   0.147   4.028   6.855
 7481SOL    HW223343   0.085   4.152   6.768
 7482SOL     OW23344   4.063   2.167   2.496
 7482SOL    HW123345   3.971   2.128   2.493
 7482SOL    HW223346   4.087   2.202   2.406
 7483SOL     OW23347   4.398   2.320   6.001
 7483SOL    HW123348   4.329   2.315   6.073
 7483SOL    HW223349   4.356   2.298   5.913
 7484SOL     OW23350   3.089   6.498   4.327
 7484SOL    HW123351   3.106   6.543   4.239
 7484SOL    HW223352   3.152   6.421   4.337
 7485SOL     OW23353   2.694   6.773   4.477
 7485SOL    HW123354   2.709   6.830   4.396
 7485SOL    HW223355   2.645   6.826   4.546
 7486SOL     OW23356   1.966   6.563   0.261
 7486SOL    HW123357   1.906   6.496   0.218
 7486SOL    HW223358   2.012   6.618   0.191
 7487SOL     OW23359   3.952   6.374   3.507
 7487SOL    HW123360   3.960   6.390   3.605
 7487SOL    HW223361   4.038   6.337   3.472
 7488SOL     OW23362   0.846   5.570   3.984
 7488SOL    HW123363   0.930   5.586   4.037
 7488SOL    HW223364   0.865   5.582   3.887
 7489SOL     OW23365   6.463   3.554   6.944
 7489SOL    HW123366   6.528   3.596   6.881
 7489SOL    HW223367   6.414   3.480   6.897
 7490SOL     OW23368   1.259   2.294   2.144
 7490SOL    HW123369   1.312   2.210   2.133
 7490SOL    HW223370   1.246   2.312   2.241
 7491SOL     OW23371   4.355   3.136   0.364
 7491SOL    HW123372   4.280   3.079   0.330
 7491SOL    HW223373   4.345   3.229   0.330
 7492SOL     OW23374   1.626   0.476   4.410
 7492SOL    HW123375   1.664   0.386   4.388
 7492SOL    HW223376   1.556   0.467   4.481
 7493SOL     OW23377   6.400   4.255   5.302
 7493SOL    HW123378   6.309   4.243   5.263
 7493SOL    HW223379   6.405   4.345   5.346
 7494SOL     OW23380   5.788   1.446   3.007
 7494SOL    HW123381   5.820   1.388   2.932
 7494SOL    HW223382   5.858   1.514   3.029
 7495SOL     OW23383   2.176   3.589   4.880
 7495SOL    HW123384   2.272   3.618   4.880
 7495SOL    HW223385   2.170   3.495   4.913
 7496SOL     OW23386   5.561   4.035   2.336
 7496SOL    HW123387   5.516   3.988   2.260
 7496SOL    HW223388   5.583   4.129   2.309
 7497SOL     OW23389   0.328   6.587   0.328
 7497SOL    HW123390   0.314   6.612   0.424
 7497SOL    HW223391   0.425   6.563   0.314
 7498SOL     OW23392   3.345   0.151   2.994
 7498SOL    HW123393   3.305   0.060   2.984
 7498SOL    HW223394   3.308   0.211   2.923
 7499SOL     OW23395   3.708   2.109   3.624
 7499SOL    HW123396   3.699   2.010   3.629
 7499SOL    HW223397   3.622   2.152   3.648
 7500SOL     OW23398   4.027   6.382   3.068
 7500SOL    HW123399   3.940   6.351   3.028
 7500SOL    HW223400   4.050   6.472   3.031
 7501SOL     OW23401   6.151   2.332   4.809
 7501SOL    HW123402   6.238   2.367   4.773
 7501SOL    HW223403   6.087   2.319   4.733
 7502SOL     OW23404   3.986   0.308   4.246
 7502SOL    HW123405   4.015   0.393   4.203
 7502SOL    HW223406   3.957   0.242   4.176
 7503SOL     OW23407   1.582   5.920   1.258
 7503SOL    HW123408   1.586   5.848   1.328
 7503SOL    HW223409   1.596   6.009   1.301
 7504SOL     OW23410   6.379   6.546   3.542
 7504SOL    HW123411   6.289   6.576   3.511
 7504SOL    HW223412   6.419   6.615   3.602
 7505SOL     OW23413   0.816   6.786   5.246
 7505SOL    HW123414   0.830   6.867   5.190
 7505SOL    HW223415   0.875   6.789   5.326
 7506SOL     OW23416   2.266   1.954   3.561
 7506SOL    HW123417   2.281   1.862   3.526
 7506SOL    HW223418   2.352   1.993   3.593
 7507SOL     OW23419   6.233   4.056   4.799
 7507SOL    HW123420   6.197   4.017   4.884
 7507SOL    HW223421   6.185   4.015   4.721
 7508SOL     OW23422   1.831   5.892   6.829
 7508SOL    HW123423   1.918   5.884   6.781
 7508SOL    HW223424   1.837   5.845   6.917
 7509SOL     OW23425   4.924   4.226   0.621
 7509SOL    HW123426   4.950   4.162   0.693
 7509SOL    HW223427   4.869   4.179   0.553
 7510SOL     OW23428   3.950   3.938   4.066
 7510SOL    HW123429   3.950   3.994   4.149
 7510SOL    HW223430   3.981   3.845   4.088
 7511SOL     OW23431   3.538   5.536   3.091
 7511SOL    HW123432   3.550   5.511   3.187
 7511SOL    HW223433   3.511   5.632   3.084
 7512SOL     OW23434   3.237   6.484   6.093
 7512SOL    HW123435   3.327   6.525   6.078
 7512SOL    HW223436   3.247   6.397   6.140
 7513SOL     OW23437   1.258   2.210   2.943
 7513SOL    HW123438   1.214   2.280   2.999
 7513SOL    HW223439   1.252   2.122   2.990
 7514SOL     OW23440   2.322   4.251   2.725
 7514SOL    HW123441   2.274   4.276   2.641
 7514SOL    HW223442   2.276   4.174   2.768
 7515SOL     OW23443   0.327   4.354   4.699
 7515SOL    HW123444   0.385   4.381   4.622
 7515SOL    HW223445   0.381   4.298   4.763
 7516SOL     OW23446   0.977   5.396   5.260
 7516SOL    HW123447   0.963   5.477   5.319
 7516SOL    HW223448   0.991   5.426   5.166
 7517SOL     OW23449   0.399   1.809   6.932
 7517SOL    HW123450   0.433   1.893   6.889
 7517SOL    HW223451   0.351   1.831   7.016
 7518SOL     OW23452   4.785   2.943   3.806
 7518SOL    HW123453   4.863   2.893   3.845
 7518SOL    HW223454   4.701   2.893   3.826
 7519SOL     OW23455   3.532   6.488   5.142
 7519SOL    HW123456   3.444   6.536   5.141
 7519SOL    HW223457   3.536   6.423   5.067
 7520SOL     OW23458   2.249   2.094   1.402
 7520SOL    HW123459   2.306   2.114   1.323
 7520SOL    HW223460   2.153   2.113   1.380
 7521SOL     OW23461   4.177   1.164   5.460
 7521SOL    HW123462   4.116   1.188   5.384
 7521SOL    HW223463   4.261   1.218   5.455
 7522SOL     OW23464   1.728   6.823   2.690
 7522SOL    HW123465   1.712   6.787   2.782
 7522SOL    HW223466   1.747   6.747   2.628
 7523SOL     OW23467   5.480   1.679   6.416
 7523SOL    HW123468   5.464   1.580   6.409
 7523SOL    HW223469   5.528   1.699   6.502
 7524SOL     OW23470   0.184   3.075   4.901
 7524SOL    HW123471   0.180   3.097   4.998
 7524SOL    HW223472   0.279   3.062   4.873
 7525SOL     OW23473   4.314   6.022   6.429
 7525SOL    HW123474   4.395   6.075   6.405
 7525SOL    HW223475   4.254   6.078   6.485
 7526SOL     OW23476   2.473   3.278   1.646
 7526SOL    HW123477   2.454   3.323   1.733
 7526SOL    HW223478   2.396   3.293   1.584
 7527SOL     OW23479   3.751   5.176   3.578
 7527SOL    HW123480   3.838   5.161   3.531
 7527SOL    HW223481   3.768   5.193   3.675
 7528SOL     OW23482   6.630   2.999   6.344
 7528SOL    HW123483   6.621   2.956   6.434
 7528SOL    HW223484   6.619   3.098   6.352
 7529SOL     OW23485   6.542   2.839   3.871
 7529SOL    HW123486   6.596   2.921   3.891
 7529SOL    HW223487   6.445   2.859   3.887
 7530SOL     OW23488   6.201   1.925   2.322
 7530SOL    HW123489   6.232   1.991   2.253
 7530SOL    HW223490   6.231   1.833   2.296
 7531SOL     OW23491   4.404   1.822   3.687
 7531SOL    HW123492   4.439   1.776   3.768
 7531SOL    HW223493   4.305   1.833   3.696
 7532SOL     OW23494   4.438   5.390   6.639
 7532SOL    HW123495   4.524   5.440   6.650
 7532SOL    HW223496   4.456   5.305   6.591
 7533SOL     OW23497   4.752   3.506   1.544
 7533SOL    HW123498   4.686   3.581   1.549
 7533SOL    HW223499   4.715   3.426   1.590
 7534SOL     OW23500   4.364   0.041   4.218
 7534SOL    HW123501   4.419   0.005   4.293
 7534SOL    HW223502   4.295   6.994   4.191
 7535SOL     OW23503   0.634   5.406   4.063
 7535SOL    HW123504   0.630   5.392   4.162
 7535SOL    HW223505   0.718   5.455   4.040
 7536SOL     OW23506   4.934   5.513   4.377
 7536SOL    HW123507   4.836   5.525   4.390
 7536SOL    HW223508   4.952   5.477   4.286
 7537SOL     OW23509   3.056   6.010   2.788
 7537SOL    HW123510   2.984   6.075   2.762
 7537SOL    HW223511   3.015   5.928   2.827
 7538SOL     OW23512   1.061   4.160   1.167
 7538SOL    HW123513   1.066   4.070   1.122
 7538SOL    HW223514   1.026   4.227   1.102
 7539SOL     OW23515   0.468   6.063   3.735
 7539SOL    HW123516   0.496   6.153   3.767
 7539SOL    HW223517   0.387   6.032   3.785
 7540SOL     OW23518   5.657   4.898   4.163
 7540SOL    HW123519   5.697   4.857   4.082
 7540SOL    HW223520   5.557   4.886   4.162
 7541SOL     OW23521   0.966   4.151   6.963
 7541SOL    HW123522   0.939   4.126   6.870
 7541SOL    HW223523   0.885   4.166   7.018
 7542SOL     OW23524   5.827   5.317   6.317
 7542SOL    HW123525   5.835   5.315   6.217
 7542SOL    HW223526   5.732   5.339   6.341
 7543SOL     OW23527   2.999   1.275   5.778
 7543SOL    HW123528   3.036   1.245   5.865
 7543SOL    HW223529   3.063   1.339   5.735
 7544SOL     OW23530   0.163   2.747   4.057
 7544SOL    HW123531   0.076   2.710   4.090
 7544SOL    HW223532   0.198   2.689   3.983
 7545SOL     OW23533   0.973   4.838   0.156
 7545SOL    HW123534   1.019   4.913   0.202
 7545SOL    HW223535   0.904   4.798   0.217
 7546SOL     OW23536   3.267   3.080   1.720
 7546SOL    HW123537   3.187   3.121   1.762
 7546SOL    HW223538   3.300   3.004   1.777
 7547SOL     OW23539   4.391   0.082   2.141
 7547SOL    HW123540   4.448   0.162   2.158
 7547SOL    HW223541   4.296   0.103   2.165
 7548SOL     OW23542   4.503   2.383   6.634
 7548SOL    HW123543   4.603   2.378   6.626
 7548SOL    HW223544   4.479   2.441   6.711
 7549SOL     OW23545   4.149   2.710   5.392
 7549SOL    HW123546   4.112   2.798   5.365
 7549SOL    HW223547   4.137   2.644   5.317
 7550SOL     OW23548   1.927   4.273   4.200
 7550SOL    HW123549   2.016   4.301   4.237
 7550SOL    HW223550   1.861   4.347   4.212
 7551SOL     OW23551   5.846   2.258   5.741
 7551SOL    HW123552   5.908   2.272   5.819
 7551SOL    HW223553   5.900   2.232   5.660
 7552SOL     OW23554   2.750   5.980   4.860
 7552SOL    HW123555   2.670   6.038   4.849
 7552SOL    HW223556   2.734   5.913   4.932
 7553SOL     OW23557   5.625   5.721   5.917
 7553SOL    HW123558   5.563   5.643   5.905
 7553SOL    HW223559   5.573   5.806   5.916
 7554SOL     OW23560   5.559   0.732   1.160
 7554SOL    HW123561   5.467   0.759   1.134
 7554SOL    HW223562   5.567   0.732   1.259
 7555SOL     OW23563   3.591   5.081   6.078
 7555SOL    HW123564   3.679   5.128   6.069
 7555SOL    HW223565   3.525   5.123   6.016
 7556SOL     OW23566   0.344   6.945   0.805
 7556SOL    HW123567   0.370   0.021   0.804
 7556SOL    HW223568   0.274   6.930   0.875
 7557SOL     OW23569   4.920   0.571   0.321
 7557SOL    HW123570   5.016   0.558   0.295
 7557SOL    HW223571   4.916   0.625   0.405
 7558SOL     OW23572   1.962   2.029   4.175
 7558SOL    HW123573   1.863   2.040   4.164
 7558SOL    HW223574   1.991   2.068   4.263
 7559SOL     OW23575   4.318   2.313   4.783
 7559SOL    HW123576   4.416   2.309   4.804
 7559SOL    HW223577   4.268   2.347   4.863
 7560SOL     OW23578   0.442   0.349   6.170
 7560SOL    HW123579   0.519   0.368   6.230
 7560SOL    HW223580   0.383   0.430   6.165
 7561SOL     OW23581   5.484   2.196   4.953
 7561SOL    HW123582   5.455   2.119   5.009
 7561SOL    HW223583   5.404   2.245   4.918
 7562SOL     OW23584   1.534   4.776   3.875
 7562SOL    HW123585   1.504   4.855   3.823
 7562SOL    HW223586   1.626   4.791   3.909
 7563SOL     OW23587   3.282   5.690   2.398
 7563SOL    HW123588   3.294   5.596   2.432
 7563SOL    HW223589   3.277   5.753   2.475
 7564SOL     OW23590   4.715   1.381   4.469
 7564SOL    HW123591   4.717   1.454   4.537
 7564SOL    HW223592   4.693   1.294   4.513
 7565SOL     OW23593   5.400   3.574   6.737
 7565SOL    HW123594   5.305   3.588   6.763
 7565SOL    HW223595   5.419   3.623   6.651
 7566SOL     OW23596   3.867   4.042   1.500
 7566SOL    HW123597   3.845   4.139   1.491
 7566SOL    HW223598   3.966   4.030   1.503
 7567SOL     OW23599   0.960   0.634   4.870
 7567SOL    HW123600   0.885   0.634   4.937
 7567SOL    HW223601   0.967   0.724   4.827
 7568SOL     OW23602   6.130   5.525   1.237
 7568SOL    HW123603   6.049   5.528   1.179
 7568SOL    HW223604   6.114   5.577   1.321
 7569SOL     OW23605   4.446   3.809   6.739
 7569SOL    HW123606   4.479   3.856   6.657
 7569SOL    HW223607   4.425   3.714   6.717
 7570SOL     OW23608   6.448   3.055   3.041
 7570SOL    HW123609   6.542   3.087   3.051
 7570SOL    HW223610   6.443   2.957   3.063
 7571SOL     OW23611   4.409   2.355   2.758
 7571SOL    HW123612   4.471   2.430   2.779
 7571SOL    HW223613   4.358   2.329   2.840
 7572SOL     OW23614   4.939   6.203   2.541
 7572SOL    HW123615   5.009   6.264   2.502
 7572SOL    HW223616   4.850   6.227   2.503
 7573SOL     OW23617   4.954   6.377   5.691
 7573SOL    HW123618   4.970   6.279   5.702
 7573SOL    HW223619   4.879   6.391   5.627
 7574SOL     OW23620   0.025   1.477   4.481
 7574SOL    HW123621   0.078   1.429   4.411
 7574SOL    HW223622   0.061   1.570   4.492
 7575SOL     OW23623   0.156   6.629   2.239
 7575SOL    HW123624   0.074   6.573   2.236
 7575SOL    HW223625   0.202   6.627   2.149
 7576SOL     OW23626   5.514   2.675   0.573
 7576SOL    HW123627   5.515   2.660   0.672
 7576SOL    HW223628   5.461   2.757   0.552
 7577SOL     OW23629   0.785   0.294   0.750
 7577SOL    HW123630   0.838   0.295   0.665
 7577SOL    HW223631   0.799   0.206   0.796
 7578SOL     OW23632   6.759   6.015   3.354
 7578SOL    HW123633   6.741   6.105   3.314
 7578SOL    HW223634   6.840   5.975   3.312
 7579SOL     OW23635   6.617   1.149   6.743
 7579SOL    HW123636   6.581   1.145   6.836
 7579SOL    HW223637   6.547   1.186   6.682
 7580SOL     OW23638   2.231   4.970   3.603
 7580SOL    HW123639   2.283   4.903   3.656
 7580SOL    HW223640   2.284   5.055   3.596
 7581SOL     OW23641   6.708   0.999   2.354
 7581SOL    HW123642   6.669   0.908   2.339
 7581SOL    HW223643   6.670   1.038   2.437
 7582SOL     OW23644   3.347   1.521   4.552
 7582SOL    HW123645   3.399   1.439   4.572
 7582SOL    HW223646   3.387   1.599   4.602
 7583SOL     OW23647   4.939   3.299   3.541
 7583SOL    HW123648   4.861   3.294   3.603
 7583SOL    HW223649   4.908   3.289   3.446
 7584SOL     OW23650   6.895   0.379   2.795
 7584SOL    HW123651   6.934   0.324   2.721
 7584SOL    HW223652   6.960   0.449   2.823
 7585SOL     OW23653   0.813   2.215   6.780
 7585SOL    HW123654   0.779   2.308   6.792
 7585SOL    HW223655   0.911   2.218   6.759
 7586SOL     OW23656   1.286   1.797   2.835
 7586SOL    HW123657   1.228   1.716   2.831
 7586SOL    HW223658   1.261   1.853   2.913
 7587SOL     OW23659   3.131   1.438   0.485
 7587SOL    HW123660   3.174   1.348   0.481
 7587SOL    HW223661   3.089   1.451   0.575
 7588SOL     OW23662   1.701   2.667   4.569
 7588SOL    HW123663   1.706   2.722   4.653
 7588SOL    HW223664   1.719   2.725   4.490
 7589SOL     OW23665   0.003   1.013   3.262
 7589SOL    HW123666   0.033   1.006   3.167
 7589SOL    HW223667   0.075   0.978   3.323
 7590SOL     OW23668   7.004   1.549   0.085
 7590SOL    HW123669   7.007   1.606   0.167
 7590SOL    HW223670   7.005   1.607   0.004
 7591SOL     OW23671   4.169   3.274   5.356
 7591SOL    HW123672   4.099   3.345   5.357
 7591SOL    HW223673   4.236   3.292   5.428
 7592SOL     OW23674   7.006   6.600   5.148
 7592SOL    HW123675   6.911   6.586   5.123
 7592SOL    HW223676   0.020   6.682   5.102
 7593SOL     OW23677   0.824   1.407   6.023
 7593SOL    HW123678   0.779   1.371   5.940
 7593SOL    HW223679   0.874   1.333   6.068
 7594SOL     OW23680   0.665   4.533   0.751
 7594SOL    HW123681   0.720   4.566   0.828
 7594SOL    HW223682   0.587   4.481   0.786
 7595SOL     OW23683   6.680   2.442   5.956
 7595SOL    HW123684   6.672   2.457   6.055
 7595SOL    HW223685   6.777   2.431   5.932
 7596SOL     OW23686   2.870   0.992   5.207
 7596SOL    HW123687   2.856   1.005   5.109
 7596SOL    HW223688   2.835   0.902   5.233
 7597SOL     OW23689   1.502   4.793   2.278
 7597SOL    HW123690   1.524   4.696   2.285
 7597SOL    HW223691   1.547   4.832   2.197
 7598SOL     OW23692   6.470   1.142   3.284
 7598SOL    HW123693   6.479   1.200   3.203
 7598SOL    HW223694   6.527   1.060   3.273
 7599SOL     OW23695   3.957   3.456   1.170
 7599SOL    HW123696   3.941   3.486   1.264
 7599SOL    HW223697   3.997   3.364   1.170
 7600SOL     OW23698   1.339   1.004   4.058
 7600SOL    HW123699   1.292   0.931   4.008
 7600SOL    HW223700   1.279   1.084   4.065
 7601SOL     OW23701   3.882   6.033   1.936
 7601SOL    HW123702   3.898   5.983   1.851
 7601SOL    HW223703   3.796   6.003   1.977
 7602SOL     OW23704   6.978   1.437   0.891
 7602SOL    HW123705   6.888   1.427   0.934
 7602SOL    HW223706   6.998   1.534   0.877
 7603SOL     OW23707   2.360   0.570   5.481
 7603SOL    HW123708   2.425   0.640   5.451
 7603SOL    HW223709   2.370   0.490   5.422
 7604SOL     OW23710   0.687   2.648   4.781
 7604SOL    HW123711   0.765   2.593   4.810
 7604SOL    HW223712   0.704   2.744   4.803
 7605SOL     OW23713   2.585   6.954   0.337
 7605SOL    HW123714   2.552   6.940   0.430
 7605SOL    HW223715   2.528   0.000   0.291
 7606SOL     OW23716   6.644   1.862   3.550
 7606SOL    HW123717   6.691   1.877   3.463
 7606SOL    HW223718   6.663   1.938   3.611
 7607SOL     OW23719   2.637   5.646   5.702
 7607SOL    HW123720   2.719   5.609   5.744
 7607SOL    HW223721   2.559   5.588   5.726
 7608SOL     OW23722   6.199   2.496   5.971
 7608SOL    HW123723   6.138   2.575   5.962
 7608SOL    HW223724   6.215   2.477   6.068
 7609SOL     OW23725   0.617   1.494   5.096
 7609SOL    HW123726   0.526   1.472   5.132
 7609SOL    HW223727   0.609   1.570   5.032
 7610SOL     OW23728   3.510   4.996   5.740
 7610SOL    HW123729   3.505   4.975   5.642
 7610SOL    HW223730   3.447   4.936   5.790
 7611SOL     OW23731   4.573   3.298   1.250
 7611SOL    HW123732   4.560   3.221   1.312
 7611SOL    HW223733   4.666   3.334   1.261
 7612SOL     OW23734   2.349   1.745   3.104
 7612SOL    HW123735   2.429   1.804   3.102
 7612SOL    HW223736   2.266   1.801   3.099
 7613SOL     OW23737   0.554   1.086   2.450
 7613SOL    HW123738   0.464   1.043   2.458
 7613SOL    HW223739   0.544   1.176   2.406
 7614SOL     OW23740   5.196   3.560   0.716
 7614SOL    HW123741   5.220   3.463   0.715
 7614SOL    HW223742   5.102   3.571   0.684
 7615SOL     OW23743   5.643   3.272   4.807
 7615SOL    HW123744   5.547   3.269   4.834
 7615SOL    HW223745   5.654   3.331   4.728
 7616SOL     OW23746   6.539   6.901   3.498
 7616SOL    HW123747   6.457   6.927   3.447
 7616SOL    HW223748   6.514   6.837   3.571
 7617SOL     OW23749   5.414   5.392   3.228
 7617SOL    HW123750   5.450   5.456   3.161
 7617SOL    HW223751   5.400   5.303   3.185
 7618SOL     OW23752   2.946   3.277   0.409
 7618SOL    HW123753   2.874   3.215   0.376
 7618SOL    HW223754   3.034   3.229   0.407
 7619SOL     OW23755   0.720   2.292   4.327
 7619SOL    HW123756   0.715   2.261   4.422
 7619SOL    HW223757   0.816   2.306   4.303
 7620SOL     OW23758   3.772   3.804   1.467
 7620SOL    HW123759   3.820   3.890   1.487
 7620SOL    HW223760   3.679   3.808   1.505
 7621SOL     OW23761   0.366   5.280   0.745
 7621SOL    HW123762   0.386   5.377   0.752
 7621SOL    HW223763   0.407   5.243   0.661
 7622SOL     OW23764   3.170   3.559   1.072
 7622SOL    HW123765   3.103   3.593   1.138
 7622SOL    HW223766   3.262   3.581   1.104
 7623SOL     OW23767   4.716   4.853   1.241
 7623SOL    HW123768   4.635   4.879   1.190
 7623SOL    HW223769   4.706   4.880   1.337
 7624SOL     OW23770   0.806   2.992   2.294
 7624SOL    HW123771   0.775   2.978   2.200
 7624SOL    HW223772   0.899   2.956   2.304
 7625SOL     OW23773   5.186   1.817   0.470
 7625SOL    HW123774   5.197   1.755   0.547
 7625SOL    HW223775   5.091   1.816   0.440
 7626SOL     OW23776   5.659   0.661   5.028
 7626SOL    HW123777   5.638   0.757   5.049
 7626SOL    HW223778   5.754   0.654   4.998
 7627SOL     OW23779   3.520   1.948   6.305
 7627SOL    HW123780   3.478   1.866   6.344
 7627SOL    HW223781   3.527   2.019   6.376
 7628SOL     OW23782   3.444   2.854   0.124
 7628SOL    HW123783   3.352   2.836   0.158
 7628SOL    HW223784   3.440   2.879   0.027
 7629SOL     OW23785   6.164   3.058   3.660
 7629SOL    HW123786   6.140   3.128   3.727
 7629SOL    HW223787   6.115   3.076   3.574
 7630SOL     OW23788   1.183   6.813   5.602
 7630SOL    HW123789   1.233   6.832   5.518
 7630SOL    HW223790   1.165   6.715   5.609
 7631SOL     OW23791   1.821   6.933   5.337
 7631SOL    HW123792   1.913   6.967   5.357
 7631SOL    HW223793   1.827   6.855   5.275
 7632SOL     OW23794   4.752   5.424   0.390
 7632SOL    HW123795   4.830   5.459   0.337
 7632SOL    HW223796   4.767   5.327   0.409
 7633SOL     OW23797   6.269   1.080   0.974
 7633SOL    HW123798   6.288   1.134   0.891
 7633SOL    HW223799   6.302   0.987   0.961
 7634SOL     OW23800   0.349   1.994   0.244
 7634SOL    HW123801   0.271   2.039   0.286
 7634SOL    HW223802   0.422   2.061   0.227
 7635SOL     OW23803   2.664   4.559   6.275
 7635SOL    HW123804   2.595   4.622   6.239
 7635SOL    HW223805   2.685   4.489   6.206
 7636SOL     OW23806   0.492   3.536   4.936
 7636SOL    HW123807   0.541   3.608   4.887
 7636SOL    HW223808   0.548   3.453   4.937
 7637SOL     OW23809   0.908   6.261   4.352
 7637SOL    HW123810   0.856   6.233   4.272
 7637SOL    HW223811   0.892   6.197   4.427
 7638SOL     OW23812   0.655   5.465   1.502
 7638SOL    HW123813   0.721   5.484   1.429
 7638SOL    HW223814   0.705   5.448   1.587
 7639SOL     OW23815   1.475   1.136   0.192
 7639SOL    HW123816   1.550   1.086   0.234
 7639SOL    HW223817   1.493   1.147   0.094
 7640SOL     OW23818   3.289   0.894   6.718
 7640SOL    HW123819   3.263   0.801   6.745
 7640SOL    HW223820   3.207   0.949   6.706
 7641SOL     OW23821   0.516   3.950   3.011
 7641SOL    HW123822   0.552   3.858   3.024
 7641SOL    HW223823   0.424   3.956   3.051
 7642SOL     OW23824   6.101   0.970   3.828
 7642SOL    HW123825   6.010   1.011   3.827
 7642SOL    HW223826   6.143   0.985   3.917
 7643SOL     OW23827   5.109   3.244   2.946
 7643SOL    HW123828   5.017   3.284   2.951
 7643SOL    HW223829   5.149   3.240   3.037
 7644SOL     OW23830   5.047   3.842   1.330
 7644SOL    HW123831   5.105   3.894   1.393
 7644SOL    HW223832   5.103   3.805   1.256
 7645SOL     OW23833   3.379   3.846   6.119
 7645SOL    HW123834   3.371   3.746   6.115
 7645SOL    HW223835   3.387   3.882   6.026
 7646SOL     OW23836   0.620   2.623   2.880
 7646SOL    HW123837   0.602   2.654   2.787
 7646SOL    HW223838   0.690   2.682   2.921
 7647SOL     OW23839   6.749   3.090   5.402
 7647SOL    HW123840   6.673   3.037   5.364
 7647SOL    HW223841   6.808   3.120   5.327
 7648SOL     OW23842   2.662   1.394   1.583
 7648SOL    HW123843   2.610   1.350   1.509
 7648SOL    HW223844   2.688   1.325   1.651
 7649SOL     OW23845   5.148   1.024   5.353
 7649SOL    HW123846   5.124   0.927   5.354
 7649SOL    HW223847   5.212   1.042   5.278
 7650SOL     OW23848   3.924   1.962   0.535
 7650SOL    HW123849   3.883   1.956   0.626
 7650SOL    HW223850   3.987   1.886   0.522
 7651SOL     OW23851   2.408   4.479   5.759
 7651SOL    HW123852   2.472   4.550   5.790
 7651SOL    HW223853   2.433   4.452   5.666
 7652SOL     OW23854   6.136   1.190   4.098
 7652SOL    HW123855   6.104   1.278   4.133
 7652SOL    HW223856   6.229   1.200   4.064
 7653SOL     OW23857   0.588   1.761   6.548
 7653SOL    HW123858   0.614   1.694   6.617
 7653SOL    HW223859   0.498   1.798   6.570
 7654SOL     OW23860   5.903   2.512   6.434
 7654SOL    HW123861   5.896   2.514   6.533
 7654SOL    HW223862   5.896   2.604   6.397
 7655SOL     OW23863   3.150   0.567   3.361
 7655SOL    HW123864   3.197   0.585   3.275
 7655SOL    HW223865   3.211   0.517   3.423
 7656SOL     OW23866   6.762   3.388   6.854
 7656SOL    HW123867   6.684   3.333   6.826
 7656SOL    HW223868   6.748   3.483   6.826
 7657SOL     OW23869   1.443   3.772   4.710
 7657SOL    HW123870   1.381   3.849   4.694
 7657SOL    HW223871   1.467   3.729   4.623
 7658SOL     OW23872   2.867   1.479   0.635
 7658SOL    HW123873   2.819   1.492   0.722
 7658SOL    HW223874   2.857   1.561   0.579
 7659SOL     OW23875   4.259   3.695   5.452
 7659SOL    HW123876   4.317   3.665   5.376
 7659SOL    HW223877   4.206   3.775   5.425
 7660SOL     OW23878   0.181   5.654   4.716
 7660SOL    HW123879   0.122   5.618   4.645
 7660SOL    HW223880   0.276   5.653   4.685
 7661SOL     OW23881   4.641   2.917   5.944
 7661SOL    HW123882   4.700   2.849   5.989
 7661SOL    HW223883   4.575   2.869   5.886
 7662SOL     OW23884   0.717   1.916   1.916
 7662SOL    HW123885   0.800   1.894   1.865
 7662SOL    HW223886   0.711   1.857   1.997
 7663SOL     OW23887   6.683   5.322   5.494
 7663SOL    HW123888   6.657   5.227   5.480
 7663SOL    HW223889   6.695   5.367   5.405
 7664SOL     OW23890   3.793   2.066   2.502
 7664SOL    HW123891   3.745   2.066   2.590
 7664SOL    HW223892   3.729   2.041   2.430
 7665SOL     OW23893   4.040   1.382   4.592
 7665SOL    HW123894   4.056   1.299   4.539
 7665SOL    HW223895   4.083   1.374   4.682
 7666SOL     OW23896   5.871   4.903   4.331
 7666SOL    HW123897   5.810   4.891   4.253
 7666SOL    HW223898   5.931   4.982   4.315
 7667SOL     OW23899   4.905   6.337   1.667
 7667SOL    HW123900   4.837   6.278   1.622
 7667SOL    HW223901   4.860   6.421   1.697
 7668SOL     OW23902   2.306   4.908   1.033
 7668SOL    HW123903   2.400   4.905   1.068
 7668SOL    HW223904   2.243   4.878   1.104
 7669SOL     OW23905   2.760   6.725   5.648
 7669SOL    HW123906   2.662   6.729   5.627
 7669SOL    HW223907   2.799   6.817   5.643
 7670SOL     OW23908   0.217   6.377   0.203
 7670SOL    HW123909   0.270   6.457   0.232
 7670SOL    HW223910   0.242   6.354   0.109
 7671SOL     OW23911   4.917   0.511   1.112
 7671SOL    HW123912   4.876   0.593   1.072
 7671SOL    HW223913   4.894   0.431   1.057
 7672SOL     OW23914   5.500   4.609   2.986
 7672SOL    HW123915   5.448   4.678   2.935
 7672SOL    HW223916   5.535   4.540   2.922
 7673SOL     OW23917   0.715   5.832   4.040
 7673SOL    HW123918   0.795   5.892   4.036
 7673SOL    HW223919   0.741   5.741   4.008
 7674SOL     OW23920   3.887   6.300   4.436
 7674SOL    HW123921   3.972   6.276   4.389
 7674SOL    HW223922   3.821   6.336   4.370
 7675SOL     OW23923   4.012   6.927   2.889
 7675SOL    HW123924   3.917   6.957   2.902
 7675SOL    HW223925   4.025   6.896   2.795
 7676SOL     OW23926   3.020   2.869   5.335
 7676SOL    HW123927   3.037   2.926   5.415
 7676SOL    HW223928   3.033   2.924   5.252
 7677SOL     OW23929   5.946   4.916   1.180
 7677SOL    HW123930   5.945   5.013   1.205
 7677SOL    HW223931   6.007   4.867   1.242
 7678SOL     OW23932   1.354   1.139   5.501
 7678SOL    HW123933   1.348   1.039   5.494
 7678SOL    HW223934   1.290   1.180   5.436
 7679SOL     OW23935   1.897   5.417   5.576
 7679SOL    HW123936   1.944   5.328   5.580
 7679SOL    HW223937   1.955   5.483   5.529
 7680SOL     OW23938   2.013   0.301   5.086
 7680SOL    HW123939   2.070   0.312   5.005
 7680SOL    HW223940   1.942   0.233   5.068
 7681SOL     OW23941   2.683   3.625   6.643
 7681SOL    HW123942   2.684   3.588   6.551
 7681SOL    HW223943   2.751   3.698   6.650
 7682SOL     OW23944   3.032   1.536   2.179
 7682SOL    HW123945   3.016   1.567   2.085
 7682SOL    HW223946   3.008   1.609   2.243
 7683SOL     OW23947   1.025   0.771   4.264
 7683SOL    HW123948   1.079   0.723   4.194
 7683SOL    HW223949   1.047   0.868   4.263
 7684SOL     OW23950   4.469   2.053   1.606
 7684SOL    HW123951   4.399   2.064   1.537
 7684SOL    HW223952   4.552   2.101   1.578
 7685SOL     OW23953   2.586   0.793   0.118
 7685SOL    HW123954   2.524   0.715   0.109
 7685SOL    HW223955   2.624   0.794   0.211
 7686SOL     OW23956   5.672   0.258   4.313
 7686SOL    HW123957   5.579   0.295   4.312
 7686SOL    HW223958   5.729   0.308   4.248
 7687SOL     OW23959   5.261   5.268   5.100
 7687SOL    HW123960   5.316   5.184   5.094
 7687SOL    HW223961   5.170   5.246   5.135
 7688SOL     OW23962   0.442   4.814   6.863
 7688SOL    HW123963   0.525   4.840   6.814
 7688SOL    HW223964   0.432   4.715   6.862
 7689SOL     OW23965   4.650   0.366   1.643
 7689SOL    HW123966   4.714   0.374   1.719
 7689SOL    HW223967   4.588   0.289   1.659
 7690SOL     OW23968   6.094   5.883   1.177
 7690SOL    HW123969   6.125   5.942   1.251
 7690SOL    HW223970   6.029   5.816   1.212
 7691SOL     OW23971   4.469   4.532   2.620
 7691SOL    HW123972   4.564   4.499   2.617
 7691SOL    HW223973   4.422   4.503   2.537
 7692SOL     OW23974   2.283   6.626   2.230
 7692SOL    HW123975   2.229   6.583   2.157
 7692SOL    HW223976   2.263   6.581   2.317
 7693SOL     OW23977   2.708   1.777   0.746
 7693SOL    HW123978   2.662   1.689   0.740
 7693SOL    HW223979   2.800   1.764   0.784
 7694SOL     OW23980   5.685   2.088   5.316
 7694SOL    HW123981   5.694   2.155   5.389
 7694SOL    HW223982   5.611   2.025   5.337
 7695SOL     OW23983   5.456   0.426   2.844
 7695SOL    HW123984   5.454   0.439   2.745
 7695SOL    HW223985   5.513   0.347   2.867
 7696SOL     OW23986   0.404   2.720   6.537
 7696SOL    HW123987   0.343   2.706   6.615
 7696SOL    HW223988   0.497   2.692   6.561
 7697SOL     OW23989   4.544   0.017   2.813
 7697SOL    HW123990   4.549   6.996   2.904
 7697SOL    HW223991   4.454   7.020   2.773
 7698SOL     OW23992   6.263   1.952   6.841
 7698SOL    HW123993   6.358   1.925   6.824
 7698SOL    HW223994   6.203   1.874   6.820
 7699SOL     OW23995   3.408   5.003   5.472
 7699SOL    HW123996   3.478   5.058   5.428
 7699SOL    HW223997   3.365   4.943   5.404
 7700SOL     OW23998   5.064   5.360   2.748
 7700SOL    HW123999   5.004   5.282   2.763
 7700SOL    HW224000   5.136   5.335   2.684
 7701SOL     OW24001   0.264   2.325   6.043
 7701SOL    HW124002   0.266   2.317   5.943
 7701SOL    HW224003   0.283   2.420   6.069
 7702SOL     OW24004   4.560   0.259   5.084
 7702SOL    HW124005   4.589   0.342   5.132
 7702SOL    HW224006   4.525   0.284   4.993
 7703SOL     OW24007   6.410   6.832   4.913
 7703SOL    HW124008   6.391   6.817   4.816
 7703SOL    HW224009   6.377   6.923   4.940
 7704SOL     OW24010   6.600   1.508   4.445
 7704SOL    HW124011   6.622   1.595   4.403
 7704SOL    HW224012   6.532   1.460   4.390
 7705SOL     OW24013   2.170   5.317   0.578
 7705SOL    HW124014   2.165   5.398   0.636
 7705SOL    HW224015   2.081   5.300   0.536
 7706SOL     OW24016   3.463   2.846   2.152
 7706SOL    HW124017   3.513   2.765   2.183
 7706SOL    HW224018   3.389   2.866   2.217
 7707SOL     OW24019   6.704   5.120   6.723
 7707SOL    HW124020   6.705   5.039   6.782
 7707SOL    HW224021   6.648   5.101   6.642
 7708SOL     OW24022   2.257   0.091   4.747
 7708SOL    HW124023   2.193   0.069   4.821
 7708SOL    HW224024   2.211   0.152   4.682
 7709SOL     OW24025   0.250   5.163   1.703
 7709SOL    HW124026   0.162   5.199   1.736
 7709SOL    HW224027   0.319   5.235   1.707
 7710SOL     OW24028   0.832   3.765   1.652
 7710SOL    HW124029   0.798   3.832   1.587
 7710SOL    HW224030   0.758   3.740   1.715
 7711SOL     OW24031   6.901   4.998   5.243
 7711SOL    HW124032   6.843   5.067   5.199
 7711SOL    HW224033   6.996   5.011   5.215
 7712SOL     OW24034   6.549   4.387   6.146
 7712SOL    HW124035   6.505   4.326   6.080
 7712SOL    HW224036   6.493   4.469   6.158
 7713SOL     OW24037   2.131   4.773   0.073
 7713SOL    HW124038   2.084   4.686   0.089
 7713SOL    HW224039   2.136   4.790   6.995
 7714SOL     OW24040   6.573   0.948   4.952
 7714SOL    HW124041   6.507   0.888   4.997
 7714SOL    HW224042   6.568   0.934   4.853
 7715SOL     OW24043   2.990   2.778   5.708
 7715SOL    HW124044   2.898   2.795   5.742
 7715SOL    HW224045   2.987   2.712   5.633
 7716SOL     OW24046   1.265   5.506   5.572
 7716SOL    HW124047   1.319   5.479   5.493
 7716SOL    HW224048   1.176   5.540   5.543
 7717SOL     OW24049   1.184   1.847   6.644
 7717SOL    HW124050   1.152   1.840   6.549
 7717SOL    HW224051   1.198   1.943   6.668
 7718SOL     OW24052   1.119   3.993   2.828
 7718SOL    HW124053   1.177   4.070   2.856
 7718SOL    HW224054   1.161   3.907   2.857
 7719SOL     OW24055   1.587   4.090   4.777
 7719SOL    HW124056   1.522   4.104   4.702
 7719SOL    HW224057   1.667   4.041   4.744
 7720SOL     OW24058   5.663   1.753   6.608
 7720SOL    HW124059   5.636   1.847   6.632
 7720SOL    HW224060   5.750   1.755   6.558
 7721SOL     OW24061   0.761   0.710   2.264
 7721SOL    HW124062   0.842   0.650   2.261
 7721SOL    HW224063   0.757   0.756   2.353
 7722SOL     OW24064   2.354   5.779   3.159
 7722SOL    HW124065   2.261   5.814   3.144
 7722SOL    HW224066   2.357   5.728   3.245
 7723SOL     OW24067   5.168   4.513   0.801
 7723SOL    HW124068   5.120   4.508   0.713
 7723SOL    HW224069   5.154   4.603   0.842
 7724SOL     OW24070   2.255   3.995   2.037
 7724SOL    HW124071   2.341   3.969   2.081
 7724SOL    HW224072   2.186   4.012   2.108
 7725SOL     OW24073   5.578   3.353   3.415
 7725SOL    HW124074   5.564   3.302   3.500
 7725SOL    HW224075   5.523   3.313   3.342
 7726SOL     OW24076   0.227   2.903   6.416
 7726SOL    HW124077   0.289   2.840   6.464
 7726SOL    HW224078   0.158   2.937   6.480
 7727SOL     OW24079   5.443   2.104   2.344
 7727SOL    HW124080   5.518   2.097   2.409
 7727SOL    HW224081   5.477   2.088   2.251
 7728SOL     OW24082   2.053   3.293   4.499
 7728SOL    HW124083   1.954   3.284   4.506
 7728SOL    HW224084   2.082   3.380   4.537
 7729SOL     OW24085   6.618   2.252   4.197
 7729SOL    HW124086   6.706   2.294   4.221
 7729SOL    HW224087   6.621   2.154   4.216
 7730SOL     OW24088   6.531   4.281   5.034
 7730SOL    HW124089   6.485   4.255   5.119
 7730SOL    HW224090   6.539   4.200   4.975
 7731SOL     OW24091   6.233   6.907   6.986
 7731SOL    HW124092   6.158   6.888   6.922
 7731SOL    HW224093   6.213   6.992   0.015
 7732SOL     OW24094   4.301   0.130   6.516
 7732SOL    HW124095   4.221   0.161   6.466
 7732SOL    HW224096   4.328   0.039   6.484
 7733SOL     OW24097   6.407   5.878   2.323
 7733SOL    HW124098   6.344   5.819   2.273
 7733SOL    HW224099   6.413   5.847   2.418
 7734SOL     OW24100   3.290   3.835   5.127
 7734SOL    HW124101   3.274   3.925   5.086
 7734SOL    HW224102   3.384   3.831   5.163
 7735SOL     OW24103   6.960   6.008   0.775
 7735SOL    HW124104   0.033   6.014   0.741
 7735SOL    HW224105   6.948   5.922   0.825
 7736SOL     OW24106   3.027   3.354   0.676
 7736SOL    HW124107   3.017   3.353   0.577
 7736SOL    HW224108   3.056   3.263   0.708
 7737SOL     OW24109   3.866   4.558   1.301
 7737SOL    HW124110   3.923   4.549   1.219
 7737SOL    HW224111   3.789   4.618   1.281
 7738SOL     OW24112   2.626   6.345   6.640
 7738SOL    HW124113   2.593   6.255   6.610
 7738SOL    HW224114   2.571   6.375   6.718
 7739SOL     OW24115   1.106   2.073   0.323
 7739SOL    HW124116   1.053   2.078   0.408
 7739SOL    HW224117   1.061   2.011   0.259
 7740SOL     OW24118   1.605   0.759   4.582
 7740SOL    HW124119   1.565   0.757   4.491
 7740SOL    HW224120   1.660   0.842   4.593
 7741SOL     OW24121   1.602   4.016   6.357
 7741SOL    HW124122   1.678   3.973   6.309
 7741SOL    HW224123   1.565   4.091   6.301
 7742SOL     OW24124   4.269   1.635   3.989
 7742SOL    HW124125   4.292   1.610   3.895
 7742SOL    HW224126   4.319   1.718   4.015
 7743SOL     OW24127   5.020   1.925   5.650
 7743SOL    HW124128   5.082   1.952   5.723
 7743SOL    HW224129   4.941   1.986   5.649
 7744SOL     OW24130   0.347   6.609   4.434
 7744SOL    HW124131   0.414   6.551   4.480
 7744SOL    HW224132   0.285   6.649   4.501
 7745SOL     OW24133   2.230   0.178   0.771
 7745SOL    HW124134   2.296   0.250   0.793
 7745SOL    HW224135   2.278   0.098   0.736
 7746SOL     OW24136   1.374   6.177   0.794
 7746SOL    HW124137   1.433   6.231   0.735
 7746SOL    HW224138   1.390   6.201   0.890
 7747SOL     OW24139   0.936   6.114   0.809
 7747SOL    HW124140   0.958   6.098   0.713
 7747SOL    HW224141   0.849   6.163   0.816
 7748SOL     OW24142   4.044   2.557   5.606
 7748SOL    HW124143   4.032   2.508   5.520
 7748SOL    HW224144   4.090   2.644   5.589
 7749SOL     OW24145   3.626   3.510   4.185
 7749SOL    HW124146   3.564   3.573   4.138
 7749SOL    HW224147   3.597   3.416   4.167
 7750SOL     OW24148   5.541   4.397   5.543
 7750SOL    HW124149   5.606   4.349   5.484
 7750SOL    HW224150   5.448   4.377   5.511
 7751SOL     OW24151   6.792   0.887   5.128
 7751SOL    HW124152   6.720   0.909   5.063
 7751SOL    HW224153   6.873   0.855   5.079
 7752SOL     OW24154   6.171   5.729   5.262
 7752SOL    HW124155   6.224   5.760   5.341
 7752SOL    HW224156   6.106   5.799   5.235
 7753SOL     OW24157   2.452   0.773   4.444
 7753SOL    HW124158   2.397   0.789   4.526
 7753SOL    HW224159   2.393   0.773   4.364
 7754SOL     OW24160   5.870   0.595   1.306
 7754SOL    HW124161   5.836   0.646   1.385
 7754SOL    HW224162   5.797   0.537   1.270
 7755SOL     OW24163   0.943   5.606   5.417
 7755SOL    HW124164   0.944   5.583   5.514
 7755SOL    HW224165   0.950   5.706   5.407
 7756SOL     OW24166   3.698   5.458   2.077
 7756SOL    HW124167   3.716   5.379   2.135
 7756SOL    HW224168   3.784   5.505   2.056
 7757SOL     OW24169   4.580   6.389   5.760
 7757SOL    HW124170   4.583   6.417   5.664
 7757SOL    HW224171   4.626   6.300   5.770
 7758SOL     OW24172   2.728   2.080   5.703
 7758SOL    HW124173   2.823   2.078   5.674
 7758SOL    HW224174   2.693   2.174   5.696
 7759SOL     OW24175   2.156   0.960   4.058
 7759SOL    HW124176   2.077   0.939   4.116
 7759SOL    HW224177   2.230   0.896   4.078
 7760SOL     OW24178   5.243   3.065   2.359
 7760SOL    HW124179   5.162   3.123   2.351
 7760SOL    HW224180   5.321   3.119   2.390
 7761SOL     OW24181   3.287   6.853   6.913
 7761SOL    HW124182   3.279   6.902   6.826
 7761SOL    HW224183   3.213   6.785   6.919
 7762SOL     OW24184   3.995   1.422   6.843
 7762SOL    HW124185   4.034   1.337   6.808
 7762SOL    HW224186   4.045   1.450   6.925
 7763SOL     OW24187   1.749   2.169   0.412
 7763SOL    HW124188   1.663   2.218   0.429
 7763SOL    HW224189   1.785   2.197   0.323
 7764SOL     OW24190   3.623   2.939   2.506
 7764SOL    HW124191   3.642   2.956   2.410
 7764SOL    HW224192   3.709   2.934   2.557
 7765SOL     OW24193   6.694   2.502   2.994
 7765SOL    HW124194   6.620   2.447   2.956
 7765SOL    HW224195   6.689   2.595   2.958
 7766SOL     OW24196   6.314   2.171   6.996
 7766SOL    HW124197   6.227   2.214   7.019
 7766SOL    HW224198   6.298   2.087   6.945
 7767SOL     OW24199   4.362   5.739   4.173
 7767SOL    HW124200   4.462   5.737   4.160
 7767SOL    HW224201   4.338   5.813   4.234
 7768SOL     OW24202   3.806   5.165   1.774
 7768SOL    HW124203   3.741   5.092   1.752
 7768SOL    HW224204   3.830   5.161   1.871
 7769SOL     OW24205   5.478   1.979   0.803
 7769SOL    HW124206   5.558   2.007   0.751
 7769SOL    HW224207   5.488   2.010   0.898
 7770SOL     OW24208   3.018   4.789   1.503
 7770SOL    HW124209   2.993   4.700   1.465
 7770SOL    HW224210   2.948   4.856   1.477
 7771SOL     OW24211   2.745   2.571   5.975
 7771SOL    HW124212   2.727   2.648   6.036
 7771SOL    HW224213   2.741   2.486   6.027
 7772SOL     OW24214   4.629   0.537   4.202
 7772SOL    HW124215   4.720   0.573   4.222
 7772SOL    HW224216   4.623   0.514   4.105
 7773SOL     OW24217   4.127   4.065   5.803
 7773SOL    HW124218   4.172   4.000   5.864
 7773SOL    HW224219   4.030   4.070   5.823
 7774SOL     OW24220   4.822   1.914   5.980
 7774SOL    HW124221   4.867   2.002   5.972
 7774SOL    HW224222   4.886   1.847   6.017
 7775SOL     OW24223   3.560   6.575   1.927
 7775SOL    HW124224   3.610   6.661   1.916
 7775SOL    HW224225   3.473   6.593   1.974
 7776SOL     OW24226   3.852   3.641   6.671
 7776SOL    HW124227   3.811   3.732   6.683
 7776SOL    HW224228   3.859   3.596   6.760
 7777SOL     OW24229   2.274   0.463   6.271
 7777SOL    HW124230   2.301   0.514   6.352
 7777SOL    HW224231   2.248   0.527   6.198
 7778SOL     OW24232   5.239   0.255   0.116
 7778SOL    HW124233   5.229   0.300   0.027
 7778SOL    HW224234   5.150   0.221   0.145
 7779SOL     OW24235   4.112   2.610   0.514
 7779SOL    HW124236   4.098   2.516   0.546
 7779SOL    HW224237   4.083   2.674   0.584
 7780SOL     OW24238   2.225   5.920   4.819
 7780SOL    HW124239   2.167   5.957   4.891
 7780SOL    HW224240   2.246   5.824   4.839
 7781SOL     OW24241   1.410   4.148   4.996
 7781SOL    HW124242   1.454   4.126   4.910
 7781SOL    HW224243   1.317   4.180   4.979
 7782SOL     OW24244   2.265   4.095   6.316
 7782SOL    HW124245   2.317   4.103   6.401
 7782SOL    HW224246   2.209   4.176   6.304
 7783SOL     OW24247   2.669   5.621   6.773
 7783SOL    HW124248   2.644   5.527   6.750
 7783SOL    HW224249   2.617   5.685   6.716
 7784SOL     OW24250   0.362   2.936   0.034
 7784SOL    HW124251   0.429   2.863   0.015
 7784SOL    HW224252   0.330   2.974   6.969
 7785SOL     OW24253   2.422   6.176   4.334
 7785SOL    HW124254   2.445   6.209   4.426
 7785SOL    HW224255   2.376   6.088   4.340
 7786SOL     OW24256   3.171   4.538   5.322
 7786SOL    HW124257   3.168   4.480   5.404
 7786SOL    HW224258   3.092   4.518   5.264
 7787SOL     OW24259   2.187   3.170   5.240
 7787SOL    HW124260   2.263   3.111   5.213
 7787SOL    HW224261   2.151   3.140   5.328
 7788SOL     OW24262   0.262   1.711   1.008
 7788SOL    HW124263   0.251   1.615   0.981
 7788SOL    HW224264   0.352   1.723   1.051
 7789SOL     OW24265   2.485   0.886   1.164
 7789SOL    HW124266   2.565   0.865   1.108
 7789SOL    HW224267   2.415   0.928   1.107
 7790SOL     OW24268   5.353   3.110   3.004
 7790SOL    HW124269   5.338   3.012   2.997
 7790SOL    HW224270   5.409   3.140   2.927
 7791SOL     OW24271   1.661   5.035   4.572
 7791SOL    HW124272   1.638   5.020   4.476
 7791SOL    HW224273   1.721   5.114   4.580
 7792SOL     OW24274   2.829   5.684   6.155
 7792SOL    HW124275   2.783   5.739   6.224
 7792SOL    HW224276   2.875   5.743   6.089
 7793SOL     OW24277   1.361   1.157   6.132
 7793SOL    HW124278   1.338   1.179   6.037
 7793SOL    HW224279   1.332   1.064   6.152
 7794SOL     OW24280   5.404   5.387   4.298
 7794SOL    HW124281   5.499   5.391   4.267
 7794SOL    HW224282   5.343   5.411   4.223
 7795SOL     OW24283   2.027   4.462   5.330
 7795SOL    HW124284   1.989   4.372   5.351
 7795SOL    HW224285   2.123   4.464   5.356
 7796SOL     OW24286   3.524   4.132   3.057
 7796SOL    HW124287   3.487   4.115   2.966
 7796SOL    HW224288   3.449   4.142   3.122
 7797SOL     OW24289   0.007   6.950   3.089
 7797SOL    HW124290   7.000   6.989   3.177
 7797SOL    HW224291   6.947   6.939   3.031
 7798SOL     OW24292   3.448   5.742   0.673
 7798SOL    HW124293   3.403   5.822   0.633
 7798SOL    HW224294   3.444   5.748   0.773
 7799SOL     OW24295   0.000   4.915   1.437
 7799SOL    HW124296   6.963   4.997   1.441
 7799SOL    HW224297   7.018   4.877   1.344
 7800SOL     OW24298   6.997   5.492   2.046
 7800SOL    HW124299   0.066   5.535   2.058
 7800SOL    HW224300   6.954   5.479   2.135
 7801SOL     OW24301   2.635   2.245   6.934
 7801SOL    HW124302   2.593   2.212   6.849
 7801SOL    HW224303   2.612   2.342   6.946
 7802SOL     OW24304   5.475   2.719   1.544
 7802SOL    HW124305   5.414   2.772   1.602
 7802SOL    HW224306   5.545   2.674   1.600
 7803SOL     OW24307   4.280   4.401   5.571
 7803SOL    HW124308   4.292   4.361   5.480
 7803SOL    HW224309   4.347   4.361   5.634
 7804SOL     OW24310   4.953   1.942   5.392
 7804SOL    HW124311   4.968   1.916   5.487
 7804SOL    HW224312   4.988   1.869   5.332
 7805SOL     OW24313   5.175   3.447   2.143
 7805SOL    HW124314   5.103   3.506   2.107
 7805SOL    HW224315   5.154   3.422   2.238
 7806SOL     OW24316   6.008   2.689   6.094
 7806SOL    HW124317   5.995   2.764   6.029
 7806SOL    HW224318   5.920   2.643   6.109
 7807SOL     OW24319   6.921   3.879   5.907
 7807SOL    HW124320   7.001   3.860   5.850
 7807SOL    HW224321   6.899   3.976   5.902
 7808SOL     OW24322   0.796   0.913   4.751
 7808SOL    HW124323   0.807   0.893   4.654
 7808SOL    HW224324   0.703   0.889   4.779
 7809SOL     OW24325   2.794   5.570   4.933
 7809SOL    HW124326   2.846   5.507   4.990
 7809SOL    HW224327   2.831   5.570   4.840
 7810SOL     OW24328   2.817   0.524   5.608
 7810SOL    HW124329   2.746   0.459   5.637
 7810SOL    HW224330   2.774   0.609   5.580
 7811SOL     OW24331   5.489   4.408   4.090
 7811SOL    HW124332   5.528   4.485   4.141
 7811SOL    HW224333   5.424   4.360   4.148
 7812SOL     OW24334   1.871   1.240   3.860
 7812SOL    HW124335   1.820   1.159   3.889
 7812SOL    HW224336   1.831   1.275   3.775
 7813SOL     OW24337   6.345   2.966   6.910
 7813SOL    HW124338   6.313   2.900   6.843
 7813SOL    HW224339   6.445   2.971   6.907
 7814SOL     OW24340   6.965   3.566   3.705
 7814SOL    HW124341   6.999   3.634   3.770
 7814SOL    HW224342   6.874   3.535   3.734
 7815SOL     OW24343   6.133   1.461   6.226
 7815SOL    HW124344   6.192   1.437   6.149
 7815SOL    HW224345   6.073   1.536   6.199
 7816SOL     OW24346   1.114   3.886   5.661
 7816SOL    HW124347   1.115   3.894   5.562
 7816SOL    HW224348   1.068   3.965   5.701
 7817SOL     OW24349   5.587   3.919   4.745
 7817SOL    HW124350   5.654   3.988   4.773
 7817SOL    HW224351   5.532   3.955   4.670
 7818SOL     OW24352   5.729   6.311   2.027
 7818SOL    HW124353   5.816   6.304   2.076
 7818SOL    HW224354   5.742   6.283   1.932
 7819SOL     OW24355   6.942   2.392   1.635
 7819SOL    HW124356   6.892   2.441   1.706
 7819SOL    HW224357   6.974   2.457   1.565
 7820SOL     OW24358   1.639   1.517   6.479
 7820SOL    HW124359   1.561   1.575   6.456
 7820SOL    HW224360   1.656   1.453   6.404
 7821SOL     OW24361   3.187   5.262   1.468
 7821SOL    HW124362   3.237   5.342   1.434
 7821SOL    HW224363   3.184   5.266   1.568
 7822SOL     OW24364   1.116   5.471   5.019
 7822SOL    HW124365   1.080   5.554   4.977
 7822SOL    HW224366   1.118   5.398   4.951
 7823SOL     OW24367   1.559   4.341   5.168
 7823SOL    HW124368   1.645   4.298   5.141
 7823SOL    HW224369   1.488   4.320   5.101
 7824SOL     OW24370   0.485   2.742   5.170
 7824SOL    HW124371   0.566   2.688   5.192
 7824SOL    HW224372   0.438   2.702   5.091
 7825SOL     OW24373   2.499   1.751   6.667
 7825SOL    HW124374   2.536   1.780   6.579
 7825SOL    HW224375   2.532   1.659   6.688
 7826SOL     OW24376   6.784   2.378   6.932
 7826SOL    HW124377   6.722   2.339   7.000
 7826SOL    HW224378   6.854   2.432   6.978
 7827SOL     OW24379   6.945   6.112   4.089
 7827SOL    HW124380   6.945   6.014   4.067
 7827SOL    HW224381   6.865   6.134   4.144
 7828SOL     OW24382   0.625   4.126   6.864
 7828SOL    HW124383   0.670   4.036   6.870
 7828SOL    HW224384   0.601   4.156   6.956
 7829SOL     OW24385   3.313   2.676   0.954
 7829SOL    HW124386   3.292   2.715   1.044
 7829SOL    HW224387   3.406   2.639   0.954
 7830SOL     OW24388   2.839   4.713   4.254
 7830SOL    HW124389   2.929   4.754   4.237
 7830SOL    HW224390   2.805   4.671   4.170
 7831SOL     OW24391   1.603   1.752   0.411
 7831SOL    HW124392   1.668   1.718   0.343
 7831SOL    HW224393   1.510   1.741   0.377
 7832SOL     OW24394   5.566   0.639   4.544
 7832SOL    HW124395   5.577   0.569   4.615
 7832SOL    HW224396   5.655   0.663   4.505
 7833SOL     OW24397   2.363   0.821   4.164
 7833SOL    HW124398   2.398   0.864   4.080
 7833SOL    HW224399   2.357   0.722   4.150
 7834SOL     OW24400   6.198   3.236   4.378
 7834SOL    HW124401   6.210   3.332   4.402
 7834SOL    HW224402   6.153   3.189   4.454
 7835SOL     OW24403   4.353   2.059   4.976
 7835SOL    HW124404   4.447   2.079   4.948
 7835SOL    HW224405   4.336   1.961   4.966
 7836SOL     OW24406   3.840   4.286   5.377
 7836SOL    HW124407   3.784   4.306   5.297
 7836SOL    HW224408   3.811   4.343   5.454
 7837SOL     OW24409   5.834   5.904   6.433
 7837SOL    HW124410   5.819   5.805   6.439
 7837SOL    HW224411   5.749   5.952   6.450
 7838SOL     OW24412   5.482   5.366   1.178
 7838SOL    HW124413   5.516   5.321   1.095
 7838SOL    HW224414   5.503   5.463   1.174
 7839SOL     OW24415   6.293   4.215   4.139
 7839SOL    HW124416   6.204   4.239   4.099
 7839SOL    HW224417   6.289   4.123   4.178
 7840SOL     OW24418   2.216   3.093   3.732
 7840SOL    HW124419   2.219   3.107   3.831
 7840SOL    HW224420   2.202   3.180   3.686
 7841SOL     OW24421   4.707   2.358   6.000
 7841SOL    HW124422   4.662   2.295   6.064
 7841SOL    HW224423   4.643   2.385   5.929
 7842SOL     OW24424   2.012   1.646   2.217
 7842SOL    HW124425   2.081   1.576   2.233
 7842SOL    HW224426   1.925   1.602   2.193
 7843SOL     OW24427   0.254   6.434   3.232
 7843SOL    HW124428   0.223   6.513   3.284
 7843SOL    HW224429   0.206   6.352   3.265
 7844SOL     OW24430   3.516   1.107   2.818
 7844SOL    HW124431   3.538   1.094   2.721
 7844SOL    HW224432   3.424   1.072   2.837
 7845SOL     OW24433   6.251   2.272   1.230
 7845SOL    HW124434   6.288   2.279   1.137
 7845SOL    HW224435   6.294   2.195   1.277
 7846SOL     OW24436   0.690   2.909   0.574
 7846SOL    HW124437   0.763   2.976   0.563
 7846SOL    HW224438   0.659   2.908   0.669
 7847SOL     OW24439   5.833   2.784   4.643
 7847SOL    HW124440   5.742   2.743   4.650
 7847SOL    HW224441   5.825   2.884   4.635
 7848SOL     OW24442   2.925   4.703   0.814
 7848SOL    HW124443   2.951   4.612   0.783
 7848SOL    HW224444   2.928   4.707   0.913
 7849SOL     OW24445   4.575   4.001   6.154
 7849SOL    HW124446   4.496   4.062   6.152
 7849SOL    HW224447   4.579   3.954   6.242
 7850SOL     OW24448   6.802   1.486   3.616
 7850SOL    HW124449   6.864   1.506   3.692
 7850SOL    HW224450   6.853   1.495   3.530
 7851SOL     OW24451   0.556   4.452   1.998
 7851SOL    HW124452   0.539   4.491   1.908
 7851SOL    HW224453   0.502   4.369   2.009
 7852SOL     OW24454   1.766   2.366   6.863
 7852SOL    HW124455   1.669   2.373   6.842
 7852SOL    HW224456   1.800   2.454   6.896
 7853SOL     OW24457   4.212   2.904   1.665
 7853SOL    HW124458   4.132   2.949   1.704
 7853SOL    HW224459   4.295   2.945   1.702
 7854SOL     OW24460   5.070   2.450   6.233
 7854SOL    HW124461   5.020   2.526   6.275
 7854SOL    HW224462   5.166   2.475   6.222
 7855SOL     OW24463   5.087   6.920   4.363
 7855SOL    HW124464   5.087   6.903   4.462
 7855SOL    HW224465   5.140   7.002   4.343
 7856SOL     OW24466   2.103   6.177   4.696
 7856SOL    HW124467   2.189   6.144   4.734
 7856SOL    HW224468   2.080   6.124   4.615
 7857SOL     OW24469   4.966   3.972   0.730
 7857SOL    HW124470   5.034   3.970   0.657
 7857SOL    HW224471   4.941   3.879   0.756
 7858SOL     OW24472   0.595   5.292   5.617
 7858SOL    HW124473   0.692   5.293   5.639
 7858SOL    HW224474   0.573   5.211   5.563
 7859SOL     OW24475   5.157   2.685   0.079
 7859SOL    HW124476   5.207   2.652   0.159
 7859SOL    HW224477   5.133   2.608   0.020
 7860SOL     OW24478   2.730   0.754   4.417
 7860SOL    HW124479   2.639   0.717   4.431
 7860SOL    HW224480   2.725   0.854   4.414
 7861SOL     OW24481   2.545   6.340   1.058
 7861SOL    HW124482   2.603   6.370   0.982
 7861SOL    HW224483   2.492   6.418   1.091
 7862SOL     OW24484   2.802   6.289   0.577
 7862SOL    HW124485   2.749   6.247   0.503
 7862SOL    HW224486   2.795   6.233   0.659
 7863SOL     OW24487   6.819   4.676   3.893
 7863SOL    HW124488   6.871   4.754   3.927
 7863SOL    HW224489   6.836   4.596   3.952
 7864SOL     OW24490   2.703   6.938   5.336
 7864SOL    HW124491   2.763   6.993   5.278
 7864SOL    HW224492   2.611   6.976   5.334
 7865SOL     OW24493   6.023   5.935   3.858
 7865SOL    HW124494   5.956   5.977   3.920
 7865SOL    HW224495   6.082   5.874   3.910
 7866SOL     OW24496   1.048   6.940   5.955
 7866SOL    HW124497   1.110   6.988   5.892
 7866SOL    HW224498   0.957   6.936   5.916
 7867SOL     OW24499   5.356   6.361   3.660
 7867SOL    HW124500   5.365   6.267   3.627
 7867SOL    HW224501   5.419   6.420   3.609
 7868SOL     OW24502   3.564   6.906   1.131
 7868SOL    HW124503   3.472   6.937   1.153
 7868SOL    HW224504   3.560   6.838   1.057
 7869SOL     OW24505   5.448   4.344   6.055
 7869SOL    HW124506   5.450   4.403   5.974
 7869SOL    HW224507   5.394   4.262   6.036
 7870SOL     OW24508   4.952   5.785   5.111
 7870SOL    HW124509   5.028   5.838   5.073
 7870SOL    HW224510   4.984   5.693   5.134
 7871SOL     OW24511   5.152   1.625   1.800
 7871SOL    HW124512   5.195   1.614   1.890
 7871SOL    HW224513   5.053   1.635   1.811
 7872SOL     OW24514   1.974   6.004   2.329
 7872SOL    HW124515   1.877   5.990   2.312
 7872SOL    HW224516   2.027   5.967   2.253
 7873SOL     OW24517   6.523   1.050   6.972
 7873SOL    HW124518   6.478   1.093   0.030
 7873SOL    HW224519   6.562   0.962   7.001
 7874SOL     OW24520   5.542   2.305   0.859
 7874SOL    HW124521   5.514   2.298   0.763
 7874SOL    HW224522   5.559   2.401   0.882
 7875SOL     OW24523   4.776   4.265   6.630
 7875SOL    HW124524   4.731   4.202   6.693
 7875SOL    HW224525   4.811   4.344   6.682
 7876SOL     OW24526   1.118   0.049   2.226
 7876SOL    HW124527   1.034   0.080   2.181
 7876SOL    HW224528   1.096   6.997   2.292
 7877SOL     OW24529   6.992   2.064   3.154
 7877SOL    HW124530   7.012   2.154   3.193
 7877SOL    HW224531   0.033   2.048   3.076
 7878SOL     OW24532   4.321   5.008   3.626
 7878SOL    HW124533   4.277   5.095   3.602
 7878SOL    HW224534   4.420   5.018   3.621
 7879SOL     OW24535   2.374   4.780   3.368
 7879SOL    HW124536   2.329   4.869   3.382
 7879SOL    HW224537   2.355   4.748   3.276
 7880SOL     OW24538   1.223   4.100   1.998
 7880SOL    HW124539   1.316   4.131   2.016
 7880SOL    HW224540   1.158   4.156   2.049
 7881SOL     OW24541   5.215   3.856   3.980
 7881SOL    HW124542   5.204   3.790   3.906
 7881SOL    HW224543   5.138   3.848   4.043
 7882SOL     OW24544   1.632   3.157   1.075
 7882SOL    HW124545   1.658   3.070   1.118
 7882SOL    HW224546   1.696   3.178   1.001
 7883SOL     OW24547   1.154   1.272   5.362
 7883SOL    HW124548   1.181   1.356   5.315
 7883SOL    HW224549   1.117   1.207   5.295
 7884SOL     OW24550   0.444   3.246   4.479
 7884SOL    HW124551   0.539   3.273   4.465
 7884SOL    HW224552   0.384   3.322   4.453
 7885SOL     OW24553   5.966   6.094   0.363
 7885SOL    HW124554   6.045   6.147   0.332
 7885SOL    HW224555   5.983   5.996   0.348
 7886SOL     OW24556   4.579   5.014   0.045
 7886SOL    HW124557   4.609   4.938   7.008
 7886SOL    HW224558   4.510   5.067   7.017
 7887SOL     OW24559   4.893   1.859   0.103
 7887SOL    HW124560   4.958   1.786   0.125
 7887SOL    HW224561   4.859   1.847   0.010
 7888SOL     OW24562   4.592   0.810   4.075
 7888SOL    HW124563   4.632   0.720   4.058
 7888SOL    HW224564   4.557   0.815   4.168
 7889SOL     OW24565   0.485   6.663   2.025
 7889SOL    HW124566   0.564   6.651   1.964
 7889SOL    HW224567   0.465   6.760   2.034
 7890SOL     OW24568   1.465   3.644   2.750
 7890SOL    HW124569   1.455   3.642   2.651
 7890SOL    HW224570   1.478   3.551   2.784
 7891SOL     OW24571   1.997   4.761   2.203
 7891SOL    HW124572   2.054   4.838   2.172
 7891SOL    HW224573   1.990   4.694   2.130
 7892SOL     OW24574   1.747   2.264   6.078
 7892SOL    HW124575   1.727   2.221   6.166
 7892SOL    HW224576   1.766   2.194   6.010
 7893SOL     OW24577   6.010   6.416   1.280
 7893SOL    HW124578   6.072   6.405   1.358
 7893SOL    HW224579   6.012   6.511   1.249
 7894SOL     OW24580   2.818   6.815   1.560
 7894SOL    HW124581   2.818   6.763   1.475
 7894SOL    HW224582   2.912   6.823   1.594
 7895SOL     OW24583   6.918   1.150   4.642
 7895SOL    HW124584   6.943   1.198   4.726
 7895SOL    HW224585   6.896   1.218   4.571
 7896SOL     OW24586   4.924   3.479   5.560
 7896SOL    HW124587   4.870   3.527   5.630
 7896SOL    HW224588   4.864   3.449   5.487
 7897SOL     OW24589   3.158   3.145   6.490
 7897SOL    HW124590   3.132   3.147   6.586
 7897SOL    HW224591   3.137   3.232   6.447
 7898SOL     OW24592   4.211   2.286   3.766
 7898SOL    HW124593   4.125   2.237   3.758
 7898SOL    HW224594   4.286   2.221   3.780
 7899SOL     OW24595   5.613   2.154   2.810
 7899SOL    HW124596   5.651   2.083   2.752
 7899SOL    HW224597   5.516   2.135   2.826
 7900SOL     OW24598   1.797   5.502   0.679
 7900SOL    HW124599   1.703   5.471   0.692
 7900SOL    HW224600   1.833   5.537   0.766
 7901SOL     OW24601   6.279   6.548   6.273
 7901SOL    HW124602   6.220   6.622   6.305
 7901SOL    HW224603   6.346   6.525   6.344
 7902SOL     OW24604   4.506   3.425   0.088
 7902SOL    HW124605   4.463   3.373   0.014
 7902SOL    HW224606   4.601   3.397   0.098
 7903SOL     OW24607   6.644   1.689   6.920
 7903SOL    HW124608   6.663   1.623   6.847
 7903SOL    HW224609   6.621   1.639   7.004
 7904SOL     OW24610   6.950   1.108   2.302
 7904SOL    HW124611   6.978   1.153   2.387
 7904SOL    HW224612   6.854   1.081   2.309
 7905SOL     OW24613   4.152   0.944   0.915
 7905SOL    HW124614   4.195   1.014   0.970
 7905SOL    HW224615   4.061   0.975   0.886
 7906SOL     OW24616   6.185   5.683   6.780
 7906SOL    HW124617   6.128   5.742   6.724
 7906SOL    HW224618   6.264   5.735   6.814
 7907SOL     OW24619   0.187   2.662   2.580
 7907SOL    HW124620   0.258   2.638   2.647
 7907SOL    HW224621   0.175   2.761   2.578
 7908SOL     OW24622   6.576   2.532   4.084
 7908SOL    HW124623   6.537   2.526   3.992
 7908SOL    HW224624   6.558   2.447   4.133
 7909SOL     OW24625   4.921   4.344   4.975
 7909SOL    HW124626   4.867   4.269   4.937
 7909SOL    HW224627   4.948   4.322   5.068
 7910SOL     OW24628   5.802   2.969   5.645
 7910SOL    HW124629   5.795   2.949   5.547
 7910SOL    HW224630   5.733   3.037   5.670
 7911SOL     OW24631   6.044   4.507   0.454
 7911SOL    HW124632   6.079   4.596   0.484
 7911SOL    HW224633   6.036   4.507   0.354
 7912SOL     OW24634   6.309   4.846   6.365
 7912SOL    HW124635   6.376   4.904   6.412
 7912SOL    HW224636   6.256   4.901   6.301
 7913SOL     OW24637   6.988   5.363   5.964
 7913SOL    HW124638   6.968   5.409   5.878
 7913SOL    HW224639   0.014   5.276   5.946
 7914SOL     OW24640   6.258   4.215   1.344
 7914SOL    HW124641   6.170   4.254   1.370
 7914SOL    HW224642   6.253   4.115   1.353
 7915SOL     OW24643   3.509   1.558   3.277
 7915SOL    HW124644   3.455   1.638   3.253
 7915SOL    HW224645   3.606   1.580   3.271
 7916SOL     OW24646   5.185   4.028   5.416
 7916SOL    HW124647   5.215   4.054   5.324
 7916SOL    HW224648   5.100   3.975   5.409
 7917SOL     OW24649   3.633   3.883   4.086
 7917SOL    HW124650   3.626   3.961   4.025
 7917SOL    HW224651   3.554   3.822   4.072
 7918SOL     OW24652   5.841   1.868   2.814
 7918SOL    HW124653   5.900   1.931   2.763
 7918SOL    HW224654   5.804   1.799   2.753
 7919SOL     OW24655   5.550   5.103   2.118
 7919SOL    HW124656   5.564   5.025   2.178
 7919SOL    HW224657   5.452   5.121   2.108
 7920SOL     OW24658   0.673   5.008   1.644
 7920SOL    HW124659   0.629   5.033   1.731
 7920SOL    HW224660   0.603   4.994   1.574
 7921SOL     OW24661   2.259   6.838   1.155
 7921SOL    HW124662   2.277   6.784   1.073
 7921SOL    HW224663   2.346   6.863   1.198
 7922SOL     OW24664   1.004   5.229   6.504
 7922SOL    HW124665   1.004   5.283   6.589
 7922SOL    HW224666   1.032   5.136   6.525
 7923SOL     OW24667   1.227   1.991   3.106
 7923SOL    HW124668   1.185   2.010   3.194
 7923SOL    HW224669   1.324   1.971   3.118
 7924SOL     OW24670   2.741   6.930   4.227
 7924SOL    HW124671   2.800   6.928   4.146
 7924SOL    HW224672   2.645   6.932   4.200
 7925SOL     OW24673   6.379   1.061   6.153
 7925SOL    HW124674   6.431   1.109   6.224
 7925SOL    HW224675   6.284   1.093   6.154
 7926SOL     OW24676   4.058   0.203   1.767
 7926SOL    HW124677   4.063   0.145   1.848
 7926SOL    HW224678   3.974   0.256   1.768
 7927SOL     OW24679   4.756   5.223   4.627
 7927SOL    HW124680   4.767   5.128   4.657
 7927SOL    HW224681   4.667   5.234   4.584
 7928SOL     OW24682   1.657   5.348   1.839
 7928SOL    HW124683   1.727   5.394   1.893
 7928SOL    HW224684   1.691   5.333   1.746
 7929SOL     OW24685   3.772   3.754   4.286
 7929SOL    HW124686   3.723   3.667   4.288
 7929SOL    HW224687   3.761   3.796   4.195
 7930SOL     OW24688   4.972   5.719   3.744
 7930SOL    HW124689   4.887   5.765   3.769
 7930SOL    HW224690   5.009   5.760   3.661
 7931SOL     OW24691   2.413   1.829   0.315
 7931SOL    HW124692   2.456   1.790   0.233
 7931SOL    HW224693   2.409   1.760   0.387
 7932SOL     OW24694   2.411   0.256   0.562
 7932SOL    HW124695   2.458   0.288   0.645
 7932SOL    HW224696   2.313   0.248   0.580
 7933SOL     OW24697   1.716   1.310   6.690
 7933SOL    HW124698   1.796   1.256   6.665
 7933SOL    HW224699   1.704   1.384   6.624
 7934SOL     OW24700   2.759   3.417   6.283
 7934SOL    HW124701   2.683   3.461   6.329
 7934SOL    HW224702   2.782   3.468   6.200
 7935SOL     OW24703   4.460   6.739   1.865
 7935SOL    HW124704   4.410   6.773   1.786
 7935SOL    HW224705   4.481   6.642   1.853
 7936SOL     OW24706   4.374   5.742   3.044
 7936SOL    HW124707   4.435   5.750   2.965
 7936SOL    HW224708   4.376   5.827   3.097
 7937SOL     OW24709   6.346   6.480   5.723
 7937SOL    HW124710   6.270   6.525   5.676
 7937SOL    HW224711   6.381   6.406   5.665
 7938SOL     OW24712   5.130   5.118   4.674
 7938SOL    HW124713   5.112   5.053   4.748
 7938SOL    HW224714   5.049   5.176   4.660
 7939SOL     OW24715   1.062   0.883   5.259
 7939SOL    HW124716   1.043   0.958   5.195
 7939SOL    HW224717   1.161   0.874   5.270
 7940SOL     OW24718   1.666   6.052   0.841
 7940SOL    HW124719   1.746   6.054   0.782
 7940SOL    HW224720   1.594   6.110   0.804
 7941SOL     OW24721   0.508   0.383   0.986
 7941SOL    HW124722   0.452   0.455   1.028
 7941SOL    HW224723   0.553   0.330   1.058
 7942SOL     OW24724   0.258   0.651   1.551
 7942SOL    HW124725   0.267   0.562   1.506
 7942SOL    HW224726   0.189   0.706   1.503
 7943SOL     OW24727   5.078   1.330   1.557
 7943SOL    HW124728   5.153   1.395   1.568
 7943SOL    HW224729   5.096   1.248   1.612
 7944SOL     OW24730   0.954   4.449   1.730
 7944SOL    HW124731   0.972   4.535   1.681
 7944SOL    HW224732   1.038   4.419   1.775
 7945SOL     OW24733   5.129   6.875   2.535
 7945SOL    HW124734   5.211   6.933   2.533
 7945SOL    HW224735   5.052   6.926   2.498
 7946SOL     OW24736   1.401   2.410   5.966
 7946SOL    HW124737   1.390   2.383   6.062
 7946SOL    HW224738   1.379   2.332   5.907
 7947SOL     OW24739   4.351   3.221   6.359
 7947SOL    HW124740   4.421   3.197   6.292
 7947SOL    HW224741   4.308   3.308   6.334
 7948SOL     OW24742   0.068   6.010   0.498
 7948SOL    HW124743   0.012   5.932   0.525
 7948SOL    HW224744   0.071   6.016   0.399
 7949SOL     OW24745   5.661   4.206   3.964
 7949SOL    HW124746   5.622   4.123   3.925
 7949SOL    HW224747   5.588   4.259   4.008
 7950SOL     OW24748   3.571   5.202   4.253
 7950SOL    HW124749   3.566   5.108   4.288
 7950SOL    HW224750   3.542   5.265   4.325
 7951SOL     OW24751   3.327   3.416   0.753
 7951SOL    HW124752   3.300   3.366   0.835
 7951SOL    HW224753   3.249   3.425   0.691
 7952SOL     OW24754   5.632   3.548   1.213
 7952SOL    HW124755   5.586   3.465   1.245
 7952SOL    HW224756   5.593   3.576   1.125
 7953SOL     OW24757   2.030   2.821   3.273
 7953SOL    HW124758   2.101   2.891   3.262
 7953SOL    HW224759   2.070   2.731   3.259
 7954SOL     OW24760   3.813   5.208   5.187
 7954SOL    HW124761   3.825   5.216   5.088
 7954SOL    HW224762   3.900   5.184   5.229
 7955SOL     OW24763   0.794   6.389   6.113
 7955SOL    HW124764   0.762   6.308   6.065
 7955SOL    HW224765   0.866   6.364   6.177
 7956SOL     OW24766   5.728   6.470   4.286
 7956SOL    HW124767   5.698   6.565   4.273
 7956SOL    HW224768   5.649   6.410   4.278
 7957SOL     OW24769   0.630   2.078   1.478
 7957SOL    HW124770   0.537   2.051   1.502
 7957SOL    HW224771   0.695   2.040   1.543
 7958SOL     OW24772   2.772   5.031   2.881
 7958SOL    HW124773   2.808   5.042   2.789
 7958SOL    HW224774   2.677   5.061   2.883
 7959SOL     OW24775   5.811   5.106   0.703
 7959SOL    HW124776   5.740   5.145   0.645
 7959SOL    HW224777   5.843   5.175   0.768
 7960SOL     OW24778   2.729   1.998   0.937
 7960SOL    HW124779   2.746   1.914   0.886
 7960SOL    HW224780   2.778   1.994   1.025
 7961SOL     OW24781   1.974   5.638   6.662
 7961SOL    HW124782   2.008   5.566   6.602
 7961SOL    HW224783   1.874   5.641   6.658
 7962SOL     OW24784   0.980   1.081   2.380
 7962SOL    HW124785   0.930   1.036   2.306
 7962SOL    HW224786   1.016   1.013   2.443
 7963SOL     OW24787   0.638   0.414   5.023
 7963SOL    HW124788   0.653   0.347   4.949
 7963SOL    HW224789   0.612   0.366   5.106
 7964SOL     OW24790   6.035   5.594   3.704
 7964SOL    HW124791   6.091   5.623   3.627
 7964SOL    HW224792   6.080   5.621   3.790
 7965SOL     OW24793   5.176   2.119   6.805
 7965SOL    HW124794   5.124   2.137   6.888
 7965SOL    HW224795   5.266   2.162   6.811
 7966SOL     OW24796   6.914   4.948   3.677
 7966SOL    HW124797   6.926   4.908   3.768
 7966SOL    HW224798   6.916   4.876   3.608
 7967SOL     OW24799   3.063   6.156   2.271
 7967SOL    HW124800   3.131   6.229   2.277
 7967SOL    HW224801   2.996   6.166   2.344
 7968SOL     OW24802   2.049   2.276   2.607
 7968SOL    HW124803   1.957   2.312   2.598
 7968SOL    HW224804   2.088   2.303   2.695
 7969SOL     OW24805   3.076   2.084   3.287
 7969SOL    HW124806   3.081   2.137   3.202
 7969SOL    HW224807   3.122   1.997   3.273
 7970SOL     OW24808   0.741   4.337   3.189
 7970SOL    HW124809   0.686   4.255   3.206
 7970SOL    HW224810   0.698   4.393   3.118
 7971SOL     OW24811   2.931   1.591   1.682
 7971SOL    HW124812   2.854   1.610   1.621
 7971SOL    HW224813   3.014   1.633   1.644
 7972SOL     OW24814   0.490   4.702   1.650
 7972SOL    HW124815   0.583   4.736   1.637
 7972SOL    HW224816   0.425   4.772   1.621
 7973SOL     OW24817   4.845   2.924   3.316
 7973SOL    HW124818   4.941   2.903   3.334
 7973SOL    HW224819   4.791   2.905   3.398
 7974SOL     OW24820   5.036   0.237   4.225
 7974SOL    HW124821   5.080   0.299   4.160
 7974SOL    HW224822   4.954   0.198   4.184
 7975SOL     OW24823   3.248   1.310   4.113
 7975SOL    HW124824   3.296   1.233   4.155
 7975SOL    HW224825   3.269   1.394   4.164
 7976SOL     OW24826   1.002   5.671   5.981
 7976SOL    HW124827   0.994   5.573   5.998
 7976SOL    HW224828   1.081   5.707   6.032
 7977SOL     OW24829   5.574   6.078   1.640
 7977SOL    HW124830   5.511   6.113   1.571
 7977SOL    HW224831   5.524   6.023   1.707
 7978SOL     OW24832   4.750   3.620   5.731
 7978SOL    HW124833   4.769   3.689   5.802
 7978SOL    HW224834   4.675   3.652   5.674
 7979SOL     OW24835   3.192   0.290   4.483
 7979SOL    HW124836   3.157   0.253   4.397
 7979SOL    HW224837   3.289   0.266   4.492
 7980SOL     OW24838   3.258   6.180   0.693
 7980SOL    HW124839   3.317   6.252   0.658
 7980SOL    HW224840   3.274   6.096   0.642
 7981SOL     OW24841   1.026   5.154   2.667
 7981SOL    HW124842   0.981   5.065   2.662
 7981SOL    HW224843   0.968   5.218   2.719
 7982SOL     OW24844   6.518   2.449   0.935
 7982SOL    HW124845   6.535   2.368   0.990
 7982SOL    HW224846   6.583   2.452   0.859
 7983SOL     OW24847   5.338   2.322   2.517
 7983SOL    HW124848   5.431   2.350   2.538
 7983SOL    HW224849   5.329   2.305   2.419
 7984SOL     OW24850   0.477   2.015   2.278
 7984SOL    HW124851   0.458   2.079   2.203
 7984SOL    HW224852   0.483   1.922   2.241
 7985SOL     OW24853   0.287   1.179   2.291
 7985SOL    HW124854   0.375   1.221   2.268
 7985SOL    HW224855   0.227   1.249   2.331
 7986SOL     OW24856   4.043   0.862   6.662
 7986SOL    HW124857   4.107   0.888   6.735
 7986SOL    HW224858   3.982   0.790   6.696
 7987SOL     OW24859   0.788   3.126   5.119
 7987SOL    HW124860   0.787   3.055   5.048
 7987SOL    HW224861   0.878   3.170   5.120
 7988SOL     OW24862   2.965   1.615   4.714
 7988SOL    HW124863   2.871   1.640   4.737
 7988SOL    HW224864   3.027   1.649   4.785
 7989SOL     OW24865   2.873   2.646   5.306
 7989SOL    HW124866   2.883   2.603   5.396
 7989SOL    HW224867   2.924   2.732   5.305
 7990SOL     OW24868   1.168   2.338   4.986
 7990SOL    HW124869   1.236   2.381   4.926
 7990SOL    HW224870   1.189   2.362   5.081
 7991SOL     OW24871   0.627   3.021   5.883
 7991SOL    HW124872   0.652   3.021   5.979
 7991SOL    HW224873   0.530   2.999   5.873
 7992SOL     OW24874   2.607   0.633   0.604
 7992SOL    HW124875   2.529   0.696   0.603
 7992SOL    HW224876   2.648   0.629   0.513
 7993SOL     OW24877   1.834   6.619   6.827
 7993SOL    HW124878   1.867   6.713   6.833
 7993SOL    HW224879   1.793   6.592   6.914
 7994SOL     OW24880   5.798   1.239   3.682
 7994SOL    HW124881   5.815   1.148   3.643
 7994SOL    HW224882   5.743   1.229   3.765
 7995SOL     OW24883   2.909   5.285   3.357
 7995SOL    HW124884   2.920   5.229   3.275
 7995SOL    HW224885   2.907   5.226   3.438
 7996SOL     OW24886   4.139   6.772   5.448
 7996SOL    HW124887   4.055   6.818   5.420
 7996SOL    HW224888   4.217   6.835   5.438
 7997SOL     OW24889   5.821   2.753   1.361
 7997SOL    HW124890   5.869   2.688   1.421
 7997SOL    HW224891   5.874   2.767   1.278
 7998SOL     OW24892   6.128   5.003   0.287
 7998SOL    HW124893   6.189   4.972   0.215
 7998SOL    HW224894   6.181   5.045   0.361
 7999SOL     OW24895   1.535   0.110   5.637
 7999SOL    HW124896   1.534   0.020   5.682
 7999SOL    HW224897   1.582   0.175   5.697
 8000SOL     OW24898   5.875   6.789   5.474
 8000SOL    HW124899   5.860   6.875   5.426
 8000SOL    HW224900   5.893   6.808   5.571
 8001SOL     OW24901   2.018   6.835   1.542
 8001SOL    HW124902   2.061   6.755   1.499
 8001SOL    HW224903   1.920   6.818   1.553
 8002SOL     OW24904   6.003   2.715   4.953
 8002SOL    HW124905   6.074   2.644   4.953
 8002SOL    HW224906   5.915   2.674   4.978
 8003SOL     OW24907   3.065   4.874   3.007
 8003SOL    HW124908   3.091   4.892   2.913
 8003SOL    HW224909   2.985   4.814   3.009
 8004SOL     OW24910   2.070   3.772   2.555
 8004SOL    HW124911   1.970   3.774   2.555
 8004SOL    HW224912   2.104   3.852   2.505
 8005SOL     OW24913   2.921   0.916   1.304
 8005SOL    HW124914   2.882   0.989   1.360
 8005SOL    HW224915   2.872   0.911   1.217
 8006SOL     OW24916   3.046   5.957   0.965
 8006SOL    HW124917   3.007   6.042   1.001
 8006SOL    HW224918   3.053   5.963   0.865
 8007SOL     OW24919   0.355   0.534   4.304
 8007SOL    HW124920   0.425   0.590   4.349
 8007SOL    HW224921   0.336   0.453   4.359
 8008SOL     OW24922   6.046   6.737   0.793
 8008SOL    HW124923   5.995   6.801   0.736
 8008SOL    HW224924   5.984   6.691   0.857
 8009SOL     OW24925   6.949   6.629   3.975
 8009SOL    HW124926   6.919   6.534   3.967
 8009SOL    HW224927   0.027   6.635   3.956
 8010SOL     OW24928   2.224   2.549   6.601
 8010SOL    HW124929   2.245   2.645   6.583
 8010SOL    HW224930   2.200   2.538   6.698
 8011SOL     OW24931   3.350   2.270   0.784
 8011SOL    HW124932   3.254   2.280   0.757
 8011SOL    HW224933   3.408   2.320   0.720
 8012SOL     OW24934   2.540   6.592   1.751
 8012SOL    HW124935   2.610   6.543   1.699
 8012SOL    HW224936   2.578   6.677   1.786
 8013SOL     OW24937   5.874   4.169   4.985
 8013SOL    HW124938   5.947   4.228   5.020
 8013SOL    HW224939   5.913   4.098   4.927
 8014SOL     OW24940   2.274   6.946   7.007
 8014SOL    HW124941   2.277   6.944   6.907
 8014SOL    HW224942   2.281   6.853   0.022
 8015SOL     OW24943   2.489   2.830   0.332
 8015SOL    HW124944   2.517   2.769   0.258
 8015SOL    HW224945   2.433   2.780   0.398
 8016SOL     OW24946   4.264   6.486   0.222
 8016SOL    HW124947   4.177   6.447   0.253
 8016SOL    HW224948   4.324   6.413   0.192
 8017SOL     OW24949   6.122   4.591   4.574
 8017SOL    HW124950   6.155   4.607   4.481
 8017SOL    HW224951   6.169   4.653   4.637
 8018SOL     OW24952   4.988   1.820   5.058
 8018SOL    HW124953   4.894   1.789   5.044
 8018SOL    HW224954   5.020   1.789   5.148
 8019SOL     OW24955   2.798   6.174   0.850
 8019SOL    HW124956   2.730   6.104   0.873
 8019SOL    HW224957   2.865   6.181   0.924
 8020SOL     OW24958   5.137   5.214   6.979
 8020SOL    HW124959   5.234   5.187   6.980
 8020SOL    HW224960   5.085   5.148   6.924
 8021SOL     OW24961   1.079   0.731   0.841
 8021SOL    HW124962   1.160   0.706   0.788
 8021SOL    HW224963   1.001   0.744   0.779
 8022SOL     OW24964   4.424   6.385   3.117
 8022SOL    HW124965   4.415   6.315   3.045
 8022SOL    HW224966   4.360   6.364   3.191
 8023SOL     OW24967   5.784   6.431   2.877
 8023SOL    HW124968   5.776   6.510   2.815
 8023SOL    HW224969   5.708   6.369   2.860
 8024SOL     OW24970   4.617   4.934   5.327
 8024SOL    HW124971   4.688   4.974   5.270
 8024SOL    HW224972   4.586   4.848   5.288
 8025SOL     OW24973   4.025   5.503   6.629
 8025SOL    HW124974   4.066   5.518   6.719
 8025SOL    HW224975   4.096   5.476   6.564
 8026SOL     OW24976   1.427   3.129   0.352
 8026SOL    HW124977   1.515   3.158   0.313
 8026SOL    HW224978   1.432   3.136   0.452
 8027SOL     OW24979   4.713   1.719   5.038
 8027SOL    HW124980   4.716   1.788   4.966
 8027SOL    HW224981   4.656   1.752   5.113
 8028SOL     OW24982   5.272   4.902   6.852
 8028SOL    HW124983   5.209   4.940   6.785
 8028SOL    HW224984   5.303   4.975   6.914
 8029SOL     OW24985   3.828   3.777   0.366
 8029SOL    HW124986   3.829   3.679   0.389
 8029SOL    HW224987   3.914   3.819   0.395
 8030SOL     OW24988   5.832   4.185   6.163
 8030SOL    HW124989   5.905   4.120   6.185
 8030SOL    HW224990   5.763   4.182   6.236
 8031SOL     OW24991   3.838   5.405   1.232
 8031SOL    HW124992   3.876   5.422   1.141
 8031SOL    HW224993   3.813   5.492   1.274
 8032SOL     OW24994   5.274   4.026   5.685
 8032SOL    HW124995   5.233   4.012   5.595
 8032SOL    HW224996   5.371   4.001   5.682
 8033SOL     OW24997   5.792   2.341   0.104
 8033SOL    HW124998   5.805   2.367   0.199
 8033SOL    HW224999   5.870   2.287   0.073
 8034SOL     OW25000   5.346   6.923   4.780
 8034SOL    HW125001   5.388   6.994   4.724
 8034SOL    HW225002   5.403   6.907   4.861
 8035SOL     OW25003   5.753   6.517   6.515
 8035SOL    HW125004   5.659   6.548   6.501
 8035SOL    HW225005   5.760   6.422   6.486
 8036SOL     OW25006   1.867   4.414   1.785
 8036SOL    HW125007   1.775   4.373   1.786
 8036SOL    HW225008   1.932   4.349   1.746
 8037SOL     OW25009   1.653   2.839   1.239
 8037SOL    HW125010   1.724   2.822   1.171
 8037SOL    HW225011   1.695   2.843   1.330
 8038SOL     OW25012   0.241   2.227   4.090
 8038SOL    HW125013   0.219   2.141   4.136
 8038SOL    HW225014   0.157   2.269   4.056
 8039SOL     OW25015   2.327   6.819   3.319
 8039SOL    HW125016   2.330   6.915   3.294
 8039SOL    HW225017   2.415   6.792   3.360
 8040SOL     OW25018   6.990   5.628   1.204
 8040SOL    HW125019   0.005   5.615   1.112
 8040SOL    HW225020   0.035   5.680   1.259
 8041SOL     OW25021   4.450   1.121   0.311
 8041SOL    HW125022   4.353   1.095   0.318
 8041SOL    HW225023   4.460   1.198   0.248
 8042SOL     OW25024   3.127   2.785   1.883
 8042SOL    HW125025   3.107   2.722   1.958
 8042SOL    HW225026   3.084   2.751   1.799
 8043SOL     OW25027   2.255   6.888   1.650
 8043SOL    HW125028   2.307   6.813   1.610
 8043SOL    HW225029   2.160   6.883   1.620
 8044SOL     OW25030   2.772   3.882   1.580
 8044SOL    HW125031   2.825   3.895   1.663
 8044SOL    HW225032   2.683   3.926   1.589
 8045SOL     OW25033   5.299   2.585   2.983
 8045SOL    HW125034   5.327   2.491   2.961
 8045SOL    HW225035   5.203   2.584   3.013
 8046SOL     OW25036   6.364   4.556   6.134
 8046SOL    HW125037   6.269   4.530   6.153
 8046SOL    HW225038   6.365   4.631   6.068
 8047SOL     OW25039   3.928   6.172   4.707
 8047SOL    HW125040   3.845   6.124   4.736
 8047SOL    HW225041   3.914   6.210   4.616
 8048SOL     OW25042   6.493   0.153   5.233
 8048SOL    HW125043   6.475   0.118   5.325
 8048SOL    HW225044   6.444   0.239   5.220
 8049SOL     OW25045   1.263   6.351   0.514
 8049SOL    HW125046   1.243   6.418   0.443
 8049SOL    HW225047   1.326   6.282   0.479
 8050SOL     OW25048   2.055   3.293   1.274
 8050SOL    HW125049   1.995   3.355   1.223
 8050SOL    HW225050   2.052   3.202   1.232
 8051SOL     OW25051   4.687   0.993   3.609
 8051SOL    HW125052   4.639   0.966   3.693
 8051SOL    HW225053   4.621   1.004   3.535
 8052SOL     OW25054   3.047   1.520   2.981
 8052SOL    HW125055   2.980   1.465   3.030
 8052SOL    HW225056   3.075   1.473   2.898
 8053SOL     OW25057   3.650   3.591   2.326
 8053SOL    HW125058   3.696   3.677   2.349
 8053SOL    HW225059   3.629   3.541   2.410
 8054SOL     OW25060   4.226   6.205   4.780
 8054SOL    HW125061   4.170   6.281   4.745
 8054SOL    HW225062   4.170   6.122   4.785
 8055SOL     OW25063   1.661   6.707   6.167
 8055SOL    HW125064   1.655   6.656   6.081
 8055SOL    HW225065   1.745   6.761   6.168
 8056SOL     OW25066   4.070   1.711   2.800
 8056SOL    HW125067   4.150   1.725   2.741
 8056SOL    HW225068   4.006   1.649   2.754
 8057SOL     OW25069   3.221   6.596   3.020
 8057SOL    HW125070   3.225   6.585   3.120
 8057SOL    HW225071   3.278   6.673   2.993
 8058SOL     OW25072   3.083   1.121   1.986
 8058SOL    HW125073   2.999   1.175   1.997
 8058SOL    HW225074   3.085   1.080   1.895
 8059SOL     OW25075   3.382   1.741   4.089
 8059SOL    HW125076   3.389   1.829   4.136
 8059SOL    HW225077   3.345   1.672   4.151
 8060SOL     OW25078   0.137   0.905   4.498
 8060SOL    HW125079   0.103   0.856   4.578
 8060SOL    HW225080   0.166   0.840   4.428
 8061SOL     OW25081   6.981   5.700   2.731
 8061SOL    HW125082   6.945   5.725   2.821
 8061SOL    HW225083   0.021   5.772   2.698
 8062SOL     OW25084   1.940   4.009   3.348
 8062SOL    HW125085   1.998   4.005   3.266
 8062SOL    HW225086   1.850   4.043   3.323
 8063SOL     OW25087   3.710   2.941   6.701
 8063SOL    HW125088   3.684   3.035   6.682
 8063SOL    HW225089   3.810   2.932   6.697
 8064SOL     OW25090   6.799   3.695   0.372
 8064SOL    HW125091   6.807   3.640   0.455
 8064SOL    HW225092   6.748   3.779   0.392
 8065SOL     OW25093   4.830   0.191   5.065
 8065SOL    HW125094   4.832   0.206   4.966
 8065SOL    HW225095   4.742   0.221   5.102
 8066SOL     OW25096   1.867   0.914   1.707
 8066SOL    HW125097   1.953   0.895   1.662
 8066SOL    HW225098   1.847   1.012   1.702
 8067SOL     OW25099   5.170   2.578   2.120
 8067SOL    HW125100   5.100   2.522   2.076
 8067SOL    HW225101   5.259   2.534   2.111
 8068SOL     OW25102   1.041   4.025   5.016
 8068SOL    HW125103   1.063   4.105   5.071
 8068SOL    HW225104   0.942   4.010   5.017
 8069SOL     OW25105   1.267   6.906   1.860
 8069SOL    HW125106   1.263   6.898   1.959
 8069SOL    HW225107   1.359   6.885   1.828
 8070SOL     OW25108   3.874   6.770   1.035
 8070SOL    HW125109   3.893   6.672   1.024
 8070SOL    HW225110   3.799   6.796   0.975
 8071SOL     OW25111   3.250   6.494   6.705
 8071SOL    HW125112   3.249   6.566   6.636
 8071SOL    HW225113   3.281   6.408   6.664
 8072SOL     OW25114   5.130   1.162   0.536
 8072SOL    HW125115   5.111   1.208   0.622
 8072SOL    HW225116   5.215   1.110   0.544
 8073SOL     OW25117   4.109   6.258   5.971
 8073SOL    HW125118   4.203   6.264   5.937
 8073SOL    HW225119   4.101   6.309   6.057
 8074SOL     OW25120   3.671   3.734   0.136
 8074SOL    HW125121   3.745   3.768   0.193
 8074SOL    HW225122   3.617   3.668   0.189
 8075SOL     OW25123   6.878   1.581   3.152
 8075SOL    HW125124   6.856   1.492   3.111
 8075SOL    HW225125   6.966   1.613   3.117
 8076SOL     OW25126   5.941   2.625   5.694
 8076SOL    HW125127   5.979   2.699   5.639
 8076SOL    HW225128   5.863   2.585   5.646
 8077SOL     OW25129   1.441   0.752   1.368
 8077SOL    HW125130   1.502   0.675   1.389
 8077SOL    HW225131   1.454   0.824   1.437
 8078SOL     OW25132   6.090   2.991   0.643
 8078SOL    HW125133   6.124   2.925   0.576
 8078SOL    HW225134   6.022   3.050   0.600
 8079SOL     OW25135   0.048   2.576   2.284
 8079SOL    HW125136   6.984   2.523   2.279
 8079SOL    HW225137   0.060   2.609   2.377
 8080SOL     OW25138   3.537   4.503   0.138
 8080SOL    HW125139   3.445   4.520   0.171
 8080SOL    HW225140   3.602   4.507   0.214
 8081SOL     OW25141   5.954   0.771   5.275
 8081SOL    HW125142   5.941   0.682   5.231
 8081SOL    HW225143   5.900   0.774   5.359
 8082SOL     OW25144   0.185   2.895   3.406
 8082SOL    HW125145   0.217   2.866   3.316
 8082SOL    HW225146   0.262   2.934   3.457
 8083SOL     OW25147   4.657   2.712   3.943
 8083SOL    HW125148   4.744   2.673   3.974
 8083SOL    HW225149   4.591   2.638   3.931
 8084SOL     OW25150   6.701   6.982   1.465
 8084SOL    HW125151   6.756   7.007   1.386
 8084SOL    HW225152   6.760   6.968   1.545
 8085SOL     OW25153   5.794   1.137   0.917
 8085SOL    HW125154   5.865   1.113   0.983
 8085SOL    HW225155   5.727   1.198   0.960
 8086SOL     OW25156   3.696   0.217   5.311
 8086SOL    HW125157   3.695   0.231   5.410
 8086SOL    HW225158   3.613   0.255   5.271
 8087SOL     OW25159   2.879   2.272   1.363
 8087SOL    HW125160   2.934   2.311   1.438
 8087SOL    HW225161   2.940   2.238   1.292
 8088SOL     OW25162   4.282   1.111   2.800
 8088SOL    HW125163   4.351   1.131   2.730
 8088SOL    HW225164   4.244   1.020   2.783
 8089SOL     OW25165   6.109   2.501   0.046
 8089SOL    HW125166   6.071   2.420   0.000
 8089SOL    HW225167   6.121   2.574   6.999
 8090SOL     OW25168   4.276   1.967   5.537
 8090SOL    HW125169   4.268   1.881   5.486
 8090SOL    HW225170   4.329   2.033   5.482
 8091SOL     OW25171   2.848   4.689   5.960
 8091SOL    HW125172   2.901   4.698   6.044
 8091SOL    HW225173   2.899   4.730   5.884
 8092SOL     OW25174   1.352   1.667   4.626
 8092SOL    HW125175   1.311   1.728   4.558
 8092SOL    HW225176   1.435   1.709   4.663
 8093SOL     OW25177   5.697   5.962   1.382
 8093SOL    HW125178   5.635   6.008   1.445
 8093SOL    HW225179   5.791   5.991   1.401
 8094SOL     OW25180   0.987   4.099   5.796
 8094SOL    HW125181   1.011   4.166   5.867
 8094SOL    HW225182   0.889   4.105   5.777
 8095SOL     OW25183   5.341   3.493   4.174
 8095SOL    HW125184   5.275   3.457   4.108
 8095SOL    HW225185   5.424   3.523   4.126
 8096SOL     OW25186   3.830   6.254   1.596
 8096SOL    HW125187   3.811   6.335   1.541
 8096SOL    HW225188   3.760   6.244   1.666
 8097SOL     OW25189   5.055   1.009   3.791
 8097SOL    HW125190   4.993   1.023   3.714
 8097SOL    HW225191   5.036   1.077   3.862
 8098SOL     OW25192   2.978   6.620   3.914
 8098SOL    HW125193   2.880   6.601   3.927
 8098SOL    HW225194   2.990   6.714   3.883
 8099SOL     OW25195   4.334   6.425   4.977
 8099SOL    HW125196   4.289   6.349   4.929
 8099SOL    HW225197   4.433   6.413   4.973
 8100SOL     OW25198   0.459   6.678   0.998
 8100SOL    HW125199   0.374   6.669   0.946
 8100SOL    HW225200   0.474   6.775   1.018
 8101SOL     OW25201   1.695   6.070   3.700
 8101SOL    HW125202   1.725   6.136   3.631
 8101SOL    HW225203   1.737   5.981   3.681
 8102SOL     OW25204   6.873   5.979   5.947
 8102SOL    HW125205   6.800   5.986   5.879
 8102SOL    HW225206   6.961   5.973   5.901
 8103SOL     OW25207   3.253   1.368   2.115
 8103SOL    HW125208   3.203   1.446   2.151
 8103SOL    HW225209   3.269   1.301   2.187
 8104SOL     OW25210   2.618   6.639   6.145
 8104SOL    HW125211   2.621   6.587   6.231
 8104SOL    HW225212   2.698   6.616   6.090
 8105SOL     OW25213   2.667   1.962   3.779
 8105SOL    HW125214   2.617   1.911   3.849
 8105SOL    HW225215   2.604   1.989   3.706
 8106SOL     OW25216   1.345   3.840   4.188
 8106SOL    HW125217   1.400   3.860   4.107
 8106SOL    HW225218   1.373   3.753   4.227
 8107SOL     OW25219   1.999   6.395   6.184
 8107SOL    HW125220   1.902   6.375   6.170
 8107SOL    HW225221   2.041   6.422   6.097
 8108SOL     OW25222   0.717   3.600   4.057
 8108SOL    HW125223   0.735   3.655   4.138
 8108SOL    HW225224   0.673   3.514   4.085
 8109SOL     OW25225   1.727   5.539   4.884
 8109SOL    HW125226   1.643   5.531   4.937
 8109SOL    HW225227   1.802   5.497   4.935
 8110SOL     OW25228   2.276   5.676   0.566
 8110SOL    HW125229   2.222   5.617   0.626
 8110SOL    HW225230   2.214   5.727   0.505
 8111SOL     OW25231   2.674   5.429   4.553
 8111SOL    HW125232   2.697   5.473   4.466
 8111SOL    HW225233   2.732   5.467   4.625
 8112SOL     OW25234   3.010   0.887   4.607
 8112SOL    HW125235   2.946   0.869   4.531
 8112SOL    HW225236   3.103   0.894   4.571
 8113SOL     OW25237   3.528   2.299   6.191
 8113SOL    HW125238   3.548   2.254   6.278
 8113SOL    HW225239   3.560   2.393   6.194
 8114SOL     OW25240   2.643   3.048   1.684
 8114SOL    HW125241   2.587   3.120   1.641
 8114SOL    HW225242   2.585   2.992   1.743
 8115SOL     OW25243   3.767   1.321   1.110
 8115SOL    HW125244   3.788   1.249   1.176
 8115SOL    HW225245   3.715   1.282   1.034
 8116SOL     OW25246   5.704   0.487   5.237
 8116SOL    HW125247   5.697   0.543   5.155
 8116SOL    HW225248   5.617   0.489   5.287
 8117SOL     OW25249   1.597   2.153   5.673
 8117SOL    HW125250   1.627   2.072   5.621
 8117SOL    HW225251   1.497   2.159   5.670
 8118SOL     OW25252   0.689   3.307   4.893
 8118SOL    HW125253   0.768   3.320   4.953
 8118SOL    HW225254   0.663   3.210   4.893
 8119SOL     OW25255   1.001   6.427   2.492
 8119SOL    HW125256   1.034   6.344   2.537
 8119SOL    HW225257   0.910   6.411   2.454
 8120SOL     OW25258   4.412   3.931   1.692
 8120SOL    HW125259   4.316   3.902   1.697
 8120SOL    HW225260   4.425   4.010   1.752
 8121SOL     OW25261   5.762   0.614   2.675
 8121SOL    HW125262   5.708   0.595   2.593
 8121SOL    HW225263   5.768   0.532   2.731
 8122SOL     OW25264   6.975   6.446   2.184
 8122SOL    HW125265   6.991   6.373   2.249
 8122SOL    HW225266   6.899   6.503   2.214
 8123SOL     OW25267   1.313   6.573   6.865
 8123SOL    HW125268   1.387   6.618   6.815
 8123SOL    HW225269   1.254   6.525   6.799
 8124SOL     OW25270   1.202   5.831   2.323
 8124SOL    HW125271   1.177   5.922   2.355
 8124SOL    HW225272   1.296   5.810   2.352
 8125SOL     OW25273   5.885   5.407   3.182
 8125SOL    HW125274   5.800   5.394   3.129
 8125SOL    HW225275   5.929   5.492   3.155
 8126SOL     OW25276   5.662   4.610   2.459
 8126SOL    HW125277   5.581   4.637   2.407
 8126SOL    HW225278   5.694   4.688   2.513
 8127SOL     OW25279   2.220   4.832   6.837
 8127SOL    HW125280   2.242   4.752   6.781
 8127SOL    HW225281   2.304   4.884   6.854
 8128SOL     OW25282   3.962   2.306   5.335
 8128SOL    HW125283   4.015   2.355   5.267
 8128SOL    HW225284   3.890   2.252   5.290
 8129SOL     OW25285   5.149   0.262   6.608
 8129SOL    HW125286   5.244   0.295   6.609
 8129SOL    HW225287   5.141   0.183   6.669
 8130SOL     OW25288   2.112   6.212   0.056
 8130SOL    HW125289   2.033   6.228   0.114
 8130SOL    HW225290   2.173   6.291   0.059
 8131SOL     OW25291   2.129   1.473   0.370
 8131SOL    HW125292   2.060   1.543   0.386
 8131SOL    HW225293   2.130   1.448   0.274
 8132SOL     OW25294   6.143   4.966   4.065
 8132SOL    HW125295   6.224   4.910   4.049
 8132SOL    HW225296   6.132   5.031   3.989
 8133SOL     OW25297   1.462   5.279   2.018
 8133SOL    HW125298   1.530   5.286   1.945
 8133SOL    HW225299   1.482   5.200   2.075
 8134SOL     OW25300   2.204   2.621   3.250
 8134SOL    HW125301   2.234   2.678   3.174
 8134SOL    HW225302   2.268   2.630   3.327
 8135SOL     OW25303   4.261   5.860   1.980
 8135SOL    HW125304   4.184   5.805   2.012
 8135SOL    HW225305   4.346   5.810   1.994
 8136SOL     OW25306   4.642   5.912   1.550
 8136SOL    HW125307   4.646   5.903   1.650
 8136SOL    HW225308   4.706   5.847   1.509
 8137SOL     OW25309   2.167   4.115   5.239
 8137SOL    HW125310   2.207   4.108   5.148
 8137SOL    HW225311   2.229   4.075   5.307
 8138SOL     OW25312   4.963   1.032   3.504
 8138SOL    HW125313   5.009   0.944   3.495
 8138SOL    HW225314   4.867   1.018   3.528
 8139SOL     OW25315   1.600   2.040   3.754
 8139SOL    HW125316   1.679   2.101   3.759
 8139SOL    HW225317   1.622   1.954   3.800
 8140SOL     OW25318   4.598   0.578   0.779
 8140SOL    HW125319   4.510   0.594   0.823
 8140SOL    HW225320   4.585   0.571   0.680
 8141SOL     OW25321   4.880   1.242   4.957
 8141SOL    HW125322   4.819   1.321   4.952
 8141SOL    HW225323   4.960   1.258   4.899
 8142SOL     OW25324   1.817   6.230   0.534
 8142SOL    HW125325   1.815   6.141   0.489
 8142SOL    HW225326   1.895   6.284   0.501
 8143SOL     OW25327   6.365   4.822   0.410
 8143SOL    HW125328   6.402   4.914   0.423
 8143SOL    HW225329   6.436   4.754   0.433
 8144SOL     OW25330   6.991   4.543   6.095
 8144SOL    HW125331   6.936   4.460   6.110
 8144SOL    HW225332   7.001   4.592   6.181
 8145SOL     OW25333   5.113   5.775   6.955
 8145SOL    HW125334   5.071   5.795   0.023
 8145SOL    HW225335   5.054   5.810   6.882
 8146SOL     OW25336   6.014   0.407   4.614
 8146SOL    HW125337   5.941   0.351   4.575
 8146SOL    HW225338   6.098   0.391   4.563
 8147SOL     OW25339   1.647   1.057   6.088
 8147SOL    HW125340   1.728   1.044   6.031
 8147SOL    HW225341   1.592   1.132   6.052
 8148SOL     OW25342   4.413   4.571   0.273
 8148SOL    HW125343   4.354   4.652   0.264
 8148SOL    HW225344   4.367   4.492   0.232
 8149SOL     OW25345   0.958   5.845   5.100
 8149SOL    HW125346   1.012   5.922   5.066
 8149SOL    HW225347   0.917   5.796   5.024
 8150SOL     OW25348   0.535   3.239   1.429
 8150SOL    HW125349   0.548   3.244   1.330
 8150SOL    HW225350   0.547   3.330   1.469
 8151SOL     OW25351   5.972   5.376   3.425
 8151SOL    HW125352   5.923   5.398   3.340
 8151SOL    HW225353   6.042   5.446   3.442
 8152SOL     OW25354   4.834   1.690   3.431
 8152SOL    HW125355   4.906   1.661   3.493
 8152SOL    HW225356   4.857   1.779   3.392
 8153SOL     OW25357   0.596   1.466   3.340
 8153SOL    HW125358   0.606   1.511   3.429
 8153SOL    HW225359   0.680   1.415   3.319
 8154SOL     OW25360   1.974   0.473   3.564
 8154SOL    HW125361   1.928   0.536   3.627
 8154SOL    HW225362   2.026   0.525   3.496
 8155SOL     OW25363   1.451   5.340   2.511
 8155SOL    HW125364   1.447   5.240   2.511
 8155SOL    HW225365   1.366   5.376   2.472
 8156SOL     OW25366   6.385   5.437   1.704
 8156SOL    HW125367   6.373   5.436   1.605
 8156SOL    HW225368   6.480   5.414   1.727
 8157SOL     OW25369   0.034   2.918   5.716
 8157SOL    HW125370   7.017   2.979   5.646
 8157SOL    HW225371   0.113   2.961   5.759
 8158SOL     OW25372   5.542   5.048   6.472
 8158SOL    HW125373   5.507   5.014   6.385
 8158SOL    HW225374   5.476   5.112   6.512
 8159SOL     OW25375   3.242   6.662   5.693
 8159SOL    HW125376   3.210   6.720   5.618
 8159SOL    HW225377   3.235   6.566   5.666
 8160SOL     OW25378   5.276   1.057   3.355
 8160SOL    HW125379   5.340   1.094   3.422
 8160SOL    HW225380   5.190   1.034   3.401
 8161SOL     OW25381   5.753   3.104   1.249
 8161SOL    HW125382   5.704   3.052   1.319
 8161SOL    HW225383   5.715   3.196   1.244
 8162SOL     OW25384   0.442   4.978   6.175
 8162SOL    HW125385   0.434   5.063   6.227
 8162SOL    HW225386   0.384   4.908   6.217
 8163SOL     OW25387   4.772   4.731   5.142
 8163SOL    HW125388   4.839   4.681   5.196
 8163SOL    HW225389   4.818   4.808   5.096
 8164SOL     OW25390   4.878   1.465   0.265
 8164SOL    HW125391   4.798   1.469   0.325
 8164SOL    HW225392   4.961   1.455   0.320
 8165SOL     OW25393   0.007   1.291   6.690
 8165SOL    HW125394   0.059   1.376   6.698
 8165SOL    HW225395   0.002   1.263   6.594
 8166SOL     OW25396   1.663   1.983   5.017
 8166SOL    HW125397   1.616   1.908   4.971
 8166SOL    HW225398   1.602   2.022   5.087
 8167SOL     OW25399   0.468   2.783   4.407
 8167SOL    HW125400   0.455   2.848   4.482
 8167SOL    HW225401   0.500   2.832   4.325
 8168SOL     OW25402   2.728   0.809   2.087
 8168SOL    HW125403   2.827   0.822   2.084
 8168SOL    HW225404   2.698   0.762   2.004
 8169SOL     OW25405   5.224   2.496   0.883
 8169SOL    HW125406   5.274   2.501   0.970
 8169SOL    HW225407   5.267   2.558   0.817
 8170SOL     OW25408   6.069   5.038   2.321
 8170SOL    HW125409   6.045   5.079   2.233
 8170SOL    HW225410   6.164   5.058   2.343
 8171SOL     OW25411   1.810   1.191   0.784
 8171SOL    HW125412   1.820   1.098   0.821
 8171SOL    HW225413   1.714   1.219   0.789
 8172SOL     OW25414   0.630   2.762   1.674
 8172SOL    HW125415   0.668   2.717   1.755
 8172SOL    HW225416   0.674   2.725   1.592
 8173SOL     OW25417   5.597   1.075   2.209
 8173SOL    HW125418   5.526   1.082   2.279
 8173SOL    HW225419   5.678   1.126   2.239
 8174SOL     OW25420   2.418   5.240   2.666
 8174SOL    HW125421   2.450   5.164   2.609
 8174SOL    HW225422   2.410   5.323   2.610
 8175SOL     OW25423   0.757   1.491   4.644
 8175SOL    HW125424   0.662   1.458   4.641
 8175SOL    HW225425   0.785   1.503   4.739
 8176SOL     OW25426   2.275   3.815   0.729
 8176SOL    HW125427   2.275   3.913   0.708
 8176SOL    HW225428   2.359   3.791   0.776
 8177SOL     OW25429   3.969   1.269   3.002
 8177SOL    HW125430   4.054   1.321   2.992
 8177SOL    HW225431   3.891   1.331   2.993
 8178SOL     OW25432   2.158   6.485   0.870
 8178SOL    HW125433   2.065   6.523   0.868
 8178SOL    HW225434   2.163   6.414   0.940
 8179SOL     OW25435   5.726   1.348   3.449
 8179SOL    HW125436   5.814   1.330   3.406
 8179SOL    HW225437   5.723   1.303   3.538
 8180SOL     OW25438   4.901   6.279   6.784
 8180SOL    HW125439   4.997   6.255   6.802
 8180SOL    HW225440   4.882   6.369   6.825
 8181SOL     OW25441   0.531   1.000   0.874
 8181SOL    HW125442   0.438   1.021   0.903
 8181SOL    HW225443   0.565   1.073   0.814
 8182SOL     OW25444   3.127   3.609   4.874
 8182SOL    HW125445   3.076   3.535   4.917
 8182SOL    HW225446   3.087   3.697   4.901
 8183SOL     OW25447   0.255   0.107   5.002
 8183SOL    HW125448   0.224   0.038   5.069
 8183SOL    HW225449   0.300   0.182   5.051
 8184SOL     OW25450   0.016   6.132   6.444
 8184SOL    HW125451   0.025   6.143   6.345
 8184SOL    HW225452   0.101   6.096   6.481
 8185SOL     OW25453   0.902   6.740   6.799
 8185SOL    HW125454   0.827   6.676   6.814
 8185SOL    HW225455   0.878   6.830   6.837
 8186SOL     OW25456   1.109   5.559   6.663
 8186SOL    HW125457   1.187   5.497   6.655
 8186SOL    HW225458   1.137   5.643   6.710
 8187SOL     OW25459   0.671   0.707   6.262
 8187SOL    HW125460   0.638   0.665   6.347
 8187SOL    HW225461   0.602   0.694   6.190
 8188SOL     OW25462   2.464   2.100   3.664
 8188SOL    HW125463   2.453   2.149   3.578
 8188SOL    HW225464   2.470   2.166   3.739
 8189SOL     OW25465   5.375   4.460   3.697
 8189SOL    HW125466   5.342   4.514   3.774
 8189SOL    HW225467   5.359   4.363   3.715
 8190SOL     OW25468   6.170   3.424   3.628
 8190SOL    HW125469   6.226   3.347   3.597
 8190SOL    HW225470   6.173   3.497   3.560
 8191SOL     OW25471   3.570   5.383   1.159
 8191SOL    HW125472   3.609   5.470   1.128
 8191SOL    HW225473   3.638   5.333   1.212
 8192SOL     OW25474   1.170   5.082   3.931
 8192SOL    HW125475   1.104   5.034   3.873
 8192SOL    HW225476   1.122   5.138   3.998
 8193SOL     OW25477   0.794   4.097   5.093
 8193SOL    HW125478   0.853   4.070   5.170
 8193SOL    HW225479   0.701   4.112   5.127
 8194SOL     OW25480   4.737   6.566   1.720
 8194SOL    HW125481   4.748   6.642   1.785
 8194SOL    HW225482   4.659   6.510   1.747
 8195SOL     OW25483   5.408   6.443   3.299
 8195SOL    HW125484   5.467   6.402   3.229
 8195SOL    HW225485   5.464   6.478   3.374
 8196SOL     OW25486   4.821   0.291   0.330
 8196SOL    HW125487   4.807   0.371   0.271
 8196SOL    HW225488   4.803   0.316   0.425
 8197SOL     OW25489   4.780   1.829   2.530
 8197SOL    HW125490   4.863   1.774   2.532
 8197SOL    HW225491   4.701   1.771   2.550
 8198SOL     OW25492   2.093   0.664   2.646
 8198SOL    HW125493   2.106   0.566   2.661
 8198SOL    HW225494   2.002   0.691   2.680
 8199SOL     OW25495   5.575   3.159   5.623
 8199SOL    HW125496   5.485   3.141   5.582
 8199SOL    HW225497   5.629   3.216   5.560
 8200SOL     OW25498   4.378   2.475   1.241
 8200SOL    HW125499   4.446   2.526   1.293
 8200SOL    HW225500   4.302   2.536   1.218
 8201SOL     OW25501   6.757   0.023   5.261
 8201SOL    HW125502   6.767   6.948   5.288
 8201SOL    HW225503   6.660   0.048   5.263
 8202SOL     OW25504   0.934   6.522   1.769
 8202SOL    HW125505   0.949   6.620   1.777
 8202SOL    HW225506   0.836   6.503   1.770
 8203SOL     OW25507   0.968   3.504   1.178
 8203SOL    HW125508   0.928   3.476   1.090
 8203SOL    HW225509   1.049   3.449   1.196
 8204SOL     OW25510   3.994   3.077   1.452
 8204SOL    HW125511   4.069   3.141   1.437
 8204SOL    HW225512   4.030   2.993   1.492
 8205SOL     OW25513   1.391   3.763   0.931
 8205SOL    HW125514   1.391   3.723   0.839
 8205SOL    HW225515   1.364   3.859   0.926
 8206SOL     OW25516   3.884   0.696   6.810
 8206SOL    HW125517   3.898   0.778   6.865
 8206SOL    HW225518   3.796   0.655   6.834
 8207SOL     OW25519   3.693   2.881   4.295
 8207SOL    HW125520   3.748   2.797   4.295
 8207SOL    HW225521   3.608   2.865   4.346
 8208SOL     OW25522   1.808   1.015   0.529
 8208SOL    HW125523   1.844   1.106   0.550
 8208SOL    HW225524   1.883   0.950   0.519
 8209SOL     OW25525   6.594   0.977   5.539
 8209SOL    HW125526   6.566   0.899   5.594
 8209SOL    HW225527   6.524   0.995   5.469
 8210SOL     OW25528   1.227   2.726   6.964
 8210SOL    HW125529   1.166   2.696   0.016
 8210SOL    HW225530   1.262   2.817   6.984
 8211SOL     OW25531   2.739   4.335   0.740
 8211SOL    HW125532   2.743   4.347   0.641
 8211SOL    HW225533   2.807   4.395   0.783
 8212SOL     OW25534   1.461   2.447   3.522
 8212SOL    HW125535   1.551   2.425   3.483
 8212SOL    HW225536   1.469   2.529   3.579
 8213SOL     OW25537   6.991   5.271   1.791
 8213SOL    HW125538   6.937   5.191   1.768
 8213SOL    HW225539   6.977   5.295   1.888
 8214SOL     OW25540   4.974   4.223   3.178
 8214SOL    HW125541   4.975   4.308   3.126
 8214SOL    HW225542   4.939   4.149   3.120
 8215SOL     OW25543   3.385   5.155   4.781
 8215SOL    HW125544   3.310   5.089   4.775
 8215SOL    HW225545   3.422   5.156   4.874
 8216SOL     OW25546   4.400   4.624   3.458
 8216SOL    HW125547   4.466   4.655   3.527
 8216SOL    HW225548   4.311   4.613   3.501
 8217SOL     OW25549   2.488   6.481   0.322
 8217SOL    HW125550   2.454   6.530   0.402
 8217SOL    HW225551   2.556   6.537   0.275
 8218SOL     OW25552   0.363   1.381   6.999
 8218SOL    HW125553   0.386   1.455   6.936
 8218SOL    HW225554   0.317   1.308   6.949
 8219SOL     OW25555   5.919   2.135   6.366
 8219SOL    HW125556   5.920   2.097   6.273
 8219SOL    HW225557   6.012   2.162   6.391
 8220SOL     OW25558   3.390   3.673   2.819
 8220SOL    HW125559   3.480   3.717   2.823
 8220SOL    HW225560   3.397   3.580   2.853
 8221SOL     OW25561   5.470   6.000   3.563
 8221SOL    HW125562   5.449   6.025   3.658
 8221SOL    HW225563   5.503   6.080   3.514
 8222SOL     OW25564   5.923   1.463   2.314
 8222SOL    HW125565   5.864   1.543   2.306
 8222SOL    HW225566   5.964   1.461   2.404
 8223SOL     OW25567   0.508   4.630   5.956
 8223SOL    HW125568   0.525   4.580   5.871
 8223SOL    HW225569   0.433   4.587   6.006
 8224SOL     OW25570   1.093   2.902   3.390
 8224SOL    HW125571   1.098   2.815   3.342
 8224SOL    HW225572   1.001   2.939   3.382
 8225SOL     OW25573   4.998   1.315   6.644
 8225SOL    HW125574   5.096   1.297   6.655
 8225SOL    HW225575   4.952   1.232   6.613
 8226SOL     OW25576   5.314   0.827   1.072
 8226SOL    HW125577   5.287   0.753   1.011
 8226SOL    HW225578   5.261   0.822   1.157
 8227SOL     OW25579   6.602   2.964   3.325
 8227SOL    HW125580   6.619   3.051   3.278
 8227SOL    HW225581   6.572   2.896   3.259
 8228SOL     OW25582   6.278   2.934   4.918
 8228SOL    HW125583   6.212   2.988   4.971
 8228SOL    HW225584   6.231   2.886   4.844
 8229SOL     OW25585   3.680   5.396   6.911
 8229SOL    HW125586   3.770   5.369   6.879
 8229SOL    HW225587   3.645   5.470   6.854
 8230SOL     OW25588   5.221   0.242   4.726
 8230SOL    HW125589   5.167   0.272   4.804
 8230SOL    HW225590   5.307   0.202   4.758
 8231SOL     OW25591   5.156   5.497   0.771
 8231SOL    HW125592   5.220   5.567   0.806
 8231SOL    HW225593   5.113   5.451   0.848
 8232SOL     OW25594   3.649   2.031   0.165
 8232SOL    HW125595   3.650   2.130   0.177
 8232SOL    HW225596   3.713   2.005   0.093
 8233SOL     OW25597   0.988   4.973   6.179
 8233SOL    HW125598   0.893   4.984   6.153
 8233SOL    HW225599   0.994   4.935   6.271
 8234SOL     OW25600   2.851   2.528   6.843
 8234SOL    HW125601   2.766   2.510   6.793
 8234SOL    HW225602   2.897   2.441   6.863
 8235SOL     OW25603   4.081   3.760   1.300
 8235SOL    HW125604   4.162   3.809   1.332
 8235SOL    HW225605   3.999   3.812   1.325
 8236SOL     OW25606   6.201   2.975   0.097
 8236SOL    HW125607   6.269   2.964   0.025
 8236SOL    HW225608   6.183   2.887   0.139
 8237SOL     OW25609   3.920   5.665   5.171
 8237SOL    HW125610   3.976   5.682   5.089
 8237SOL    HW225611   3.871   5.748   5.195
 8238SOL     OW25612   2.159   3.432   6.460
 8238SOL    HW125613   2.065   3.431   6.424
 8238SOL    HW225614   2.223   3.452   6.386
 8239SOL     OW25615   7.003   1.653   5.677
 8239SOL    HW125616   6.990   1.738   5.728
 8239SOL    HW225617   6.962   1.661   5.586
 8240SOL     OW25618   3.425   4.111   2.806
 8240SOL    HW125619   3.438   4.013   2.819
 8240SOL    HW225620   3.400   4.130   2.711
 8241SOL     OW25621   3.225   6.957   0.126
 8241SOL    HW125622   3.248   0.032   0.143
 8241SOL    HW225623   3.270   6.926   0.042
 8242SOL     OW25624   1.005   4.511   5.305
 8242SOL    HW125625   1.026   4.593   5.251
 8242SOL    HW225626   0.939   4.455   5.255
 8243SOL     OW25627   0.449   3.016   5.440
 8243SOL    HW125628   0.506   3.071   5.379
 8243SOL    HW225629   0.507   2.957   5.495
 8244SOL     OW25630   0.762   6.442   3.940
 8244SOL    HW125631   0.840   6.381   3.950
 8244SOL    HW225632   0.782   6.512   3.871
 8245SOL     OW25633   4.355   1.961   1.302
 8245SOL    HW125634   4.371   2.046   1.251
 8245SOL    HW225635   4.443   1.919   1.324
 8246SOL     OW25636   6.256   3.434   6.300
 8246SOL    HW125637   6.217   3.438   6.392
 8246SOL    HW225638   6.192   3.477   6.235
 8247SOL     OW25639   0.874   0.263   1.803
 8247SOL    HW125640   0.969   0.242   1.778
 8247SOL    HW225641   0.822   0.286   1.721
 8248SOL     OW25642   5.544   3.968   3.904
 8248SOL    HW125643   5.552   3.894   3.837
 8248SOL    HW225644   5.455   4.011   3.896
 8249SOL     OW25645   1.869   4.507   3.989
 8249SOL    HW125646   1.945   4.533   4.049
 8249SOL    HW225647   1.891   4.420   3.945
 8250SOL     OW25648   3.868   3.979   2.907
 8250SOL    HW125649   3.955   3.930   2.903
 8250SOL    HW225650   3.848   4.004   3.002
 8251SOL     OW25651   5.419   1.512   4.932
 8251SOL    HW125652   5.493   1.448   4.914
 8251SOL    HW225653   5.457   1.602   4.955
 8252SOL     OW25654   2.228   2.800   6.071
 8252SOL    HW125655   2.213   2.898   6.085
 8252SOL    HW225656   2.209   2.751   6.157
 8253SOL     OW25657   3.335   2.815   5.062
 8253SOL    HW125658   3.386   2.800   5.146
 8253SOL    HW225659   3.342   2.733   5.004
 8254SOL     OW25660   4.137   4.799   3.587
 8254SOL    HW125661   4.191   4.883   3.578
 8254SOL    HW225662   4.142   4.766   3.681
 8255SOL     OW25663   4.307   5.713   3.892
 8255SOL    HW125664   4.308   5.741   3.988
 8255SOL    HW225665   4.232   5.650   3.877
 8256SOL     OW25666   5.807   1.621   4.377
 8256SOL    HW125667   5.748   1.590   4.451
 8256SOL    HW225668   5.759   1.687   4.321
 8257SOL     OW25669   5.860   4.965   3.191
 8257SOL    HW125670   5.890   5.023   3.115
 8257SOL    HW225671   5.809   4.887   3.154
 8258SOL     OW25672   3.636   1.095   0.051
 8258SOL    HW125673   3.557   1.040   0.026
 8258SOL    HW225674   3.664   1.151   6.993
 8259SOL     OW25675   3.470   1.960   3.419
 8259SOL    HW125676   3.390   2.020   3.425
 8259SOL    HW225677   3.484   1.913   3.506
 8260SOL     OW25678   2.773   0.137   0.922
 8260SOL    HW125679   2.789   0.218   0.866
 8260SOL    HW225680   2.799   0.157   1.017
 8261SOL     OW25681   5.583   1.227   1.495
 8261SOL    HW125682   5.630   1.147   1.458
 8261SOL    HW225683   5.577   1.297   1.424
 8262SOL     OW25684   1.146   2.662   1.790
 8262SOL    HW125685   1.150   2.760   1.771
 8262SOL    HW225686   1.224   2.635   1.845
 8263SOL     OW25687   6.239   1.476   1.078
 8263SOL    HW125688   6.177   1.446   1.150
 8263SOL    HW225689   6.333   1.478   1.113
 8264SOL     OW25690   1.594   5.794   2.615
 8264SOL    HW125691   1.566   5.703   2.646
 8264SOL    HW225692   1.513   5.850   2.599
 8265SOL     OW25693   1.839   0.818   2.025
 8265SOL    HW125694   1.824   0.825   1.927
 8265SOL    HW225695   1.809   0.903   2.070
 8266SOL     OW25696   2.896   6.623   2.368
 8266SOL    HW125697   2.956   6.702   2.351
 8266SOL    HW225698   2.821   6.651   2.427
 8267SOL     OW25699   1.390   3.438   1.405
 8267SOL    HW125700   1.305   3.432   1.352
 8267SOL    HW225701   1.419   3.533   1.412
 8268SOL     OW25702   2.333   6.795   5.864
 8268SOL    HW125703   2.257   6.859   5.858
 8268SOL    HW225704   2.395   6.824   5.937
 8269SOL     OW25705   5.505   1.474   1.000
 8269SOL    HW125706   5.565   1.545   1.036
 8269SOL    HW225707   5.423   1.515   0.962
 8270SOL     OW25708   3.494   6.544   4.094
 8270SOL    HW125709   3.513   6.601   4.013
 8270SOL    HW225710   3.395   6.531   4.102
 8271SOL     OW25711   6.906   1.978   2.826
 8271SOL    HW125712   6.842   2.050   2.798
 8271SOL    HW225713   6.864   1.922   2.897
 8272SOL     OW25714   4.249   0.683   2.508
 8272SOL    HW125715   4.203   0.769   2.487
 8272SOL    HW225716   4.180   0.612   2.525
 8273SOL     OW25717   2.312   0.097   1.019
 8273SOL    HW125718   2.252   0.124   0.944
 8273SOL    HW225719   2.290   0.003   1.047
 8274SOL     OW25720   4.755   5.334   2.860
 8274SOL    HW125721   4.753   5.304   2.765
 8274SOL    HW225722   4.800   5.423   2.866
 8275SOL     OW25723   4.692   1.849   6.253
 8275SOL    HW125724   4.736   1.868   6.166
 8275SOL    HW225725   4.735   1.905   6.325
 8276SOL     OW25726   1.614   2.187   4.739
 8276SOL    HW125727   1.624   2.286   4.752
 8276SOL    HW225728   1.618   2.141   4.827
 8277SOL     OW25729   6.777   0.119   6.615
 8277SOL    HW125730   6.736   0.083   6.699
 8277SOL    HW225731   6.871   0.149   6.635
 8278SOL     OW25732   2.547   1.831   0.052
 8278SOL    HW125733   2.631   1.853   0.003
 8278SOL    HW225734   2.484   1.784   7.011
 8279SOL     OW25735   0.669   6.420   4.208
 8279SOL    HW125736   0.570   6.425   4.193
 8279SOL    HW225737   0.716   6.412   4.120
 8280SOL     OW25738   3.389   2.489   6.479
 8280SOL    HW125739   3.444   2.570   6.457
 8280SOL    HW225740   3.377   2.482   6.578
 8281SOL     OW25741   0.356   5.836   1.644
 8281SOL    HW125742   0.440   5.787   1.620
 8281SOL    HW225743   0.370   5.934   1.632
 8282SOL     OW25744   5.129   3.165   5.922
 8282SOL    HW125745   5.034   3.163   5.953
 8282SOL    HW225746   5.189   3.195   5.996
 8283SOL     OW25747   1.280   4.197   6.344
 8283SOL    HW125748   1.370   4.238   6.327
 8283SOL    HW225749   1.251   4.147   6.262
 8284SOL     OW25750   6.740   4.617   2.074
 8284SOL    HW125751   6.694   4.597   2.161
 8284SOL    HW225752   6.771   4.712   2.074
 8285SOL     OW25753   3.984   3.229   4.881
 8285SOL    HW125754   4.004   3.250   4.977
 8285SOL    HW225755   4.060   3.260   4.824
 8286SOL     OW25756   6.490   2.072   5.967
 8286SOL    HW125757   6.585   2.098   5.983
 8286SOL    HW225758   6.446   2.143   5.911
 8287SOL     OW25759   0.914   5.720   4.476
 8287SOL    HW125760   0.832   5.764   4.440
 8287SOL    HW225761   0.983   5.790   4.497
 8288SOL     OW25762   2.237   2.840   2.776
 8288SOL    HW125763   2.279   2.819   2.688
 8288SOL    HW225764   2.145   2.799   2.780
 8289SOL     OW25765   1.044   0.612   0.465
 8289SOL    HW125766   1.076   0.599   0.371
 8289SOL    HW225767   1.119   0.595   0.529
 8290SOL     OW25768   6.287   1.921   0.922
 8290SOL    HW125769   6.243   1.916   0.832
 8290SOL    HW225770   6.222   1.894   0.993
 8291SOL     OW25771   4.205   6.780   6.207
 8291SOL    HW125772   4.217   6.821   6.298
 8291SOL    HW225773   4.213   6.851   6.137
 8292SOL     OW25774   2.935   6.458   0.248
 8292SOL    HW125775   2.955   6.455   0.346
 8292SOL    HW225776   3.021   6.460   0.196
 8293SOL     OW25777   4.335   6.787   5.850
 8293SOL    HW125778   4.269   6.771   5.777
 8293SOL    HW225779   4.390   6.705   5.865
 8294SOL     OW25780   6.116   2.784   6.342
 8294SOL    HW125781   6.094   2.740   6.255
 8294SOL    HW225782   6.200   2.838   6.331
 8295SOL     OW25783   5.618   4.127   1.977
 8295SOL    HW125784   5.575   4.160   1.892
 8295SOL    HW225785   5.691   4.062   1.954
 8296SOL     OW25786   1.431   5.611   0.045
 8296SOL    HW125787   1.480   5.643   0.126
 8296SOL    HW225788   1.370   5.682   0.011
 8297SOL     OW25789   6.088   2.478   3.376
 8297SOL    HW125790   6.095   2.379   3.369
 8297SOL    HW225791   6.173   2.520   3.344
 8298SOL     OW25792   4.927   1.350   2.080
 8298SOL    HW125793   4.847   1.294   2.100
 8298SOL    HW225794   4.999   1.293   2.041
 8299SOL     OW25795   6.760   3.068   2.097
 8299SOL    HW125796   6.764   3.148   2.037
 8299SOL    HW225797   6.852   3.033   2.113
 8300SOL     OW25798   0.880   4.406   5.058
 8300SOL    HW125799   0.820   4.471   5.010
 8300SOL    HW225800   0.831   4.320   5.071
 8301SOL     OW25801   4.496   2.676   1.414
 8301SOL    HW125802   4.438   2.598   1.439
 8301SOL    HW225803   4.494   2.744   1.487
 8302SOL     OW25804   5.891   6.749   6.570
 8302SOL    HW125805   5.844   6.788   6.490
 8302SOL    HW225806   5.865   6.653   6.580
 8303SOL     OW25807   0.765   0.060   4.615
 8303SOL    HW125808   0.673   0.045   4.580
 8303SOL    HW225809   0.805   6.994   4.643
 8304SOL     OW25810   0.429   3.724   6.742
 8304SOL    HW125811   0.376   3.647   6.776
 8304SOL    HW225812   0.458   3.707   6.648
 8305SOL     OW25813   3.171   5.078   3.946
 8305SOL    HW125814   3.235   5.129   4.003
 8305SOL    HW225815   3.095   5.138   3.920
 8306SOL     OW25816   0.704   2.547   5.240
 8306SOL    HW125817   0.741   2.522   5.151
 8306SOL    HW225818   0.653   2.469   5.278
 8307SOL     OW25819   3.308   5.460   0.692
 8307SOL    HW125820   3.309   5.532   0.623
 8307SOL    HW225821   3.351   5.494   0.776
 8308SOL     OW25822   4.190   0.057   1.555
 8308SOL    HW125823   4.182   0.134   1.619
 8308SOL    HW225824   4.112   7.016   1.566
 8309SOL     OW25825   5.828   6.156   2.643
 8309SOL    HW125826   5.767   6.180   2.567
 8309SOL    HW225827   5.774   6.136   2.724
 8310SOL     OW25828   0.699   5.041   0.874
 8310SOL    HW125829   0.616   5.087   0.905
 8310SOL    HW225830   0.718   4.962   0.932
 8311SOL     OW25831   6.910   0.584   6.204
 8311SOL    HW125832   6.856   0.513   6.159
 8311SOL    HW225833   6.954   0.547   6.285
 8312SOL     OW25834   5.078   6.856   1.581
 8312SOL    HW125835   5.097   6.798   1.660
 8312SOL    HW225836   4.980   6.854   1.561
 8313SOL     OW25837   3.625   1.813   2.985
 8313SOL    HW125838   3.667   1.852   3.067
 8313SOL    HW225839   3.692   1.815   2.910
 8314SOL     OW25840   5.865   0.184   1.615
 8314SOL    HW125841   5.800   0.241   1.666
 8314SOL    HW225842   5.860   0.206   1.518
 8315SOL     OW25843   4.905   3.118   0.644
 8315SOL    HW125844   4.912   3.208   0.600
 8315SOL    HW225845   4.947   3.049   0.585
 8316SOL     OW25846   1.536   4.619   0.554
 8316SOL    HW125847   1.576   4.672   0.628
 8316SOL    HW225848   1.609   4.580   0.497
 8317SOL     OW25849   1.837   4.259   2.731
 8317SOL    HW125850   1.921   4.206   2.716
 8317SOL    HW225851   1.763   4.198   2.758
 8318SOL     OW25852   3.688   1.731   4.866
 8318SOL    HW125853   3.775   1.777   4.888
 8318SOL    HW225854   3.615   1.770   4.922
 8319SOL     OW25855   3.570   1.028   5.155
 8319SOL    HW125856   3.497   1.093   5.172
 8319SOL    HW225857   3.591   0.978   5.239
 8320SOL     OW25858   2.927   4.721   1.100
 8320SOL    HW125859   2.981   4.639   1.116
 8320SOL    HW225860   2.841   4.716   1.151
 8321SOL     OW25861   0.364   1.213   0.497
 8321SOL    HW125862   0.382   1.287   0.561
 8321SOL    HW225863   0.378   1.245   0.403
 8322SOL     OW25864   0.205   0.019   0.169
 8322SOL    HW125865   0.259   0.100   0.195
 8322SOL    HW225866   0.262   6.979   0.114
 8323SOL     OW25867   1.141   1.025   2.729
 8323SOL    HW125868   1.059   1.065   2.770
 8323SOL    HW225869   1.222   1.073   2.762
 8324SOL     OW25870   5.852   0.839   2.250
 8324SOL    HW125871   5.812   0.748   2.241
 8324SOL    HW225872   5.805   0.889   2.323
 8325SOL     OW25873   3.709   2.916   3.745
 8325SOL    HW125874   3.759   2.884   3.825
 8325SOL    HW225875   3.611   2.919   3.767
 8326SOL     OW25876   4.301   3.435   5.575
 8326SOL    HW125877   4.396   3.411   5.557
 8326SOL    HW225878   4.285   3.531   5.551
 8327SOL     OW25879   5.331   2.519   6.140
 8327SOL    HW125880   5.419   2.518   6.186
 8327SOL    HW225881   5.337   2.469   6.053
 8328SOL     OW25882   2.336   3.428   6.254
 8328SOL    HW125883   2.378   3.345   6.290
 8328SOL    HW225884   2.299   3.410   6.162
 8329SOL     OW25885   0.151   3.023   5.178
 8329SOL    HW125886   0.154   3.067   5.267
 8329SOL    HW225887   0.169   2.925   5.189
 8330SOL     OW25888   1.558   6.663   0.463
 8330SOL    HW125889   1.605   6.619   0.540
 8330SOL    HW225890   1.466   6.688   0.491
 8331SOL     OW25891   3.202   0.641   1.143
 8331SOL    HW125892   3.114   0.644   1.191
 8331SOL    HW225893   3.258   0.720   1.170
 8332SOL     OW25894   4.729   5.193   1.927
 8332SOL    HW125895   4.644   5.174   1.879
 8332SOL    HW225896   4.738   5.131   2.005
 8333SOL     OW25897   0.489   6.143   0.321
 8333SOL    HW125898   0.550   6.068   0.349
 8333SOL    HW225899   0.503   6.162   0.224
 8334SOL     OW25900   6.286   1.589   4.036
 8334SOL    HW125901   6.262   1.494   4.019
 8334SOL    HW225902   6.289   1.606   4.135
 8335SOL     OW25903   6.203   5.290   5.900
 8335SOL    HW125904   6.264   5.302   5.979
 8335SOL    HW225905   6.118   5.340   5.916
 8336SOL     OW25906   0.310   1.580   2.281
 8336SOL    HW125907   0.315   1.649   2.354
 8336SOL    HW225908   0.239   1.514   2.304
 8337SOL     OW25909   1.047   6.157   2.624
 8337SOL    HW125910   1.085   6.132   2.535
 8337SOL    HW225911   1.108   6.124   2.696
 8338SOL     OW25912   2.057   5.258   1.194
 8338SOL    HW125913   2.110   5.283   1.275
 8338SOL    HW225914   2.117   5.222   1.124
 8339SOL     OW25915   5.789   1.018   2.865
 8339SOL    HW125916   5.693   1.010   2.836
 8339SOL    HW225917   5.793   1.019   2.965
 8340SOL     OW25918   4.885   3.705   0.755
 8340SOL    HW125919   4.892   3.609   0.782
 8340SOL    HW225920   4.823   3.753   0.817
 8341SOL     OW25921   1.599   0.292   1.077
 8341SOL    HW125922   1.606   0.390   1.061
 8341SOL    HW225923   1.661   0.266   1.151
 8342SOL     OW25924   3.816   0.729   1.124
 8342SOL    HW125925   3.780   0.637   1.136
 8342SOL    HW225926   3.861   0.736   1.035
 8343SOL     OW25927   1.328   5.722   6.258
 8343SOL    HW125928   1.248   5.673   6.291
 8343SOL    HW225929   1.335   5.810   6.305
 8344SOL     OW25930   4.326   6.258   5.820
 8344SOL    HW125931   4.270   6.274   5.738
 8344SOL    HW225932   4.403   6.321   5.821
 8345SOL     OW25933   5.926   1.733   3.313
 8345SOL    HW125934   5.986   1.735   3.233
 8345SOL    HW225935   5.831   1.723   3.284
 8346SOL     OW25936   2.433   4.796   0.767
 8346SOL    HW125937   2.399   4.840   0.850
 8346SOL    HW225938   2.518   4.840   0.739
 8347SOL     OW25939   2.692   6.506   5.075
 8347SOL    HW125940   2.777   6.495   5.024
 8347SOL    HW225941   2.707   6.567   5.152
 8348SOL     OW25942   1.032   0.577   1.406
 8348SOL    HW125943   1.131   0.588   1.395
 8348SOL    HW225944   1.003   0.493   1.361
 8349SOL     OW25945   5.971   3.875   0.737
 8349SOL    HW125946   5.887   3.821   0.735
 8349SOL    HW225947   5.965   3.943   0.810
 8350SOL     OW25948   6.401   1.013   5.347
 8350SOL    HW125949   6.321   0.953   5.342
 8350SOL    HW225950   6.406   1.068   5.264
 8351SOL     OW25951   3.298   6.319   4.098
 8351SOL    HW125952   3.233   6.394   4.106
 8351SOL    HW225953   3.251   6.238   4.064
 8352SOL     OW25954   6.778   6.620   2.290
 8352SOL    HW125955   6.731   6.620   2.378
 8352SOL    HW225956   6.715   6.647   2.217
 8353SOL     OW25957   6.432   3.757   2.293
 8353SOL    HW125958   6.454   3.679   2.352
 8353SOL    HW225959   6.436   3.841   2.346
 8354SOL     OW25960   2.896   1.536   6.665
 8354SOL    HW125961   2.844   1.552   6.749
 8354SOL    HW225962   2.852   1.462   6.613
 8355SOL     OW25963   3.177   0.446   0.426
 8355SOL    HW125964   3.260   0.481   0.469
 8355SOL    HW225965   3.125   0.393   0.493
 8356SOL     OW25966   1.131   5.922   0.238
 8356SOL    HW125967   1.189   5.870   0.301
 8356SOL    HW225968   1.114   6.012   0.275
 8357SOL     OW25969   3.505   5.697   4.687
 8357SOL    HW125970   3.407   5.701   4.702
 8357SOL    HW225971   3.538   5.604   4.702
 8358SOL     OW25972   1.653   2.400   5.743
 8358SOL    HW125973   1.609   2.416   5.831
 8358SOL    HW225974   1.627   2.310   5.709
 8359SOL     OW25975   4.268   5.312   4.372
 8359SOL    HW125976   4.203   5.236   4.367
 8359SOL    HW225977   4.286   5.347   4.280
 8360SOL     OW25978   4.412   0.235   3.113
 8360SOL    HW125979   4.379   0.186   3.032
 8360SOL    HW225980   4.427   0.331   3.089
 8361SOL     OW25981   1.475   1.544   2.672
 8361SOL    HW125982   1.385   1.545   2.715
 8361SOL    HW225983   1.535   1.609   2.718
 8362SOL     OW25984   2.388   2.553   0.299
 8362SOL    HW125985   2.299   2.520   0.330
 8362SOL    HW225986   2.460   2.504   0.347
 8363SOL     OW25987   1.081   2.670   0.810
 8363SOL    HW125988   1.088   2.671   0.909
 8363SOL    HW225989   1.103   2.579   0.775
 8364SOL     OW25990   6.178   3.515   3.385
 8364SOL    HW125991   6.258   3.560   3.346
 8364SOL    HW225992   6.095   3.556   3.347
 8365SOL     OW25993   1.652   3.334   0.540
 8365SOL    HW125994   1.698   3.257   0.585
 8365SOL    HW225995   1.695   3.350   0.451
 8366SOL     OW25996   4.614   6.255   2.706
 8366SOL    HW125997   4.523   6.217   2.722
 8366SOL    HW225998   4.627   6.273   2.609
 8367SOL     OW25999   4.817   6.370   3.674
 8367SOL    HW126000   4.857   6.361   3.583
 8367SOL    HW226001   4.825   6.465   3.704
 8368SOL     OW26002   2.586   5.132   5.847
 8368SOL    HW126003   2.548   5.224   5.839
 8368SOL    HW226004   2.537   5.070   5.785
 8369SOL     OW26005   2.129   1.077   0.261
 8369SOL    HW126006   2.114   0.983   0.292
 8369SOL    HW226007   2.224   1.088   0.235
 8370SOL     OW26008   1.393   1.953   6.451
 8370SOL    HW126009   1.312   1.979   6.398
 8370SOL    HW226010   1.460   2.028   6.448
 8371SOL     OW26011   1.292   2.832   0.671
 8371SOL    HW126012   1.361   2.872   0.731
 8371SOL    HW226013   1.308   2.733   0.664
 8372SOL     OW26014   0.131   0.143   2.425
 8372SOL    HW126015   0.116   0.147   2.326
 8372SOL    HW226016   0.221   0.103   2.444
 8373SOL     OW26017   1.031   6.333   5.902
 8373SOL    HW126018   1.040   6.387   5.818
 8373SOL    HW226019   0.935   6.309   5.915
 8374SOL     OW26020   6.740   0.817   0.128
 8374SOL    HW126021   6.712   0.806   0.223
 8374SOL    HW226022   6.815   0.883   0.123
 8375SOL     OW26023   3.180   6.214   6.123
 8375SOL    HW126024   3.097   6.262   6.153
 8375SOL    HW226025   3.155   6.122   6.091
 8376SOL     OW26026   2.983   0.186   3.727
 8376SOL    HW126027   2.932   0.114   3.773
 8376SOL    HW226028   3.058   0.217   3.786
 8377SOL     OW26029   6.324   5.412   1.434
 8377SOL    HW126030   6.281   5.449   1.352
 8377SOL    HW226031   6.285   5.322   1.454
 8378SOL     OW26032   5.297   3.470   2.894
 8378SOL    HW126033   5.306   3.537   2.968
 8378SOL    HW226034   5.238   3.395   2.924
 8379SOL     OW26035   6.392   3.581   1.819
 8379SOL    HW126036   6.302   3.588   1.776
 8379SOL    HW226037   6.409   3.664   1.873
 8380SOL     OW26038   5.689   1.615   2.405
 8380SOL    HW126039   5.736   1.703   2.413
 8380SOL    HW226040   5.676   1.576   2.497
 8381SOL     OW26041   1.264   5.246   4.536
 8381SOL    HW126042   1.192   5.277   4.474
 8381SOL    HW226043   1.277   5.147   4.525
 8382SOL     OW26044   1.613   2.093   2.501
 8382SOL    HW126045   1.700   2.140   2.486
 8382SOL    HW226046   1.617   2.044   2.588
 8383SOL     OW26047   2.632   2.499   6.708
 8383SOL    HW126048   2.593   2.588   6.733
 8383SOL    HW226049   2.654   2.499   6.611
 8384SOL     OW26050   7.006   6.237   1.537
 8384SOL    HW126051   0.044   6.198   1.467
 8384SOL    HW226052   0.029   6.228   1.627
 8385SOL     OW26053   5.063   2.339   2.525
 8385SOL    HW126054   5.161   2.342   2.547
 8385SOL    HW226055   5.048   2.271   2.453
 8386SOL     OW26056   0.524   4.394   2.976
 8386SOL    HW126057   0.539   4.304   2.937
 8386SOL    HW226058   0.429   4.422   2.961
 8387SOL     OW26059   1.097   1.658   1.331
 8387SOL    HW126060   1.187   1.634   1.366
 8387SOL    HW226061   1.032   1.584   1.350
 8388SOL     OW26062   2.994   6.509   1.234
 8388SOL    HW126063   2.958   6.493   1.142
 8388SOL    HW226064   3.020   6.421   1.275
 8389SOL     OW26065   5.099   3.175   2.066
 8389SOL    HW126066   5.187   3.216   2.044
 8389SOL    HW226067   5.071   3.203   2.158
 8390SOL     OW26068   4.587   2.081   5.568
 8390SOL    HW126069   4.570   2.069   5.666
 8390SOL    HW226070   4.627   1.997   5.531
 8391SOL     OW26071   6.513   0.314   0.661
 8391SOL    HW126072   6.477   0.223   0.640
 8391SOL    HW226073   6.523   0.325   0.760
 8392SOL     OW26074   5.576   3.193   4.324
 8392SOL    HW126075   5.520   3.119   4.361
 8392SOL    HW226076   5.550   3.279   4.367
 8393SOL     OW26077   4.969   0.023   1.886
 8393SOL    HW126078   4.904   0.088   1.925
 8393SOL    HW226079   5.036   0.072   1.831
 8394SOL     OW26080   6.017   3.904   2.595
 8394SOL    HW126081   5.935   3.858   2.628
 8394SOL    HW226082   6.016   3.908   2.495
 8395SOL     OW26083   2.460   1.090   4.951
 8395SOL    HW126084   2.416   1.157   4.891
 8395SOL    HW226085   2.477   1.006   4.900
 8396SOL     OW26086   4.478   5.336   4.756
 8396SOL    HW126087   4.536   5.340   4.674
 8396SOL    HW226088   4.523   5.386   4.830
 8397SOL     OW26089   6.248   1.093   3.604
 8397SOL    HW126090   6.342   1.111   3.636
 8397SOL    HW226091   6.197   1.046   3.676
 8398SOL     OW26092   5.135   2.327   5.779
 8398SOL    HW126093   5.069   2.336   5.704
 8398SOL    HW226094   5.094   2.361   5.864
 8399SOL     OW26095   0.375   5.639   0.255
 8399SOL    HW126096   0.358   5.569   0.324
 8399SOL    HW226097   0.308   5.713   0.263
 8400SOL     OW26098   1.339   2.198   4.172
 8400SOL    HW126099   1.375   2.229   4.084
 8400SOL    HW226100   1.241   2.183   4.165
 8401SOL     OW26101   3.030   0.360   5.700
 8401SOL    HW126102   2.980   0.447   5.699
 8401SOL    HW226103   2.972   0.288   5.737
 8402SOL     OW26104   4.273   0.966   5.941
 8402SOL    HW126105   4.189   1.020   5.933
 8402SOL    HW226106   4.275   0.921   6.030
 8403SOL     OW26107   6.243   4.756   4.760
 8403SOL    HW126108   6.208   4.730   4.850
 8403SOL    HW226109   6.200   4.841   4.730
 8404SOL     OW26110   2.056   1.942   6.581
 8404SOL    HW126111   2.117   1.996   6.639
 8404SOL    HW226112   2.062   1.976   6.487
 8405SOL     OW26113   3.982   1.082   4.887
 8405SOL    HW126114   4.013   1.170   4.851
 8405SOL    HW226115   3.894   1.094   4.933
 8406SOL     OW26116   5.326   0.836   6.315
 8406SOL    HW126117   5.404   0.898   6.308
 8406SOL    HW226118   5.267   0.865   6.391
 8407SOL     OW26119   3.815   6.246   3.260
 8407SOL    HW126120   3.784   6.217   3.350
 8407SOL    HW226121   3.896   6.304   3.269
 8408SOL     OW26122   5.408   0.294   1.316
 8408SOL    HW126123   5.365   0.248   1.238
 8408SOL    HW226124   5.342   0.299   1.392
 8409SOL     OW26125   4.359   2.306   2.073
 8409SOL    HW126126   4.411   2.391   2.083
 8409SOL    HW226127   4.314   2.304   1.984
 8410SOL     OW26128   6.956   1.769   2.040
 8410SOL    HW126129   6.926   1.788   1.947
 8410SOL    HW226130   0.032   1.744   2.040
 8411SOL     OW26131   1.236   5.946   0.741
 8411SOL    HW126132   1.298   6.015   0.777
 8411SOL    HW226133   1.174   5.915   0.813
 8412SOL     OW26134   2.797   3.148   0.062
 8412SOL    HW126135   2.757   3.097   7.007
 8412SOL    HW226136   2.883   3.103   0.090
 8413SOL     OW26137   4.260   5.236   5.687
 8413SOL    HW126138   4.331   5.277   5.630
 8413SOL    HW226139   4.273   5.263   5.782
 8414SOL     OW26140   1.176   1.526   2.804
 8414SOL    HW126141   1.120   1.541   2.723
 8414SOL    HW226142   1.136   1.453   2.859
 8415SOL     OW26143   2.488   0.235   4.639
 8415SOL    HW126144   2.563   0.223   4.704
 8415SOL    HW226145   2.406   0.190   4.674
 8416SOL     OW26146   6.563   1.824   4.766
 8416SOL    HW126147   6.560   1.919   4.798
 8416SOL    HW226148   6.550   1.763   4.844
 8417SOL     OW26149   0.872   3.544   5.011
 8417SOL    HW126150   0.837   3.635   5.033
 8417SOL    HW226151   0.927   3.548   4.928
 8418SOL     OW26152   1.123   5.842   2.734
 8418SOL    HW126153   1.181   5.834   2.816
 8418SOL    HW226154   1.132   5.760   2.679
 8419SOL     OW26155   5.237   0.614   3.951
 8419SOL    HW126156   5.290   0.638   4.032
 8419SOL    HW226157   5.259   0.676   3.876
 8420SOL     OW26158   3.309   6.582   2.061
 8420SOL    HW126159   3.212   6.567   2.039
 8420SOL    HW226160   3.323   6.574   2.159
 8421SOL     OW26161   4.195   6.208   6.573
 8421SOL    HW126162   4.215   6.226   6.669
 8421SOL    HW226163   4.103   6.243   6.551
 8422SOL     OW26164   4.586   2.575   3.089
 8422SOL    HW126165   4.562   2.479   3.074
 8422SOL    HW226166   4.590   2.595   3.187
 8423SOL     OW26167   5.515   4.651   5.881
 8423SOL    HW126168   5.493   4.555   5.869
 8423SOL    HW226169   5.588   4.660   5.948
 8424SOL     OW26170   2.041   7.003   3.446
 8424SOL    HW126171   1.977   0.058   3.464
 8424SOL    HW226172   2.082   7.014   3.356
 8425SOL     OW26173   3.185   3.884   3.626
 8425SOL    HW126174   3.236   3.849   3.547
 8425SOL    HW226175   3.107   3.938   3.594
 8426SOL     OW26176   3.668   2.998   2.235
 8426SOL    HW126177   3.676   3.089   2.195
 8426SOL    HW226178   3.591   2.949   2.193
 8427SOL     OW26179   2.951   3.882   3.884
 8427SOL    HW126180   2.958   3.782   3.888
 8427SOL    HW226181   2.895   3.908   3.804
 8428SOL     OW26182   0.091   0.570   0.796
 8428SOL    HW126183   0.153   0.562   0.717
 8428SOL    HW226184   7.018   0.550   0.767
 8429SOL     OW26185   1.580   5.648   6.275
 8429SOL    HW126186   1.635   5.675   6.196
 8429SOL    HW226187   1.487   5.684   6.266
 8430SOL     OW26188   4.276   5.902   4.399
 8430SOL    HW126189   4.342   5.847   4.449
 8430SOL    HW226190   4.199   5.923   4.459
 8431SOL     OW26191   3.038   3.362   6.314
 8431SOL    HW126192   3.053   3.278   6.262
 8431SOL    HW226193   2.940   3.383   6.316
 8432SOL     OW26194   6.520   5.680   6.420
 8432SOL    HW126195   6.448   5.737   6.461
 8432SOL    HW226196   6.496   5.660   6.325
 8433SOL     OW26197   4.810   2.367   0.610
 8433SOL    HW126198   4.782   2.460   0.584
 8433SOL    HW226199   4.763   2.340   0.694
 8434SOL     OW26200   2.014   5.596   5.409
 8434SOL    HW126201   2.091   5.654   5.434
 8434SOL    HW226202   2.007   5.591   5.310
 8435SOL     OW26203   5.177   0.830   2.898
 8435SOL    HW126204   5.154   0.885   2.978
 8435SOL    HW226205   5.137   0.872   2.816
 8436SOL     OW26206   2.511   0.014   3.007
 8436SOL    HW126207   2.606   0.033   3.034
 8436SOL    HW226208   2.450   0.040   3.082
 8437SOL     OW26209   2.209   2.854   2.251
 8437SOL    HW126210   2.143   2.928   2.235
 8437SOL    HW226211   2.277   2.854   2.177
 8438SOL     OW26212   1.619   4.638   3.009
 8438SOL    HW126213   1.691   4.581   3.048
 8438SOL    HW226214   1.531   4.591   3.016
 8439SOL     OW26215   5.992   5.761   3.468
 8439SOL    HW126216   6.021   5.852   3.498
 8439SOL    HW226217   5.900   5.743   3.503
 8440SOL     OW26218   2.247   1.221   3.390
 8440SOL    HW126219   2.213   1.217   3.484
 8440SOL    HW226220   2.238   1.131   3.348
 8441SOL     OW26221   5.724   0.281   5.508
 8441SOL    HW126222   5.764   0.289   5.417
 8441SOL    HW226223   5.734   0.188   5.542
 8442SOL     OW26224   3.920   1.282   5.735
 8442SOL    HW126225   3.966   1.366   5.764
 8442SOL    HW226226   3.976   1.235   5.667
 8443SOL     OW26227   1.429   4.609   3.656
 8443SOL    HW126228   1.477   4.552   3.589
 8443SOL    HW226229   1.493   4.638   3.727
 8444SOL     OW26230   4.735   5.843   3.504
 8444SOL    HW126231   4.712   5.757   3.457
 8444SOL    HW226232   4.715   5.834   3.601
 8445SOL     OW26233   3.488   6.487   6.865
 8445SOL    HW126234   3.477   6.579   6.903
 8445SOL    HW226235   3.415   6.468   6.800
 8446SOL     OW26236   0.631   5.921   5.156
 8446SOL    HW126237   0.650   6.019   5.165
 8446SOL    HW226238   0.707   5.876   5.109
 8447SOL     OW26239   3.603   1.534   2.591
 8447SOL    HW126240   3.559   1.481   2.663
 8447SOL    HW226241   3.555   1.621   2.580
 8448SOL     OW26242   4.656   6.699   2.848
 8448SOL    HW126243   4.572   6.644   2.854
 8448SOL    HW226244   4.639   6.789   2.887
 8449SOL     OW26245   1.897   2.384   3.167
 8449SOL    HW126246   1.922   2.457   3.103
 8449SOL    HW226247   1.971   2.370   3.232
 8450SOL     OW26248   6.621   0.610   7.005
 8450SOL    HW126249   6.652   0.691   0.035
 8450SOL    HW226250   6.662   0.611   6.914
 8451SOL     OW26251   4.892   2.009   1.311
 8451SOL    HW126252   4.959   1.936   1.303
 8451SOL    HW226253   4.934   2.089   1.355
 8452SOL     OW26254   5.151   2.028   4.932
 8452SOL    HW126255   5.100   2.038   4.846
 8452SOL    HW226256   5.107   1.958   4.989
 8453SOL     OW26257   0.773   5.716   6.982
 8453SOL    HW126258   0.789   5.741   6.887
 8453SOL    HW226259   0.674   5.710   6.999
 8454SOL     OW26260   0.753   4.496   0.414
 8454SOL    HW126261   0.796   4.465   0.498
 8454SOL    HW226262   0.664   4.450   0.404
 8455SOL     OW26263   1.073   0.627   2.783
 8455SOL    HW126264   1.004   0.575   2.833
 8455SOL    HW226265   1.028   0.687   2.717
 8456SOL     OW26266   5.750   1.644   3.584
 8456SOL    HW126267   5.668   1.615   3.633
 8456SOL    HW226268   5.816   1.569   3.581
 8457SOL     OW26269   6.004   6.198   4.823
 8457SOL    HW126270   5.974   6.202   4.728
 8457SOL    HW226271   5.939   6.248   4.881
 8458SOL     OW26272   6.424   0.160   6.810
 8458SOL    HW126273   6.499   0.093   6.810
 8458SOL    HW226274   6.396   0.180   6.903
 8459SOL     OW26275   1.549   5.931   3.077
 8459SOL    HW126276   1.564   5.983   2.992
 8459SOL    HW226277   1.637   5.907   3.117
 8460SOL     OW26278   3.246   4.095   5.013
 8460SOL    HW126279   3.302   4.130   4.938
 8460SOL    HW226280   3.202   4.172   5.060
 8461SOL     OW26281   6.521   3.125   4.607
 8461SOL    HW126282   6.566   3.147   4.521
 8461SOL    HW226283   6.506   3.208   4.660
 8462SOL     OW26284   2.435   2.254   1.790
 8462SOL    HW126285   2.528   2.268   1.823
 8462SOL    HW226286   2.404   2.163   1.816
 8463SOL     OW26287   5.756   0.893   2.514
 8463SOL    HW126288   5.818   0.837   2.570
 8463SOL    HW226289   5.689   0.937   2.573
 8464SOL     OW26290   5.834   2.761   4.330
 8464SOL    HW126291   5.891   2.731   4.406
 8464SOL    HW226292   5.853   2.857   4.310
 8465SOL     OW26293   1.651   2.590   0.642
 8465SOL    HW126294   1.691   2.500   0.630
 8465SOL    HW226295   1.713   2.660   0.606
 8466SOL     OW26296   0.867   6.018   3.585
 8466SOL    HW126297   0.835   6.031   3.491
 8466SOL    HW226298   0.967   6.013   3.586
 8467SOL     OW26299   2.999   5.661   1.029
 8467SOL    HW126300   3.017   5.657   0.930
 8467SOL    HW226301   2.950   5.745   1.050
 8468SOL     OW26302   4.532   1.607   6.649
 8468SOL    HW126303   4.615   1.568   6.608
 8468SOL    HW226304   4.478   1.534   6.691
 8469SOL     OW26305   3.373   2.399   6.741
 8469SOL    HW126306   3.445   2.335   6.767
 8469SOL    HW226307   3.331   2.437   6.823
 8470SOL     OW26308   2.807   3.418   6.740
 8470SOL    HW126309   2.756   3.395   6.823
 8470SOL    HW226310   2.770   3.502   6.700
 8471SOL     OW26311   3.527   0.799   3.684
 8471SOL    HW126312   3.475   0.819   3.600
 8471SOL    HW226313   3.618   0.841   3.677
 8472SOL     OW26314   1.402   6.542   4.348
 8472SOL    HW126315   1.360   6.452   4.331
 8472SOL    HW226316   1.492   6.529   4.388
 8473SOL     OW26317   6.937   5.260   6.676
 8473SOL    HW126318   7.008   5.193   6.655
 8473SOL    HW226319   6.852   5.214   6.701
 8474SOL     OW26320   3.257   3.964   1.562
 8474SOL    HW126321   3.227   3.959   1.657
 8474SOL    HW226322   3.268   3.872   1.525
 8475SOL     OW26323   5.641   1.577   2.665
 8475SOL    HW126324   5.604   1.670   2.661
 8475SOL    HW226325   5.606   1.531   2.746
 8476SOL     OW26326   4.537   0.618   2.105
 8476SOL    HW126327   4.602   0.609   2.180
 8476SOL    HW226328   4.444   0.609   2.141
 8477SOL     OW26329   2.790   0.833   1.027
 8477SOL    HW126330   2.756   0.818   0.934
 8477SOL    HW226331   2.866   0.770   1.045
 8478SOL     OW26332   1.354   0.172   5.457
 8478SOL    HW126333   1.296   0.100   5.418
 8478SOL    HW226334   1.422   0.131   5.517
 8479SOL     OW26335   5.967   0.834   0.905
 8479SOL    HW126336   5.931   0.895   0.835
 8479SOL    HW226337   6.021   0.886   0.971
 8480SOL     OW26338   3.226   0.839   1.722
 8480SOL    HW126339   3.255   0.744   1.712
 8480SOL    HW226340   3.304   0.895   1.749
 8481SOL     OW26341   3.692   0.997   3.994
 8481SOL    HW126342   3.682   0.978   4.092
 8481SOL    HW226343   3.673   1.094   3.976
 8482SOL     OW26344   1.521   6.633   2.113
 8482SOL    HW126345   1.614   6.654   2.084
 8482SOL    HW226346   1.517   6.540   2.150
 8483SOL     OW26347   3.636   5.896   0.896
 8483SOL    HW126348   3.713   5.915   0.957
 8483SOL    HW226349   3.667   5.896   0.801
 8484SOL     OW26350   0.422   5.066   4.603
 8484SOL    HW126351   0.402   5.141   4.665
 8484SOL    HW226352   0.346   5.055   4.538
 8485SOL     OW26353   2.252   3.451   6.919
 8485SOL    HW126354   2.234   3.390   6.842
 8485SOL    HW226355   2.324   3.516   6.894
 8486SOL     OW26356   5.418   0.845   2.431
 8486SOL    HW126357   5.507   0.800   2.440
 8486SOL    HW226358   5.345   0.778   2.437
 8487SOL     OW26359   5.172   0.484   1.265
 8487SOL    HW126360   5.170   0.389   1.295
 8487SOL    HW226361   5.092   0.502   1.207
 8488SOL     OW26362   5.135   3.553   3.949
 8488SOL    HW126363   5.053   3.565   4.005
 8488SOL    HW226364   5.122   3.476   3.887
 8489SOL     OW26365   4.887   4.601   1.665
 8489SOL    HW126366   4.983   4.612   1.637
 8489SOL    HW226367   4.829   4.597   1.584
 8490SOL     OW26368   4.341   4.991   3.007
 8490SOL    HW126369   4.351   5.019   2.911
 8490SOL    HW226370   4.269   4.923   3.015
 8491SOL     OW26371   2.261   0.602   2.440
 8491SOL    HW126372   2.199   0.613   2.518
 8491SOL    HW226373   2.313   0.687   2.427
 8492SOL     OW26374   6.137   2.813   4.698
 8492SOL    HW126375   6.050   2.788   4.740
 8492SOL    HW226376   6.153   2.755   4.618
 8493SOL     OW26377   4.376   1.458   6.327
 8493SOL    HW126378   4.405   1.553   6.338
 8493SOL    HW226379   4.350   1.442   6.231
 8494SOL     OW26380   3.384   5.552   6.506
 8494SOL    HW126381   3.420   5.640   6.478
 8494SOL    HW226382   3.284   5.554   6.500
 8495SOL     OW26383   7.006   2.596   1.393
 8495SOL    HW126384   0.078   2.634   1.397
 8495SOL    HW226385   6.949   2.652   1.333
 8496SOL     OW26386   0.378   2.978   3.594
 8496SOL    HW126387   0.459   3.007   3.645
 8496SOL    HW226388   0.296   3.000   3.647
 8497SOL     OW26389   5.703   5.621   3.234
 8497SOL    HW126390   5.665   5.549   3.293
 8497SOL    HW226391   5.710   5.706   3.286
 8498SOL     OW26392   0.259   1.003   1.048
 8498SOL    HW126393   0.204   1.084   1.034
 8498SOL    HW226394   0.218   0.925   1.000
 8499SOL     OW26395   3.615   4.047   6.024
 8499SOL    HW126396   3.713   4.036   6.006
 8499SOL    HW226397   3.601   4.061   6.122
 8500SOL     OW26398   2.514   6.235   5.953
 8500SOL    HW126399   2.590   6.277   5.904
 8500SOL    HW226400   2.461   6.179   5.889
 8501SOL     OW26401   1.415   3.284   6.875
 8501SOL    HW126402   1.410   3.379   6.844
 8501SOL    HW226403   1.490   3.274   6.940
 8502SOL     OW26404   6.912   6.928   1.592
 8502SOL    HW126405   6.867   6.904   1.678
 8502SOL    HW226406   7.011   6.923   1.604
 8503SOL     OW26407   2.707   5.013   3.324
 8503SOL    HW126408   2.755   5.017   3.236
 8503SOL    HW226409   2.697   4.917   3.352
 8504SOL     OW26410   1.309   5.329   3.519
 8504SOL    HW126411   1.341   5.235   3.507
 8504SOL    HW226412   1.216   5.328   3.556
 8505SOL     OW26413   5.175   3.610   3.461
 8505SOL    HW126414   5.083   3.580   3.436
 8505SOL    HW226415   5.177   3.710   3.465
 8506SOL     OW26416   1.545   6.458   0.263
 8506SOL    HW126417   1.549   6.507   0.350
 8506SOL    HW226418   1.637   6.435   0.232
 8507SOL     OW26419   1.305   0.866   5.540
 8507SOL    HW126420   1.266   0.774   5.532
 8507SOL    HW226421   1.274   0.908   5.625
 8508SOL     OW26422   0.602   2.160   5.579
 8508SOL    HW126423   0.581   2.247   5.625
 8508SOL    HW226424   0.670   2.110   5.632
 8509SOL     OW26425   6.274   1.706   4.281
 8509SOL    HW126426   6.293   1.791   4.330
 8509SOL    HW226427   6.184   1.711   4.237
 8510SOL     OW26428   5.603   5.792   2.622
 8510SOL    HW126429   5.617   5.768   2.526
 8510SOL    HW226430   5.641   5.883   2.639
 8511SOL     OW26431   6.553   4.930   1.997
 8511SOL    HW126432   6.640   4.931   2.047
 8511SOL    HW226433   6.478   4.915   2.061
 8512SOL     OW26434   5.097   2.480   6.938
 8512SOL    HW126435   5.159   2.462   6.862
 8512SOL    HW226436   5.002   2.475   6.905
 8513SOL     OW26437   6.430   4.525   1.123
 8513SOL    HW126438   6.426   4.428   1.099
 8513SOL    HW226439   6.407   4.537   1.220
 8514SOL     OW26440   2.769   1.597   5.196
 8514SOL    HW126441   2.844   1.646   5.240
 8514SOL    HW226442   2.797   1.569   5.104
 8515SOL     OW26443   1.117   1.059   0.699
 8515SOL    HW126444   1.083   0.972   0.664
 8515SOL    HW226445   1.080   1.074   0.791
 8516SOL     OW26446   5.970   2.635   2.213
 8516SOL    HW126447   5.976   2.652   2.114
 8516SOL    HW226448   6.019   2.550   2.234
 8517SOL     OW26449   1.569   2.763   5.390
 8517SOL    HW126450   1.649   2.750   5.332
 8517SOL    HW226451   1.531   2.674   5.416
 8518SOL     OW26452   5.675   4.801   6.836
 8518SOL    HW126453   5.591   4.848   6.809
 8518SOL    HW226454   5.667   4.769   6.930
 8519SOL     OW26455   1.343   4.031   0.961
 8519SOL    HW126456   1.401   4.059   1.037
 8519SOL    HW226457   1.368   4.082   0.878
 8520SOL     OW26458   3.915   3.487   4.604
 8520SOL    HW126459   3.950   3.465   4.513
 8520SOL    HW226460   3.978   3.550   4.650
 8521SOL     OW26461   1.519   5.959   5.579
 8521SOL    HW126462   1.479   5.875   5.616
 8521SOL    HW226463   1.606   5.938   5.536
 8522SOL     OW26464   1.291   6.639   1.010
 8522SOL    HW126465   1.268   6.733   1.035
 8522SOL    HW226466   1.243   6.613   0.927
 8523SOL     OW26467   2.654   0.090   6.211
 8523SOL    HW126468   2.597   0.171   6.193
 8523SOL    HW226469   2.668   0.080   6.309
 8524SOL     OW26470   1.491   5.331   4.691
 8524SOL    HW126471   1.419   5.269   4.659
 8524SOL    HW226472   1.545   5.362   4.612
 8525SOL     OW26473   6.669   4.639   1.510
 8525SOL    HW126474   6.724   4.626   1.427
 8525SOL    HW226475   6.618   4.724   1.502
 8526SOL     OW26476   2.593   7.000   0.641
 8526SOL    HW126477   2.532   0.018   0.709
 8526SOL    HW226478   2.651   0.051   0.603
 8527SOL     OW26479   3.436   0.047   6.468
 8527SOL    HW126480   3.431   0.147   6.476
 8527SOL    HW226481   3.365   0.014   6.406
 8528SOL     OW26482   4.996   2.375   0.864
 8528SOL    HW126483   5.081   2.418   0.892
 8528SOL    HW226484   4.996   2.361   0.765
 8529SOL     OW26485   1.243   6.129   6.739
 8529SOL    HW126486   1.328   6.088   6.705
 8529SOL    HW226487   1.241   6.226   6.714
 8530SOL     OW26488   3.162   3.659   4.136
 8530SOL    HW126489   3.139   3.648   4.233
 8530SOL    HW226490   3.078   3.664   4.082
 8531SOL     OW26491   6.974   5.707   3.889
 8531SOL    HW126492   0.020   5.743   3.955
 8531SOL    HW226493   6.995   5.611   3.870
 8532SOL     OW26494   3.553   6.147   4.241
 8532SOL    HW126495   3.459   6.161   4.273
 8532SOL    HW226496   3.583   6.055   4.266
 8533SOL     OW26497   0.838   6.187   6.588
 8533SOL    HW126498   0.781   6.107   6.567
 8533SOL    HW226499   0.893   6.168   6.669
 8534SOL     OW26500   4.147   2.261   4.034
 8534SOL    HW126501   4.069   2.199   4.038
 8534SOL    HW226502   4.185   2.260   3.942
 8535SOL     OW26503   5.903   0.985   4.032
 8535SOL    HW126504   5.962   0.994   4.112
 8535SOL    HW226505   5.852   1.070   4.018
 8536SOL     OW26506   0.216   0.759   4.305
 8536SOL    HW126507   0.281   0.684   4.293
 8536SOL    HW226508   0.166   0.774   4.220
 8537SOL     OW26509   6.795   1.134   3.231
 8537SOL    HW126510   6.878   1.081   3.245
 8537SOL    HW226511   6.767   1.175   3.317
 8538SOL     OW26512   1.110   2.487   0.317
 8538SOL    HW126513   1.171   2.408   0.326
 8538SOL    HW226514   1.164   2.571   0.322
 8539SOL     OW26515   6.596   2.750   2.816
 8539SOL    HW126516   6.563   2.774   2.725
 8539SOL    HW226517   6.522   2.762   2.883
 8540SOL     OW26518   4.263   6.854   0.003
 8540SOL    HW126519   4.234   6.814   6.937
 8540SOL    HW226520   4.335   6.797   0.043
 8541SOL     OW26521   2.287   2.399   3.660
 8541SOL    HW126522   2.340   2.332   3.608
 8541SOL    HW226523   2.340   2.483   3.671
 8542SOL     OW26524   4.127   3.752   6.784
 8542SOL    HW126525   4.201   3.803   6.827
 8542SOL    HW226526   4.070   3.814   6.731
 8543SOL     OW26527   2.065   2.791   6.983
 8543SOL    HW126528   2.139   2.781   0.029
 8543SOL    HW226529   2.093   2.856   6.913
 8544SOL     OW26530   5.366   2.676   4.000
 8544SOL    HW126531   5.406   2.712   3.916
 8544SOL    HW226532   5.406   2.722   4.079
 8545SOL     OW26533   4.770   5.964   5.167
 8545SOL    HW126534   4.725   5.993   5.082
 8545SOL    HW226535   4.826   5.883   5.150
 8546SOL     OW26536   5.028   1.620   4.155
 8546SOL    HW126537   4.976   1.538   4.178
 8546SOL    HW226538   5.126   1.601   4.166
 8547SOL     OW26539   0.912   4.520   3.518
 8547SOL    HW126540   0.858   4.594   3.478
 8547SOL    HW226541   0.913   4.442   3.455
 8548SOL     OW26542   5.585   0.991   4.788
 8548SOL    HW126543   5.575   0.976   4.690
 8548SOL    HW226544   5.497   0.978   4.833
 8549SOL     OW26545   6.579   3.465   4.388
 8549SOL    HW126546   6.577   3.481   4.486
 8549SOL    HW226547   6.606   3.549   4.341
 8550SOL     OW26548   1.446   5.198   6.502
 8550SOL    HW126549   1.403   5.124   6.553
 8550SOL    HW226550   1.419   5.192   6.406
 8551SOL     OW26551   3.529   3.826   6.959
 8551SOL    HW126552   3.574   3.807   0.026
 8551SOL    HW226553   3.432   3.800   6.965
 8552SOL     OW26554   2.643   6.350   3.535
 8552SOL    HW126555   2.618   6.256   3.514
 8552SOL    HW226556   2.734   6.370   3.498
 8553SOL     OW26557   4.959   6.744   0.526
 8553SOL    HW126558   5.008   6.819   0.483
 8553SOL    HW226559   5.022   6.668   0.544
 8554SOL     OW26560   6.841   4.073   6.830
 8554SOL    HW126561   6.770   4.090   6.899
 8554SOL    HW226562   6.930   4.102   6.865
 8555SOL     OW26563   1.279   0.205   4.153
 8555SOL    HW126564   1.305   0.110   4.134
 8555SOL    HW226565   1.182   0.218   4.131
 8556SOL     OW26566   6.485   0.478   3.790
 8556SOL    HW126567   6.525   0.539   3.859
 8556SOL    HW226568   6.493   0.383   3.820
 8557SOL     OW26569   6.968   6.893   1.032
 8557SOL    HW126570   0.047   6.886   1.035
 8557SOL    HW226571   6.939   6.925   0.942
 8558SOL     OW26572   0.775   5.055   2.122
 8558SOL    HW126573   0.807   4.961   2.111
 8558SOL    HW226574   0.831   5.116   2.066
 8559SOL     OW26575   1.550   0.211   1.908
 8559SOL    HW126576   1.480   0.189   1.975
 8559SOL    HW226577   1.507   0.230   1.820
 8560SOL     OW26578   6.362   1.687   0.296
 8560SOL    HW126579   6.330   1.757   0.231
 8560SOL    HW226580   6.350   1.720   0.389
 8561SOL     OW26581   4.817   6.285   3.398
 8561SOL    HW126582   4.816   6.186   3.382
 8561SOL    HW226583   4.723   6.317   3.413
 8562SOL     OW26584   3.523   6.808   3.947
 8562SOL    HW126585   3.611   6.788   3.988
 8562SOL    HW226586   3.498   6.903   3.966
 8563SOL     OW26587   2.702   2.808   0.097
 8563SOL    HW126588   2.722   2.712   0.119
 8563SOL    HW226589   2.787   2.856   0.076
 8564SOL     OW26590   0.940   6.952   3.279
 8564SOL    HW126591   0.914   6.930   3.373
 8564SOL    HW226592   1.035   6.985   3.277
 8565SOL     OW26593   3.593   6.724   0.927
 8565SOL    HW126594   3.514   6.717   0.867
 8565SOL    HW226595   3.644   6.638   0.927
 8566SOL     OW26596   1.217   2.345   3.429
 8566SOL    HW126597   1.187   2.275   3.494
 8566SOL    HW226598   1.313   2.367   3.446
 8567SOL     OW26599   5.209   1.377   1.278
 8567SOL    HW126600   5.200   1.344   1.372
 8567SOL    HW226601   5.304   1.406   1.261
 8568SOL     OW26602   5.476   1.680   0.124
 8568SOL    HW126603   5.429   1.685   0.036
 8568SOL    HW226604   5.534   1.598   0.126
 8569SOL     OW26605   4.364   1.530   4.629
 8569SOL    HW126606   4.446   1.588   4.631
 8569SOL    HW226607   4.312   1.549   4.546
 8570SOL     OW26608   0.332   4.123   0.184
 8570SOL    HW126609   0.342   4.214   0.143
 8570SOL    HW226610   0.364   4.124   0.278
 8571SOL     OW26611   6.704   4.195   4.781
 8571SOL    HW126612   6.759   4.172   4.862
 8571SOL    HW226613   6.618   4.146   4.784
 8572SOL     OW26614   2.271   4.771   5.581
 8572SOL    HW126615   2.203   4.817   5.638
 8572SOL    HW226616   2.260   4.672   5.588
 8573SOL     OW26617   3.853   5.711   5.861
 8573SOL    HW126618   3.950   5.699   5.883
 8573SOL    HW226619   3.803   5.736   5.945
 8574SOL     OW26620   0.722   3.331   5.629
 8574SOL    HW126621   0.773   3.324   5.716
 8574SOL    HW226622   0.778   3.380   5.562
 8575SOL     OW26623   3.128   2.633   0.760
 8575SOL    HW126624   3.200   2.650   0.828
 8575SOL    HW226625   3.041   2.616   0.807
 8576SOL     OW26626   1.678   0.035   1.479
 8576SOL    HW126627   1.699   0.055   1.575
 8576SOL    HW226628   1.732   0.096   1.420
 8577SOL     OW26629   6.370   6.207   3.276
 8577SOL    HW126630   6.456   6.252   3.302
 8577SOL    HW226631   6.369   6.114   3.313
 8578SOL     OW26632   4.314   6.966   3.738
 8578SOL    HW126633   4.283   6.979   3.644
 8578SOL    HW226634   4.396   6.909   3.739
 8579SOL     OW26635   1.074   5.301   3.658
 8579SOL    HW126636   1.072   5.231   3.586
 8579SOL    HW226637   1.096   5.258   3.746
 8580SOL     OW26638   2.096   5.625   1.017
 8580SOL    HW126639   2.089   5.724   1.025
 8580SOL    HW226640   2.004   5.586   1.007
 8581SOL     OW26641   3.171   1.769   0.792
 8581SOL    HW126642   3.204   1.795   0.701
 8581SOL    HW226643   3.231   1.698   0.830
 8582SOL     OW26644   4.272   4.498   1.683
 8582SOL    HW126645   4.360   4.503   1.635
 8582SOL    HW226646   4.241   4.403   1.686
 8583SOL     OW26647   5.893   6.991   6.044
 8583SOL    HW126648   5.893   0.013   6.134
 8583SOL    HW226649   5.975   6.934   6.034
 8584SOL     OW26650   6.683   5.319   0.412
 8584SOL    HW126651   6.654   5.370   0.493
 8584SOL    HW226652   6.610   5.318   0.345
 8585SOL     OW26653   0.374   0.973   0.056
 8585SOL    HW126654   0.323   0.887   0.061
 8585SOL    HW226655   0.456   0.968   0.112
 8586SOL     OW26656   3.780   5.513   2.891
 8586SOL    HW126657   3.810   5.547   2.980
 8586SOL    HW226658   3.723   5.432   2.903
 8587SOL     OW26659   0.143   2.083   2.189
 8587SOL    HW126660   0.181   2.174   2.206
 8587SOL    HW226661   0.165   2.023   2.266
 8588SOL     OW26662   4.805   2.575   0.047
 8588SOL    HW126663   4.850   2.569   0.136
 8588SOL    HW226664   4.778   2.484   0.017
 8589SOL     OW26665   3.591   1.637   4.314
 8589SOL    HW126666   3.628   1.624   4.406
 8589SOL    HW226667   3.503   1.684   4.319
 8590SOL     OW26668   5.956   5.103   5.134
 8590SOL    HW126669   5.954   5.174   5.205
 8590SOL    HW226670   6.005   5.137   5.054
 8591SOL     OW26671   0.945   3.502   6.804
 8591SOL    HW126672   0.861   3.513   6.752
 8591SOL    HW226673   0.981   3.410   6.790
 8592SOL     OW26674   6.416   4.452   0.700
 8592SOL    HW126675   6.460   4.510   0.768
 8592SOL    HW226676   6.479   4.436   0.624
 8593SOL     OW26677   1.800   0.807   2.543
 8593SOL    HW126678   1.744   0.886   2.517
 8593SOL    HW226679   1.795   0.793   2.642
 8594SOL     OW26680   3.114   3.945   4.329
 8594SOL    HW126681   3.094   3.872   4.394
 8594SOL    HW226682   3.162   4.019   4.376
 8595SOL     OW26683   1.790   2.396   2.643
 8595SOL    HW126684   1.756   2.324   2.703
 8595SOL    HW226685   1.712   2.442   2.599
 8596SOL     OW26686   6.184   5.457   1.917
 8596SOL    HW126687   6.244   5.446   1.838
 8596SOL    HW226688   6.090   5.470   1.887
 8597SOL     OW26689   2.767   1.228   0.511
 8597SOL    HW126690   2.824   1.308   0.525
 8597SOL    HW226691   2.671   1.255   0.507
 8598SOL     OW26692   5.869   5.298   0.894
 8598SOL    HW126693   5.897   5.380   0.842
 8598SOL    HW226694   5.949   5.258   0.938
 8599SOL     OW26695   1.735   3.260   3.051
 8599SOL    HW126696   1.664   3.311   3.100
 8599SOL    HW226697   1.791   3.210   3.117
 8600SOL     OW26698   6.654   4.890   6.853
 8600SOL    HW126699   6.556   4.896   6.873
 8600SOL    HW226700   6.668   4.864   6.758
 8601SOL     OW26701   0.444   0.095   4.292
 8601SOL    HW126702   0.448   0.030   4.368
 8601SOL    HW226703   0.350   0.101   4.258
 8602SOL     OW26704   2.368   5.709   2.011
 8602SOL    HW126705   2.326   5.694   2.100
 8602SOL    HW226706   2.430   5.634   1.990
 8603SOL     OW26707   4.131   3.016   0.283
 8603SOL    HW126708   4.085   3.030   0.371
 8603SOL    HW226709   4.183   2.931   0.285
 8604SOL     OW26710   5.351   3.014   3.476
 8604SOL    HW126711   5.370   2.916   3.468
 8604SOL    HW226712   5.412   3.054   3.545
 8605SOL     OW26713   2.466   6.259   2.852
 8605SOL    HW126714   2.378   6.304   2.868
 8605SOL    HW226715   2.534   6.294   2.917
 8606SOL     OW26716   4.060   4.678   5.561
 8606SOL    HW126717   3.979   4.650   5.613
 8606SOL    HW226718   4.139   4.683   5.622
 8607SOL     OW26719   4.202   5.720   1.458
 8607SOL    HW126720   4.163   5.750   1.371
 8607SOL    HW226721   4.276   5.781   1.486
 8608SOL     OW26722   4.531   5.510   2.173
 8608SOL    HW126723   4.558   5.605   2.156
 8608SOL    HW226724   4.556   5.485   2.266
 8609SOL     OW26725   3.614   0.827   5.396
 8609SOL    HW126726   3.554   0.747   5.411
 8609SOL    HW226727   3.705   0.796   5.371
 8610SOL     OW26728   0.983   6.239   3.908
 8610SOL    HW126729   1.034   6.219   3.825
 8610SOL    HW226730   0.947   6.154   3.947
 8611SOL     OW26731   1.851   1.963   4.657
 8611SOL    HW126732   1.866   2.029   4.730
 8611SOL    HW226733   1.778   1.997   4.597
 8612SOL     OW26734   4.113   2.629   5.994
 8612SOL    HW126735   4.206   2.629   6.032
 8612SOL    HW226736   4.111   2.685   5.911
 8613SOL     OW26737   1.746   1.808   1.021
 8613SOL    HW126738   1.704   1.870   1.088
 8613SOL    HW226739   1.839   1.785   1.051
 8614SOL     OW26740   0.795   2.331   3.386
 8614SOL    HW126741   0.830   2.237   3.389
 8614SOL    HW226742   0.850   2.384   3.321
 8615SOL     OW26743   4.413   2.169   5.244
 8615SOL    HW126744   4.372   2.118   5.169
 8615SOL    HW226745   4.362   2.254   5.260
 8616SOL     OW26746   1.097   4.758   0.585
 8616SOL    HW126747   1.023   4.825   0.591
 8616SOL    HW226748   1.185   4.803   0.601
 8617SOL     OW26749   5.872   2.700   0.565
 8617SOL    HW126750   5.929   2.704   0.483
 8617SOL    HW226751   5.930   2.682   0.645
 8618SOL     OW26752   4.622   0.089   3.277
 8618SOL    HW126753   4.625   0.123   3.371
 8618SOL    HW226754   4.550   0.137   3.226
 8619SOL     OW26755   4.273   4.813   0.044
 8619SOL    HW126756   4.302   4.900   0.083
 8619SOL    HW226757   4.231   4.756   0.115
 8620SOL     OW26758   6.279   6.625   2.734
 8620SOL    HW126759   6.248   6.648   2.642
 8620SOL    HW226760   6.319   6.706   2.776
 8621SOL     OW26761   5.841   0.937   3.636
 8621SOL    HW126762   5.927   0.907   3.678
 8621SOL    HW226763   5.809   0.866   3.572
 8622SOL     OW26764   4.729   5.126   0.355
 8622SOL    HW126765   4.755   5.120   0.258
 8622SOL    HW226766   4.781   5.058   0.407
 8623SOL     OW26767   0.222   3.893   2.955
 8623SOL    HW126768   0.124   3.871   2.958
 8623SOL    HW226769   0.275   3.812   2.977
 8624SOL     OW26770   0.403   4.479   3.231
 8624SOL    HW126771   0.359   4.390   3.243
 8624SOL    HW226772   0.464   4.475   3.151
 8625SOL     OW26773   3.564   0.956   4.878
 8625SOL    HW126774   3.587   0.950   4.975
 8625SOL    HW226775   3.584   0.869   4.833
 8626SOL     OW26776   3.307   3.886   3.865
 8626SOL    HW126777   3.274   3.822   3.935
 8626SOL    HW226778   3.264   3.864   3.777
 8627SOL     OW26779   1.249   0.913   0.384
 8627SOL    HW126780   1.159   0.946   0.411
 8627SOL    HW226781   1.319   0.973   0.424
 8628SOL     OW26782   5.535   0.647   0.151
 8628SOL    HW126783   5.573   0.713   0.216
 8628SOL    HW226784   5.543   0.684   0.058
 8629SOL     OW26785   1.281   4.131   4.212
 8629SOL    HW126786   1.369   4.175   4.227
 8629SOL    HW226787   1.291   4.032   4.215
 8630SOL     OW26788   5.774   4.448   3.874
 8630SOL    HW126789   5.770   4.458   3.774
 8630SOL    HW226790   5.708   4.380   3.904
 8631SOL     OW26791   3.725   5.975   4.958
 8631SOL    HW126792   3.633   5.944   4.981
 8631SOL    HW226793   3.766   5.912   4.893
 8632SOL     OW26794   3.823   0.274   3.166
 8632SOL    HW126795   3.890   0.311   3.102
 8632SOL    HW226796   3.734   0.264   3.120
 8633SOL     OW26797   5.841   1.485   4.132
 8633SOL    HW126798   5.868   1.554   4.065
 8633SOL    HW226799   5.852   1.522   4.224
 8634SOL     OW26800   6.798   4.922   2.129
 8634SOL    HW126801   6.765   4.938   2.222
 8634SOL    HW226802   6.861   4.996   2.103
 8635SOL     OW26803   6.269   3.504   5.664
 8635SOL    HW126804   6.187   3.527   5.612
 8635SOL    HW226805   6.259   3.537   5.758
 8636SOL     OW26806   6.597   5.485   0.583
 8636SOL    HW126807   6.593   5.463   0.681
 8636SOL    HW226808   6.558   5.575   0.567
 8637SOL     OW26809   1.655   0.623   0.752
 8637SOL    HW126810   1.715   0.671   0.688
 8637SOL    HW226811   1.579   0.682   0.777
 8638SOL     OW26812   3.111   5.122   0.165
 8638SOL    HW126813   3.040   5.162   0.107
 8638SOL    HW226814   3.193   5.105   0.111
 8639SOL     OW26815   6.342   3.805   1.982
 8639SOL    HW126816   6.401   3.851   2.048
 8639SOL    HW226817   6.329   3.864   1.903
 8640SOL     OW26818   4.630   5.185   0.920
 8640SOL    HW126819   4.727   5.163   0.928
 8640SOL    HW226820   4.602   5.177   0.824
 8641SOL     OW26821   6.542   4.462   3.190
 8641SOL    HW126822   6.566   4.448   3.286
 8641SOL    HW226823   6.622   4.495   3.140
 8642SOL     OW26824   4.352   0.806   1.836
 8642SOL    HW126825   4.425   0.872   1.854
 8642SOL    HW226826   4.315   0.823   1.745
 8643SOL     OW26827   4.864   0.313   6.156
 8643SOL    HW126828   4.928   0.378   6.195
 8643SOL    HW226829   4.794   0.290   6.224
 8644SOL     OW26830   5.950   2.570   4.516
 8644SOL    HW126831   5.901   2.640   4.567
 8644SOL    HW226832   6.047   2.594   4.510
 8645SOL     OW26833   6.074   4.563   1.189
 8645SOL    HW126834   5.997   4.626   1.174
 8645SOL    HW226835   6.151   4.591   1.132
 8646SOL     OW26836   5.702   0.384   0.386
 8646SOL    HW126837   5.755   0.434   0.317
 8646SOL    HW226838   5.608   0.373   0.353
 8647SOL     OW26839   4.263   5.082   0.125
 8647SOL    HW126840   4.174   5.101   0.166
 8647SOL    HW226841   4.332   5.077   0.197
 8648SOL     OW26842   5.523   1.294   4.019
 8648SOL    HW126843   5.527   1.379   4.071
 8648SOL    HW226844   5.433   1.252   4.030
 8649SOL     OW26845   6.252   3.900   5.751
 8649SOL    HW126846   6.214   3.893   5.659
 8649SOL    HW226847   6.252   3.810   5.794
 8650SOL     OW26848   2.084   5.253   3.295
 8650SOL    HW126849   2.175   5.224   3.264
 8650SOL    HW226850   2.021   5.255   3.217
 8651SOL     OW26851   3.647   1.476   6.775
 8651SOL    HW126852   3.630   1.525   6.690
 8651SOL    HW226853   3.687   1.538   6.843
 8652SOL     OW26854   1.950   3.740   3.465
 8652SOL    HW126855   1.960   3.673   3.392
 8652SOL    HW226856   1.951   3.832   3.426
 8653SOL     OW26857   6.996   2.882   6.962
 8653SOL    HW126858   6.996   2.948   0.017
 8653SOL    HW226859   0.017   2.925   6.882
 8654SOL     OW26860   0.768   0.052   2.911
 8654SOL    HW126861   0.868   0.062   2.911
 8654SOL    HW226862   0.726   0.140   2.932
 8655SOL     OW26863   6.301   6.183   4.879
 8655SOL    HW126864   6.309   6.151   4.974
 8655SOL    HW226865   6.205   6.201   4.859
 8656SOL     OW26866   6.577   1.043   1.103
 8656SOL    HW126867   6.525   1.011   1.023
 8656SOL    HW226868   6.661   1.087   1.072
 8657SOL     OW26869   4.273   4.027   6.894
 8657SOL    HW126870   4.320   4.077   6.966
 8657SOL    HW226871   4.281   4.077   6.808
 8658SOL     OW26872   5.777   5.544   6.972
 8658SOL    HW126873   5.793   5.470   0.016
 8658SOL    HW226874   5.837   5.533   6.892
 8659SOL     OW26875   5.541   0.607   3.871
 8659SOL    HW126876   5.572   0.700   3.855
 8659SOL    HW226877   5.478   0.606   3.949
 8660SOL     OW26878   5.660   3.554   0.809
 8660SOL    HW126879   5.605   3.501   0.874
 8660SOL    HW226880   5.747   3.508   0.793
 8661SOL     OW26881   7.009   3.906   1.686
 8661SOL    HW126882   0.057   3.957   1.738
 8661SOL    HW226883   0.013   3.809   1.684
 8662SOL     OW26884   6.792   6.424   0.882
 8662SOL    HW126885   6.771   6.407   0.786
 8662SOL    HW226886   6.725   6.488   0.920
 8663SOL     OW26887   2.505   5.522   0.764
 8663SOL    HW126888   2.482   5.618   0.754
 8663SOL    HW226889   2.602   5.509   0.746
 8664SOL     OW26890   4.307   5.851   0.378
 8664SOL    HW126891   4.207   5.854   0.373
 8664SOL    HW226892   4.346   5.872   0.289
 8665SOL     OW26893   4.491   5.607   5.489
 8665SOL    HW126894   4.473   5.701   5.519
 8665SOL    HW226895   4.404   5.559   5.478
 8666SOL     OW26896   5.040   2.679   5.083
 8666SOL    HW126897   5.018   2.616   5.008
 8666SOL    HW226898   5.126   2.652   5.125
 8667SOL     OW26899   5.202   1.292   3.827
 8667SOL    HW126900   5.110   1.331   3.816
 8667SOL    HW226901   5.206   1.239   3.911
 8668SOL     OW26902   4.566   2.096   4.347
 8668SOL    HW126903   4.606   2.009   4.318
 8668SOL    HW226904   4.576   2.163   4.273
 8669SOL     OW26905   3.907   0.124   5.766
 8669SOL    HW126906   3.928   0.051   5.831
 8669SOL    HW226907   3.867   0.201   5.814
 8670SOL     OW26908   3.435   5.655   4.090
 8670SOL    HW126909   3.512   5.611   4.045
 8670SOL    HW226910   3.466   5.738   4.136
 8671SOL     OW26911   6.114   6.341   3.759
 8671SOL    HW126912   6.144   6.280   3.686
 8671SOL    HW226913   6.183   6.345   3.831
 8672SOL     OW26914   3.359   5.155   4.490
 8672SOL    HW126915   3.393   5.076   4.439
 8672SOL    HW226916   3.364   5.136   4.588
 8673SOL     OW26917   6.512   2.066   0.865
 8673SOL    HW126918   6.528   2.107   0.954
 8673SOL    HW226919   6.427   2.014   0.866
 8674SOL     OW26920   6.793   0.281   3.057
 8674SOL    HW126921   6.826   0.318   2.970
 8674SOL    HW226922   6.747   0.352   3.109
 8675SOL     OW26923   2.198   0.991   3.230
 8675SOL    HW126924   2.108   0.949   3.244
 8675SOL    HW226925   2.206   1.020   3.134
 8676SOL     OW26926   4.274   0.176   2.877
 8676SOL    HW126927   4.294   0.081   2.903
 8676SOL    HW226928   4.271   0.183   2.778
 8677SOL     OW26929   2.622   4.341   6.094
 8677SOL    HW126930   2.565   4.266   6.061
 8677SOL    HW226931   2.694   4.360   6.028
 8678SOL     OW26932   1.222   0.266   6.666
 8678SOL    HW126933   1.207   0.356   6.706
 8678SOL    HW226934   1.206   0.270   6.568
 8679SOL     OW26935   6.104   2.003   5.351
 8679SOL    HW126936   6.093   1.974   5.256
 8679SOL    HW226937   6.039   1.954   5.409
 8680SOL     OW26938   1.293   3.442   0.209
 8680SOL    HW126939   1.223   3.371   0.201
 8680SOL    HW226940   1.303   3.469   0.304
 8681SOL     OW26941   4.271   4.108   0.388
 8681SOL    HW126942   4.181   4.069   0.406
 8681SOL    HW226943   4.336   4.034   0.371
 8682SOL     OW26944   2.640   6.010   2.552
 8682SOL    HW126945   2.634   6.090   2.492
 8682SOL    HW226946   2.727   5.963   2.537
 8683SOL     OW26947   0.469   3.081   1.833
 8683SOL    HW126948   0.471   3.041   1.741
 8683SOL    HW226949   0.555   3.061   1.879
 8684SOL     OW26950   6.039   3.330   4.879
 8684SOL    HW126951   6.073   3.236   4.883
 8684SOL    HW226952   5.990   3.345   4.793
 8685SOL     OW26953   0.796   1.964   6.541
 8685SOL    HW126954   0.764   2.034   6.604
 8685SOL    HW226955   0.722   1.899   6.523
 8686SOL     OW26956   0.005   2.298   2.583
 8686SOL    HW126957   6.998   2.384   2.626
 8686SOL    HW226958   0.102   2.282   2.601
 8687SOL     OW26959   3.697   6.787   2.265
 8687SOL    HW126960   3.622   6.832   2.314
 8687SOL    HW226961   3.675   6.690   2.252
 8688SOL     OW26962   2.525   0.409   1.685
 8688SOL    HW126963   2.477   0.361   1.612
 8688SOL    HW226964   2.593   0.348   1.727
 8689SOL     OW26965   4.580   6.058   0.040
 8689SOL    HW126966   4.578   5.958   0.029
 8689SOL    HW226967   4.595   6.080   0.136
 8690SOL     OW26968   0.716   1.830   3.387
 8690SOL    HW126969   0.650   1.786   3.448
 8690SOL    HW226970   0.696   1.805   3.293
 8691SOL     OW26971   4.649   2.665   6.283
 8691SOL    HW126972   4.634   2.566   6.277
 8691SOL    HW226973   4.703   2.686   6.364
 8692SOL     OW26974   2.672   2.416   3.922
 8692SOL    HW126975   2.575   2.391   3.923
 8692SOL    HW226976   2.727   2.332   3.915
 8693SOL     OW26977   5.753   1.877   1.002
 8693SOL    HW126978   5.731   1.920   0.914
 8693SOL    HW226979   5.822   1.931   1.049
 8694SOL     OW26980   4.541   0.013   6.820
 8694SOL    HW126981   4.606   0.070   6.870
 8694SOL    HW226982   4.574   7.019   6.726
 8695SOL     OW26983   5.439   3.616   5.572
 8695SOL    HW126984   5.467   3.521   5.558
 8695SOL    HW226985   5.450   3.667   5.487
 8696SOL     OW26986   2.347   5.960   1.313
 8696SOL    HW126987   2.396   5.975   1.399
 8696SOL    HW226988   2.411   5.931   1.242
 8697SOL     OW26989   6.537   3.507   0.941
 8697SOL    HW126990   6.481   3.528   1.021
 8697SOL    HW226991   6.479   3.505   0.860
 8698SOL     OW26992   5.101   6.203   4.858
 8698SOL    HW126993   5.100   6.280   4.922
 8698SOL    HW226994   5.034   6.218   4.786
 8699SOL     OW26995   1.201   1.767   5.617
 8699SOL    HW126996   1.170   1.725   5.532
 8699SOL    HW226997   1.175   1.709   5.694
 8700SOL     OW26998   2.725   1.215   5.017
 8700SOL    HW126999   2.794   1.153   4.980
 8700SOL    HW227000   2.634   1.179   4.996
 8701SOL     OW27001   1.002   0.921   4.943
 8701SOL    HW127002   0.954   0.944   4.859
 8701SOL    HW227003   1.071   0.851   4.925
 8702SOL     OW27004   5.417   5.321   0.151
 8702SOL    HW127005   5.424   5.254   0.076
 8702SOL    HW227006   5.405   5.412   0.112
 8703SOL     OW27007   2.709   5.919   0.998
 8703SOL    HW127008   2.621   5.870   1.004
 8703SOL    HW227009   2.759   5.907   1.084
 8704SOL     OW27010   6.748   5.005   2.415
 8704SOL    HW127011   6.830   4.999   2.473
 8704SOL    HW227012   6.709   5.097   2.422
 8705SOL     OW27013   5.152   6.925   6.450
 8705SOL    HW127014   5.149   6.970   6.540
 8705SOL    HW227015   5.122   6.990   6.380
 8706SOL     OW27016   4.787   2.089   6.863
 8706SOL    HW127017   4.799   1.990   6.860
 8706SOL    HW227018   4.871   2.131   6.898
 8707SOL     OW27019   4.774   3.097   6.599
 8707SOL    HW127020   4.790   3.182   6.549
 8707SOL    HW227021   4.758   3.119   6.696
 8708SOL     OW27022   3.898   1.127   1.659
 8708SOL    HW127023   3.966   1.132   1.731
 8708SOL    HW227024   3.818   1.181   1.685
 8709SOL     OW27025   0.009   4.230   0.462
 8709SOL    HW127026   6.943   4.222   0.414
 8709SOL    HW227027   7.019   4.200   0.557
 8710SOL     OW27028   2.060   3.630   2.813
 8710SOL    HW127029   2.036   3.533   2.805
 8710SOL    HW227030   2.089   3.663   2.723
 8711SOL     OW27031   6.293   0.840   2.917
 8711SOL    HW127032   6.246   0.846   2.829
 8711SOL    HW227033   6.321   0.746   2.934
 8712SOL     OW27034   3.184   1.275   5.094
 8712SOL    HW127035   3.215   1.296   5.001
 8712SOL    HW227036   3.184   1.358   5.149
 8713SOL     OW27037   6.605   4.657   3.702
 8713SOL    HW127038   6.513   4.677   3.735
 8713SOL    HW227039   6.669   4.659   3.779
 8714SOL     OW27040   1.228   0.789   5.870
 8714SOL    HW127041   1.263   0.810   5.962
 8714SOL    HW227042   1.193   0.873   5.828
 8715SOL     OW27043   6.527   1.653   1.868
 8715SOL    HW127044   6.442   1.663   1.816
 8715SOL    HW227045   6.531   1.561   1.908
 8716SOL     OW27046   0.936   1.437   1.362
 8716SOL    HW127047   0.901   1.349   1.330
 8716SOL    HW227048   0.879   1.470   1.437
 8717SOL     OW27049   4.136   3.744   2.010
 8717SOL    HW127050   4.233   3.769   2.013
 8717SOL    HW227051   4.116   3.677   2.082
 8718SOL     OW27052   6.985   2.880   4.906
 8718SOL    HW127053   6.987   2.858   4.809
 8718SOL    HW227054   0.041   2.941   4.928
 8719SOL     OW27055   1.285   0.387   5.660
 8719SOL    HW127056   1.317   0.360   5.570
 8719SOL    HW227057   1.209   0.327   5.688
 8720SOL     OW27058   5.573   4.659   5.161
 8720SOL    HW127059   5.579   4.706   5.073
 8720SOL    HW227060   5.624   4.574   5.158
 8721SOL     OW27061   6.878   2.273   4.284
 8721SOL    HW127062   6.888   2.175   4.300
 8721SOL    HW227063   6.894   2.323   4.369
 8722SOL     OW27064   4.078   2.381   0.696
 8722SOL    HW127065   3.997   2.335   0.658
 8722SOL    HW227066   4.108   2.333   0.779
 8723SOL     OW27067   0.033   5.117   0.412
 8723SOL    HW127068   0.078   5.206   0.407
 8723SOL    HW227069   7.019   5.092   0.322
 8724SOL     OW27070   5.361   0.623   5.965
 8724SOL    HW127071   5.321   0.712   5.991
 8724SOL    HW227072   5.447   0.639   5.917
 8725SOL     OW27073   2.025   0.243   0.342
 8725SOL    HW127074   1.973   0.185   0.280
 8725SOL    HW227075   1.994   0.229   0.436
 8726SOL     OW27076   6.135   0.196   1.638
 8726SOL    HW127077   6.151   0.100   1.661
 8726SOL    HW227078   6.041   0.222   1.661
 8727SOL     OW27079   6.758   6.352   1.532
 8727SOL    HW127080   6.715   6.330   1.620
 8727SOL    HW227081   6.857   6.349   1.541
 8728SOL     OW27082   3.050   6.680   4.758
 8728SOL    HW127083   3.016   6.752   4.818
 8728SOL    HW227084   3.023   6.699   4.663
 8729SOL     OW27085   3.991   5.382   3.415
 8729SOL    HW127086   3.957   5.385   3.322
 8729SOL    HW227087   4.062   5.451   3.427
 8730SOL     OW27088   0.680   6.236   2.062
 8730SOL    HW127089   0.687   6.153   2.118
 8730SOL    HW227090   0.770   6.279   2.054
 8731SOL     OW27091   1.126   1.974   3.378
 8731SOL    HW127092   1.152   1.980   3.475
 8731SOL    HW227093   1.027   1.988   3.369
 8732SOL     OW27094   5.605   3.759   1.486
 8732SOL    HW127095   5.637   3.750   1.392
 8732SOL    HW227096   5.611   3.671   1.532
 8733SOL     OW27097   1.301   6.544   1.895
 8733SOL    HW127098   1.313   6.498   1.983
 8733SOL    HW227099   1.259   6.634   1.910
 8734SOL     OW27100   0.085   5.612   0.974
 8734SOL    HW127101   0.152   5.578   0.909
 8734SOL    HW227102   0.001   5.636   0.926
 8735SOL     OW27103   0.138   1.517   6.750
 8735SOL    HW127104   0.076   1.588   6.785
 8735SOL    HW227105   0.227   1.527   6.793
 8736SOL     OW27106   0.582   4.723   0.162
 8736SOL    HW127107   0.666   4.693   0.207
 8736SOL    HW227108   0.560   4.660   0.087
 8737SOL     OW27109   3.517   6.157   6.107
 8737SOL    HW127110   3.431   6.198   6.078
 8737SOL    HW227111   3.523   6.063   6.071
 8738SOL     OW27112   1.543   3.828   3.972
 8738SOL    HW127113   1.608   3.792   4.039
 8738SOL    HW227114   1.500   3.752   3.923
 8739SOL     OW27115   0.114   3.473   5.455
 8739SOL    HW127116   0.033   3.424   5.423
 8739SOL    HW227117   0.142   3.438   5.544
 8740SOL     OW27118   2.757   0.220   6.972
 8740SOL    HW127119   2.670   0.177   6.949
 8740SOL    HW227120   2.775   0.209   0.049
 8741SOL     OW27121   1.074   3.029   2.614
 8741SOL    HW127122   1.103   2.940   2.649
 8741SOL    HW227123   0.974   3.032   2.610
 8742SOL     OW27124   4.653   0.044   1.512
 8742SOL    HW127125   4.571   0.101   1.514
 8742SOL    HW227126   4.678   0.019   1.606
 8743SOL     OW27127   1.821   5.547   2.259
 8743SOL    HW127128   1.824   5.460   2.308
 8743SOL    HW227129   1.819   5.623   2.325
 8744SOL     OW27130   4.078   2.517   6.443
 8744SOL    HW127131   4.150   2.449   6.425
 8744SOL    HW227132   4.108   2.580   6.514
 8745SOL     OW27133   6.019   2.237   5.518
 8745SOL    HW127134   6.028   2.316   5.457
 8745SOL    HW227135   6.051   2.155   5.471
 8746SOL     OW27136   4.771   5.091   5.137
 8746SOL    HW127137   4.798   5.023   5.069
 8746SOL    HW227138   4.778   5.182   5.096
 8747SOL     OW27139   1.475   2.486   4.580
 8747SOL    HW127140   1.544   2.557   4.592
 8747SOL    HW227141   1.487   2.442   4.491
 8748SOL     OW27142   1.350   0.712   6.837
 8748SOL    HW127143   1.378   0.730   6.931
 8748SOL    HW227144   1.411   0.761   6.774
 8749SOL     OW27145   3.986   0.422   3.373
 8749SOL    HW127146   3.912   0.398   3.310
 8749SOL    HW227147   3.951   0.482   3.445
 8750SOL     OW27148   1.875   1.867   5.087
 8750SOL    HW127149   1.797   1.906   5.038
 8750SOL    HW227150   1.844   1.793   5.146
 8751SOL     OW27151   1.354   0.286   2.389
 8751SOL    HW127152   1.395   0.349   2.323
 8751SOL    HW227153   1.273   0.329   2.430
 8752SOL     OW27154   1.666   3.267   6.331
 8752SOL    HW127155   1.646   3.195   6.266
 8752SOL    HW227156   1.586   3.285   6.388
 8753SOL     OW27157   5.379   1.275   4.664
 8753SOL    HW127158   5.375   1.329   4.580
 8753SOL    HW227159   5.471   1.282   4.704
 8754SOL     OW27160   1.120   1.818   6.036
 8754SOL    HW127161   1.184   1.876   5.987
 8754SOL    HW227162   1.095   1.739   5.979
 8755SOL     OW27163   2.516   1.010   0.333
 8755SOL    HW127164   2.608   0.973   0.316
 8755SOL    HW227165   2.481   1.051   0.248
 8756SOL     OW27166   2.265   2.871   4.049
 8756SOL    HW127167   2.355   2.843   4.016
 8756SOL    HW227168   2.212   2.791   4.075
 8757SOL     OW27169   3.874   6.163   5.103
 8757SOL    HW127170   3.808   6.109   5.050
 8757SOL    HW227171   3.891   6.250   5.057
 8758SOL     OW27172   6.620   6.360   1.781
 8758SOL    HW127173   6.590   6.449   1.747
 8758SOL    HW227174   6.712   6.367   1.818
 8759SOL     OW27175   4.727   0.397   5.882
 8759SOL    HW127176   4.651   0.337   5.907
 8759SOL    HW227177   4.801   0.387   5.949
 8760SOL     OW27178   1.993   1.795   4.024
 8760SOL    HW127179   2.009   1.879   4.076
 8760SOL    HW227180   1.960   1.818   3.932
 8761SOL     OW27181   4.898   0.169   6.846
 8761SOL    HW127182   4.845   0.147   6.764
 8761SOL    HW227183   4.941   0.086   6.881
 8762SOL     OW27184   1.000   3.898   1.421
 8762SOL    HW127185   0.911   3.919   1.380
 8762SOL    HW227186   1.054   3.841   1.358
 8763SOL     OW27187   0.100   6.038   5.843
 8763SOL    HW127188   0.160   5.974   5.796
 8763SOL    HW227189   0.150   6.084   5.916
 8764SOL     OW27190   4.565   1.713   4.632
 8764SOL    HW127191   4.637   1.654   4.668
 8764SOL    HW227192   4.602   1.771   4.559
 8765SOL     OW27193   5.963   6.684   4.162
 8765SOL    HW127194   5.892   6.699   4.093
 8765SOL    HW227195   5.936   6.608   4.222
 8766SOL     OW27196   2.209   4.648   2.732
 8766SOL    HW127197   2.142   4.577   2.754
 8766SOL    HW227198   2.162   4.724   2.687
 8767SOL     OW27199   4.611   0.973   3.116
 8767SOL    HW127200   4.586   0.950   3.210
 8767SOL    HW227201   4.550   1.045   3.083
 8768SOL     OW27202   2.033   3.459   0.065
 8768SOL    HW127203   1.951   3.490   0.017
 8768SOL    HW227204   2.112   3.467   0.005
 8769SOL     OW27205   1.577   6.886   5.770
 8769SOL    HW127206   1.566   6.903   5.868
 8769SOL    HW227207   1.515   6.812   5.742
 8770SOL     OW27208   5.406   3.281   1.558
 8770SOL    HW127209   5.322   3.329   1.537
 8770SOL    HW227210   5.440   3.309   1.648
 8771SOL     OW27211   1.404   1.738   6.731
 8771SOL    HW127212   1.427   1.672   6.660
 8771SOL    HW227213   1.317   1.782   6.709
 8772SOL     OW27214   5.516   1.359   6.369
 8772SOL    HW127215   5.607   1.341   6.330
 8772SOL    HW227216   5.524   1.361   6.469
 8773SOL     OW27217   2.728   2.269   3.341
 8773SOL    HW127218   2.760   2.266   3.436
 8773SOL    HW227219   2.717   2.176   3.306
 8774SOL     OW27220   1.027   1.736   0.943
 8774SOL    HW127221   1.125   1.730   0.919
 8774SOL    HW227222   1.009   1.680   1.023
 8775SOL     OW27223   6.179   6.858   3.575
 8775SOL    HW127224   6.194   6.768   3.534
 8775SOL    HW227225   6.147   6.847   3.669
 8776SOL     OW27226   3.389   3.095   5.116
 8776SOL    HW127227   3.408   3.117   5.020
 8776SOL    HW227228   3.344   3.006   5.121
 8777SOL     OW27229   6.437   6.174   1.917
 8777SOL    HW127230   6.513   6.235   1.894
 8777SOL    HW227231   6.440   6.094   1.858
 8778SOL     OW27232   0.140   1.795   3.784
 8778SOL    HW127233   0.090   1.872   3.744
 8778SOL    HW227234   0.238   1.806   3.766
 8779SOL     OW27235   1.738   4.886   1.090
 8779SOL    HW127236   1.646   4.851   1.110
 8779SOL    HW227237   1.734   4.985   1.077
 8780SOL     OW27238   0.822   5.476   4.510
 8780SOL    HW127239   0.768   5.481   4.594
 8780SOL    HW227240   0.857   5.567   4.488
 8781SOL     OW27241   0.305   2.146   3.207
 8781SOL    HW127242   0.348   2.236   3.205
 8781SOL    HW227243   0.225   2.148   3.267
 8782SOL     OW27244   4.135   1.519   3.016
 8782SOL    HW127245   4.124   1.536   3.114
 8782SOL    HW227246   4.124   1.605   2.966
 8783SOL     OW27247   5.933   3.928   4.841
 8783SOL    HW127248   5.928   3.989   4.762
 8783SOL    HW227249   5.969   3.839   4.812
 8784SOL     OW27250   5.596   5.055   5.750
 8784SOL    HW127251   5.546   5.051   5.664
 8784SOL    HW227252   5.684   5.101   5.736
 8785SOL     OW27253   5.883   4.152   6.959
 8785SOL    HW127254   5.884   4.125   0.035
 8785SOL    HW227255   5.817   4.097   6.909
 8786SOL     OW27256   1.468   6.777   0.033
 8786SOL    HW127257   1.373   6.761   0.007
 8786SOL    HW227258   1.473   6.853   0.098
 8787SOL     OW27259   1.396   3.786   1.624
 8787SOL    HW127260   1.317   3.823   1.672
 8787SOL    HW227261   1.477   3.839   1.647
 8788SOL     OW27262   0.469   1.970   5.283
 8788SOL    HW127263   0.539   2.010   5.222
 8788SOL    HW227264   0.483   1.871   5.289
 8789SOL     OW27265   6.545   0.066   6.492
 8789SOL    HW127266   6.623   0.090   6.550
 8789SOL    HW227267   6.573   0.072   6.396
 8790SOL     OW27268   6.081   1.728   6.820
 8790SOL    HW127269   5.996   1.757   6.865
 8790SOL    HW227270   6.064   1.643   6.770
 8791SOL     OW27271   4.514   6.609   5.936
 8791SOL    HW127272   4.436   6.600   5.998
 8791SOL    HW227273   4.548   6.519   5.911
 8792SOL     OW27274   4.610   6.888   3.064
 8792SOL    HW127275   4.691   6.919   3.114
 8792SOL    HW227276   4.537   6.867   3.128
 8793SOL     OW27277   1.825   5.836   3.687
 8793SOL    HW127278   1.808   5.778   3.607
 8793SOL    HW227279   1.920   5.823   3.717
 8794SOL     OW27280   1.976   0.216   2.595
 8794SOL    HW127281   1.955   0.219   2.497
 8794SOL    HW227282   1.978   0.120   2.625
 8795SOL     OW27283   1.519   6.306   5.459
 8795SOL    HW127284   1.543   6.274   5.550
 8795SOL    HW227285   1.555   6.398   5.445
 8796SOL     OW27286   4.579   2.590   5.650
 8796SOL    HW127287   4.556   2.498   5.679
 8796SOL    HW227288   4.588   2.593   5.551
 8797SOL     OW27289   0.149   6.752   6.487
 8797SOL    HW127290   0.240   6.758   6.528
 8797SOL    HW227291   0.157   6.737   6.389
 8798SOL     OW27292   5.480   3.773   5.323
 8798SOL    HW127293   5.489   3.851   5.262
 8798SOL    HW227294   5.445   3.694   5.271
 8799SOL     OW27295   2.914   5.098   3.142
 8799SOL    HW127296   3.012   5.083   3.154
 8799SOL    HW227297   2.883   5.048   3.061
 8800SOL     OW27298   4.563   4.839   6.504
 8800SOL    HW127299   4.636   4.862   6.568
 8800SOL    HW227300   4.530   4.923   6.460
 8801SOL     OW27301   2.683   1.400   4.677
 8801SOL    HW127302   2.743   1.321   4.668
 8801SOL    HW227303   2.728   1.469   4.734
 8802SOL     OW27304   2.610   6.375   2.177
 8802SOL    HW127305   2.572   6.465   2.154
 8802SOL    HW227306   2.660   6.339   2.098
 8803SOL     OW27307   3.221   5.360   6.934
 8803SOL    HW127308   3.198   5.447   6.891
 8803SOL    HW227309   3.138   5.319   6.972
 8804SOL     OW27310   4.825   0.886   1.402
 8804SOL    HW127311   4.821   0.817   1.474
 8804SOL    HW227312   4.775   0.853   1.321
 8805SOL     OW27313   0.672   0.256   3.054
 8805SOL    HW127314   0.666   0.303   3.142
 8805SOL    HW227315   0.586   0.207   3.036
 8806SOL     OW27316   1.515   4.894   0.021
 8806SOL    HW127317   1.526   4.823   0.090
 8806SOL    HW227318   1.441   4.869   6.980
 8807SOL     OW27319   0.297   6.152   5.979
 8807SOL    HW127320   0.306   6.252   5.975
 8807SOL    HW227321   0.337   6.118   6.063
 8808SOL     OW27322   4.931   1.134   0.347
 8808SOL    HW127323   4.844   1.178   0.370
 8808SOL    HW227324   4.998   1.153   0.419
 8809SOL     OW27325   5.425   3.987   1.139
 8809SOL    HW127326   5.518   3.964   1.167
 8809SOL    HW227327   5.428   4.060   1.071
 8810SOL     OW27328   4.294   1.436   3.780
 8810SOL    HW127329   4.359   1.449   3.705
 8810SOL    HW227330   4.341   1.390   3.856
 8811SOL     OW27331   1.351   1.717   2.431
 8811SOL    HW127332   1.411   1.662   2.490
 8811SOL    HW227333   1.357   1.684   2.337
 8812SOL     OW27334   1.578   0.947   0.677
 8812SOL    HW127335   1.510   0.999   0.626
 8812SOL    HW227336   1.667   0.955   0.632
 8813SOL     OW27337   1.777   6.728   2.037
 8813SOL    HW127338   1.872   6.748   2.059
 8813SOL    HW227339   1.723   6.812   2.043
 8814SOL     OW27340   5.740   0.834   6.054
 8814SOL    HW127341   5.814   0.899   6.036
 8814SOL    HW227342   5.655   0.884   6.071
 8815SOL     OW27343   0.177   5.903   2.692
 8815SOL    HW127344   0.221   5.982   2.648
 8815SOL    HW227345   0.247   5.840   2.726
 8816SOL     OW27346   1.387   5.802   1.067
 8816SOL    HW127347   1.447   5.758   1.000
 8816SOL    HW227348   1.442   5.841   1.140
 8817SOL     OW27349   1.456   5.519   5.040
 8817SOL    HW127350   1.381   5.578   5.012
 8817SOL    HW227351   1.433   5.424   5.019
 8818SOL     OW27352   0.486   4.877   3.947
 8818SOL    HW127353   0.416   4.875   3.876
 8818SOL    HW227354   0.528   4.787   3.956
 8819SOL     OW27355   4.528   6.598   4.367
 8819SOL    HW127356   4.586   6.534   4.317
 8819SOL    HW227357   4.460   6.638   4.304
 8820SOL     OW27358   1.487   2.355   4.351
 8820SOL    HW127359   1.407   2.324   4.301
 8820SOL    HW227360   1.569   2.309   4.316
 8821SOL     OW27361   2.763   0.609   6.474
 8821SOL    HW127362   2.739   0.690   6.419
 8821SOL    HW227363   2.853   0.623   6.516
 8822SOL     OW27364   0.833   2.063   3.904
 8822SOL    HW127365   0.769   2.095   3.973
 8822SOL    HW227366   0.810   2.104   3.815
 8823SOL     OW27367   1.642   6.803   0.833
 8823SOL    HW127368   1.689   6.716   0.818
 8823SOL    HW227369   1.632   6.819   0.931
 8824SOL     OW27370   3.337   3.727   0.698
 8824SOL    HW127371   3.374   3.724   0.605
 8824SOL    HW227372   3.341   3.635   0.738
 8825SOL     OW27373   0.844   1.350   2.456
 8825SOL    HW127374   0.857   1.295   2.374
 8825SOL    HW227375   0.756   1.398   2.451
 8826SOL     OW27376   5.558   1.343   6.641
 8826SOL    HW127377   5.631   1.290   6.684
 8826SOL    HW227378   5.550   1.432   6.687
 8827SOL     OW27379   1.729   1.503   3.104
 8827SOL    HW127380   1.634   1.530   3.096
 8827SOL    HW227381   1.785   1.582   3.128
 8828SOL     OW27382   3.170   6.871   2.627
 8828SOL    HW127383   3.220   6.956   2.640
 8828SOL    HW227384   3.087   6.889   2.573
 8829SOL     OW27385   0.265   2.244   6.996
 8829SOL    HW127386   0.333   2.296   0.027
 8829SOL    HW227387   0.183   2.232   0.032
 8830SOL     OW27388   0.570   1.902   0.646
 8830SOL    HW127389   0.651   1.890   0.704
 8830SOL    HW227390   0.507   1.966   0.690
 8831SOL     OW27391   6.544   0.989   2.905
 8831SOL    HW127392   6.452   0.959   2.930
 8831SOL    HW227393   6.611   0.925   2.941
 8832SOL     OW27394   6.336   0.527   2.405
 8832SOL    HW127395   6.391   0.469   2.465
 8832SOL    HW227396   6.366   0.622   2.414
 8833SOL     OW27397   2.303   4.907   3.991
 8833SOL    HW127398   2.301   4.826   3.933
 8833SOL    HW227399   2.397   4.943   3.994
 8834SOL     OW27400   5.783   3.147   4.998
 8834SOL    HW127401   5.771   3.049   4.982
 8834SOL    HW227402   5.732   3.198   4.929
 8835SOL     OW27403   6.826   6.785   5.367
 8835SOL    HW127404   6.754   6.737   5.317
 8835SOL    HW227405   6.826   6.755   5.463
 8836SOL     OW27406   4.191   0.961   6.866
 8836SOL    HW127407   4.220   0.905   6.944
 8836SOL    HW227408   4.272   1.000   6.821
 8837SOL     OW27409   0.570   1.076   1.867
 8837SOL    HW127410   0.578   1.169   1.831
 8837SOL    HW227411   0.610   1.012   1.801
 8838SOL     OW27412   2.534   5.320   3.103
 8838SOL    HW127413   2.506   5.287   3.193
 8838SOL    HW227414   2.518   5.249   3.035
 8839SOL     OW27415   6.208   6.191   3.544
 8839SOL    HW127416   6.156   6.231   3.468
 8839SOL    HW227417   6.290   6.147   3.510
 8840SOL     OW27418   5.856   2.326   1.889
 8840SOL    HW127419   5.767   2.334   1.932
 8840SOL    HW227420   5.925   2.304   1.958
 8841SOL     OW27421   1.027   1.252   5.608
 8841SOL    HW127422   1.061   1.269   5.515
 8841SOL    HW227423   0.937   1.294   5.618
 8842SOL     OW27424   2.502   2.842   1.796
 8842SOL    HW127425   2.549   2.756   1.779
 8842SOL    HW227426   2.441   2.831   1.875
 8843SOL     OW27427   1.034   2.686   5.174
 8843SOL    HW127428   0.947   2.686   5.224
 8843SOL    HW227429   1.030   2.754   5.101
 8844SOL     OW27430   6.511   0.643   5.929
 8844SOL    HW127431   6.431   0.621   5.985
 8844SOL    HW227432   6.560   0.720   5.970
 8845SOL     OW27433   5.513   4.572   0.116
 8845SOL    HW127434   5.446   4.515   0.068
 8845SOL    HW227435   5.524   4.538   0.210
 8846SOL     OW27436   1.843   4.864   4.252
 8846SOL    HW127437   1.760   4.919   4.261
 8846SOL    HW227438   1.893   4.863   4.339
 8847SOL     OW27439   3.291   0.237   1.938
 8847SOL    HW127440   3.281   0.143   1.906
 8847SOL    HW227441   3.234   0.298   1.882
 8848SOL     OW27442   1.464   0.756   2.803
 8848SOL    HW127443   1.432   0.721   2.715
 8848SOL    HW227444   1.561   0.734   2.814
 8849SOL     OW27445   2.889   6.845   1.160
 8849SOL    HW127446   2.857   6.795   1.240
 8849SOL    HW227447   2.837   6.817   1.080
 8850SOL     OW27448   3.619   2.246   6.453
 8850SOL    HW127449   3.536   2.241   6.508
 8850SOL    HW227450   3.670   2.328   6.478
 8851SOL     OW27451   1.501   4.398   2.882
 8851SOL    HW127452   1.528   4.404   2.786
 8851SOL    HW227453   1.547   4.320   2.924
 8852SOL     OW27454   1.155   1.536   6.463
 8852SOL    HW127455   1.125   1.570   6.552
 8852SOL    HW227456   1.122   1.596   6.391
 8853SOL     OW27457   3.869   0.846   0.464
 8853SOL    HW127458   3.884   0.943   0.480
 8853SOL    HW227459   3.954   0.796   0.479
 8854SOL     OW27460   1.027   3.617   4.788
 8854SOL    HW127461   1.021   3.529   4.741
 8854SOL    HW227462   1.014   3.691   4.721
 8855SOL     OW27463   5.924   5.548   0.768
 8855SOL    HW127464   5.855   5.540   0.696
 8855SOL    HW227465   5.978   5.631   0.755
 8856SOL     OW27466   0.261   5.122   6.395
 8856SOL    HW127467   0.224   5.122   6.488
 8856SOL    HW227468   0.355   5.159   6.397
 8857SOL     OW27469   6.408   1.395   5.685
 8857SOL    HW127470   6.415   1.350   5.595
 8857SOL    HW227471   6.488   1.371   5.740
 8858SOL     OW27472   6.422   5.159   4.522
 8858SOL    HW127473   6.419   5.106   4.437
 8858SOL    HW227474   6.419   5.256   4.501
 8859SOL     OW27475   0.794   0.459   3.514
 8859SOL    HW127476   0.696   0.440   3.524
 8859SOL    HW227477   0.836   0.465   3.605
 8860SOL     OW27478   0.036   2.821   2.169
 8860SOL    HW127479   0.059   2.899   2.228
 8860SOL    HW227480   0.016   2.741   2.225
 8861SOL     OW27481   4.805   2.206   1.694
 8861SOL    HW127482   4.796   2.116   1.737
 8861SOL    HW227483   4.798   2.277   1.764
 8862SOL     OW27484   4.525   5.181   5.398
 8862SOL    HW127485   4.543   5.087   5.372
 8862SOL    HW227486   4.524   5.239   5.316
 8863SOL     OW27487   2.205   3.949   3.484
 8863SOL    HW127488   2.187   3.914   3.575
 8863SOL    HW227489   2.127   3.929   3.424
 8864SOL     OW27490   5.965   1.699   5.285
 8864SOL    HW127491   5.958   1.749   5.371
 8864SOL    HW227492   5.945   1.602   5.301
 8865SOL     OW27493   2.097   1.337   6.394
 8865SOL    HW127494   2.154   1.269   6.348
 8865SOL    HW227495   2.124   1.429   6.364
 8866SOL     OW27496   6.010   6.038   2.497
 8866SOL    HW127497   6.051   6.108   2.439
 8866SOL    HW227498   5.949   6.081   2.564
 8867SOL     OW27499   6.417   4.213   2.714
 8867SOL    HW127500   6.407   4.297   2.768
 8867SOL    HW227501   6.327   4.177   2.690
 8868SOL     OW27502   0.116   3.796   3.437
 8868SOL    HW127503   0.119   3.739   3.519
 8868SOL    HW227504   0.027   3.840   3.429
 8869SOL     OW27505   3.190   6.633   3.294
 8869SOL    HW127506   3.177   6.557   3.357
 8869SOL    HW227507   3.231   6.710   3.343
 8870SOL     OW27508   1.837   0.677   2.768
 8870SOL    HW127509   1.818   0.582   2.742
 8870SOL    HW227510   1.914   0.678   2.832
 8871SOL     OW27511   0.296   0.456   2.415
 8871SOL    HW127512   0.252   0.410   2.337
 8871SOL    HW227513   0.263   0.550   2.421
 8872SOL     OW27514   0.138   5.044   5.091
 8872SOL    HW127515   0.095   5.043   5.000
 8872SOL    HW227516   0.213   4.979   5.093
 8873SOL     OW27517   1.779   1.292   2.281
 8873SOL    HW127518   1.874   1.292   2.312
 8873SOL    HW227519   1.719   1.316   2.357
 8874SOL     OW27520   3.366   6.026   0.475
 8874SOL    HW127521   3.308   5.955   0.436
 8874SOL    HW227522   3.433   6.056   0.407
 8875SOL     OW27523   0.202   3.294   3.690
 8875SOL    HW127524   0.229   3.365   3.754
 8875SOL    HW227525   0.117   3.252   3.721
 8876SOL     OW27526   3.501   0.851   6.316
 8876SOL    HW127527   3.575   0.858   6.249
 8876SOL    HW227528   3.416   0.883   6.275
 8877SOL     OW27529   1.845   4.495   1.296
 8877SOL    HW127530   1.883   4.405   1.317
 8877SOL    HW227531   1.803   4.493   1.205
 8878SOL     OW27532   4.735   3.809   0.963
 8878SOL    HW127533   4.792   3.885   0.995
 8878SOL    HW227534   4.728   3.740   1.035
 8879SOL     OW27535   5.837   5.038   2.886
 8879SOL    HW127536   5.852   5.053   2.788
 8879SOL    HW227537   5.839   4.940   2.905
 8880SOL     OW27538   4.200   0.439   4.081
 8880SOL    HW127539   4.226   0.391   3.997
 8880SOL    HW227540   4.230   0.535   4.076
 8881SOL     OW27541   4.432   4.968   4.429
 8881SOL    HW127542   4.531   4.963   4.431
 8881SOL    HW227543   4.403   5.035   4.360
 8882SOL     OW27544   4.784   0.718   0.971
 8882SOL    HW127545   4.798   0.815   0.949
 8882SOL    HW227546   4.757   0.669   0.888
 8883SOL     OW27547   6.862   6.397   4.451
 8883SOL    HW127548   6.852   6.426   4.546
 8883SOL    HW227549   6.918   6.314   4.447
 8884SOL     OW27550   5.492   3.494   4.981
 8884SOL    HW127551   5.434   3.418   4.953
 8884SOL    HW227552   5.447   3.580   4.958
 8885SOL     OW27553   6.406   5.699   0.546
 8885SOL    HW127554   6.378   5.744   0.462
 8885SOL    HW227555   6.375   5.753   0.625
 8886SOL     OW27556   3.571   5.371   6.430
 8886SOL    HW127557   3.653   5.402   6.480
 8886SOL    HW227558   3.495   5.432   6.450
 8887SOL     OW27559   5.132   1.115   1.734
 8887SOL    HW127560   5.227   1.141   1.754
 8887SOL    HW227561   5.077   1.122   1.817
 8888SOL     OW27562   2.398   2.093   2.959
 8888SOL    HW127563   2.465   2.094   2.885
 8888SOL    HW227564   2.399   2.182   3.005
 8889SOL     OW27565   0.004   6.220   6.144
 8889SOL    HW127566   6.983   6.298   6.097
 8889SOL    HW227567   0.011   6.143   6.081
 8890SOL     OW27568   0.686   6.359   0.632
 8890SOL    HW127569   0.603   6.413   0.640
 8890SOL    HW227570   0.744   6.375   0.712
 8891SOL     OW27571   5.901   3.901   0.097
 8891SOL    HW127572   5.856   3.895   0.187
 8891SOL    HW227573   5.999   3.914   0.110
 8892SOL     OW27574   3.148   5.514   3.860
 8892SOL    HW127575   3.131   5.477   3.768
 8892SOL    HW227576   3.246   5.517   3.877
 8893SOL     OW27577   1.690   5.182   4.884
 8893SOL    HW127578   1.730   5.274   4.893
 8893SOL    HW227579   1.595   5.190   4.855
 8894SOL     OW27580   4.600   1.486   0.376
 8894SOL    HW127581   4.527   1.493   0.308
 8894SOL    HW227582   4.626   1.577   0.407
 8895SOL     OW27583   6.670   3.621   1.375
 8895SOL    HW127584   6.760   3.662   1.390
 8895SOL    HW227585   6.605   3.658   1.442
 8896SOL     OW27586   7.012   2.155   4.698
 8896SOL    HW127587   0.066   2.138   4.634
 8896SOL    HW227588   6.950   2.224   4.661
 8897SOL     OW27589   2.100   3.907   3.773
 8897SOL    HW127590   2.108   3.874   3.867
 8897SOL    HW227591   2.004   3.927   3.752
 8898SOL     OW27592   4.817   4.267   2.795
 8898SOL    HW127593   4.790   4.322   2.874
 8898SOL    HW227594   4.817   4.170   2.820
 8899SOL     OW27595   0.289   3.596   5.810
 8899SOL    HW127596   0.380   3.613   5.847
 8899SOL    HW227597   0.249   3.681   5.777
 8900SOL     OW27598   5.109   2.968   4.080
 8900SOL    HW127599   5.185   2.911   4.111
 8900SOL    HW227600   5.054   2.995   4.159
 8901SOL     OW27601   1.370   2.916   4.265
 8901SOL    HW127602   1.426   2.981   4.215
 8901SOL    HW227603   1.425   2.873   4.337
 8902SOL     OW27604   0.464   4.676   0.582
 8902SOL    HW127605   0.477   4.631   0.494
 8902SOL    HW227606   0.537   4.649   0.645
 8903SOL     OW27607   1.303   6.928   5.382
 8903SOL    HW127608   1.394   6.961   5.404
 8903SOL    HW227609   1.289   6.931   5.283
 8904SOL     OW27610   0.555   0.726   3.379
 8904SOL    HW127611   0.518   0.676   3.300
 8904SOL    HW227612   0.650   0.698   3.395
 8905SOL     OW27613   1.412   3.625   2.476
 8905SOL    HW127614   1.329   3.676   2.454
 8905SOL    HW227615   1.395   3.527   2.462
 8906SOL     OW27616   6.824   6.904   0.415
 8906SOL    HW127617   6.875   6.927   0.332
 8906SOL    HW227618   6.740   6.855   0.389
 8907SOL     OW27619   3.355   2.884   4.689
 8907SOL    HW127620   3.397   2.852   4.774
 8907SOL    HW227621   3.259   2.908   4.707
 8908SOL     OW27622   1.173   5.654   0.302
 8908SOL    HW127623   1.150   5.556   0.300
 8908SOL    HW227624   1.115   5.703   0.237
 8909SOL     OW27625   2.836   0.571   0.094
 8909SOL    HW127626   2.922   0.519   0.096
 8909SOL    HW227627   2.767   0.518   0.044
 8910SOL     OW27628   2.131   2.045   3.770
 8910SOL    HW127629   2.194   2.014   3.698
 8910SOL    HW227630   2.180   2.056   3.856
 8911SOL     OW27631   4.642   1.613   4.130
 8911SOL    HW127632   4.715   1.674   4.161
 8911SOL    HW227633   4.670   1.567   4.046
 8912SOL     OW27634   3.467   3.672   4.923
 8912SOL    HW127635   3.498   3.582   4.953
 8912SOL    HW227636   3.390   3.701   4.980
 8913SOL     OW27637   5.462   5.962   6.832
 8913SOL    HW127638   5.413   5.913   6.760
 8913SOL    HW227639   5.551   5.919   6.847
 8914SOL     OW27640   4.667   5.932   6.291
 8914SOL    HW127641   4.617   5.861   6.342
 8914SOL    HW227642   4.641   6.022   6.324
 8915SOL     OW27643   1.554   1.464   3.747
 8915SOL    HW127644   1.473   1.430   3.699
 8915SOL    HW227645   1.535   1.468   3.845
 8916SOL     OW27646   4.960   0.885   0.258
 8916SOL    HW127647   4.953   0.974   0.302
 8916SOL    HW227648   4.930   0.814   0.322
 8917SOL     OW27649   5.845   1.549   0.413
 8917SOL    HW127650   5.792   1.608   0.473
 8917SOL    HW227651   5.848   1.456   0.450
 8918SOL     OW27652   1.068   4.180   2.391
 8918SOL    HW127653   1.089   4.231   2.475
 8918SOL    HW227654   1.002   4.231   2.336
 8919SOL     OW27655   5.613   3.759   0.559
 8919SOL    HW127656   5.630   3.699   0.638
 8919SOL    HW227657   5.552   3.833   0.586
 8920SOL     OW27658   6.491   1.297   0.502
 8920SOL    HW127659   6.477   1.199   0.517
 8920SOL    HW227660   6.567   1.311   0.439
 8921SOL     OW27661   1.516   3.171   1.425
 8921SOL    HW127662   1.472   3.261   1.426
 8921SOL    HW227663   1.446   3.100   1.428
 8922SOL     OW27664   3.899   0.114   3.373
 8922SOL    HW127665   3.891   0.182   3.300
 8922SOL    HW227666   3.818   0.118   3.432
 8923SOL     OW27667   1.622   2.137   5.266
 8923SOL    HW127668   1.537   2.086   5.277
 8923SOL    HW227669   1.680   2.123   5.346
 8924SOL     OW27670   4.811   5.331   5.018
 8924SOL    HW127671   4.718   5.366   5.029
 8924SOL    HW227672   4.848   5.360   4.929
 8925SOL     OW27673   1.389   0.867   3.343
 8925SOL    HW127674   1.449   0.856   3.422
 8925SOL    HW227675   1.444   0.868   3.259
 8926SOL     OW27676   6.414   2.669   5.276
 8926SOL    HW127677   6.478   2.741   5.251
 8926SOL    HW227678   6.382   2.623   5.193
 8927SOL     OW27679   0.186   1.071   6.411
 8927SOL    HW127680   0.115   1.140   6.428
 8927SOL    HW227681   0.223   1.084   6.319
 8928SOL     OW27682   1.900   6.775   5.088
 8928SOL    HW127683   1.987   6.726   5.081
 8928SOL    HW227684   1.850   6.766   5.002
 8929SOL     OW27685   7.005   2.781   4.643
 8929SOL    HW127686   6.928   2.771   4.581
 8929SOL    HW227687   0.032   2.693   4.652
 8930SOL     OW27688   1.535   4.291   3.712
 8930SOL    HW127689   1.507   4.219   3.776
 8930SOL    HW227690   1.524   4.380   3.755
 8931SOL     OW27691   3.834   2.333   1.327
 8931SOL    HW127692   3.792   2.420   1.301
 8931SOL    HW227693   3.792   2.259   1.273
 8932SOL     OW27694   0.367   3.155   3.079
 8932SOL    HW127695   0.411   3.107   3.155
 8932SOL    HW227696   0.282   3.197   3.111
 8933SOL     OW27697   3.785   1.562   5.805
 8933SOL    HW127698   3.738   1.644   5.836
 8933SOL    HW227699   3.718   1.491   5.785
 8934SOL     OW27700   2.548   6.170   3.964
 8934SOL    HW127701   2.548   6.089   4.021
 8934SOL    HW227702   2.506   6.246   4.013
 8935SOL     OW27703   0.273   4.948   1.479
 8935SOL    HW127704   0.187   4.931   1.431
 8935SOL    HW227705   0.259   5.022   1.546
 8936SOL     OW27706   2.249   2.961   0.283
 8936SOL    HW127707   2.248   3.034   0.216
 8936SOL    HW227708   2.343   2.938   0.307
 8937SOL     OW27709   0.851   5.968   5.674
 8937SOL    HW127710   0.771   5.914   5.649
 8937SOL    HW227711   0.930   5.908   5.686
 8938SOL     OW27712   6.274   5.299   0.838
 8938SOL    HW127713   6.220   5.277   0.919
 8938SOL    HW227714   6.284   5.216   0.782
 8939SOL     OW27715   5.378   2.210   4.508
 8939SOL    HW127716   5.424   2.240   4.425
 8939SOL    HW227717   5.445   2.173   4.572
 8940SOL     OW27718   6.294   0.810   3.449
 8940SOL    HW127719   6.370   0.874   3.458
 8940SOL    HW227720   6.222   0.853   3.394
 8941SOL     OW27721   5.010   2.724   6.258
 8941SOL    HW127722   4.943   2.764   6.321
 8941SOL    HW227723   5.028   2.788   6.183
 8942SOL     OW27724   0.171   2.192   4.883
 8942SOL    HW127725   0.088   2.185   4.827
 8942SOL    HW227726   0.156   2.257   4.958
 8943SOL     OW27727   4.954   3.157   1.220
 8943SOL    HW127728   5.032   3.094   1.225
 8943SOL    HW227729   4.873   3.112   1.257
 8944SOL     OW27730   4.219   5.666   0.737
 8944SOL    HW127731   4.313   5.649   0.767
 8944SOL    HW227732   4.168   5.579   0.738
 8945SOL     OW27733   2.535   0.909   3.941
 8945SOL    HW127734   2.570   0.828   3.893
 8945SOL    HW227735   2.611   0.964   3.974
 8946SOL     OW27736   3.375   1.799   4.709
 8946SOL    HW127737   3.316   1.862   4.658
 8946SOL    HW227738   3.318   1.735   4.761
 8947SOL     OW27739   4.199   3.830   5.182
 8947SOL    HW127740   4.112   3.879   5.171
 8947SOL    HW227741   4.197   3.747   5.127
 8948SOL     OW27742   5.415   4.831   3.647
 8948SOL    HW127743   5.347   4.763   3.620
 8948SOL    HW227744   5.369   4.911   3.685
 8949SOL     OW27745   2.364   6.074   0.181
 8949SOL    HW127746   2.270   6.094   0.154
 8949SOL    HW227747   2.425   6.096   0.105
 8950SOL     OW27748   4.735   2.579   4.540
 8950SOL    HW127749   4.728   2.607   4.444
 8950SOL    HW227750   4.813   2.625   4.583
 8951SOL     OW27751   1.692   2.650   5.655
 8951SOL    HW127752   1.680   2.641   5.556
 8951SOL    HW227753   1.644   2.576   5.702
 8952SOL     OW27754   0.523   1.189   2.931
 8952SOL    HW127755   0.453   1.261   2.936
 8952SOL    HW227756   0.546   1.158   3.023
 8953SOL     OW27757   1.628   3.169   0.000
 8953SOL    HW127758   1.645   3.196   0.095
 8953SOL    HW227759   1.707   3.119   6.986
 8954SOL     OW27760   2.153   5.842   6.521
 8954SOL    HW127761   2.086   5.781   6.561
 8954SOL    HW227762   2.127   5.937   6.538
 8955SOL     OW27763   6.735   4.354   3.379
 8955SOL    HW127764   6.796   4.286   3.421
 8955SOL    HW227765   6.676   4.393   3.450
 8956SOL     OW27766   0.442   0.633   6.036
 8956SOL    HW127767   0.509   0.559   6.029
 8956SOL    HW227768   0.462   0.702   5.966
 8957SOL     OW27769   2.726   4.669   2.511
 8957SOL    HW127770   2.789   4.720   2.452
 8957SOL    HW227771   2.664   4.616   2.454
 8958SOL     OW27772   1.810   6.698   4.342
 8958SOL    HW127773   1.889   6.726   4.398
 8958SOL    HW227774   1.762   6.624   4.388
 8959SOL     OW27775   1.545   4.757   0.317
 8959SOL    HW127776   1.486   4.713   0.385
 8959SOL    HW227777   1.634   4.775   0.357
 8960SOL     OW27778   3.875   5.570   1.657
 8960SOL    HW127779   3.808   5.514   1.608
 8960SOL    HW227780   3.967   5.533   1.644
 8961SOL     OW27781   1.785   2.372   3.811
 8961SOL    HW127782   1.860   2.426   3.772
 8961SOL    HW227783   1.822   2.288   3.851
 8962SOL     OW27784   6.085   0.661   3.169
 8962SOL    HW127785   6.028   0.583   3.146
 8962SOL    HW227786   6.174   0.629   3.202
 8963SOL     OW27787   6.061   0.632   4.373
 8963SOL    HW127788   6.125   0.709   4.374
 8963SOL    HW227789   6.096   0.561   4.312
 8964SOL     OW27790   5.534   4.528   1.892
 8964SOL    HW127791   5.529   4.490   1.985
 8964SOL    HW227792   5.442   4.552   1.862
 8965SOL     OW27793   1.582   4.955   1.514
 8965SOL    HW127794   1.582   4.884   1.585
 8965SOL    HW227795   1.659   5.016   1.528
 8966SOL     OW27796   1.935   2.326   6.352
 8966SOL    HW127797   1.867   2.394   6.326
 8966SOL    HW227798   1.894   2.235   6.347
 8967SOL     OW27799   4.497   0.344   0.284
 8967SOL    HW127800   4.468   0.263   0.335
 8967SOL    HW227801   4.513   0.319   0.188
 8968SOL     OW27802   5.167   6.352   1.610
 8968SOL    HW127803   5.175   6.268   1.557
 8968SOL    HW227804   5.079   6.352   1.658
 8969SOL     OW27805   6.370   0.890   3.969
 8969SOL    HW127806   6.424   0.888   3.884
 8969SOL    HW227807   6.412   0.954   4.033
 8970SOL     OW27808   3.807   1.710   1.644
 8970SOL    HW127809   3.713   1.718   1.609
 8970SOL    HW227810   3.808   1.734   1.741
 8971SOL     OW27811   3.941   5.242   2.005
 8971SOL    HW127812   4.003   5.316   1.980
 8971SOL    HW227813   3.885   5.271   2.083
 8972SOL     OW27814   5.132   6.192   5.304
 8972SOL    HW127815   5.156   6.142   5.220
 8972SOL    HW227816   5.199   6.171   5.375
 8973SOL     OW27817   1.193   4.761   6.983
 8973SOL    HW127818   1.168   4.740   0.057
 8973SOL    HW227819   1.113   4.791   6.933
 8974SOL     OW27820   0.532   3.647   5.955
 8974SOL    HW127821   0.629   3.624   5.949
 8974SOL    HW227822   0.507   3.661   6.051
 8975SOL     OW27823   3.250   0.206   0.237
 8975SOL    HW127824   3.227   0.303   0.237
 8975SOL    HW227825   3.289   0.181   0.326
 8976SOL     OW27826   2.066   5.426   4.157
 8976SOL    HW127827   2.046   5.339   4.202
 8976SOL    HW227828   2.155   5.460   4.188
 8977SOL     OW27829   6.581   1.371   5.893
 8977SOL    HW127830   6.622   1.321   5.970
 8977SOL    HW227831   6.654   1.409   5.836
 8978SOL     OW27832   5.548   6.566   0.649
 8978SOL    HW127833   5.555   6.592   0.553
 8978SOL    HW227834   5.588   6.638   0.706
 8979SOL     OW27835   1.864   3.983   5.021
 8979SOL    HW127836   1.792   3.925   5.058
 8979SOL    HW227837   1.953   3.938   5.032
 8980SOL     OW27838   3.931   3.066   4.278
 8980SOL    HW127839   3.842   3.020   4.284
 8980SOL    HW227840   3.976   3.063   4.367
 8981SOL     OW27841   3.532   1.387   5.135
 8981SOL    HW127842   3.464   1.454   5.165
 8981SOL    HW227843   3.605   1.381   5.202
 8982SOL     OW27844   3.067   4.199   0.563
 8982SOL    HW127845   2.989   4.174   0.620
 8982SOL    HW227846   3.037   4.216   0.469
 8983SOL     OW27847   4.485   5.284   0.337
 8983SOL    HW127848   4.546   5.205   0.335
 8983SOL    HW227849   4.539   5.367   0.354
 8984SOL     OW27850   1.949   6.090   2.936
 8984SOL    HW127851   1.929   6.145   3.017
 8984SOL    HW227852   2.002   6.010   2.963
 8985SOL     OW27853   3.954   2.862   0.061
 8985SOL    HW127854   4.006   2.777   0.077
 8985SOL    HW227855   3.985   2.932   0.125
 8986SOL     OW27856   3.912   4.959   2.761
 8986SOL    HW127857   3.825   4.914   2.783
 8986SOL    HW227858   3.896   5.057   2.748
 8987SOL     OW27859   5.672   5.991   2.231
 8987SOL    HW127860   5.585   5.987   2.281
 8987SOL    HW227861   5.658   5.956   2.139
 8988SOL     OW27862   0.395   5.347   4.457
 8988SOL    HW127863   0.409   5.356   4.555
 8988SOL    HW227864   0.315   5.291   4.440
 8989SOL     OW27865   4.213   2.752   6.552
 8989SOL    HW127866   4.286   2.787   6.610
 8989SOL    HW227867   4.235   2.768   6.456
 8990SOL     OW27868   0.224   5.173   3.861
 8990SOL    HW127869   0.135   5.216   3.846
 8990SOL    HW227870   0.277   5.226   3.927
 8991SOL     OW27871   1.526   2.367   5.161
 8991SOL    HW127872   1.531   2.369   5.061
 8991SOL    HW227873   1.570   2.284   5.195
 8992SOL     OW27874   6.258   1.826   0.095
 8992SOL    HW127875   6.286   1.798   0.003
 8992SOL    HW227876   6.171   1.875   0.090
 8993SOL     OW27877   4.153   2.998   6.203
 8993SOL    HW127878   4.180   3.012   6.298
 8993SOL    HW227879   4.235   2.981   6.148
 8994SOL     OW27880   2.136   4.277   4.663
 8994SOL    HW127881   2.074   4.215   4.615
 8994SOL    HW227882   2.083   4.336   4.724
 8995SOL     OW27883   0.252   1.594   1.292
 8995SOL    HW127884   0.320   1.621   1.360
 8995SOL    HW227885   0.168   1.647   1.305
 8996SOL     OW27886   5.500   4.161   6.600
 8996SOL    HW127887   5.411   4.206   6.595
 8996SOL    HW227888   5.487   4.063   6.614
 8997SOL     OW27889   5.433   1.075   5.158
 8997SOL    HW127890   5.391   0.999   5.110
 8997SOL    HW227891   5.521   1.097   5.117
 8998SOL     OW27892   5.819   4.019   4.169
 8998SOL    HW127893   5.772   4.091   4.118
 8998SOL    HW227894   5.859   4.057   4.253
 8999SOL     OW27895   5.075   6.701   5.863
 8999SOL    HW127896   4.976   6.705   5.848
 8999SOL    HW227897   5.110   6.613   5.831
 9000SOL     OW27898   1.878   4.676   1.687
 9000SOL    HW127899   1.862   4.589   1.733
 9000SOL    HW227900   1.831   4.676   1.598
 9001SOL     OW27901   6.994   5.087   2.224
 9001SOL    HW127902   6.979   5.065   2.321
 9001SOL    HW227903   6.926   5.154   2.195
 9002SOL     OW27904   1.310   4.544   5.634
 9002SOL    HW127905   1.395   4.550   5.582
 9002SOL    HW227906   1.321   4.478   5.709
 9003SOL     OW27907   5.454   1.863   1.200
 9003SOL    HW127908   5.454   1.961   1.182
 9003SOL    HW227909   5.547   1.832   1.217
 9004SOL     OW27910   4.066   5.116   0.698
 9004SOL    HW127911   4.000   5.113   0.622
 9004SOL    HW227912   4.159   5.108   0.661
 9005SOL     OW27913   5.338   1.304   6.162
 9005SOL    HW127914   5.405   1.326   6.233
 9005SOL    HW227915   5.340   1.375   6.091
 9006SOL     OW27916   3.546   0.244   0.365
 9006SOL    HW127917   3.472   0.196   0.413
 9006SOL    HW227918   3.558   0.204   0.274
 9007SOL     OW27919   2.309   1.620   2.859
 9007SOL    HW127920   2.363   1.536   2.848
 9007SOL    HW227921   2.326   1.658   2.949
 9008SOL     OW27922   0.456   5.864   3.018
 9008SOL    HW127923   0.412   5.830   3.101
 9008SOL    HW227924   0.432   5.960   3.004
 9009SOL     OW27925   3.961   5.675   0.512
 9009SOL    HW127926   3.901   5.714   0.581
 9009SOL    HW227927   4.026   5.745   0.480
 9010SOL     OW27928   2.272   6.794   4.200
 9010SOL    HW127929   2.294   6.709   4.248
 9010SOL    HW227930   2.173   6.804   4.196
 9011SOL     OW27931   4.697   0.616   2.752
 9011SOL    HW127932   4.753   0.635   2.832
 9011SOL    HW227933   4.626   0.685   2.743
 9012SOL     OW27934   2.637   5.862   0.520
 9012SOL    HW127935   2.708   5.838   0.587
 9012SOL    HW227936   2.677   5.864   0.428
 9013SOL     OW27937   1.789   6.675   4.867
 9013SOL    HW127938   1.724   6.604   4.895
 9013SOL    HW227939   1.741   6.748   4.819
 9014SOL     OW27940   6.273   2.485   2.350
 9014SOL    HW127941   6.176   2.461   2.359
 9014SOL    HW227942   6.323   2.408   2.312
 9015SOL     OW27943   5.469   2.385   0.605
 9015SOL    HW127944   5.509   2.461   0.553
 9015SOL    HW227945   5.397   2.342   0.551
 9016SOL     OW27946   5.722   5.468   5.663
 9016SOL    HW127947   5.771   5.381   5.656
 9016SOL    HW227948   5.689   5.479   5.757
 9017SOL     OW27949   3.285   1.004   4.876
 9017SOL    HW127950   3.381   0.979   4.863
 9017SOL    HW227951   3.230   0.920   4.881
 9018SOL     OW27952   3.996   3.072   6.757
 9018SOL    HW127953   4.034   3.014   6.829
 9018SOL    HW227954   4.029   3.165   6.768
 9019SOL     OW27955   1.048   3.233   3.208
 9019SOL    HW127956   1.118   3.268   3.270
 9019SOL    HW227957   1.000   3.310   3.164
 9020SOL     OW27958   6.441   5.733   1.933
 9020SOL    HW127959   6.451   5.633   1.938
 9020SOL    HW227960   6.525   5.777   1.964
 9021SOL     OW27961   0.036   0.007   3.816
 9021SOL    HW127962   6.988   6.957   3.805
 9021SOL    HW227963   7.012   0.097   3.822
 9022SOL     OW27964   4.077   2.592   6.764
 9022SOL    HW127965   4.144   2.643   6.710
 9022SOL    HW227966   4.088   2.494   6.748
 9023SOL     OW27967   4.231   3.196   1.369
 9023SOL    HW127968   4.258   3.112   1.322
 9023SOL    HW227969   4.271   3.275   1.321
 9024SOL     OW27970   1.458   5.129   5.816
 9024SOL    HW127971   1.378   5.082   5.778
 9024SOL    HW227972   1.541   5.088   5.779
 9025SOL     OW27973   0.645   5.514   0.838
 9025SOL    HW127974   0.601   5.442   0.891
 9025SOL    HW227975   0.732   5.480   0.801
 9026SOL     OW27976   3.978   1.886   6.792
 9026SOL    HW127977   3.943   1.965   6.743
 9026SOL    HW227978   3.960   1.803   6.739
 9027SOL     OW27979   0.528   4.096   3.566
 9027SOL    HW127980   0.476   4.019   3.530
 9027SOL    HW227981   0.559   4.153   3.489
 9028SOL     OW27982   3.704   4.000   5.365
 9028SOL    HW127983   3.789   3.949   5.373
 9028SOL    HW227984   3.723   4.098   5.369
 9029SOL     OW27985   4.177   0.417   4.578
 9029SOL    HW127986   4.191   0.332   4.527
 9029SOL    HW227987   4.224   0.492   4.530
 9030SOL     OW27988   2.474   2.563   4.138
 9030SOL    HW127989   2.463   2.614   4.224
 9030SOL    HW227990   2.560   2.512   4.141
 9031SOL     OW27991   4.442   0.324   4.828
 9031SOL    HW127992   4.424   0.405   4.772
 9031SOL    HW227993   4.462   0.246   4.767
 9032SOL     OW27994   4.829   3.416   1.228
 9032SOL    HW127995   4.870   3.325   1.231
 9032SOL    HW227996   4.886   3.480   1.281
 9033SOL     OW27997   0.854   5.461   2.491
 9033SOL    HW127998   0.813   5.412   2.414
 9033SOL    HW227999   0.858   5.401   2.570
 9034SOL     OW28000   3.102   6.418   4.591
 9034SOL    HW128001   3.083   6.466   4.505
 9034SOL    HW228002   3.078   6.477   4.668
 9035SOL     OW28003   2.145   5.860   0.405
 9035SOL    HW128004   2.098   5.846   0.317
 9035SOL    HW228005   2.128   5.953   0.438
 9036SOL     OW28006   1.496   3.485   4.999
 9036SOL    HW128007   1.398   3.478   4.980
 9036SOL    HW228008   1.528   3.578   4.978
 9037SOL     OW28009   0.532   2.387   3.844
 9037SOL    HW128010   0.540   2.465   3.906
 9037SOL    HW228011   0.550   2.417   3.750
 9038SOL     OW28012   4.934   3.406   6.716
 9038SOL    HW128013   4.998   3.331   6.733
 9038SOL    HW228014   4.887   3.390   6.629
 9039SOL     OW28015   3.351   5.062   0.059
 9039SOL    HW128016   3.382   5.155   0.043
 9039SOL    HW228017   3.364   5.008   6.996
 9040SOL     OW28018   2.285   2.314   1.571
 9040SOL    HW128019   2.275   2.218   1.543
 9040SOL    HW228020   2.341   2.319   1.653
 9041SOL     OW28021   0.221   2.152   0.654
 9041SOL    HW128022   0.199   2.054   0.654
 9041SOL    HW228023   0.140   2.204   0.678
 9042SOL     OW28024   3.430   5.890   5.993
 9042SOL    HW128025   3.369   5.949   5.940
 9042SOL    HW228026   3.484   5.833   5.932
 9043SOL     OW28027   2.696   1.195   6.879
 9043SOL    HW128028   2.642   1.116   6.907
 9043SOL    HW228029   2.721   1.186   6.783
 9044SOL     OW28030   0.621   0.012   6.809
 9044SOL    HW128031   0.579   0.075   6.743
 9044SOL    HW228032   0.614   6.939   6.776
 9045SOL     OW28033   4.231   0.290   3.353
 9045SOL    HW128034   4.283   0.258   3.274
 9045SOL    HW228035   4.139   0.317   3.324
 9046SOL     OW28036   3.076   3.095   3.086
 9046SOL    HW128037   3.121   3.057   3.167
 9046SOL    HW228038   3.090   3.033   3.009
 9047SOL     OW28039   1.308   4.430   5.900
 9047SOL    HW128040   1.299   4.495   5.976
 9047SOL    HW228041   1.256   4.348   5.920
 9048SOL     OW28042   5.765   2.332   6.279
 9048SOL    HW128043   5.821   2.406   6.316
 9048SOL    HW228044   5.813   2.245   6.291
 9049SOL     OW28045   2.917   6.908   6.479
 9049SOL    HW128046   2.947   6.812   6.482
 9049SOL    HW228047   2.844   6.918   6.410
 9050SOL     OW28048   0.705   4.302   1.683
 9050SOL    HW128049   0.626   4.361   1.666
 9050SOL    HW228050   0.789   4.351   1.660
 9051SOL     OW28051   2.673   1.740   1.241
 9051SOL    HW128052   2.601   1.795   1.198
 9051SOL    HW228053   2.763   1.769   1.207
 9052SOL     OW28054   1.841   3.128   4.711
 9052SOL    HW128055   1.891   3.068   4.773
 9052SOL    HW228056   1.782   3.073   4.651
 9053SOL     OW28057   2.142   1.391   1.249
 9053SOL    HW128058   2.107   1.396   1.343
 9053SOL    HW228059   2.071   1.422   1.186
 9054SOL     OW28060   2.955   5.742   3.576
 9054SOL    HW128061   2.952   5.748   3.476
 9054SOL    HW228062   2.890   5.673   3.607
 9055SOL     OW28063   0.414   3.963   5.030
 9055SOL    HW128064   0.383   4.001   5.117
 9055SOL    HW228065   0.395   4.028   4.956
 9056SOL     OW28066   6.226   2.246   2.887
 9056SOL    HW128067   6.163   2.173   2.910
 9056SOL    HW228068   6.208   2.277   2.794
 9057SOL     OW28069   4.296   0.956   4.609
 9057SOL    HW128070   4.234   0.881   4.630
 9057SOL    HW228071   4.245   1.042   4.610
 9058SOL     OW28072   1.503   0.858   6.650
 9058SOL    HW128073   1.482   0.942   6.600
 9058SOL    HW228074   1.499   0.780   6.587
 9059SOL     OW28075   1.485   2.055   2.155
 9059SOL    HW128076   1.494   1.998   2.237
 9059SOL    HW228077   1.560   2.121   2.151
 9060SOL     OW28078   4.761   2.992   4.507
 9060SOL    HW128079   4.826   2.947   4.567
 9060SOL    HW228080   4.719   2.924   4.446
 9061SOL     OW28081   4.679   5.358   2.423
 9061SOL    HW128082   4.592   5.311   2.410
 9061SOL    HW228083   4.740   5.336   2.347
 9062SOL     OW28084   1.305   5.271   1.609
 9062SOL    HW128085   1.375   5.293   1.678
 9062SOL    HW228086   1.296   5.172   1.600
 9063SOL     OW28087   2.821   2.171   2.921
 9063SOL    HW128088   2.872   2.091   2.950
 9063SOL    HW228089   2.726   2.145   2.903
 9064SOL     OW28090   6.417   3.407   6.711
 9064SOL    HW128091   6.346   3.337   6.708
 9064SOL    HW228092   6.417   3.460   6.626
 9065SOL     OW28093   2.526   0.998   0.718
 9065SOL    HW128094   2.507   1.087   0.676
 9065SOL    HW228095   2.608   0.959   0.677
 9066SOL     OW28096   5.027   6.713   6.809
 9066SOL    HW128097   4.987   6.649   6.875
 9066SOL    HW228098   5.068   6.661   6.734
 9067SOL     OW28099   1.455   7.006   3.041
 9067SOL    HW128100   1.360   0.004   3.018
 9067SOL    HW228101   1.498   6.953   2.968
 9068SOL     OW28102   1.728   5.741   6.493
 9068SOL    HW128103   1.661   5.730   6.567
 9068SOL    HW228104   1.690   5.706   6.408
 9069SOL     OW28105   1.727   2.511   6.279
 9069SOL    HW128106   1.655   2.514   6.348
 9069SOL    HW228107   1.687   2.524   6.188
 9070SOL     OW28108   1.291   4.546   4.621
 9070SOL    HW128109   1.241   4.465   4.651
 9070SOL    HW228110   1.367   4.564   4.684
 9071SOL     OW28111   6.035   6.611   0.236
 9071SOL    HW128112   6.105   6.663   0.186
 9071SOL    HW228113   6.079   6.541   0.292
 9072SOL     OW28114   6.499   3.978   0.040
 9072SOL    HW128115   6.587   3.948   0.077
 9072SOL    HW228116   6.502   4.075   0.019
 9073SOL     OW28117   1.763   1.048   2.133
 9073SOL    HW128118   1.840   1.073   2.074
 9073SOL    HW228119   1.736   1.128   2.187
 9074SOL     OW28120   1.200   0.065   2.967
 9074SOL    HW128121   1.155   0.112   3.043
 9074SOL    HW228122   1.188   0.119   2.883
 9075SOL     OW28123   6.383   0.802   2.347
 9075SOL    HW128124   6.297   0.820   2.299
 9075SOL    HW228125   6.437   0.736   2.295
 9076SOL     OW28126   6.568   0.759   5.687
 9076SOL    HW128127   6.632   0.688   5.659
 9076SOL    HW228128   6.536   0.741   5.780
 9077SOL     OW28129   5.699   6.472   2.303
 9077SOL    HW128130   5.686   6.450   2.206
 9077SOL    HW228131   5.730   6.566   2.312
 9078SOL     OW28132   3.673   2.955   4.647
 9078SOL    HW128133   3.747   2.991   4.704
 9078SOL    HW228134   3.608   2.905   4.704
 9079SOL     OW28135   3.404   0.068   5.744
 9079SOL    HW128136   3.469   7.019   5.715
 9079SOL    HW228137   3.311   0.034   5.729
 9080SOL     OW28138   5.252   1.542   0.885
 9080SOL    HW128139   5.256   1.637   0.916
 9080SOL    HW228140   5.157   1.513   0.878
 9081SOL     OW28141   5.463   6.281   2.085
 9081SOL    HW128142   5.417   6.202   2.044
 9081SOL    HW228143   5.562   6.264   2.087
 9082SOL     OW28144   3.024   1.431   4.051
 9082SOL    HW128145   3.008   1.467   4.143
 9082SOL    HW228146   3.093   1.359   4.054
 9083SOL     OW28147   4.844   4.468   4.692
 9083SOL    HW128148   4.920   4.404   4.705
 9083SOL    HW228149   4.763   4.418   4.661
 9084SOL     OW28150   3.463   4.132   3.386
 9084SOL    HW128151   3.480   4.123   3.484
 9084SOL    HW228152   3.550   4.147   3.339
 9085SOL     OW28153   1.863   1.877   0.753
 9085SOL    HW128154   1.834   1.884   0.849
 9085SOL    HW228155   1.788   1.904   0.694
 9086SOL     OW28156   0.554   4.139   1.369
 9086SOL    HW128157   0.514   4.183   1.288
 9086SOL    HW228158   0.615   4.204   1.415
 9087SOL     OW28159   4.876   3.552   1.884
 9087SOL    HW128160   4.824   3.467   1.879
 9087SOL    HW228161   4.965   3.540   1.840
 9088SOL     OW28162   5.160   0.709   7.003
 9088SOL    HW128163   5.155   0.714   0.082
 9088SOL    HW228164   5.076   0.667   6.967
 9089SOL     OW28165   4.374   0.180   5.365
 9089SOL    HW128166   4.411   0.132   5.285
 9089SOL    HW228167   4.450   0.214   5.421
 9090SOL     OW28168   5.576   1.575   4.630
 9090SOL    HW128169   5.620   1.663   4.644
 9090SOL    HW228170   5.613   1.508   4.694
 9091SOL     OW28171   3.291   3.701   6.935
 9091SOL    HW128172   3.244   3.737   6.855
 9091SOL    HW228173   3.226   3.689   7.010
 9092SOL     OW28174   6.955   2.614   0.319
 9092SOL    HW128175   6.896   2.537   0.346
 9092SOL    HW228176   6.908   2.700   0.337
 9093SOL     OW28177   1.257   6.465   5.932
 9093SOL    HW128178   1.183   6.403   5.907
 9093SOL    HW228179   1.239   6.504   6.022
 9094SOL     OW28180   0.517   3.742   2.114
 9094SOL    HW128181   0.573   3.824   2.125
 9094SOL    HW228182   0.473   3.744   2.025
 9095SOL     OW28183   5.555   5.869   5.096
 9095SOL    HW128184   5.495   5.811   5.041
 9095SOL    HW228185   5.502   5.918   5.164
 9096SOL     OW28186   6.271   5.702   2.781
 9096SOL    HW128187   6.274   5.700   2.881
 9096SOL    HW228188   6.218   5.782   2.751
 9097SOL     OW28189   0.880   2.766   6.265
 9097SOL    HW128190   0.928   2.826   6.329
 9097SOL    HW228191   0.882   2.672   6.298
 9098SOL     OW28192   1.743   3.753   4.166
 9098SOL    HW128193   1.774   3.840   4.205
 9098SOL    HW228194   1.759   3.680   4.233
 9099SOL     OW28195   2.414   3.101   6.860
 9099SOL    HW128196   2.391   3.004   6.870
 9099SOL    HW228197   2.509   3.109   6.829
 9100SOL     OW28198   1.017   4.602   3.128
 9100SOL    HW128199   1.024   4.542   3.048
 9100SOL    HW228200   0.964   4.683   3.104
 9101SOL     OW28201   1.038   2.263   1.970
 9101SOL    HW128202   1.101   2.281   2.046
 9101SOL    HW228203   1.079   2.196   1.908
 9102SOL     OW28204   4.425   6.545   2.867
 9102SOL    HW128205   4.347   6.540   2.804
 9102SOL    HW228206   4.397   6.511   2.957
 9103SOL     OW28207   6.358   1.756   0.584
 9103SOL    HW128208   6.270   1.791   0.616
 9103SOL    HW228209   6.377   1.669   0.630
 9104SOL     OW28210   5.789   0.840   6.701
 9104SOL    HW128211   5.793   0.806   6.607
 9104SOL    HW228212   5.877   0.823   6.746
 9105SOL     OW28213   1.875   0.076   6.415
 9105SOL    HW128214   1.827   0.028   6.489
 9105SOL    HW228215   1.969   0.096   6.444
 9106SOL     OW28216   1.721   4.108   0.409
 9106SOL    HW128217   1.730   4.014   0.378
 9106SOL    HW228218   1.678   4.163   0.338
 9107SOL     OW28219   2.327   0.948   6.734
 9107SOL    HW128220   2.256   0.888   6.769
 9107SOL    HW228221   2.285   1.034   6.703
 9108SOL     OW28222   5.779   4.689   5.993
 9108SOL    HW128223   5.818   4.598   6.010
 9108SOL    HW228224   5.799   4.748   6.072
 9109SOL     OW28225   5.090   3.122   2.718
 9109SOL    HW128226   5.163   3.055   2.708
 9109SOL    HW228227   5.097   3.166   2.807
 9110SOL     OW28228   1.454   6.015   4.698
 9110SOL    HW128229   1.378   6.016   4.763
 9110SOL    HW228230   1.493   5.923   4.694
 9111SOL     OW28231   4.126   2.833   5.699
 9111SOL    HW128232   4.028   2.841   5.681
 9111SOL    HW228233   4.163   2.923   5.722
 9112SOL     OW28234   1.118   5.149   2.207
 9112SOL    HW128235   1.032   5.098   2.216
 9112SOL    HW228236   1.177   5.103   2.141
 9113SOL     OW28237   5.566   1.583   3.804
 9113SOL    HW128238   5.576   1.597   3.902
 9113SOL    HW228239   5.542   1.487   3.785
 9114SOL     OW28240   1.385   5.829   5.028
 9114SOL    HW128241   1.478   5.822   4.992
 9114SOL    HW228242   1.320   5.812   4.954
 9115SOL     OW28243   5.416   4.166   4.243
 9115SOL    HW128244   5.442   4.077   4.205
 9115SOL    HW228245   5.499   4.216   4.270
 9116SOL     OW28246   1.128   0.298   3.130
 9116SOL    HW128247   1.046   0.348   3.157
 9116SOL    HW228248   1.193   0.361   3.088
 9117SOL     OW28249   3.647   0.602   6.921
 9117SOL    HW128250   3.590   0.532   6.879
 9117SOL    HW228251   3.658   0.583   7.018
 9118SOL     OW28252   6.330   4.251   1.639
 9118SOL    HW128253   6.296   4.340   1.608
 9118SOL    HW228254   6.385   4.209   1.566
 9119SOL     OW28255   3.846   0.519   0.881
 9119SOL    HW128256   3.932   0.568   0.892
 9119SOL    HW228257   3.794   0.523   0.966
 9120SOL     OW28258   6.263   3.326   5.423
 9120SOL    HW128259   6.340   3.359   5.369
 9120SOL    HW228260   6.285   3.334   5.520
 9121SOL     OW28261   3.094   0.841   5.013
 9121SOL    HW128262   3.046   0.928   5.027
 9121SOL    HW228263   3.033   0.777   4.965
 9122SOL     OW28264   2.038   4.121   2.181
 9122SOL    HW128265   2.081   4.209   2.200
 9122SOL    HW228266   1.983   4.127   2.098
 9123SOL     OW28267   0.905   0.009   3.788
 9123SOL    HW128268   0.871   0.094   3.829
 9123SOL    HW228269   0.996   7.010   3.824
 9124SOL     OW28270   2.876   5.552   1.334
 9124SOL    HW128271   2.916   5.558   1.243
 9124SOL    HW228272   2.786   5.508   1.328
 9125SOL     OW28273   4.600   6.445   1.099
 9125SOL    HW128274   4.614   6.425   1.002
 9125SOL    HW228275   4.637   6.535   1.120
 9126SOL     OW28276   4.073   4.558   0.472
 9126SOL    HW128277   3.978   4.531   0.489
 9126SOL    HW228278   4.135   4.494   0.517
 9127SOL     OW28279   0.558   4.333   5.127
 9127SOL    HW128280   0.579   4.324   5.224
 9127SOL    HW228281   0.499   4.412   5.113
 9128SOL     OW28282   6.145   3.640   5.366
 9128SOL    HW128283   6.112   3.684   5.283
 9128SOL    HW228284   6.135   3.541   5.358
 9129SOL     OW28285   1.805   2.474   1.016
 9129SOL    HW128286   1.895   2.440   0.990
 9129SOL    HW228287   1.783   2.443   1.108
 9130SOL     OW28288   2.687   3.853   5.282
 9130SOL    HW128289   2.594   3.872   5.253
 9130SOL    HW228290   2.751   3.911   5.231
 9131SOL     OW28291   5.162   2.421   1.160
 9131SOL    HW128292   5.071   2.379   1.171
 9131SOL    HW228293   5.232   2.349   1.161
 9132SOL     OW28294   6.947   4.239   3.497
 9132SOL    HW128295   6.976   4.332   3.475
 9132SOL    HW228296   6.969   4.219   3.592
 9133SOL     OW28297   4.643   1.239   0.880
 9133SOL    HW128298   4.668   1.283   0.967
 9133SOL    HW228299   4.697   1.279   0.806
 9134SOL     OW28300   4.416   4.764   0.598
 9134SOL    HW128301   4.423   4.852   0.644
 9134SOL    HW228302   4.386   4.695   0.664
 9135SOL     OW28303   6.892   6.645   2.642
 9135SOL    HW128304   6.803   6.660   2.599
 9135SOL    HW228305   6.918   6.549   2.633
 9136SOL     OW28306   6.119   4.179   6.596
 9136SOL    HW128307   6.024   4.195   6.567
 9136SOL    HW228308   6.169   4.265   6.592
 9137SOL     OW28309   5.567   6.001   6.386
 9137SOL    HW128310   5.600   5.916   6.344
 9137SOL    HW228311   5.592   6.079   6.327
 9138SOL     OW28312   3.507   3.169   0.873
 9138SOL    HW128313   3.603   3.178   0.898
 9138SOL    HW228314   3.450   3.175   0.954
 9139SOL     OW28315   6.898   0.274   0.860
 9139SOL    HW128316   6.883   0.206   0.789
 9139SOL    HW228317   6.882   0.365   0.823
 9140SOL     OW28318   1.290   4.102   3.282
 9140SOL    HW128319   1.205   4.103   3.335
 9140SOL    HW228320   1.363   4.144   3.336
 9141SOL     OW28321   6.739   5.767   5.465
 9141SOL    HW128322   6.713   5.682   5.420
 9141SOL    HW228323   6.662   5.831   5.463
 9142SOL     OW28324   1.377   4.085   4.586
 9142SOL    HW128325   1.323   4.005   4.558
 9142SOL    HW228326   1.445   4.106   4.517
 9143SOL     OW28327   0.016   4.339   3.023
 9143SOL    HW128328   0.005   4.422   2.968
 9143SOL    HW228329   6.946   4.308   3.053
 9144SOL     OW28330   2.414   4.502   5.225
 9144SOL    HW128331   2.354   4.580   5.208
 9144SOL    HW228332   2.503   4.534   5.255
 9145SOL     OW28333   1.619   6.174   5.678
 9145SOL    HW128334   1.569   6.096   5.641
 9145SOL    HW228335   1.683   6.143   5.748
 9146SOL     OW28336   6.061   3.007   3.067
 9146SOL    HW128337   6.020   3.060   2.992
 9146SOL    HW228338   6.117   3.068   3.124
 9147SOL     OW28339   4.163   6.715   4.731
 9147SOL    HW128340   4.219   6.714   4.814
 9147SOL    HW228341   4.181   6.799   4.680
 9148SOL     OW28342   6.084   6.063   1.699
 9148SOL    HW128343   6.026   5.988   1.669
 9148SOL    HW228344   6.117   6.046   1.791
 9149SOL     OW28345   0.299   3.540   1.638
 9149SOL    HW128346   0.335   3.630   1.615
 9149SOL    HW228347   0.294   3.484   1.556
 9150SOL     OW28348   2.079   2.742   0.300
 9150SOL    HW128349   2.141   2.820   0.298
 9150SOL    HW228350   2.124   2.662   0.260
 9151SOL     OW28351   1.923   3.338   4.109
 9151SOL    HW128352   1.942   3.430   4.145
 9151SOL    HW228353   1.988   3.273   4.149
 9152SOL     OW28354   1.401   4.188   2.534
 9152SOL    HW128355   1.316   4.234   2.561
 9152SOL    HW228356   1.387   4.141   2.447
 9153SOL     OW28357   0.194   3.905   6.689
 9153SOL    HW128358   0.274   3.871   6.738
 9153SOL    HW228359   0.195   3.869   6.595
 9154SOL     OW28360   5.506   4.994   2.782
 9154SOL    HW128361   5.459   4.937   2.851
 9154SOL    HW228362   5.559   5.065   2.828
 9155SOL     OW28363   1.347   6.637   2.678
 9155SOL    HW128364   1.370   6.592   2.591
 9155SOL    HW228365   1.428   6.640   2.737
 9156SOL     OW28366   6.898   3.749   6.324
 9156SOL    HW128367   6.980   3.778   6.374
 9156SOL    HW228368   6.922   3.674   6.262
 9157SOL     OW28369   1.519   4.375   6.644
 9157SOL    HW128370   1.538   4.411   6.735
 9157SOL    HW228371   1.451   4.302   6.651
 9158SOL     OW28372   6.781   3.698   4.847
 9158SOL    HW128373   6.830   3.703   4.934
 9158SOL    HW228374   6.821   3.763   4.783
 9159SOL     OW28375   3.406   1.479   3.955
 9159SOL    HW128376   3.466   1.536   4.012
 9159SOL    HW228377   3.320   1.463   4.003
 9160SOL     OW28378   0.471   4.433   1.641
 9160SOL    HW128379   0.379   4.392   1.646
 9160SOL    HW228380   0.465   4.531   1.655
 9161SOL     OW28381   6.675   4.491   2.301
 9161SOL    HW128382   6.589   4.452   2.333
 9161SOL    HW228383   6.750   4.429   2.325
 9162SOL     OW28384   4.005   1.941   1.835
 9162SOL    HW128385   3.994   2.040   1.845
 9162SOL    HW228386   3.918   1.896   1.854
 9163SOL     OW28387   1.666   2.466   4.058
 9163SOL    HW128388   1.672   2.429   3.965
 9163SOL    HW228389   1.628   2.558   4.055
 9164SOL     OW28390   2.692   6.672   0.430
 9164SOL    HW128391   2.674   6.760   0.386
 9164SOL    HW228392   2.765   6.683   0.498
 9165SOL     OW28393   5.322   1.770   6.203
 9165SOL    HW128394   5.388   1.780   6.278
 9165SOL    HW228395   5.317   1.674   6.176
 9166SOL     OW28396   5.565   5.782   1.232
 9166SOL    HW128397   5.468   5.808   1.237
 9166SOL    HW228398   5.619   5.842   1.291
 9167SOL     OW28399   1.714   1.009   4.556
 9167SOL    HW128400   1.791   1.050   4.507
 9167SOL    HW228401   1.638   1.074   4.556
 9168SOL     OW28402   6.836   6.039   4.643
 9168SOL    HW128403   6.891   6.106   4.592
 9168SOL    HW228404   6.891   5.957   4.660
 9169SOL     OW28405   6.701   6.324   1.268
 9169SOL    HW128406   6.724   6.340   1.364
 9169SOL    HW228407   6.768   6.368   1.210
 9170SOL     OW28408   1.088   0.984   6.512
 9170SOL    HW128409   1.119   0.912   6.450
 9170SOL    HW228410   1.129   1.071   6.485
 9171SOL     OW28411   3.514   4.952   6.597
 9171SOL    HW128412   3.592   5.006   6.629
 9171SOL    HW228413   3.470   5.000   6.521
 9172SOL     OW28414   4.501   1.432   4.297
 9172SOL    HW128415   4.557   1.487   4.234
 9172SOL    HW228416   4.561   1.382   4.359
 9173SOL     OW28417   5.697   2.886   4.938
 9173SOL    HW128418   5.781   2.837   4.961
 9173SOL    HW228419   5.619   2.842   4.982
 9174SOL     OW28420   0.022   4.701   0.979
 9174SOL    HW128421   0.050   4.737   0.890
 9174SOL    HW228422   0.079   4.621   1.002
 9175SOL     OW28423   1.988   0.563   0.079
 9175SOL    HW128424   1.990   0.470   0.044
 9175SOL    HW228425   1.894   0.593   0.092
 9176SOL     OW28426   1.781   1.522   2.113
 9176SOL    HW128427   1.789   1.431   2.154
 9176SOL    HW228428   1.705   1.571   2.156
 9177SOL     OW28429   0.229   4.917   3.794
 9177SOL    HW128430   0.243   5.011   3.825
 9177SOL    HW228431   0.223   4.915   3.694
 9178SOL     OW28432   2.109   5.535   0.737
 9178SOL    HW128433   2.114   5.562   0.833
 9178SOL    HW228434   2.013   5.520   0.712
 9179SOL     OW28435   3.225   5.572   4.223
 9179SOL    HW128436   3.312   5.586   4.175
 9179SOL    HW228437   3.201   5.475   4.222
 9180SOL     OW28438   0.146   0.647   4.947
 9180SOL    HW128439   0.069   0.697   4.906
 9180SOL    HW228440   0.156   0.675   5.043
 9181SOL     OW28441   2.381   2.244   3.455
 9181SOL    HW128442   2.442   2.297   3.396
 9181SOL    HW228443   2.348   2.164   3.406
 9182SOL     OW28444   0.955   1.866   2.894
 9182SOL    HW128445   0.952   1.938   2.964
 9182SOL    HW228446   0.915   1.782   2.931
 9183SOL     OW28447   0.847   1.911   5.977
 9183SOL    HW128448   0.829   1.827   6.027
 9183SOL    HW228449   0.942   1.912   5.946
 9184SOL     OW28450   3.926   2.808   0.576
 9184SOL    HW128451   3.948   2.805   0.673
 9184SOL    HW228452   3.944   2.900   0.541
 9185SOL     OW28453   0.955   0.904   7.000
 9185SOL    HW128454   0.871   0.928   0.028
 9185SOL    HW228455   0.951   0.942   6.907
 9186SOL     OW28456   5.481   1.042   6.291
 9186SOL    HW128457   5.410   1.106   6.320
 9186SOL    HW228458   5.544   1.026   6.367
 9187SOL     OW28459   5.769   2.026   0.711
 9187SOL    HW128460   5.755   2.071   0.623
 9187SOL    HW228461   5.808   2.091   0.777
 9188SOL     OW28462   1.939   0.935   2.320
 9188SOL    HW128463   1.878   0.892   2.387
 9188SOL    HW228464   1.885   0.993   2.259
 9189SOL     OW28465   3.980   1.457   5.143
 9189SOL    HW128466   4.049   1.528   5.151
 9189SOL    HW228467   3.898   1.483   5.195
 9190SOL     OW28468   6.313   1.676   5.340
 9190SOL    HW128469   6.373   1.680   5.419
 9190SOL    HW228470   6.275   1.584   5.331
 9191SOL     OW28471   5.776   0.092   0.796
 9191SOL    HW128472   5.820   0.182   0.799
 9191SOL    HW228473   5.845   0.021   0.812
 9192SOL     OW28474   5.149   4.207   4.244
 9192SOL    HW128475   5.245   4.185   4.228
 9192SOL    HW228476   5.137   4.240   4.338
 9193SOL     OW28477   2.954   3.416   3.631
 9193SOL    HW128478   2.964   3.512   3.606
 9193SOL    HW228479   2.982   3.358   3.554
 9194SOL     OW28480   3.836   5.528   2.597
 9194SOL    HW128481   3.778   5.603   2.565
 9194SOL    HW228482   3.820   5.513   2.695
 9195SOL     OW28483   0.294   3.107   2.501
 9195SOL    HW128484   0.388   3.105   2.466
 9195SOL    HW228485   0.266   3.201   2.516
 9196SOL     OW28486   4.537   6.833   3.628
 9196SOL    HW128487   4.582   6.775   3.560
 9196SOL    HW228488   4.559   6.929   3.610
 9197SOL     OW28489   3.603   2.744   5.195
 9197SOL    HW128490   3.563   2.739   5.286
 9197SOL    HW228491   3.698   2.711   5.198
 9198SOL     OW28492   5.257   2.129   5.318
 9198SOL    HW128493   5.272   2.178   5.404
 9198SOL    HW228494   5.159   2.123   5.300
 9199SOL     OW28495   1.500   3.768   6.377
 9199SOL    HW128496   1.518   3.866   6.370
 9199SOL    HW228497   1.467   3.734   6.289
 9200SOL     OW28498   5.652   6.296   0.731
 9200SOL    HW128499   5.730   6.281   0.670
 9200SOL    HW228500   5.612   6.386   0.711
 9201SOL     OW28501   1.579   4.286   3.123
 9201SOL    HW128502   1.593   4.188   3.132
 9201SOL    HW228503   1.666   4.330   3.103
 9202SOL     OW28504   3.292   5.789   3.653
 9202SOL    HW128505   3.194   5.775   3.668
 9202SOL    HW228506   3.338   5.798   3.742
 9203SOL     OW28507   5.290   0.859   6.035
 9203SOL    HW128508   5.279   0.843   6.133
 9203SOL    HW228509   5.328   0.951   6.021
 9204SOL     OW28510   5.008   4.174   1.842
 9204SOL    HW128511   5.021   4.074   1.846
 9204SOL    HW228512   4.922   4.198   1.887
 9205SOL     OW28513   4.876   2.986   2.304
 9205SOL    HW128514   4.929   2.907   2.276
 9205SOL    HW228515   4.793   2.993   2.248
 9206SOL     OW28516   0.457   6.516   3.055
 9206SOL    HW128517   0.438   6.599   3.001
 9206SOL    HW228518   0.374   6.486   3.101
 9207SOL     OW28519   3.862   6.530   6.999
 9207SOL    HW128520   3.959   6.556   6.992
 9207SOL    HW228521   3.815   6.557   6.915
 9208SOL     OW28522   4.973   4.583   2.095
 9208SOL    HW128523   4.986   4.556   2.191
 9208SOL    HW228524   5.011   4.512   2.036
 9209SOL     OW28525   3.676   0.435   2.883
 9209SOL    HW128526   3.630   0.404   2.965
 9209SOL    HW228527   3.755   0.492   2.908
 9210SOL     OW28528   1.313   6.732   0.579
 9210SOL    HW128529   1.363   6.818   0.573
 9210SOL    HW228530   1.233   6.736   0.520
 9211SOL     OW28531   4.798   1.341   5.693
 9211SOL    HW128532   4.892   1.363   5.719
 9211SOL    HW228533   4.797   1.251   5.648
 9212SOL     OW28534   6.024   3.718   4.692
 9212SOL    HW128535   6.092   3.653   4.726
 9212SOL    HW228536   5.972   3.677   4.617
 9213SOL     OW28537   6.545   6.906   2.536
 9213SOL    HW128538   6.455   6.937   2.508
 9213SOL    HW228539   6.572   6.953   2.620
 9214SOL     OW28540   2.223   2.510   5.483
 9214SOL    HW128541   2.147   2.542   5.426
 9214SOL    HW228542   2.248   2.581   5.549
 9215SOL     OW28543   0.420   3.238   2.832
 9215SOL    HW128544   0.325   3.239   2.801
 9215SOL    HW228545   0.425   3.195   2.922
 9216SOL     OW28546   2.952   5.249   3.894
 9216SOL    HW128547   2.871   5.303   3.917
 9216SOL    HW228548   3.030   5.311   3.881
 9217SOL     OW28549   4.521   0.569   6.380
 9217SOL    HW128550   4.464   0.546   6.301
 9217SOL    HW228551   4.581   0.645   6.356
 9218SOL     OW28552   5.642   5.408   6.081
 9218SOL    HW128553   5.595   5.492   6.057
 9218SOL    HW228554   5.614   5.379   6.172
 9219SOL     OW28555   3.385   2.962   5.709
 9219SOL    HW128556   3.397   2.923   5.800
 9219SOL    HW228557   3.474   2.973   5.665
 9220SOL     OW28558   0.390   6.682   3.614
 9220SOL    HW128559   0.385   6.583   3.600
 9220SOL    HW228560   0.297   6.719   3.621
 9221SOL     OW28561   2.096   1.488   0.092
 9221SOL    HW128562   1.997   1.499   0.084
 9221SOL    HW228563   2.140   1.577   0.081
 9222SOL     OW28564   1.960   2.971   4.186
 9222SOL    HW128565   2.001   2.886   4.219
 9222SOL    HW228566   2.030   3.024   4.138
 9223SOL     OW28567   0.583   2.919   4.968
 9223SOL    HW128568   0.508   2.882   4.912
 9223SOL    HW228569   0.552   2.926   5.063
 9224SOL     OW28570   2.495   4.708   3.573
 9224SOL    HW128571   2.594   4.720   3.566
 9224SOL    HW228572   2.452   4.728   3.485
 9225SOL     OW28573   5.643   5.757   6.277
 9225SOL    HW128574   5.566   5.698   6.249
 9225SOL    HW228575   5.719   5.744   6.214
 9226SOL     OW28576   1.141   0.982   0.973
 9226SOL    HW128577   1.238   0.983   0.997
 9226SOL    HW228578   1.119   0.896   0.926
 9227SOL     OW28579   2.442   4.303   0.293
 9227SOL    HW128580   2.400   4.261   0.213
 9227SOL    HW228581   2.511   4.242   0.331
 9228SOL     OW28582   3.407   3.141   5.369
 9228SOL    HW128583   3.413   3.131   5.270
 9228SOL    HW228584   3.408   3.239   5.393
 9229SOL     OW28585   0.003   4.625   0.273
 9229SOL    HW128586   6.974   4.552   0.226
 9229SOL    HW228587   0.025   4.698   0.208
 9230SOL     OW28588   4.683   1.446   4.988
 9230SOL    HW128589   4.705   1.543   4.996
 9230SOL    HW228590   4.611   1.423   5.054
 9231SOL     OW28591   6.573   5.853   3.262
 9231SOL    HW128592   6.598   5.757   3.254
 9231SOL    HW228593   6.646   5.903   3.307
 9232SOL     OW28594   1.004   4.844   2.538
 9232SOL    HW128595   0.926   4.872   2.483
 9232SOL    HW228596   1.089   4.860   2.487
 9233SOL     OW28597   0.494   6.720   6.847
 9233SOL    HW128598   0.461   6.734   6.753
 9233SOL    HW228599   0.566   6.651   6.847
 9234SOL     OW28600   2.324   4.100   0.153
 9234SOL    HW128601   2.335   4.044   0.236
 9234SOL    HW228602   2.228   4.105   0.129
 9235SOL     OW28603   1.647   2.267   2.874
 9235SOL    HW128604   1.562   2.215   2.873
 9235SOL    HW228605   1.711   2.224   2.938
 9236SOL     OW28606   2.112   3.297   6.734
 9236SOL    HW128607   2.012   3.294   6.745
 9236SOL    HW228608   2.134   3.321   6.640
 9237SOL     OW28609   5.054   5.279   3.219
 9237SOL    HW128610   5.064   5.255   3.123
 9237SOL    HW228611   5.109   5.216   3.274
 9238SOL     OW28612   1.127   2.747   4.495
 9238SOL    HW128613   1.115   2.680   4.568
 9238SOL    HW228614   1.046   2.805   4.491
 9239SOL     OW28615   1.350   4.695   6.778
 9239SOL    HW128616   1.438   4.660   6.810
 9239SOL    HW228617   1.285   4.695   6.854
 9240SOL     OW28618   4.226   1.805   3.280
 9240SOL    HW128619   4.325   1.796   3.285
 9240SOL    HW228620   4.201   1.848   3.193
 9241SOL     OW28621   5.410   6.831   0.953
 9241SOL    HW128622   5.395   6.811   0.856
 9241SOL    HW228623   5.474   6.907   0.961
 9242SOL     OW28624   1.543   2.615   0.379
 9242SOL    HW128625   1.559   2.593   0.475
 9242SOL    HW228626   1.606   2.562   0.322
 9243SOL     OW28627   1.293   0.783   0.159
 9243SOL    HW128628   1.266   0.843   0.083
 9243SOL    HW228629   1.265   0.824   0.246
 9244SOL     OW28630   3.384   6.809   5.875
 9244SOL    HW128631   3.321   6.761   5.814
 9244SOL    HW228632   3.457   6.850   5.820
 9245SOL     OW28633   1.213   4.813   3.618
 9245SOL    HW128634   1.293   4.775   3.665
 9245SOL    HW228635   1.211   4.779   3.524
 9246SOL     OW28636   5.572   6.963   6.565
 9246SOL    HW128637   5.528   6.894   6.622
 9246SOL    HW228638   5.504   7.006   6.505
 9247SOL     OW28639   3.896   5.937   3.288
 9247SOL    HW128640   3.853   6.007   3.347
 9247SOL    HW228641   3.854   5.940   3.198
 9248SOL     OW28642   2.515   0.260   6.457
 9248SOL    HW128643   2.501   0.317   6.376
 9248SOL    HW228644   2.427   0.244   6.502
 9249SOL     OW28645   3.256   6.269   0.959
 9249SOL    HW128646   3.291   6.362   0.965
 9249SOL    HW228647   3.255   6.240   0.864
 9250SOL     OW28648   0.259   2.641   4.354
 9250SOL    HW128649   0.335   2.700   4.381
 9250SOL    HW228650   0.200   2.689   4.290
 9251SOL     OW28651   3.228   2.836   0.624
 9251SOL    HW128652   3.193   2.744   0.644
 9251SOL    HW228653   3.171   2.904   0.671
 9252SOL     OW28654   5.370   1.984   5.096
 9252SOL    HW128655   5.283   1.978   5.047
 9252SOL    HW228656   5.362   2.052   5.169
 9253SOL     OW28657   0.865   5.858   5.371
 9253SOL    HW128658   0.902   5.833   5.281
 9253SOL    HW228659   0.768   5.882   5.362
 9254SOL     OW28660   0.013   4.568   2.873
 9254SOL    HW128661   0.070   4.644   2.841
 9254SOL    HW228662   6.949   4.566   2.821
 9255SOL     OW28663   6.685   4.364   0.552
 9255SOL    HW128664   6.650   4.271   0.563
 9255SOL    HW228665   6.719   4.398   0.639
 9256SOL     OW28666   2.869   6.464   0.967
 9256SOL    HW128667   2.785   6.482   0.916
 9256SOL    HW228668   2.948   6.476   0.908
 9257SOL     OW28669   6.578   5.925   4.252
 9257SOL    HW128670   6.552   5.938   4.348
 9257SOL    HW228671   6.508   5.870   4.206
 9258SOL     OW28672   3.100   4.930   1.076
 9258SOL    HW128673   3.052   5.017   1.090
 9258SOL    HW228674   3.033   4.857   1.062
 9259SOL     OW28675   1.487   1.985   7.011
 9259SOL    HW128676   1.552   1.946   6.947
 9259SOL    HW228677   1.400   2.003   6.964
 9260SOL     OW28678   5.449   3.785   4.948
 9260SOL    HW128679   5.488   3.852   4.885
 9260SOL    HW228680   5.519   3.754   5.011
 9261SOL     OW28681   3.401   2.205   1.787
 9261SOL    HW128682   3.343   2.278   1.750
 9261SOL    HW228683   3.485   2.245   1.823
 9262SOL     OW28684   6.647   6.261   5.154
 9262SOL    HW128685   6.607   6.172   5.133
 9262SOL    HW228686   6.718   6.250   5.223
 9263SOL     OW28687   2.058   4.644   3.740
 9263SOL    HW128688   2.038   4.564   3.682
 9263SOL    HW228689   2.013   4.724   3.701
 9264SOL     OW28690   5.302   4.204   6.989
 9264SOL    HW128691   5.288   4.173   6.895
 9264SOL    HW228692   5.307   4.304   6.990
 9265SOL     OW28693   5.896   1.527   1.018
 9265SOL    HW128694   5.799   1.547   1.026
 9265SOL    HW228695   5.918   1.502   0.923
 9266SOL     OW28696   1.443   4.657   1.410
 9266SOL    HW128697   1.442   4.567   1.454
 9266SOL    HW228698   1.351   4.681   1.381
 9267SOL     OW28699   6.977   0.514   4.051
 9267SOL    HW128700   6.961   0.606   4.016
 9267SOL    HW228701   6.897   0.484   4.103
 9268SOL     OW28702   0.548   0.087   1.584
 9268SOL    HW128703   0.607   0.078   1.503
 9268SOL    HW228704   0.556   0.004   1.640
 9269SOL     OW28705   3.424   1.337   0.012
 9269SOL    HW128706   3.486   1.315   0.087
 9269SOL    HW228707   3.344   1.386   0.048
 9270SOL     OW28708   1.914   0.449   6.023
 9270SOL    HW128709   1.997   0.393   6.018
 9270SOL    HW228710   1.874   0.442   6.114
 9271SOL     OW28711   1.232   5.727   4.693
 9271SOL    HW128712   1.231   5.817   4.737
 9271SOL    HW228713   1.300   5.727   4.620
 9272SOL     OW28714   6.548   6.198   6.275
 9272SOL    HW128715   6.605   6.211   6.356
 9272SOL    HW228716   6.593   6.238   6.195
 9273SOL     OW28717   4.880   4.511   3.497
 9273SOL    HW128718   4.951   4.440   3.497
 9273SOL    HW228719   4.848   4.526   3.403
 9274SOL     OW28720   0.139   2.846   0.786
 9274SOL    HW128721   0.162   2.892   0.700
 9274SOL    HW228722   0.146   2.747   0.774
 9275SOL     OW28723   6.765   0.844   0.600
 9275SOL    HW128724   6.730   0.835   0.507
 9275SOL    HW228725   6.859   0.879   0.597
 9276SOL     OW28726   2.954   5.552   0.114
 9276SOL    HW128727   2.943   5.483   0.185
 9276SOL    HW228728   3.048   5.586   0.115
 9277SOL     OW28729   5.383   5.516   1.497
 9277SOL    HW128730   5.473   5.510   1.454
 9277SOL    HW228731   5.358   5.426   1.534
 9278SOL     OW28732   1.038   0.196   5.488
 9278SOL    HW128733   0.997   0.286   5.474
 9278SOL    HW228734   1.100   0.175   5.413
 9279SOL     OW28735   3.947   6.063   1.437
 9279SOL    HW128736   3.912   6.089   1.347
 9279SOL    HW228737   3.884   6.098   1.508
 9280SOL     OW28738   1.427   6.519   2.427
 9280SOL    HW128739   1.497   6.590   2.427
 9280SOL    HW228740   1.367   6.530   2.347
 9281SOL     OW28741   2.414   5.283   6.949
 9281SOL    HW128742   2.478   5.351   6.986
 9281SOL    HW228743   2.457   5.236   6.872
 9282SOL     OW28744   3.275   0.126   5.284
 9282SOL    HW128745   3.349   0.150   5.221
 9282SOL    HW228746   3.278   0.186   5.364
 9283SOL     OW28747   4.289   6.569   1.007
 9283SOL    HW128748   4.321   6.524   1.091
 9283SOL    HW228749   4.364   6.621   0.966
 9284SOL     OW28750   4.474   3.900   5.287
 9284SOL    HW128751   4.514   3.816   5.324
 9284SOL    HW228752   4.388   3.878   5.240
 9285SOL     OW28753   0.593   5.277   2.638
 9285SOL    HW128754   0.494   5.276   2.628
 9285SOL    HW228755   0.635   5.266   2.548
 9286SOL     OW28756   4.757   6.603   1.459
 9286SOL    HW128757   4.765   6.597   1.558
 9286SOL    HW228758   4.849   6.603   1.418
 9287SOL     OW28759   3.879   3.817   5.453
 9287SOL    HW128760   3.977   3.837   5.450
 9287SOL    HW228761   3.866   3.721   5.477
 9288SOL     OW28762   3.604   1.830   2.629
 9288SOL    HW128763   3.689   1.813   2.578
 9288SOL    HW228764   3.611   1.920   2.673
 9289SOL     OW28765   5.042   6.395   0.529
 9289SOL    HW128766   5.064   6.448   0.447
 9289SOL    HW228767   5.118   6.335   0.552
 9290SOL     OW28768   4.850   1.333   4.228
 9290SOL    HW128769   4.799   1.355   4.311
 9290SOL    HW228770   4.811   1.252   4.184
 9291SOL     OW28771   0.947   4.276   6.270
 9291SOL    HW128772   0.995   4.321   6.345
 9291SOL    HW228773   0.920   4.183   6.299
 9292SOL     OW28774   0.645   1.555   6.751
 9292SOL    HW128775   0.674   1.478   6.808
 9292SOL    HW228776   0.700   1.635   6.774
 9293SOL     OW28777   4.950   2.736   4.286
 9293SOL    HW128778   4.929   2.639   4.299
 9293SOL    HW228779   5.016   2.766   4.355
 9294SOL     OW28780   4.777   0.091   6.617
 9294SOL    HW128781   4.687   0.133   6.601
 9294SOL    HW228782   4.848   0.148   6.578
 9295SOL     OW28783   0.552   0.789   5.050
 9295SOL    HW128784   0.532   0.851   4.974
 9295SOL    HW228785   0.510   0.699   5.031
 9296SOL     OW28786   2.280   4.628   6.419
 9296SOL    HW128787   2.328   4.711   6.391
 9296SOL    HW228788   2.190   4.624   6.375
 9297SOL     OW28789   6.423   6.178   2.188
 9297SOL    HW128790   6.360   6.109   2.222
 9297SOL    HW228791   6.412   6.187   2.089
 9298SOL     OW28792   1.420   4.933   6.654
 9298SOL    HW128793   1.417   4.851   6.711
 9298SOL    HW228794   1.508   4.936   6.605
 9299SOL     OW28795   2.432   2.467   4.562
 9299SOL    HW128796   2.488   2.401   4.512
 9299SOL    HW228797   2.424   2.437   4.658
 9300SOL     OW28798   1.868   5.673   4.660
 9300SOL    HW128799   1.814   5.621   4.726
 9300SOL    HW228800   1.809   5.741   4.615
 9301SOL     OW28801   0.177   4.566   4.834
 9301SOL    HW128802   0.232   4.500   4.783
 9301SOL    HW228803   0.092   4.522   4.864
 9302SOL     OW28804   2.179   3.515   5.314
 9302SOL    HW128805   2.269   3.474   5.299
 9302SOL    HW228806   2.188   3.614   5.317
 9303SOL     OW28807   2.600   4.631   0.029
 9303SOL    HW128808   2.634   4.542   0.061
 9303SOL    HW228809   2.554   4.619   6.962
 9304SOL     OW28810   4.810   4.886   6.769
 9304SOL    HW128811   4.816   4.982   6.742
 9304SOL    HW228812   4.728   4.872   6.825
 9305SOL     OW28813   2.186   1.738   1.267
 9305SOL    HW128814   2.265   1.771   1.318
 9305SOL    HW228815   2.104   1.745   1.324
 9306SOL     OW28816   6.851   6.219   5.328
 9306SOL    HW128817   6.935   6.254   5.287
 9306SOL    HW228818   6.828   6.273   5.409
 9307SOL     OW28819   1.729   3.404   1.537
 9307SOL    HW128820   1.806   3.433   1.594
 9307SOL    HW228821   1.753   3.319   1.490
 9308SOL     OW28822   1.991   3.442   1.979
 9308SOL    HW128823   1.924   3.510   2.010
 9308SOL    HW228824   2.081   3.484   1.974
 9309SOL     OW28825   4.766   5.097   6.516
 9309SOL    HW128826   4.709   5.138   6.444
 9309SOL    HW228827   4.862   5.096   6.485
 9310SOL     OW28828   5.960   6.533   6.998
 9310SOL    HW128829   5.971   6.567   0.071
 9310SOL    HW228830   5.871   6.490   6.988
 9311SOL     OW28831   4.440   3.674   1.330
 9311SOL    HW128832   4.495   3.645   1.252
 9311SOL    HW228833   4.371   3.604   1.350
 9312SOL     OW28834   0.838   2.951   3.352
 9312SOL    HW128835   0.814   2.949   3.255
 9312SOL    HW228836   0.799   3.032   3.395
 9313SOL     OW28837   0.502   0.954   2.100
 9313SOL    HW128838   0.505   0.855   2.087
 9313SOL    HW228839   0.532   0.999   2.016
 9314SOL     OW28840   5.210   4.007   0.594
 9314SOL    HW128841   5.266   3.932   0.629
 9314SOL    HW228842   5.262   4.058   0.525
 9315SOL     OW28843   4.846   6.839   6.148
 9315SOL    HW128844   4.924   6.902   6.151
 9315SOL    HW228845   4.765   6.888   6.114
 9316SOL     OW28846   5.068   0.705   5.771
 9316SOL    HW128847   4.969   0.705   5.785
 9316SOL    HW228848   5.093   0.784   5.714
 9317SOL     OW28849   3.811   5.930   3.020
 9317SOL    HW128850   3.821   5.830   3.029
 9317SOL    HW228851   3.805   5.955   2.924
 9318SOL     OW28852   4.056   6.674   1.552
 9318SOL    HW128853   4.147   6.714   1.563
 9318SOL    HW228854   4.064   6.575   1.537
 9319SOL     OW28855   3.069   2.734   6.602
 9319SOL    HW128856   3.071   2.634   6.615
 9319SOL    HW228857   3.135   2.776   6.663
 9320SOL     OW28858   6.203   6.381   6.972
 9320SOL    HW128859   6.139   6.458   6.982
 9320SOL    HW228860   6.213   6.359   6.875
 9321SOL     OW28861   0.451   3.171   5.061
 9321SOL    HW128862   0.380   3.195   5.127
 9321SOL    HW228863   0.538   3.160   5.108
 9322SOL     OW28864   5.992   3.191   6.730
 9322SOL    HW128865   5.958   3.284   6.744
 9322SOL    HW228866   5.960   3.132   6.804
 9323SOL     OW28867   0.413   1.871   5.851
 9323SOL    HW128868   0.408   1.771   5.856
 9323SOL    HW228869   0.464   1.899   5.770
 9324SOL     OW28870   0.830   4.516   1.963
 9324SOL    HW128871   0.739   4.509   2.004
 9324SOL    HW228872   0.827   4.486   1.868
 9325SOL     OW28873   0.989   4.377   3.287
 9325SOL    HW128874   0.897   4.352   3.256
 9325SOL    HW228875   1.018   4.461   3.240
 9326SOL     OW28876   4.651   4.276   1.709
 9326SOL    HW128877   4.696   4.348   1.762
 9326SOL    HW228878   4.571   4.242   1.760
 9327SOL     OW28879   3.839   0.886   3.475
 9327SOL    HW128880   3.899   0.929   3.407
 9327SOL    HW228881   3.771   0.953   3.507
 9328SOL     OW28882   2.473   0.202   4.003
 9328SOL    HW128883   2.375   0.188   3.989
 9328SOL    HW228884   2.497   0.178   4.097
 9329SOL     OW28885   0.481   5.440   6.468
 9329SOL    HW128886   0.495   5.359   6.411
 9329SOL    HW228887   0.389   5.476   6.454
 9330SOL     OW28888   6.446   6.135   0.030
 9330SOL    HW128889   6.486   6.135   6.959
 9330SOL    HW228890   6.451   6.043   0.069
 9331SOL     OW28891   2.168   3.344   3.665
 9331SOL    HW128892   2.181   3.394   3.579
 9331SOL    HW228893   2.156   3.408   3.740
 9332SOL     OW28894   4.953   5.924   0.628
 9332SOL    HW128895   4.889   5.993   0.662
 9332SOL    HW228896   5.022   5.905   0.698
 9333SOL     OW28897   4.218   3.772   0.841
 9333SOL    HW128898   4.273   3.780   0.758
 9333SOL    HW228899   4.206   3.676   0.864
 9334SOL     OW28900   6.027   5.965   5.895
 9334SOL    HW128901   6.101   5.899   5.905
 9334SOL    HW228902   5.981   5.978   5.983
 9335SOL     OW28903   0.998   3.703   2.227
 9335SOL    HW128904   1.055   3.757   2.290
 9335SOL    HW228905   0.974   3.759   2.148
 9336SOL     OW28906   5.631   6.644   5.477
 9336SOL    HW128907   5.670   6.574   5.537
 9336SOL    HW228908   5.704   6.699   5.437
 9337SOL     OW28909   2.488   0.322   6.140
 9337SOL    HW128910   2.419   0.386   6.174
 9337SOL    HW228911   2.451   0.269   6.064
 9338SOL     OW28912   5.561   6.560   0.073
 9338SOL    HW128913   5.581   6.603   0.161
 9338SOL    HW228914   5.462   6.562   0.057
 9339SOL     OW28915   5.956   3.927   5.628
 9339SOL    HW128916   6.021   3.964   5.562
 9339SOL    HW228917   5.890   3.998   5.653
 9340SOL     OW28918   3.661   5.030   0.730
 9340SOL    HW128919   3.602   5.080   0.667
 9340SOL    HW228920   3.708   5.095   0.789
 9341SOL     OW28921   5.288   4.263   6.423
 9341SOL    HW128922   5.221   4.272   6.496
 9341SOL    HW228923   5.294   4.349   6.372
 9342SOL     OW28924   3.368   0.440   3.981
 9342SOL    HW128925   3.353   0.535   3.955
 9342SOL    HW228926   3.398   0.436   4.076
 9343SOL     OW28927   4.490   4.143   1.343
 9343SOL    HW128928   4.564   4.094   1.388
 9343SOL    HW228929   4.470   4.227   1.394
 9344SOL     OW28930   6.050   6.687   5.248
 9344SOL    HW128931   6.042   6.760   5.181
 9344SOL    HW228932   6.010   6.717   5.335
 9345SOL     OW28933   1.097   5.406   0.260
 9345SOL    HW128934   1.156   5.371   0.333
 9345SOL    HW228935   1.143   5.395   0.172
 9346SOL     OW28936   5.869   6.144   0.930
 9346SOL    HW128937   5.961   6.105   0.928
 9346SOL    HW228938   5.802   6.073   0.911
 9347SOL     OW28939   3.499   5.255   0.698
 9347SOL    HW128940   3.538   5.230   0.787
 9347SOL    HW228941   3.419   5.313   0.712
 9348SOL     OW28942   2.600   5.708   1.625
 9348SOL    HW128943   2.681   5.737   1.575
 9348SOL    HW228944   2.537   5.785   1.635
 9349SOL     OW28945   6.739   5.874   1.866
 9349SOL    HW128946   6.713   5.908   1.957
 9349SOL    HW228947   6.830   5.832   1.871
 9350SOL     OW28948   6.610   0.406   5.875
 9350SOL    HW128949   6.698   0.401   5.923
 9350SOL    HW228950   6.574   0.499   5.881
 9351SOL     OW28951   3.254   2.811   6.121
 9351SOL    HW128952   3.217   2.843   6.208
 9351SOL    HW228953   3.187   2.753   6.075
 9352SOL     OW28954   3.200   2.475   5.895
 9352SOL    HW128955   3.166   2.568   5.907
 9352SOL    HW228956   3.267   2.473   5.820
 9353SOL     OW28957   0.649   3.678   1.850
 9353SOL    HW128958   0.708   3.699   1.927
 9353SOL    HW228959   0.604   3.589   1.864
 9354SOL     OW28960   5.041   1.979   1.647
 9354SOL    HW128961   4.984   1.921   1.588
 9354SOL    HW228962   5.028   2.075   1.621
 9355SOL     OW28963   6.221   0.546   2.888
 9355SOL    HW128964   6.181   0.494   2.813
 9355SOL    HW228965   6.149   0.593   2.939
 9356SOL     OW28966   4.340   4.598   2.290
 9356SOL    HW128967   4.287   4.623   2.209
 9356SOL    HW228968   4.402   4.523   2.267
 9357SOL     OW28969   3.890   3.069   0.911
 9357SOL    HW128970   3.971   3.011   0.927
 9357SOL    HW228971   3.829   3.063   0.990
 9358SOL     OW28972   5.917   4.755   2.198
 9358SOL    HW128973   5.964   4.815   2.134
 9358SOL    HW228974   5.875   4.809   2.271
 9359SOL     OW28975   6.354   3.951   6.213
 9359SOL    HW128976   6.332   4.037   6.168
 9359SOL    HW228977   6.290   3.936   6.289
 9360SOL     OW28978   1.983   0.796   6.757
 9360SOL    HW128979   1.893   0.755   6.765
 9360SOL    HW228980   1.987   0.855   6.676
 9361SOL     OW28981   2.838   6.946   2.273
 9361SOL    HW128982   2.745   6.911   2.278
 9361SOL    HW228983   2.872   6.938   2.179
 9362SOL     OW28984   2.354   2.036   3.250
 9362SOL    HW128985   2.348   2.059   3.153
 9362SOL    HW228986   2.270   1.991   3.279
 9363SOL     OW28987   3.024   6.092   1.968
 9363SOL    HW128988   3.012   6.096   2.067
 9363SOL    HW228989   2.941   6.055   1.926
 9364SOL     OW28990   4.841   4.847   0.134
 9364SOL    HW128991   4.926   4.816   0.091
 9364SOL    HW228992   4.844   4.946   0.145
 9365SOL     OW28993   2.409   1.489   5.022
 9365SOL    HW128994   2.427   1.421   4.951
 9365SOL    HW228995   2.433   1.580   4.989
 9366SOL     OW28996   2.874   1.695   0.422
 9366SOL    HW128997   2.971   1.708   0.401
 9366SOL    HW228998   2.820   1.761   0.369
 9367SOL     OW28999   6.877   5.647   3.408
 9367SOL    HW129000   6.904   5.552   3.427
 9367SOL    HW229001   6.834   5.686   3.489
 9368SOL     OW29002   3.226   2.760   1.196
 9368SOL    HW129003   3.276   2.840   1.230
 9368SOL    HW229004   3.182   2.714   1.273
 9369SOL     OW29005   6.924   2.377   4.532
 9369SOL    HW129006   7.007   2.430   4.547
 9369SOL    HW229007   6.843   2.433   4.553
 9370SOL     OW29008   6.143   1.520   3.277
 9370SOL    HW129009   6.207   1.544   3.350
 9370SOL    HW229010   6.051   1.551   3.302
 9371SOL     OW29011   0.485   6.558   0.679
 9371SOL    HW129012   0.390   6.577   0.656
 9371SOL    HW229013   0.534   6.644   0.695
 9372SOL     OW29014   6.042   6.913   5.092
 9372SOL    HW129015   6.022   6.986   5.156
 9372SOL    HW229016   6.016   6.941   5.000
 9373SOL     OW29017   4.051   1.956   3.462
 9373SOL    HW129018   3.996   2.001   3.392
 9373SOL    HW229019   4.115   1.893   3.419
 9374SOL     OW29020   5.350   3.772   0.670
 9374SOL    HW129021   5.339   3.737   0.577
 9374SOL    HW229022   5.289   3.724   0.732
 9375SOL     OW29023   0.793   1.288   3.335
 9375SOL    HW129024   0.794   1.209   3.396
 9375SOL    HW229025   0.871   1.347   3.355
 9376SOL     OW29026   1.904   3.824   1.838
 9376SOL    HW129027   1.906   3.780   1.927
 9376SOL    HW229028   1.987   3.800   1.787
 9377SOL     OW29029   5.873   5.703   4.565
 9377SOL    HW129030   5.943   5.715   4.494
 9377SOL    HW229031   5.910   5.647   4.639
 9378SOL     OW29032   2.773   0.138   0.474
 9378SOL    HW129033   2.716   0.118   0.394
 9378SOL    HW229034   2.757   0.233   0.502
 9379SOL     OW29035   5.036   4.656   4.345
 9379SOL    HW129036   5.056   4.732   4.407
 9379SOL    HW229037   5.069   4.571   4.386
 9380SOL     OW29038   5.626   6.825   5.706
 9380SOL    HW129039   5.597   6.779   5.622
 9380SOL    HW229040   5.666   6.758   5.769
 9381SOL     OW29041   2.440   1.598   5.867
 9381SOL    HW129042   2.486   1.625   5.782
 9381SOL    HW229043   2.479   1.649   5.944
 9382SOL     OW29044   5.285   2.316   2.949
 9382SOL    HW129045   5.223   2.288   3.023
 9382SOL    HW229046   5.263   2.264   2.867
 9383SOL     OW29047   4.013   5.873   4.232
 9383SOL    HW129048   4.060   5.787   4.211
 9383SOL    HW229049   3.925   5.854   4.274
 9384SOL     OW29050   4.840   5.711   1.439
 9384SOL    HW129051   4.935   5.729   1.465
 9384SOL    HW229052   4.818   5.615   1.457
 9385SOL     OW29053   3.270   1.022   3.241
 9385SOL    HW129054   3.301   1.097   3.182
 9385SOL    HW229055   3.251   0.941   3.185
 9386SOL     OW29056   2.924   0.127   5.435
 9386SOL    HW129057   2.988   0.061   5.396
 9386SOL    HW229058   2.919   0.207   5.375
 9387SOL     OW29059   3.697   6.596   6.774
 9387SOL    HW129060   3.705   6.571   6.677
 9387SOL    HW229061   3.626   6.540   6.817
 9388SOL     OW29062   6.473   0.565   3.076
 9388SOL    HW129063   6.419   0.533   2.998
 9388SOL    HW229064   6.414   0.611   3.142
 9389SOL     OW29065   2.595   0.814   5.746
 9389SOL    HW129066   2.671   0.815   5.681
 9389SOL    HW229067   2.528   0.884   5.721
 9390SOL     OW29068   2.945   5.153   2.583
 9390SOL    HW129069   2.935   5.250   2.603
 9390SOL    HW229070   3.010   5.141   2.508
 9391SOL     OW29071   1.031   1.227   6.170
 9391SOL    HW129072   0.959   1.159   6.157
 9391SOL    HW229073   1.112   1.200   6.117
 9392SOL     OW29074   1.557   6.018   4.157
 9392SOL    HW129075   1.537   6.089   4.089
 9392SOL    HW229076   1.617   5.949   4.116
 9393SOL     OW29077   3.637   2.157   5.452
 9393SOL    HW129078   3.563   2.090   5.456
 9393SOL    HW229079   3.691   2.140   5.369
 9394SOL     OW29080   6.249   2.728   2.503
 9394SOL    HW129081   6.300   2.656   2.457
 9394SOL    HW229082   6.211   2.791   2.434
 9395SOL     OW29083   2.415   3.416   0.545
 9395SOL    HW129084   2.392   3.361   0.626
 9395SOL    HW229085   2.440   3.356   0.469
 9396SOL     OW29086   6.412   0.055   6.193
 9396SOL    HW129087   6.462   0.075   6.109
 9396SOL    HW229088   6.317   0.085   6.184
 9397SOL     OW29089   2.608   0.567   0.916
 9397SOL    HW129090   2.624   0.593   0.820
 9397SOL    HW229091   2.530   0.619   0.951
 9398SOL     OW29092   2.753   1.409   6.063
 9398SOL    HW129093   2.768   1.325   6.116
 9398SOL    HW229094   2.716   1.385   5.973
 9399SOL     OW29095   6.937   0.588   5.677
 9399SOL    HW129096   6.892   0.596   5.588
 9399SOL    HW229097   7.009   0.518   5.672
 9400SOL     OW29098   5.980   2.988   2.486
 9400SOL    HW129099   6.020   2.933   2.412
 9400SOL    HW229100   5.881   2.994   2.474
 9401SOL     OW29101   3.206   6.926   2.926
 9401SOL    HW129102   3.294   6.878   2.933
 9401SOL    HW229103   3.172   6.920   2.832
 9402SOL     OW29104   2.171   5.015   6.401
 9402SOL    HW129105   2.153   5.085   6.470
 9402SOL    HW229106   2.086   4.993   6.352
 9403SOL     OW29107   5.312   1.493   4.177
 9403SOL    HW129108   5.306   1.475   4.276
 9403SOL    HW229109   5.325   1.591   4.163
 9404SOL     OW29110   1.151   4.350   6.827
 9404SOL    HW129111   1.094   4.293   6.887
 9404SOL    HW229112   1.209   4.291   6.771
 9405SOL     OW29113   6.392   0.079   1.122
 9405SOL    HW129114   6.452   0.023   1.065
 9405SOL    HW229115   6.366   0.028   1.204
 9406SOL     OW29116   0.167   1.621   4.982
 9406SOL    HW129117   0.147   1.598   5.077
 9406SOL    HW229118   0.228   1.700   4.979
 9407SOL     OW29119   3.255   6.012   3.008
 9407SOL    HW129120   3.305   6.098   3.005
 9407SOL    HW229121   3.174   6.018   2.949
 9408SOL     OW29122   3.961   1.568   6.204
 9408SOL    HW129123   3.923   1.659   6.220
 9408SOL    HW229124   3.971   1.520   6.291
 9409SOL     OW29125   5.896   4.115   3.835
 9409SOL    HW129126   5.921   4.209   3.811
 9409SOL    HW229127   5.825   4.116   3.905
 9410SOL     OW29128   4.378   6.127   2.635
 9410SOL    HW129129   4.446   6.059   2.606
 9410SOL    HW229130   4.288   6.083   2.642
 9411SOL     OW29131   4.356   4.985   0.367
 9411SOL    HW129132   4.324   4.892   0.350
 9411SOL    HW229133   4.386   4.994   0.462
 9412SOL     OW29134   6.838   2.374   1.306
 9412SOL    HW129135   6.858   2.462   1.349
 9412SOL    HW229136   6.753   2.381   1.254
 9413SOL     OW29137   3.754   6.050   5.712
 9413SOL    HW129138   3.706   6.134   5.738
 9413SOL    HW229139   3.689   5.985   5.672
 9414SOL     OW29140   2.902   1.677   1.933
 9414SOL    HW129141   2.815   1.631   1.951
 9414SOL    HW229142   2.926   1.666   1.836
 9415SOL     OW29143   2.973   6.839   2.047
 9415SOL    HW129144   2.987   6.894   1.964
 9415SOL    HW229145   2.934   6.750   2.022
 9416SOL     OW29146   1.211   2.370   1.706
 9416SOL    HW129147   1.172   2.366   1.614
 9416SOL    HW229148   1.192   2.284   1.754
 9417SOL     OW29149   2.500   5.606   5.355
 9417SOL    HW129150   2.546   5.532   5.307
 9417SOL    HW229151   2.566   5.679   5.376
 9418SOL     OW29152   3.035   5.444   0.800
 9418SOL    HW129153   3.036   5.399   0.889
 9418SOL    HW229154   3.127   5.443   0.761
 9419SOL     OW29155   2.743   6.642   5.307
 9419SOL    HW129156   2.708   6.735   5.320
 9419SOL    HW229157   2.818   6.625   5.371
 9420SOL     OW29158   0.220   1.152   4.502
 9420SOL    HW129159   0.204   1.201   4.588
 9420SOL    HW229160   0.176   1.062   4.506
 9421SOL     OW29161   1.017   4.599   5.575
 9421SOL    HW129162   1.109   4.592   5.614
 9421SOL    HW229163   1.008   4.533   5.500
 9422SOL     OW29164   4.842   0.831   2.369
 9422SOL    HW129165   4.875   0.846   2.462
 9422SOL    HW229166   4.745   0.808   2.372
 9423SOL     OW29167   3.899   0.769   4.313
 9423SOL    HW129168   3.809   0.810   4.331
 9423SOL    HW229169   3.966   0.841   4.299
 9424SOL     OW29170   3.293   6.231   4.593
 9424SOL    HW129171   3.339   6.237   4.505
 9424SOL    HW229172   3.221   6.300   4.599
 9425SOL     OW29173   1.098   3.121   4.550
 9425SOL    HW129174   1.054   3.103   4.462
 9425SOL    HW229175   1.177   3.060   4.560
 9426SOL     OW29176   3.405   0.293   6.922
 9426SOL    HW129177   3.402   0.229   6.999
 9426SOL    HW229178   3.334   0.269   6.856
 9427SOL     OW29179   3.038   5.388   4.784
 9427SOL    HW129180   3.134   5.390   4.812
 9427SOL    HW229181   3.019   5.464   4.723
 9428SOL     OW29182   5.376   0.093   3.129
 9428SOL    HW129183   5.303   0.145   3.084
 9428SOL    HW229184   5.354   0.083   3.226
 9429SOL     OW29185   0.452   4.287   2.668
 9429SOL    HW129186   0.522   4.253   2.731
 9429SOL    HW229187   0.386   4.214   2.650
 9430SOL     OW29188   6.739   6.897   1.792
 9430SOL    HW129189   6.699   6.817   1.747
 9430SOL    HW229190   6.670   6.939   1.850
 9431SOL     OW29191   6.743   4.089   1.266
 9431SOL    HW129192   6.818   4.041   1.313
 9431SOL    HW229193   6.656   4.056   1.301
 9432SOL     OW29194   6.680   6.821   3.246
 9432SOL    HW129195   6.632   6.770   3.175
 9432SOL    HW229196   6.615   6.860   3.311
 9433SOL     OW29197   3.392   4.771   5.302
 9433SOL    HW129198   3.312   4.713   5.319
 9433SOL    HW229199   3.417   4.767   5.206
 9434SOL     OW29200   5.277   4.880   2.633
 9434SOL    HW129201   5.200   4.941   2.613
 9434SOL    HW229202   5.349   4.931   2.679
 9435SOL     OW29203   1.573   0.852   4.184
 9435SOL    HW129204   1.638   0.881   4.114
 9435SOL    HW229205   1.485   0.898   4.170
 9436SOL     OW29206   2.431   3.428   0.204
 9436SOL    HW129207   2.525   3.459   0.220
 9436SOL    HW229208   2.372   3.507   0.190
 9437SOL     OW29209   1.428   4.999   3.739
 9437SOL    HW129210   1.377   5.046   3.811
 9437SOL    HW229211   1.364   4.957   3.674
 9438SOL     OW29212   0.986   6.418   2.012
 9438SOL    HW129213   1.028   6.497   2.057
 9438SOL    HW229214   0.961   6.442   1.919
 9439SOL     OW29215   0.464   2.486   2.305
 9439SOL    HW129216   0.458   2.567   2.363
 9439SOL    HW229217   0.553   2.441   2.319
 9440SOL     OW29218   5.079   6.376   6.267
 9440SOL    HW129219   5.033   6.439   6.204
 9440SOL    HW229220   5.166   6.415   6.296
 9441SOL     OW29221   1.629   5.108   5.277
 9441SOL    HW129222   1.591   5.084   5.188
 9441SOL    HW229223   1.564   5.081   5.349
 9442SOL     OW29224   6.784   3.128   1.320
 9442SOL    HW129225   6.804   3.082   1.234
 9442SOL    HW229226   6.763   3.061   1.391
 9443SOL     OW29227   1.834   3.962   1.391
 9443SOL    HW129228   1.778   3.928   1.315
 9443SOL    HW229229   1.901   3.892   1.416
 9444SOL     OW29230   0.279   3.631   0.097
 9444SOL    HW129231   0.243   3.595   0.183
 9444SOL    HW229232   0.362   3.684   0.114
 9445SOL     OW29233   5.326   3.709   1.426
 9445SOL    HW129234   5.412   3.758   1.438
 9445SOL    HW229235   5.288   3.730   1.336
 9446SOL     OW29236   6.481   5.969   1.753
 9446SOL    HW129237   6.545   5.919   1.811
 9446SOL    HW229238   6.423   5.905   1.704
 9447SOL     OW29239   5.945   3.651   2.259
 9447SOL    HW129240   6.013   3.696   2.200
 9447SOL    HW229241   5.854   3.663   2.219
 9448SOL     OW29242   5.650   6.411   0.420
 9448SOL    HW129243   5.621   6.366   0.336
 9448SOL    HW229244   5.697   6.345   0.479
 9449SOL     OW29245   6.035   5.068   5.702
 9449SOL    HW129246   5.977   4.989   5.720
 9449SOL    HW229247   6.091   5.088   5.783
 9450SOL     OW29248   3.146   4.978   4.776
 9450SOL    HW129249   3.129   4.923   4.858
 9450SOL    HW229250   3.121   4.926   4.695
 9451SOL     OW29251   4.569   5.199   6.355
 9451SOL    HW129252   4.516   5.121   6.321
 9451SOL    HW229253   4.529   5.284   6.322
 9452SOL     OW29254   2.524   4.871   1.733
 9452SOL    HW129255   2.554   4.952   1.783
 9452SOL    HW229256   2.598   4.804   1.732
 9453SOL     OW29257   2.689   5.318   2.768
 9453SOL    HW129258   2.631   5.288   2.692
 9453SOL    HW229259   2.633   5.368   2.834
 9454SOL     OW29260   1.630   3.378   5.698
 9454SOL    HW129261   1.611   3.325   5.616
 9454SOL    HW229262   1.727   3.374   5.719
 9455SOL     OW29263   3.387   1.625   2.184
 9455SOL    HW129264   3.452   1.694   2.215
 9455SOL    HW229265   3.308   1.670   2.143
 9456SOL     OW29266   1.093   3.761   1.211
 9456SOL    HW129267   1.119   3.823   1.136
 9456SOL    HW229268   1.046   3.681   1.173
 9457SOL     OW29269   0.874   3.312   0.341
 9457SOL    HW129270   0.805   3.381   0.319
 9457SOL    HW229271   0.842   3.222   0.313
 9458SOL     OW29272   6.923   5.364   5.290
 9458SOL    HW129273   6.908   5.299   5.365
 9458SOL    HW229274   6.993   5.430   5.317
 9459SOL     OW29275   6.309   5.719   1.699
 9459SOL    HW129276   6.320   5.621   1.685
 9459SOL    HW229277   6.357   5.746   1.783
 9460SOL     OW29278   0.820   1.743   5.180
 9460SOL    HW129279   0.763   1.793   5.114
 9460SOL    HW229280   0.917   1.755   5.156
 9461SOL     OW29281   1.163   0.808   3.951
 9461SOL    HW129282   1.196   0.786   3.859
 9461SOL    HW229283   1.124   0.726   3.993
 9462SOL     OW29284   1.098   2.541   2.469
 9462SOL    HW129285   1.006   2.578   2.454
 9462SOL    HW229286   1.166   2.611   2.449
 9463SOL     OW29287   5.662   1.482   0.218
 9463SOL    HW129288   5.732   1.511   0.282
 9463SOL    HW229289   5.619   1.398   0.251
 9464SOL     OW29290   5.789   0.101   6.271
 9464SOL    HW129291   5.829   0.113   6.362
 9464SOL    HW229292   5.720   0.172   6.255
 9465SOL     OW29293   6.222   0.505   4.184
 9465SOL    HW129294   6.318   0.522   4.207
 9465SOL    HW229295   6.197   0.561   4.104
 9466SOL     OW29296   2.541   2.722   6.287
 9466SOL    HW129297   2.520   2.777   6.368
 9466SOL    HW229298   2.570   2.782   6.212
 9467SOL     OW29299   2.009   2.893   2.526
 9467SOL    HW129300   2.047   2.905   2.435
 9467SOL    HW229301   1.971   2.801   2.535
 9468SOL     OW29302   0.191   3.156   5.455
 9468SOL    HW129303   0.274   3.100   5.453
 9468SOL    HW229304   0.205   3.238   5.400
 9469SOL     OW29305   6.314   5.268   2.404
 9469SOL    HW129306   6.292   5.279   2.307
 9469SOL    HW229307   6.244   5.312   2.460
 9470SOL     OW29308   4.545   3.559   0.819
 9470SOL    HW129309   4.529   3.488   0.751
 9470SOL    HW229310   4.586   3.518   0.901
 9471SOL     OW29311   0.373   1.970   5.555
 9471SOL    HW129312   0.429   2.043   5.596
 9471SOL    HW229313   0.402   1.956   5.460
 9472SOL     OW29314   5.464   4.684   4.351
 9472SOL    HW129315   5.441   4.636   4.436
 9472SOL    HW229316   5.561   4.707   4.350
 9473SOL     OW29317   2.682   5.540   5.983
 9473SOL    HW129318   2.585   5.545   6.004
 9473SOL    HW229319   2.731   5.607   6.039
 9474SOL     OW29320   4.378   4.954   1.831
 9474SOL    HW129321   4.281   4.933   1.821
 9474SOL    HW229322   4.404   4.946   1.928
 9475SOL     OW29323   2.642   3.737   1.407
 9475SOL    HW129324   2.695   3.769   1.486
 9475SOL    HW229325   2.569   3.677   1.438
 9476SOL     OW29326   3.680   3.139   5.141
 9476SOL    HW129327   3.675   3.238   5.146
 9476SOL    HW229328   3.597   3.103   5.099
 9477SOL     OW29329   1.302   2.940   1.444
 9477SOL    HW129330   1.241   3.014   1.416
 9477SOL    HW229331   1.358   2.911   1.366
 9478SOL     OW29332   5.655   4.786   5.400
 9478SOL    HW129333   5.634   4.750   5.310
 9478SOL    HW229334   5.593   4.746   5.467
 9479SOL     OW29335   5.970   5.585   6.375
 9479SOL    HW129336   5.896   5.519   6.359
 9479SOL    HW229337   6.015   5.565   6.462
 9480SOL     OW29338   5.713   4.708   0.085
 9480SOL    HW129339   5.794   4.686   0.141
 9480SOL    HW229340   5.646   4.635   0.094
 9481SOL     OW29341   6.871   3.425   1.649
 9481SOL    HW129342   6.883   3.354   1.718
 9481SOL    HW229343   6.775   3.452   1.645
 9482SOL     OW29344   4.694   1.142   2.025
 9482SOL    HW129345   4.775   1.107   2.072
 9482SOL    HW229346   4.617   1.144   2.089
 9483SOL     OW29347   1.344   1.642   6.992
 9483SOL    HW129348   1.349   1.543   7.005
 9483SOL    HW229349   1.366   1.665   6.897
 9484SOL     OW29350   6.829   1.264   4.024
 9484SOL    HW129351   6.755   1.327   4.048
 9484SOL    HW229352   6.908   1.317   3.993
 9485SOL     OW29353   1.145   0.865   2.477
 9485SOL    HW129354   1.174   0.916   2.558
 9485SOL    HW229355   1.060   0.816   2.497
 9486SOL     OW29356   2.906   6.103   1.313
 9486SOL    HW129357   2.962   6.160   1.253
 9486SOL    HW229358   2.961   6.071   1.390
 9487SOL     OW29359   3.581   3.850   3.750
 9487SOL    HW129360   3.582   3.763   3.701
 9487SOL    HW229361   3.497   3.856   3.804
 9488SOL     OW29362   1.027   6.293   1.239
 9488SOL    HW129363   1.041   6.325   1.146
 9488SOL    HW229364   0.937   6.249   1.245
 9489SOL     OW29365   3.895   4.905   1.110
 9489SOL    HW129366   3.797   4.901   1.094
 9489SOL    HW229367   3.933   4.813   1.109
 9490SOL     OW29368   5.195   0.930   1.516
 9490SOL    HW129369   5.270   0.976   1.468
 9490SOL    HW229370   5.147   0.996   1.574
 9491SOL     OW29371   5.689   5.060   5.332
 9491SOL    HW129372   5.676   4.967   5.365
 9491SOL    HW229373   5.758   5.060   5.260
 9492SOL     OW29374   3.504   4.274   1.454
 9492SOL    HW129375   3.529   4.361   1.498
 9492SOL    HW229376   3.563   4.201   1.488
 9493SOL     OW29377   4.737   6.040   2.835
 9493SOL    HW129378   4.684   6.120   2.807
 9493SOL    HW229379   4.820   6.069   2.881
 9494SOL     OW29380   5.011   3.073   5.646
 9494SOL    HW129381   4.979   3.078   5.740
 9494SOL    HW229382   4.933   3.067   5.584
 9495SOL     OW29383   5.940   2.074   4.908
 9495SOL    HW129384   5.911   2.126   4.827
 9495SOL    HW229385   5.976   2.137   4.977
 9496SOL     OW29386   5.526   3.898   0.144
 9496SOL    HW129387   5.574   3.952   0.074
 9496SOL    HW229388   5.517   3.804   0.113
 9497SOL     OW29389   5.510   5.579   6.809
 9497SOL    HW129390   5.571   5.525   6.867
 9497SOL    HW229391   5.417   5.544   6.816
 9498SOL     OW29392   3.731   0.009   6.027
 9498SOL    HW129393   3.688   0.095   5.997
 9498SOL    HW229394   3.787   0.027   6.108
 9499SOL     OW29395   2.866   3.915   5.503
 9499SOL    HW129396   2.926   3.839   5.525
 9499SOL    HW229397   2.800   3.887   5.433
 9500SOL     OW29398   4.320   6.070   1.793
 9500SOL    HW129399   4.393   6.125   1.832
 9500SOL    HW229400   4.308   5.986   1.847
 9501SOL     OW29401   3.521   1.346   4.335
 9501SOL    HW129402   3.523   1.332   4.434
 9501SOL    HW229403   3.615   1.362   4.303
 9502SOL     OW29404   6.145   2.475   5.035
 9502SOL    HW129405   6.235   2.520   5.033
 9502SOL    HW229406   6.143   2.403   4.966
 9503SOL     OW29407   1.141   0.115   1.750
 9503SOL    HW129408   1.186   0.197   1.786
 9503SOL    HW229409   1.180   0.034   1.795
 9504SOL     OW29410   0.503   2.979   0.380
 9504SOL    HW129411   0.563   2.964   0.458
 9504SOL    HW229412   0.428   2.913   0.381
 9505SOL     OW29413   6.273   3.189   3.416
 9505SOL    HW129414   6.304   3.098   3.441
 9505SOL    HW229415   6.175   3.187   3.396
 9506SOL     OW29416   0.015   3.806   0.388
 9506SOL    HW129417   0.055   3.848   0.306
 9506SOL    HW229418   6.955   3.752   0.362
 9507SOL     OW29419   0.901   1.558   3.398
 9507SOL    HW129420   0.854   1.643   3.375
 9507SOL    HW229421   0.942   1.566   3.489
 9508SOL     OW29422   5.661   1.520   0.718
 9508SOL    HW129423   5.608   1.514   0.803
 9508SOL    HW229424   5.649   1.610   0.677
 9509SOL     OW29425   2.266   6.501   5.576
 9509SOL    HW129426   2.277   6.487   5.674
 9509SOL    HW229427   2.179   6.460   5.546
 9510SOL     OW29428   5.993   4.525   3.224
 9510SOL    HW129429   5.977   4.575   3.309
 9510SOL    HW229430   6.091   4.517   3.207
 9511SOL     OW29431   0.768   2.365   0.211
 9511SOL    HW129432   0.704   2.307   0.261
 9511SOL    HW229433   0.839   2.308   0.168
 9512SOL     OW29434   1.058   2.081   4.084
 9512SOL    HW129435   1.002   2.101   4.004
 9512SOL    HW229436   1.010   2.112   4.167
 9513SOL     OW29437   2.011   3.845   4.335
 9513SOL    HW129438   2.072   3.853   4.414
 9513SOL    HW229439   2.044   3.772   4.274
 9514SOL     OW29440   1.846   3.415   0.324
 9514SOL    HW129441   1.911   3.453   0.258
 9514SOL    HW229442   1.890   3.407   0.413
 9515SOL     OW29443   1.967   6.046   6.551
 9515SOL    HW129444   1.925   6.099   6.625
 9515SOL    HW229445   1.899   5.983   6.512
 9516SOL     OW29446   5.470   3.889   4.175
 9516SOL    HW129447   5.388   3.833   4.186
 9516SOL    HW229448   5.502   3.885   4.080
 9517SOL     OW29449   0.416   5.567   1.502
 9517SOL    HW129450   0.414   5.585   1.403
 9517SOL    HW229451   0.507   5.534   1.528
 9518SOL     OW29452   0.768   2.532   6.337
 9518SOL    HW129453   0.742   2.476   6.258
 9518SOL    HW229454   0.687   2.564   6.385
 9519SOL     OW29455   3.125   3.713   2.873
 9519SOL    HW129456   3.113   3.780   2.946
 9519SOL    HW229457   3.222   3.691   2.863
 9520SOL     OW29458   0.059   0.420   5.302
 9520SOL    HW129459   7.005   0.353   5.304
 9520SOL    HW229460   0.025   0.508   5.336
 9521SOL     OW29461   3.376   0.455   0.774
 9521SOL    HW129462   3.443   0.458   0.699
 9521SOL    HW229463   3.289   0.492   0.743
 9522SOL     OW29464   3.824   6.137   1.198
 9522SOL    HW129465   3.821   6.062   1.132
 9522SOL    HW229466   3.731   6.156   1.231
 9523SOL     OW29467   2.467   5.229   3.962
 9523SOL    HW129468   2.412   5.245   4.043
 9523SOL    HW229469   2.510   5.139   3.969
 9524SOL     OW29470   1.896   4.215   1.455
 9524SOL    HW129471   1.928   4.213   1.550
 9524SOL    HW229472   1.884   4.121   1.422
 9525SOL     OW29473   1.921   2.804   5.537
 9525SOL    HW129474   1.904   2.892   5.583
 9525SOL    HW229475   1.868   2.732   5.582
 9526SOL     OW29476   5.402   5.234   6.615
 9526SOL    HW129477   5.410   5.326   6.578
 9526SOL    HW229478   5.306   5.212   6.633
 9527SOL     OW29479   3.520   6.937   3.237
 9527SOL    HW129480   3.508   6.891   3.325
 9527SOL    HW229481   3.618   6.953   3.221
 9528SOL     OW29482   5.939   1.428   0.762
 9528SOL    HW129483   5.843   1.457   0.760
 9528SOL    HW229484   5.960   1.380   0.677
 9529SOL     OW29485   6.279   2.002   1.779
 9529SOL    HW129486   6.378   2.002   1.764
 9529SOL    HW229487   6.253   2.082   1.833
 9530SOL     OW29488   0.564   5.388   3.779
 9530SOL    HW129489   0.630   5.419   3.711
 9530SOL    HW229490   0.607   5.383   3.868
 9531SOL     OW29491   3.686   4.877   2.868
 9531SOL    HW129492   3.698   4.854   2.965
 9531SOL    HW229493   3.588   4.890   2.850
 9532SOL     OW29494   5.827   5.515   2.505
 9532SOL    HW129495   5.816   5.542   2.409
 9532SOL    HW229496   5.862   5.593   2.558
 9533SOL     OW29497   2.326   5.443   3.562
 9533SOL    HW129498   2.357   5.374   3.627
 9533SOL    HW229499   2.230   5.427   3.539
 9534SOL     OW29500   5.588   4.506   4.812
 9534SOL    HW129501   5.658   4.543   4.751
 9534SOL    HW229502   5.625   4.499   4.905
 9535SOL     OW29503   1.078   1.348   5.861
 9535SOL    HW129504   0.987   1.358   5.902
 9535SOL    HW229505   1.070   1.306   5.771
 9536SOL     OW29506   3.772   3.796   4.558
 9536SOL    HW129507   3.759   3.796   4.459
 9536SOL    HW229508   3.776   3.702   4.592
 9537SOL     OW29509   1.379   0.797   3.786
 9537SOL    HW129510   1.381   0.895   3.764
 9537SOL    HW229511   1.342   0.746   3.708
 9538SOL     OW29512   3.452   0.728   4.604
 9538SOL    HW129513   3.386   0.727   4.529
 9538SOL    HW229514   3.423   0.665   4.676
 9539SOL     OW29515   3.672   2.922   2.923
 9539SOL    HW129516   3.723   2.898   3.005
 9539SOL    HW229517   3.578   2.946   2.948
 9540SOL     OW29518   4.631   5.038   4.107
 9540SOL    HW129519   4.670   5.096   4.036
 9540SOL    HW229520   4.650   4.942   4.086
 9541SOL     OW29521   1.672   5.849   4.955
 9541SOL    HW129522   1.739   5.923   4.964
 9541SOL    HW229523   1.686   5.783   5.028
 9542SOL     OW29524   5.377   4.911   4.216
 9542SOL    HW129525   5.387   4.972   4.295
 9542SOL    HW229526   5.405   4.819   4.241
 9543SOL     OW29527   2.568   1.198   5.996
 9543SOL    HW129528   2.644   1.135   6.009
 9543SOL    HW229529   2.551   1.210   5.899
 9544SOL     OW29530   5.561   3.841   3.426
 9544SOL    HW129531   5.573   3.873   3.332
 9544SOL    HW229532   5.517   3.752   3.426
 9545SOL     OW29533   0.985   4.760   2.041
 9545SOL    HW129534   1.053   4.765   1.968
 9545SOL    HW229535   0.925   4.681   2.026
 9546SOL     OW29536   2.763   1.605   6.244
 9546SOL    HW129537   2.719   1.549   6.174
 9546SOL    HW229538   2.849   1.562   6.272
 9547SOL     OW29539   3.545   6.310   3.905
 9547SOL    HW129540   3.504   6.318   3.995
 9547SOL    HW229541   3.527   6.393   3.852
 9548SOL     OW29542   1.021   4.834   6.737
 9548SOL    HW129543   1.041   4.739   6.712
 9548SOL    HW229544   0.936   4.837   6.790
 9549SOL     OW29545   3.890   1.842   2.284
 9549SOL    HW129546   3.983   1.858   2.317
 9549SOL    HW229547   3.855   1.924   2.240
 9550SOL     OW29548   5.346   2.502   1.414
 9550SOL    HW129549   5.395   2.581   1.450
 9550SOL    HW229550   5.295   2.529   1.332
 9551SOL     OW29551   6.399   2.079   6.238
 9551SOL    HW129552   6.423   2.083   6.141
 9551SOL    HW229553   6.476   2.041   6.290
 9552SOL     OW29554   2.230   1.046   6.366
 9552SOL    HW129555   2.270   1.083   6.450
 9552SOL    HW229556   2.293   0.979   6.326
 9553SOL     OW29557   5.414   2.300   6.854
 9553SOL    HW129558   5.389   2.391   6.885
 9553SOL    HW229559   5.490   2.307   6.789
 9554SOL     OW29560   2.286   6.457   4.509
 9554SOL    HW129561   2.350   6.520   4.464
 9554SOL    HW229562   2.201   6.505   4.530
 9555SOL     OW29563   6.490   1.093   3.711
 9555SOL    HW129564   6.506   0.994   3.718
 9555SOL    HW229565   6.577   1.141   3.714
 9556SOL     OW29566   2.163   4.072   0.941
 9556SOL    HW129567   2.162   4.093   0.843
 9556SOL    HW229568   2.258   4.076   0.974
 9557SOL     OW29569   5.123   0.629   1.648
 9557SOL    HW129570   5.038   0.629   1.595
 9557SOL    HW229571   5.101   0.633   1.746
 9558SOL     OW29572   5.584   6.234   5.934
 9558SOL    HW129573   5.676   6.224   5.970
 9558SOL    HW229574   5.537   6.145   5.938
 9559SOL     OW29575   1.253   3.743   0.210
 9559SOL    HW129576   1.339   3.794   0.215
 9559SOL    HW229577   1.270   3.653   0.169
 9560SOL     OW29578   3.583   0.197   1.968
 9560SOL    HW129579   3.489   0.232   1.972
 9560SOL    HW229580   3.582   0.099   1.953
 9561SOL     OW29581   0.773   0.811   1.191
 9561SOL    HW129582   0.841   0.866   1.239
 9561SOL    HW229583   0.760   0.848   1.098
 9562SOL     OW29584   2.770   5.479   3.481
 9562SOL    HW129585   2.726   5.559   3.440
 9562SOL    HW229586   2.803   5.418   3.409
 9563SOL     OW29587   0.751   6.218   0.387
 9563SOL    HW129588   0.678   6.272   0.345
 9563SOL    HW229589   0.772   6.254   0.477
 9564SOL     OW29590   1.592   0.558   1.006
 9564SOL    HW129591   1.514   0.619   1.016
 9564SOL    HW229592   1.598   0.526   0.911
 9565SOL     OW29593   3.682   1.028   3.666
 9565SOL    HW129594   3.624   1.082   3.606
 9565SOL    HW229595   3.662   1.051   3.761
 9566SOL     OW29596   2.427   6.656   0.537
 9566SOL    HW129597   2.522   6.656   0.567
 9566SOL    HW229598   2.373   6.599   0.599
 9567SOL     OW29599   6.936   4.719   0.532
 9567SOL    HW129600   6.979   4.739   0.444
 9567SOL    HW229601   6.858   4.780   0.546
 9568SOL     OW29602   4.191   1.747   6.895
 9568SOL    HW129603   4.148   1.672   6.946
 9568SOL    HW229604   4.122   1.814   6.869
 9569SOL     OW29605   6.183   0.321   1.917
 9569SOL    HW129606   6.094   0.365   1.902
 9569SOL    HW229607   6.255   0.376   1.876
 9570SOL     OW29608   0.065   3.163   1.062
 9570SOL    HW129609   0.061   3.256   1.024
 9570SOL    HW229610   0.110   3.102   0.997
 9571SOL     OW29611   2.260   2.801   6.549
 9571SOL    HW129612   2.167   2.833   6.529
 9571SOL    HW229613   2.314   2.877   6.585
 9572SOL     OW29614   2.243   4.246   3.515
 9572SOL    HW129615   2.326   4.303   3.510
 9572SOL    HW229616   2.262   4.157   3.474
 9573SOL     OW29617   6.824   0.843   5.395
 9573SOL    HW129618   6.765   0.893   5.458
 9573SOL    HW229619   6.799   0.866   5.301
 9574SOL     OW29620   4.145   2.728   1.471
 9574SOL    HW129621   4.047   2.745   1.483
 9574SOL    HW229622   4.197   2.793   1.526
 9575SOL     OW29623   5.781   6.614   1.948
 9575SOL    HW129624   5.748   6.520   1.955
 9575SOL    HW229625   5.724   6.665   1.883
 9576SOL     OW29626   1.222   1.460   0.224
 9576SOL    HW129627   1.306   1.435   0.176
 9576SOL    HW229628   1.240   1.536   0.287
 9577SOL     OW29629   0.103   6.166   1.327
 9577SOL    HW129630   0.065   6.238   1.269
 9577SOL    HW229631   0.100   6.079   1.278
 9578SOL     OW29632   1.209   2.585   3.326
 9578SOL    HW129633   1.169   2.529   3.399
 9578SOL    HW229634   1.307   2.568   3.319
 9579SOL     OW29635   5.886   6.833   2.056
 9579SOL    HW129636   5.839   6.749   2.027
 9579SOL    HW229637   5.948   6.812   2.131
 9580SOL     OW29638   5.135   4.704   1.048
 9580SOL    HW129639   5.121   4.612   1.084
 9580SOL    HW229640   5.232   4.726   1.048
 9581SOL     OW29641   6.259   0.451   6.872
 9581SOL    HW129642   6.274   0.487   6.964
 9581SOL    HW229643   6.270   0.352   6.873
 9582SOL     OW29644   3.643   5.481   4.019
 9582SOL    HW129645   3.661   5.383   4.021
 9582SOL    HW229646   3.678   5.523   4.102
 9583SOL     OW29647   3.348   4.855   1.802
 9583SOL    HW129648   3.431   4.802   1.819
 9583SOL    HW229649   3.268   4.797   1.815
 9584SOL     OW29650   1.986   4.080   4.527
 9584SOL    HW129651   2.014   4.028   4.446
 9584SOL    HW229652   1.905   4.038   4.567
 9585SOL     OW29653   5.153   6.109   1.497
 9585SOL    HW129654   5.067   6.084   1.454
 9585SOL    HW229655   5.186   6.033   1.552
 9586SOL     OW29656   4.470   5.149   1.503
 9586SOL    HW129657   4.378   5.110   1.495
 9586SOL    HW229658   4.511   5.156   1.413
 9587SOL     OW29659   2.167   6.413   1.567
 9587SOL    HW129660   2.135   6.320   1.546
 9587SOL    HW229661   2.250   6.408   1.622
 9588SOL     OW29662   6.180   6.179   0.727
 9588SOL    HW129663   6.166   6.158   0.824
 9588SOL    HW229664   6.097   6.220   0.689
 9589SOL     OW29665   1.429   3.412   6.448
 9589SOL    HW129666   1.389   3.417   6.356
 9589SOL    HW229667   1.361   3.440   6.515
 9590SOL     OW29668   5.681   1.790   2.003
 9590SOL    HW129669   5.768   1.782   2.051
 9590SOL    HW229670   5.648   1.700   1.976
 9591SOL     OW29671   3.584   6.845   6.408
 9591SOL    HW129672   3.593   6.817   6.313
 9591SOL    HW229673   3.537   6.933   6.414
 9592SOL     OW29674   2.831   4.317   6.548
 9592SOL    HW129675   2.901   4.340   6.480
 9592SOL    HW229676   2.839   4.377   6.627
 9593SOL     OW29677   2.025   1.375   5.318
 9593SOL    HW129678   2.026   1.385   5.418
 9593SOL    HW229679   2.037   1.279   5.294
 9594SOL     OW29680   2.133   6.180   4.139
 9594SOL    HW129681   2.204   6.139   4.196
 9594SOL    HW229682   2.050   6.123   4.143
 9595SOL     OW29683   0.363   3.161   4.009
 9595SOL    HW129684   0.393   3.145   4.103
 9595SOL    HW229685   0.289   3.228   4.008
 9596SOL     OW29686   0.353   5.649   1.209
 9596SOL    HW129687   0.322   5.558   1.182
 9596SOL    HW229688   0.282   5.717   1.186
 9597SOL     OW29689   1.107   4.371   2.121
 9597SOL    HW129690   1.012   4.361   2.150
 9597SOL    HW229691   1.141   4.461   2.150
 9598SOL     OW29692   1.826   3.832   2.883
 9598SOL    HW129693   1.836   3.813   2.785
 9598SOL    HW229694   1.739   3.796   2.915
 9599SOL     OW29695   3.330   6.815   3.752
 9599SOL    HW129696   3.282   6.731   3.725
 9599SOL    HW229697   3.395   6.794   3.825
 9600SOL     OW29698   3.103   0.538   0.710
 9600SOL    HW129699   3.078   0.442   0.722
 9600SOL    HW229700   3.068   0.592   0.787
 9601SOL     OW29701   6.516   4.619   0.897
 9601SOL    HW129702   6.616   4.619   0.887
 9601SOL    HW229703   6.491   4.569   0.980
 9602SOL     OW29704   4.760   4.820   5.564
 9602SOL    HW129705   4.697   4.850   5.493
 9602SOL    HW229706   4.853   4.821   5.528
 9603SOL     OW29707   5.562   6.502   5.796
 9603SOL    HW129708   5.498   6.561   5.846
 9603SOL    HW229709   5.577   6.418   5.847
 9604SOL     OW29710   5.154   0.782   1.287
 9604SOL    HW129711   5.148   0.825   1.377
 9604SOL    HW229712   5.189   0.689   1.296
 9605SOL     OW29713   6.900   5.130   3.203
 9605SOL    HW129714   6.800   5.129   3.206
 9605SOL    HW229715   6.931   5.110   3.110
 9606SOL     OW29716   1.012   1.584   6.993
 9606SOL    HW129717   0.922   1.629   6.989
 9606SOL    HW229718   1.024   1.543   0.063
 9607SOL     OW29719   2.923   1.816   6.620
 9607SOL    HW129720   2.910   1.732   6.673
 9607SOL    HW229721   2.990   1.799   6.548
 9608SOL     OW29722   6.720   4.347   2.910
 9608SOL    HW129723   6.743   4.432   2.958
 9608SOL    HW229724   6.687   4.369   2.819
 9609SOL     OW29725   3.790   2.489   6.413
 9609SOL    HW129726   3.888   2.471   6.411
 9609SOL    HW229727   3.761   2.502   6.508
 9610SOL     OW29728   2.105   4.872   2.620
 9610SOL    HW129729   2.021   4.882   2.567
 9610SOL    HW229730   2.154   4.959   2.623
 9611SOL     OW29731   1.843   6.889   0.639
 9611SOL    HW129732   1.894   6.806   0.613
 9611SOL    HW229733   1.754   6.863   0.677
 9612SOL     OW29734   0.992   3.463   2.103
 9612SOL    HW129735   1.019   3.530   2.172
 9612SOL    HW229736   0.895   3.475   2.081
 9613SOL     OW29737   5.946   6.435   3.446
 9613SOL    HW129738   5.905   6.366   3.506
 9613SOL    HW229739   5.986   6.390   3.367
 9614SOL     OW29740   4.044   2.189   2.775
 9614SOL    HW129741   4.071   2.196   2.678
 9614SOL    HW229742   3.945   2.200   2.782
 9615SOL     OW29743   2.425   2.275   0.673
 9615SOL    HW129744   2.510   2.320   0.698
 9615SOL    HW229745   2.429   2.178   0.698
 9616SOL     OW29746   3.675   2.836   0.874
 9616SOL    HW129747   3.730   2.885   0.807
 9616SOL    HW229748   3.696   2.871   0.966
 9617SOL     OW29749   2.041   2.758   3.554
 9617SOL    HW129750   2.049   2.802   3.465
 9617SOL    HW229751   2.118   2.786   3.612
 9618SOL     OW29752   3.136   1.167   1.094
 9618SOL    HW129753   3.101   1.234   1.160
 9618SOL    HW229754   3.227   1.194   1.064
 9619SOL     OW29755   1.674   0.508   5.509
 9619SOL    HW129756   1.593   0.488   5.454
 9619SOL    HW229757   1.741   0.434   5.497
 9620SOL     OW29758   4.676   0.524   4.813
 9620SOL    HW129759   4.637   0.571   4.893
 9620SOL    HW229760   4.608   0.519   4.741
 9621SOL     OW29761   1.670   2.757   2.134
 9621SOL    HW129762   1.690   2.681   2.073
 9621SOL    HW229763   1.684   2.844   2.086
 9622SOL     OW29764   5.922   0.987   0.606
 9622SOL    HW129765   5.852   0.920   0.631
 9622SOL    HW229766   5.882   1.079   0.605
 9623SOL     OW29767   2.811   2.734   6.490
 9623SOL    HW129768   2.877   2.691   6.551
 9623SOL    HW229769   2.845   2.732   6.396
 9624SOL     OW29770   5.962   3.522   2.902
 9624SOL    HW129771   5.973   3.431   2.944
 9624SOL    HW229772   6.052   3.558   2.878
 9625SOL     OW29773   5.266   6.003   0.009
 9625SOL    HW129774   5.199   5.930   7.015
 9625SOL    HW229775   5.342   5.992   6.965
 9626SOL     OW29776   3.803   4.873   0.526
 9626SOL    HW129777   3.726   4.914   0.575
 9626SOL    HW229778   3.874   4.941   0.512
 9627SOL     OW29779   0.744   6.428   6.602
 9627SOL    HW129780   0.787   6.338   6.608
 9627SOL    HW229781   0.785   6.480   6.527
 9628SOL     OW29782   5.052   6.084   1.094
 9628SOL    HW129783   4.988   6.150   1.054
 9628SOL    HW229784   5.059   6.004   1.035
 9629SOL     OW29785   2.293   0.649   1.418
 9629SOL    HW129786   2.237   0.629   1.499
 9629SOL    HW229787   2.367   0.712   1.443
 9630SOL     OW29788   6.274   0.434   5.494
 9630SOL    HW129789   6.222   0.483   5.563
 9630SOL    HW229790   6.267   0.335   5.510
 9631SOL     OW29791   6.243   0.357   6.376
 9631SOL    HW129792   6.242   0.334   6.279
 9631SOL    HW229793   6.337   0.369   6.406
 9632SOL     OW29794   1.726   6.324   2.242
 9632SOL    HW129795   1.707   6.257   2.314
 9632SOL    HW229796   1.686   6.293   2.156
 9633SOL     OW29797   5.789   5.439   6.611
 9633SOL    HW129798   5.874   5.430   6.663
 9633SOL    HW229799   5.757   5.534   6.615
 9634SOL     OW29800   1.674   6.186   4.764
 9634SOL    HW129801   1.603   6.129   4.723
 9634SOL    HW229802   1.749   6.199   4.698
 9635SOL     OW29803   2.530   5.414   4.926
 9635SOL    HW129804   2.595   5.487   4.911
 9635SOL    HW229805   2.572   5.326   4.903
 9636SOL     OW29806   3.750   1.437   5.337
 9636SOL    HW129807   3.678   1.507   5.338
 9636SOL    HW229808   3.824   1.464   5.398
 9637SOL     OW29809   2.066   2.044   6.307
 9637SOL    HW129810   2.108   2.134   6.304
 9637SOL    HW229811   2.046   2.013   6.214
 9638SOL     OW29812   6.841   3.308   4.990
 9638SOL    HW129813   6.783   3.369   5.043
 9638SOL    HW229814   6.930   3.350   4.976
 9639SOL     OW29815   4.313   1.782   2.702
 9639SOL    HW129816   4.410   1.771   2.682
 9639SOL    HW229817   4.280   1.869   2.666
 9640SOL     OW29818   2.299   2.798   3.035
 9640SOL    HW129819   2.395   2.772   3.044
 9640SOL    HW229820   2.273   2.800   2.939
 9641SOL     OW29821   4.818   6.984   0.678
 9641SOL    HW129822   4.912   6.959   0.656
 9641SOL    HW229823   4.777   0.013   0.602
 9642SOL     OW29824   3.456   0.235   4.526
 9642SOL    HW129825   3.507   0.321   4.533
 9642SOL    HW229826   3.488   0.171   4.596
 9643SOL     OW29827   5.078   4.293   3.545
 9643SOL    HW129828   5.155   4.285   3.608
 9643SOL    HW229829   5.045   4.202   3.520
 9644SOL     OW29830   0.850   3.317   6.361
 9644SOL    HW129831   0.868   3.290   6.455
 9644SOL    HW229832   0.899   3.402   6.341
 9645SOL     OW29833   3.151   5.056   5.298
 9645SOL    HW129834   3.051   5.056   5.297
 9645SOL    HW229835   3.184   5.050   5.392
 9646SOL     OW29836   4.218   5.207   2.127
 9646SOL    HW129837   4.160   5.187   2.206
 9646SOL    HW229838   4.164   5.199   2.043
 9647SOL     OW29839   6.233   3.287   1.172
 9647SOL    HW129840   6.222   3.320   1.078
 9647SOL    HW229841   6.272   3.359   1.228
 9648SOL     OW29842   4.498   2.212   1.267
 9648SOL    HW129843   4.458   2.289   1.217
 9648SOL    HW229844   4.528   2.243   1.357
 9649SOL     OW29845   2.638   6.035   0.266
 9649SOL    HW129846   2.539   6.038   0.274
 9649SOL    HW229847   2.675   6.127   0.277
 9650SOL     OW29848   6.709   5.528   2.201
 9650SOL    HW129849   6.745   5.619   2.179
 9650SOL    HW229850   6.624   5.538   2.252
 9651SOL     OW29851   1.175   1.455   6.195
 9651SOL    HW129852   1.173   1.470   6.294
 9651SOL    HW229853   1.118   1.376   6.172
 9652SOL     OW29854   0.711   4.677   2.597
 9652SOL    HW129855   0.688   4.775   2.601
 9652SOL    HW229856   0.628   4.623   2.608
 9653SOL     OW29857   4.708   5.004   4.354
 9653SOL    HW129858   4.665   5.006   4.264
 9653SOL    HW229859   4.794   5.053   4.351
 9654SOL     OW29860   2.399   2.695   2.129
 9654SOL    HW129861   2.495   2.708   2.154
 9654SOL    HW229862   2.380   2.597   2.120
 9655SOL     OW29863   0.079   1.564   6.302
 9655SOL    HW129864   0.171   1.604   6.302
 9655SOL    HW229865   0.039   1.574   6.393
 9656SOL     OW29866   3.301   0.051   2.343
 9656SOL    HW129867   3.286   0.081   2.437
 9656SOL    HW229868   3.314   0.132   2.285
 9657SOL     OW29869   5.980   1.083   4.992
 9657SOL    HW129870   6.004   1.157   4.930
 9657SOL    HW229871   6.055   1.016   4.995
 9658SOL     OW29872   6.215   3.080   1.920
 9658SOL    HW129873   6.254   3.038   2.002
 9658SOL    HW229874   6.135   3.028   1.891
 9659SOL     OW29875   0.851   4.752   0.364
 9659SOL    HW129876   0.833   4.654   0.374
 9659SOL    HW229877   0.820   4.800   0.447
 9660SOL     OW29878   1.106   5.214   0.527
 9660SOL    HW129879   1.016   5.256   0.539
 9660SOL    HW229880   1.170   5.252   0.595
 9661SOL     OW29881   4.637   0.024   0.880
 9661SOL    HW129882   4.613   0.121   0.875
 9661SOL    HW229883   4.708   0.005   0.813
 9662SOL     OW29884   6.175   1.600   4.539
 9662SOL    HW129885   6.214   1.624   4.450
 9662SOL    HW229886   6.183   1.501   4.553
 9663SOL     OW29887   1.827   5.436   2.915
 9663SOL    HW129888   1.802   5.339   2.908
 9663SOL    HW229889   1.883   5.461   2.836
 9664SOL     OW29890   4.169   6.456   2.313
 9664SOL    HW129891   4.073   6.472   2.338
 9664SOL    HW229892   4.220   6.543   2.318
 9665SOL     OW29893   5.443   4.381   5.187
 9665SOL    HW129894   5.395   4.453   5.236
 9665SOL    HW229895   5.428   4.294   5.233
 9666SOL     OW29896   5.257   4.363   2.343
 9666SOL    HW129897   5.232   4.270   2.371
 9666SOL    HW229898   5.321   4.401   2.408
 9667SOL     OW29899   4.029   3.681   4.164
 9667SOL    HW129900   3.937   3.688   4.204
 9667SOL    HW229901   4.048   3.585   4.141
 9668SOL     OW29902   0.360   1.233   5.397
 9668SOL    HW129903   0.351   1.146   5.348
 9668SOL    HW229904   0.288   1.239   5.466
 9669SOL     OW29905   0.381   6.826   0.047
 9669SOL    HW129906   0.414   6.786   6.982
 9669SOL    HW229907   0.326   6.759   0.096
 9670SOL     OW29908   4.940   4.728   6.602
 9670SOL    HW129909   4.879   4.774   6.666
 9670SOL    HW229910   4.955   4.786   6.522
 9671SOL     OW29911   0.237   5.345   5.351
 9671SOL    HW129912   0.148   5.392   5.357
 9671SOL    HW229913   0.222   5.247   5.359
 9672SOL     OW29914   0.677   6.054   4.853
 9672SOL    HW129915   0.629   6.012   4.930
 9672SOL    HW229916   0.656   6.003   4.770
 9673SOL     OW29917   3.595   4.289   6.606
 9673SOL    HW129918   3.607   4.275   6.704
 9673SOL    HW229919   3.669   4.347   6.572
 9674SOL     OW29920   3.256   6.182   1.878
 9674SOL    HW129921   3.261   6.125   1.796
 9674SOL    HW229922   3.172   6.161   1.928
 9675SOL     OW29923   6.562   1.976   2.496
 9675SOL    HW129924   6.537   1.901   2.436
 9675SOL    HW229925   6.661   1.986   2.498
 9676SOL     OW29926   0.835   3.943   4.539
 9676SOL    HW129927   0.881   4.007   4.477
 9676SOL    HW229928   0.765   3.993   4.591
 9677SOL     OW29929   2.084   3.631   6.009
 9677SOL    HW129930   2.120   3.563   5.945
 9677SOL    HW229931   2.009   3.682   5.966
 9678SOL     OW29932   3.965   3.888   3.280
 9678SOL    HW129933   3.912   3.954   3.227
 9678SOL    HW229934   3.956   3.909   3.378
 9679SOL     OW29935   1.726   2.574   1.920
 9679SOL    HW129936   1.633   2.550   1.946
 9679SOL    HW229937   1.724   2.645   1.850
 9680SOL     OW29938   5.962   6.052   3.257
 9680SOL    HW129939   6.006   6.140   3.275
 9680SOL    HW229940   5.960   5.998   3.341
 9681SOL     OW29941   2.210   1.110   2.242
 9681SOL    HW129942   2.141   1.040   2.260
 9681SOL    HW229943   2.288   1.069   2.196
 9682SOL     OW29944   5.564   4.269   3.472
 9682SOL    HW129945   5.486   4.283   3.410
 9682SOL    HW229946   5.534   4.218   3.552
 9683SOL     OW29947   4.186   6.133   0.188
 9683SOL    HW129948   4.193   6.190   0.269
 9683SOL    HW229949   4.241   6.173   0.114
 9684SOL     OW29950   0.549   3.808   5.347
 9684SOL    HW129951   0.594   3.798   5.259
 9684SOL    HW229952   0.482   3.735   5.360
 9685SOL     OW29953   1.362   3.149   1.101
 9685SOL    HW129954   1.345   3.053   1.125
 9685SOL    HW229955   1.460   3.163   1.090
 9686SOL     OW29956   6.638   0.674   1.788
 9686SOL    HW129957   6.595   0.701   1.874
 9686SOL    HW229958   6.707   0.604   1.805
 9687SOL     OW29959   2.498   6.959   3.681
 9687SOL    HW129960   2.544   6.896   3.619
 9687SOL    HW229961   2.556   0.019   3.695
 9688SOL     OW29962   0.178   1.388   3.285
 9688SOL    HW129963   0.189   1.404   3.187
 9688SOL    HW229964   0.254   1.333   3.319
 9689SOL     OW29965   2.954   6.457   6.456
 9689SOL    HW129966   2.969   6.515   6.536
 9689SOL    HW229967   2.942   6.514   6.375
 9690SOL     OW29968   6.305   5.085   0.668
 9690SOL    HW129969   6.352   5.014   0.720
 9690SOL    HW229970   6.213   5.055   0.644
 9691SOL     OW29971   1.611   5.140   2.227
 9691SOL    HW129972   1.691   5.189   2.262
 9691SOL    HW229973   1.639   5.053   2.186
 9692SOL     OW29974   2.964   5.411   1.551
 9692SOL    HW129975   3.022   5.344   1.506
 9692SOL    HW229976   2.927   5.474   1.482
 9693SOL     OW29977   6.637   5.979   2.105
 9693SOL    HW129978   6.648   5.959   2.202
 9693SOL    HW229979   6.564   6.047   2.093
 9694SOL     OW29980   1.438   2.667   6.810
 9694SOL    HW129981   1.467   2.572   6.823
 9694SOL    HW229982   1.370   2.690   6.879
 9695SOL     OW29983   6.519   4.391   1.406
 9695SOL    HW129984   6.578   4.473   1.409
 9695SOL    HW229985   6.568   4.315   1.449
 9696SOL     OW29986   4.018   3.032   1.771
 9696SOL    HW129987   3.935   3.000   1.818
 9696SOL    HW229988   4.016   3.132   1.764
 9697SOL     OW29989   0.349   4.999   0.013
 9697SOL    HW129990   0.320   5.075   6.975
 9697SOL    HW229991   0.372   4.920   6.977
 9698SOL     OW29992   5.554   1.788   5.108
 9698SOL    HW129993   5.581   1.744   5.194
 9698SOL    HW229994   5.490   1.862   5.128
 9699SOL     OW29995   1.514   3.544   0.052
 9699SOL    HW129996   1.444   3.502   0.109
 9699SOL    HW229997   1.471   3.595   6.998
 9700SOL     OW29998   3.708   4.462   5.604
 9700SOL    HW129999   3.776   4.507   5.662
 9700SOL    HW230000   3.669   4.528   5.541
 9701SOL     OW30001   4.467   4.965   4.724
 9701SOL    HW130002   4.428   4.972   4.632
 9701SOL    HW230003   4.424   5.032   4.784
 9702SOL     OW30004   5.053   1.117   1.051
 9702SOL    HW130005   5.019   1.125   1.145
 9702SOL    HW230006   5.149   1.089   1.054
 9703SOL     OW30007   3.113   6.051   4.278
 9703SOL    HW130008   3.053   6.097   4.344
 9703SOL    HW230009   3.089   6.081   4.185
 9704SOL     OW30010   4.073   6.634   2.969
 9704SOL    HW130011   4.087   6.681   3.056
 9704SOL    HW230012   4.090   6.698   2.894
 9705SOL     OW30013   3.276   4.678   0.445
 9705SOL    HW130014   3.362   4.724   0.467
 9705SOL    HW230015   3.294   4.590   0.402
 9706SOL     OW30016   6.027   3.185   2.307
 9706SOL    HW130017   6.108   3.236   2.277
 9706SOL    HW230018   6.056   3.107   2.363
 9707SOL     OW30019   2.163   4.979   2.140
 9707SOL    HW130020   2.234   4.973   2.071
 9707SOL    HW230021   2.192   5.043   2.212
 9708SOL     OW30022   2.161   1.858   3.264
 9708SOL    HW130023   2.181   1.781   3.325
 9708SOL    HW230024   2.063   1.877   3.267
 9709SOL     OW30025   1.699   6.384   2.921
 9709SOL    HW130026   1.618   6.354   2.870
 9709SOL    HW230027   1.684   6.370   3.019
 9710SOL     OW30028   0.427   1.240   3.330
 9710SOL    HW130029   0.507   1.300   3.334
 9710SOL    HW230030   0.457   1.144   3.331
 9711SOL     OW30031   1.068   3.733   5.892
 9711SOL    HW130032   1.084   3.782   5.807
 9711SOL    HW230033   1.117   3.646   5.890
 9712SOL     OW30034   5.365   2.203   4.117
 9712SOL    HW130035   5.336   2.298   4.109
 9712SOL    HW230036   5.399   2.171   4.028
 9713SOL     OW30037   6.575   5.042   3.176
 9713SOL    HW130038   6.575   5.066   3.273
 9713SOL    HW230039   6.481   5.020   3.147
 9714SOL     OW30040   2.074   2.505   1.647
 9714SOL    HW130041   2.135   2.435   1.610
 9714SOL    HW230042   2.015   2.464   1.717
 9715SOL     OW30043   5.209   5.613   5.186
 9715SOL    HW130044   5.276   5.580   5.254
 9715SOL    HW230045   5.141   5.541   5.171
 9716SOL     OW30046   4.513   1.688   6.385
 9716SOL    HW130047   4.559   1.762   6.336
 9716SOL    HW230048   4.550   1.683   6.478
 9717SOL     OW30049   5.662   5.601   4.308
 9717SOL    HW130050   5.707   5.626   4.222
 9717SOL    HW230051   5.732   5.581   4.377
 9718SOL     OW30052   3.578   3.422   1.220
 9718SOL    HW130053   3.629   3.419   1.305
 9718SOL    HW230054   3.638   3.396   1.144
 9719SOL     OW30055   0.638   2.601   0.229
 9719SOL    HW130056   0.603   2.621   0.137
 9719SOL    HW230057   0.706   2.527   0.223
 9720SOL     OW30058   0.619   6.636   2.287
 9720SOL    HW130059   0.633   6.563   2.354
 9720SOL    HW230060   0.542   6.612   2.228
 9721SOL     OW30061   6.701   3.970   2.512
 9721SOL    HW130062   6.741   3.892   2.464
 9721SOL    HW230063   6.687   3.947   2.608
 9722SOL     OW30064   0.520   0.753   3.702
 9722SOL    HW130065   0.439   0.699   3.680
 9722SOL    HW230066   0.547   0.807   3.622
 9723SOL     OW30067   0.037   0.708   3.507
 9723SOL    HW130068   0.099   0.780   3.477
 9723SOL    HW230069   0.064   0.621   3.466
 9724SOL     OW30070   3.027   2.206   1.143
 9724SOL    HW130071   3.114   2.250   1.163
 9724SOL    HW230072   3.039   2.137   1.072
 9725SOL     OW30073   5.483   3.362   5.272
 9725SOL    HW130074   5.408   3.428   5.277
 9725SOL    HW230075   5.454   3.282   5.220
 9726SOL     OW30076   4.721   6.502   4.712
 9726SOL    HW130077   4.678   6.442   4.780
 9726SOL    HW230078   4.780   6.567   4.759
 9727SOL     OW30079   0.875   3.323   5.847
 9727SOL    HW130080   0.961   3.285   5.812
 9727SOL    HW230081   0.832   3.256   5.907
 9728SOL     OW30082   2.582   5.687   6.307
 9728SOL    HW130083   2.519   5.700   6.383
 9728SOL    HW230084   2.594   5.589   6.289
 9729SOL     OW30085   1.563   4.535   3.416
 9729SOL    HW130086   1.657   4.530   3.382
 9729SOL    HW230087   1.503   4.482   3.356
 9730SOL     OW30088   6.729   3.454   2.434
 9730SOL    HW130089   6.709   3.480   2.339
 9730SOL    HW230090   6.664   3.385   2.464
 9731SOL     OW30091   3.618   5.350   0.461
 9731SOL    HW130092   3.560   5.318   0.536
 9731SOL    HW230093   3.626   5.278   0.392
 9732SOL     OW30094   6.805   6.170   2.466
 9732SOL    HW130095   6.784   6.099   2.399
 9732SOL    HW230096   6.896   6.208   2.447
 9733SOL     OW30097   4.888   4.896   4.955
 9733SOL    HW130098   4.981   4.917   4.923
 9733SOL    HW230099   4.829   4.880   4.876
 9734SOL     OW30100   5.546   2.379   3.793
 9734SOL    HW130101   5.462   2.341   3.754
 9734SOL    HW230102   5.608   2.406   3.720
 9735SOL     OW30103   2.164   5.179   1.801
 9735SOL    HW130104   2.235   5.112   1.822
 9735SOL    HW230105   2.202   5.252   1.744
 9736SOL     OW30106   4.378   1.064   6.636
 9736SOL    HW130107   4.445   1.138   6.647
 9736SOL    HW230108   4.324   1.080   6.553
 9737SOL     OW30109   4.128   2.193   5.047
 9737SOL    HW130110   4.143   2.287   5.076
 9737SOL    HW230111   4.210   2.159   5.002
 9738SOL     OW30112   1.718   1.232   3.174
 9738SOL    HW130113   1.793   1.185   3.127
 9738SOL    HW230114   1.701   1.320   3.131
 9739SOL     OW30115   5.880   4.925   1.554
 9739SOL    HW130116   5.954   4.898   1.492
 9739SOL    HW230117   5.840   5.011   1.523
 9740SOL     OW30118   6.103   4.824   2.977
 9740SOL    HW130119   6.007   4.805   2.955
 9740SOL    HW230120   6.112   4.840   3.075
 9741SOL     OW30121   4.532   1.898   2.120
 9741SOL    HW130122   4.453   1.850   2.083
 9741SOL    HW230123   4.510   1.935   2.210
 9742SOL     OW30124   5.470   1.100   3.518
 9742SOL    HW130125   5.474   1.057   3.608
 9742SOL    HW230126   5.563   1.109   3.481
 9743SOL     OW30127   1.624   3.080   6.164
 9743SOL    HW130128   1.690   3.011   6.132
 9743SOL    HW230129   1.558   3.037   6.225
 9744SOL     OW30130   1.780   1.314   1.704
 9744SOL    HW130131   1.825   1.319   1.793
 9744SOL    HW230132   1.681   1.324   1.716
 9745SOL     OW30133   0.634   2.378   4.849
 9745SOL    HW130134   0.572   2.317   4.800
 9745SOL    HW230135   0.607   2.473   4.834
 9746SOL     OW30136   5.928   0.598   5.044
 9746SOL    HW130137   5.994   0.648   4.987
 9746SOL    HW230138   5.898   0.516   4.996
 9747SOL     OW30139   0.941   0.416   6.258
 9747SOL    HW130140   0.976   0.509   6.248
 9747SOL    HW230141   0.914   0.381   6.169
 9748SOL     OW30142   1.268   6.126   4.062
 9748SOL    HW130143   1.201   6.144   3.991
 9748SOL    HW230144   1.358   6.156   4.032
 9749SOL     OW30145   0.745   3.730   4.290
 9749SOL    HW130146   0.758   3.659   4.359
 9749SOL    HW230147   0.706   3.812   4.333
 9750SOL     OW30148   4.570   5.046   3.619
 9750SOL    HW130149   4.615   4.960   3.642
 9750SOL    HW230150   4.633   5.122   3.631
 9751SOL     OW30151   1.862   2.326   0.589
 9751SOL    HW130152   1.826   2.263   0.520
 9751SOL    HW230153   1.961   2.315   0.595
 9752SOL     OW30154   4.451   0.707   5.281
 9752SOL    HW130155   4.366   0.672   5.320
 9752SOL    HW230156   4.471   0.796   5.321
 9753SOL     OW30157   6.509   5.926   5.503
 9753SOL    HW130158   6.485   6.019   5.476
 9753SOL    HW230159   6.444   5.893   5.571
 9754SOL     OW30160   1.224   2.022   6.842
 9754SOL    HW130161   1.189   1.991   6.931
 9754SOL    HW230162   1.202   2.119   6.831
 9755SOL     OW30163   3.825   3.534   5.041
 9755SOL    HW130164   3.831   3.633   5.051
 9755SOL    HW230165   3.910   3.500   5.000
 9756SOL     OW30166   5.935   2.507   6.706
 9756SOL    HW130167   5.851   2.535   6.752
 9756SOL    HW230168   6.011   2.565   6.736
 9757SOL     OW30169   5.952   2.454   3.960
 9757SOL    HW130170   5.999   2.446   4.048
 9757SOL    HW230171   5.907   2.367   3.939
 9758SOL     OW30172   3.133   0.514   6.788
 9758SOL    HW130173   3.067   0.438   6.786
 9758SOL    HW230174   3.085   0.599   6.807
 9759SOL     OW30175   3.093   6.480   0.809
 9759SOL    HW130176   3.041   6.454   0.727
 9759SOL    HW230177   3.163   6.547   0.785
 9760SOL     OW30178   5.828   4.396   6.000
 9760SOL    HW130179   5.892   4.380   5.925
 9760SOL    HW230180   5.844   4.329   6.072
 9761SOL     OW30181   5.662   5.011   1.862
 9761SOL    HW130182   5.620   5.059   1.939
 9761SOL    HW230183   5.647   4.912   1.871
 9762SOL     OW30184   2.430   2.377   4.818
 9762SOL    HW130185   2.501   2.378   4.889
 9762SOL    HW230186   2.341   2.362   4.860
 9763SOL     OW30187   3.189   1.902   1.315
 9763SOL    HW130188   3.273   1.937   1.273
 9763SOL    HW230189   3.154   1.826   1.261
 9764SOL     OW30190   0.858   2.074   3.097
 9764SOL    HW130191   0.923   2.112   3.164
 9764SOL    HW230192   0.774   2.128   3.098
 9765SOL     OW30193   0.561   2.384   5.702
 9765SOL    HW130194   0.540   2.462   5.761
 9765SOL    HW230195   0.658   2.385   5.679
 9766SOL     OW30196   2.842   0.331   2.857
 9766SOL    HW130197   2.873   0.308   2.949
 9766SOL    HW230198   2.774   0.264   2.827
 9767SOL     OW30199   5.274   0.728   5.151
 9767SOL    HW130200   5.180   0.694   5.144
 9767SOL    HW230201   5.319   0.685   5.229
 9768SOL     OW30202   4.404   2.029   2.889
 9768SOL    HW130203   4.452   2.014   2.802
 9768SOL    HW230204   4.378   2.125   2.897
 9769SOL     OW30205   1.178   2.069   0.958
 9769SOL    HW130206   1.207   1.996   0.897
 9769SOL    HW230207   1.212   2.051   1.050
 9770SOL     OW30208   5.577   4.670   5.621
 9770SOL    HW130209   5.555   4.672   5.718
 9770SOL    HW230210   5.586   4.575   5.591
 9771SOL     OW30211   4.006   5.436   6.151
 9771SOL    HW130212   4.016   5.478   6.241
 9771SOL    HW230213   3.909   5.421   6.132
 9772SOL     OW30214   6.859   0.512   1.829
 9772SOL    HW130215   6.879   0.416   1.847
 9772SOL    HW230216   6.939   0.568   1.852
 9773SOL     OW30217   6.219   5.366   3.652
 9773SOL    HW130218   6.249   5.311   3.575
 9773SOL    HW230219   6.119   5.370   3.653
 9774SOL     OW30220   6.040   4.717   4.135
 9774SOL    HW130221   6.100   4.653   4.183
 9774SOL    HW230222   6.069   4.811   4.154
 9775SOL     OW30223   1.942   2.509   4.936
 9775SOL    HW130224   1.942   2.523   5.035
 9775SOL    HW230225   1.868   2.447   4.911
 9776SOL     OW30226   0.309   6.131   4.758
 9776SOL    HW130227   0.215   6.100   4.769
 9776SOL    HW230228   0.317   6.226   4.787
 9777SOL     OW30229   5.612   4.498   6.214
 9777SOL    HW130230   5.567   4.427   6.160
 9777SOL    HW230231   5.698   4.463   6.250
 9778SOL     OW30232   4.814   7.016   2.679
 9778SOL    HW130233   4.817   7.003   2.580
 9778SOL    HW230234   4.719   0.002   2.710
 9779SOL     OW30235   2.642   1.923   5.383
 9779SOL    HW130236   2.568   1.904   5.448
 9779SOL    HW230237   2.687   2.009   5.409
 9780SOL     OW30238   2.782   4.313   0.445
 9780SOL    HW130239   2.853   4.271   0.388
 9780SOL    HW230240   2.740   4.389   0.396
 9781SOL     OW30241   2.139   5.183   5.062
 9781SOL    HW130242   2.066   5.133   5.016
 9781SOL    HW230243   2.104   5.221   5.148
 9782SOL     OW30244   6.575   0.300   1.952
 9782SOL    HW130245   6.642   0.368   1.922
 9782SOL    HW230246   6.510   0.341   2.015
 9783SOL     OW30247   5.507   1.411   1.709
 9783SOL    HW130248   5.422   1.444   1.668
 9783SOL    HW230249   5.543   1.335   1.654
 9784SOL     OW30250   4.542   0.654   3.255
 9784SOL    HW130251   4.525   0.651   3.156
 9784SOL    HW230252   4.463   0.618   3.304
 9785SOL     OW30253   0.896   2.792   2.108
 9785SOL    HW130254   0.974   2.801   2.171
 9785SOL    HW230255   0.902   2.863   2.037
 9786SOL     OW30256   3.273   5.581   5.314
 9786SOL    HW130257   3.221   5.600   5.397
 9786SOL    HW230258   3.233   5.630   5.237
 9787SOL     OW30259   5.089   4.358   2.035
 9787SOL    HW130260   5.168   4.321   2.084
 9787SOL    HW230261   5.064   4.296   1.960
 9788SOL     OW30262   6.214   0.812   5.356
 9788SOL    HW130263   6.127   0.814   5.307
 9788SOL    HW230264   6.206   0.752   5.436
 9789SOL     OW30265   2.309   5.413   5.087
 9789SOL    HW130266   2.281   5.318   5.073
 9789SOL    HW230267   2.381   5.436   5.022
 9790SOL     OW30268   5.697   2.225   4.237
 9790SOL    HW130269   5.636   2.150   4.262
 9790SOL    HW230270   5.697   2.235   4.137
 9791SOL     OW30271   0.394   2.046   1.590
 9791SOL    HW130272   0.313   2.074   1.538
 9791SOL    HW230273   0.383   2.071   1.686
 9792SOL     OW30274   4.353   5.350   0.701
 9792SOL    HW130275   4.426   5.419   0.702
 9792SOL    HW230276   4.264   5.396   0.707
 9793SOL     OW30277   5.530   5.399   1.946
 9793SOL    HW130278   5.554   5.435   2.036
 9793SOL    HW230279   5.490   5.472   1.890
 9794SOL     OW30280   4.966   3.025   6.175
 9794SOL    HW130281   4.929   3.058   6.089
 9794SOL    HW230282   4.892   3.010   6.240
 9795SOL     OW30283   1.618   3.357   3.821
 9795SOL    HW130284   1.679   3.436   3.813
 9795SOL    HW230285   1.669   3.274   3.800
 9796SOL     OW30286   2.990   5.081   6.793
 9796SOL    HW130287   2.973   5.179   6.791
 9796SOL    HW230288   3.065   5.059   6.730
 9797SOL     OW30289   4.711   3.344   5.852
 9797SOL    HW130290   4.767   3.427   5.854
 9797SOL    HW230291   4.616   3.368   5.872
 9798SOL     OW30292   2.475   1.894   1.121
 9798SOL    HW130293   2.395   1.892   1.061
 9798SOL    HW230294   2.515   1.986   1.119
 9799SOL     OW30295   2.917   3.597   2.267
 9799SOL    HW130296   2.821   3.619   2.252
 9799SOL    HW230297   2.965   3.677   2.302
 9800SOL     OW30298   4.316   4.684   6.550
 9800SOL    HW130299   4.406   4.724   6.535
 9800SOL    HW230300   4.247   4.756   6.544
 9801SOL     OW30301   4.245   5.761   0.009
 9801SOL    HW130302   4.183   5.684   7.013
 9801SOL    HW230303   4.199   5.847   7.008
 9802SOL     OW30304   6.898   3.286   0.706
 9802SOL    HW130305   6.914   3.384   0.689
 9802SOL    HW230306   6.825   3.276   0.774
 9803SOL     OW30307   6.033   0.404   6.577
 9803SOL    HW130308   6.053   0.498   6.604
 9803SOL    HW230309   6.097   0.377   6.505
 9804SOL     OW30310   6.172   5.994   4.418
 9804SOL    HW130311   6.167   5.896   4.438
 9804SOL    HW230312   6.080   6.033   4.417
 9805SOL     OW30313   1.702   5.193   0.084
 9805SOL    HW130314   1.610   5.155   0.093
 9805SOL    HW230315   1.769   5.119   0.094
 9806SOL     OW30316   0.139   2.062   2.901
 9806SOL    HW130317   0.154   2.160   2.889
 9806SOL    HW230318   0.050   2.037   2.864
 9807SOL     OW30319   4.140   2.243   0.940
 9807SOL    HW130320   4.233   2.207   0.932
 9807SOL    HW230321   4.118   2.258   1.036
 9808SOL     OW30322   0.458   1.416   4.628
 9808SOL    HW130323   0.475   1.401   4.531
 9808SOL    HW230324   0.384   1.355   4.659
 9809SOL     OW30325   0.497   0.959   4.808
 9809SOL    HW130326   0.471   0.969   4.712
 9809SOL    HW230327   0.550   1.039   4.837
 9810SOL     OW30328   3.632   1.087   3.330
 9810SOL    HW130329   3.588   1.141   3.402
 9810SOL    HW230330   3.583   1.101   3.244
 9811SOL     OW30331   0.545   6.875   2.448
 9811SOL    HW130332   0.584   6.809   2.512
 9811SOL    HW230333   0.567   6.847   2.354
 9812SOL     OW30334   4.687   2.623   6.014
 9812SOL    HW130335   4.672   2.655   6.108
 9812SOL    HW230336   4.703   2.524   6.014
 9813SOL     OW30337   6.750   4.561   0.377
 9813SOL    HW130338   6.734   4.485   0.440
 9813SOL    HW230339   6.840   4.600   0.393
 9814SOL     OW30340   6.884   0.226   5.411
 9814SOL    HW130341   6.842   0.228   5.502
 9814SOL    HW230342   6.852   0.144   5.362
 9815SOL     OW30343   6.121   3.646   2.473
 9815SOL    HW130344   6.064   3.627   2.392
 9815SOL    HW230345   6.084   3.724   2.522
 9816SOL     OW30346   6.823   6.604   7.007
 9816SOL    HW130347   6.912   6.644   6.984
 9816SOL    HW230348   6.828   6.563   0.077
 9817SOL     OW30349   2.508   6.611   6.846
 9817SOL    HW130350   2.475   6.651   6.931
 9817SOL    HW230351   2.503   6.511   6.852
 9818SOL     OW30352   1.067   6.671   3.579
 9818SOL    HW130353   1.026   6.762   3.569
 9818SOL    HW230354   1.061   6.642   3.674
 9819SOL     OW30355   0.284   3.722   5.047
 9819SOL    HW130356   0.326   3.664   4.978
 9819SOL    HW230357   0.332   3.809   5.052
 9820SOL     OW30358   3.878   1.894   5.637
 9820SOL    HW130359   3.961   1.849   5.670
 9820SOL    HW230360   3.799   1.858   5.688
 9821SOL     OW30361   4.478   2.520   1.669
 9821SOL    HW130362   4.380   2.510   1.690
 9821SOL    HW230363   4.522   2.575   1.739
 9822SOL     OW30364   3.393   6.181   5.423
 9822SOL    HW130365   3.479   6.193   5.374
 9822SOL    HW230366   3.340   6.108   5.379
 9823SOL     OW30367   1.932   0.203   3.240
 9823SOL    HW130368   1.899   0.212   3.334
 9823SOL    HW230369   1.927   0.292   3.195
 9824SOL     OW30370   1.065   6.043   5.333
 9824SOL    HW130371   0.990   5.981   5.356
 9824SOL    HW230372   1.097   6.024   5.240
 9825SOL     OW30373   5.317   6.115   5.500
 9825SOL    HW130374   5.280   6.063   5.577
 9825SOL    HW230375   5.358   6.200   5.534
 9826SOL     OW30376   2.022   5.993   5.124
 9826SOL    HW130377   1.938   6.038   5.092
 9826SOL    HW230378   2.000   5.899   5.153
 9827SOL     OW30379   1.504   5.567   1.728
 9827SOL    HW130380   1.574   5.495   1.737
 9827SOL    HW230381   1.512   5.630   1.805
 9828SOL     OW30382   4.163   2.160   4.613
 9828SOL    HW130383   4.205   2.213   4.686
 9828SOL    HW230384   4.152   2.218   4.532
 9829SOL     OW30385   4.260   5.505   5.522
 9829SOL    HW130386   4.218   5.595   5.532
 9829SOL    HW230387   4.189   5.435   5.519
 9830SOL     OW30388   6.089   2.538   2.629
 9830SOL    HW130389   6.114   2.529   2.726
 9830SOL    HW230390   6.129   2.623   2.593
 9831SOL     OW30391   0.472   3.702   2.696
 9831SOL    HW130392   0.512   3.614   2.671
 9831SOL    HW230393   0.538   3.775   2.680
 9832SOL     OW30394   4.742   4.949   4.727
 9832SOL    HW130395   4.789   4.865   4.702
 9832SOL    HW230396   4.644   4.940   4.705
 9833SOL     OW30397   3.793   4.141   4.242
 9833SOL    HW130398   3.750   4.211   4.299
 9833SOL    HW230399   3.751   4.141   4.151
 9834SOL     OW30400   2.652   6.229   6.271
 9834SOL    HW130401   2.718   6.194   6.338
 9834SOL    HW230402   2.562   6.189   6.288
 9835SOL     OW30403   4.121   3.746   4.484
 9835SOL    HW130404   4.130   3.669   4.420
 9835SOL    HW230405   4.136   3.832   4.435
 9836SOL     OW30406   0.578   3.924   6.109
 9836SOL    HW130407   0.573   4.005   6.167
 9836SOL    HW230408   0.555   3.947   6.015
 9837SOL     OW30409   5.358   2.016   3.281
 9837SOL    HW130410   5.306   1.945   3.328
 9837SOL    HW230411   5.449   1.981   3.258
 9838SOL     OW30412   1.266   6.534   1.283
 9838SOL    HW130413   1.294   6.553   1.190
 9838SOL    HW230414   1.167   6.548   1.291
 9839SOL     OW30415   4.679   6.964   3.908
 9839SOL    HW130416   4.665   6.985   3.811
 9839SOL    HW230417   4.599   6.992   3.961
 9840SOL     OW30418   6.046   0.794   6.569
 9840SOL    HW130419   6.064   0.891   6.553
 9840SOL    HW230420   6.017   0.750   6.484
 9841SOL     OW30421   0.456   6.605   3.905
 9841SOL    HW130422   0.478   6.697   3.870
 9841SOL    HW230423   0.506   6.537   3.853
 9842SOL     OW30424   2.847   2.047   6.721
 9842SOL    HW130425   2.903   1.971   6.686
 9842SOL    HW230426   2.754   2.040   6.685
 9843SOL     OW30427   0.829   0.533   1.622
 9843SOL    HW130428   0.912   0.561   1.573
 9843SOL    HW230429   0.777   0.469   1.565
 9844SOL     OW30430   4.501   6.959   4.410
 9844SOL    HW130431   4.503   6.900   4.491
 9844SOL    HW230432   4.586   7.011   4.406
 9845SOL     OW30433   1.815   3.665   2.065
 9845SOL    HW130434   1.751   3.604   2.018
 9845SOL    HW230435   1.777   3.692   2.153
 9846SOL     OW30436   6.083   2.528   1.228
 9846SOL    HW130437   6.010   2.520   1.297
 9846SOL    HW230438   6.129   2.439   1.219
 9847SOL     OW30439   4.417   3.687   0.151
 9847SOL    HW130440   4.451   3.595   0.130
 9847SOL    HW230441   4.451   3.751   0.082
 9848SOL     OW30442   3.435   3.932   5.851
 9848SOL    HW130443   3.477   3.992   5.920
 9848SOL    HW230444   3.484   3.942   5.764
 9849SOL     OW30445   0.203   2.140   4.481
 9849SOL    HW130446   0.258   2.058   4.494
 9849SOL    HW230447   0.261   2.215   4.451
 9850SOL     OW30448   1.400   0.390   4.538
 9850SOL    HW130449   1.323   0.406   4.600
 9850SOL    HW230450   1.396   0.296   4.504
 9851SOL     OW30451   3.502   4.962   4.373
 9851SOL    HW130452   3.574   4.922   4.430
 9851SOL    HW230453   3.517   4.936   4.277
 9852SOL     OW30454   2.175   0.616   6.863
 9852SOL    HW130455   2.141   0.551   6.931
 9852SOL    HW230456   2.103   0.680   6.839
 9853SOL     OW30457   6.518   4.418   3.530
 9853SOL    HW130458   6.523   4.511   3.568
 9853SOL    HW230459   6.541   4.351   3.600
 9854SOL     OW30460   0.646   4.318   6.336
 9854SOL    HW130461   0.655   4.402   6.390
 9854SOL    HW230462   0.728   4.305   6.281
 9855SOL     OW30463   1.305   5.001   1.504
 9855SOL    HW130464   1.253   4.972   1.423
 9855SOL    HW230465   1.402   4.982   1.490
 9856SOL     OW30466   5.866   4.257   3.298
 9856SOL    HW130467   5.768   4.247   3.316
 9856SOL    HW230468   5.882   4.338   3.241
 9857SOL     OW30469   3.566   0.541   5.255
 9857SOL    HW130470   3.661   0.569   5.264
 9857SOL    HW230471   3.525   0.529   5.345
 9858SOL     OW30472   6.016   6.374   2.647
 9858SOL    HW130473   5.966   6.289   2.664
 9858SOL    HW230474   5.963   6.451   2.682
 9859SOL     OW30475   0.055   6.021   3.297
 9859SOL    HW130476   0.079   6.013   3.200
 9859SOL    HW230477   0.072   5.934   3.343
 9860SOL     OW30478   1.098   3.434   4.179
 9860SOL    HW130479   1.032   3.365   4.207
 9860SOL    HW230480   1.065   3.480   4.096
 9861SOL     OW30481   3.150   1.830   3.254
 9861SOL    HW130482   3.247   1.815   3.235
 9861SOL    HW230483   3.107   1.745   3.283
 9862SOL     OW30484   1.181   4.676   0.273
 9862SOL    HW130485   1.105   4.731   0.239
 9862SOL    HW230486   1.187   4.683   0.372
 9863SOL     OW30487   3.516   5.594   0.439
 9863SOL    HW130488   3.556   5.504   0.456
 9863SOL    HW230489   3.494   5.638   0.526
 9864SOL     OW30490   2.801   5.408   5.510
 9864SOL    HW130491   2.829   5.484   5.568
 9864SOL    HW230492   2.865   5.332   5.521
 9865SOL     OW30493   0.377   6.127   5.278
 9865SOL    HW130494   0.365   6.101   5.374
 9865SOL    HW230495   0.406   6.047   5.226
 9866SOL     OW30496   6.089   4.390   4.983
 9866SOL    HW130497   6.067   4.383   4.886
 9866SOL    HW230498   6.111   4.485   5.006
 9867SOL     OW30499   4.277   1.568   1.885
 9867SOL    HW130500   4.210   1.583   1.812
 9867SOL    HW230501   4.305   1.472   1.886
 9868SOL     OW30502   2.127   3.666   3.691
 9868SOL    HW130503   2.168   3.750   3.726
 9868SOL    HW230504   2.076   3.686   3.608
 9869SOL     OW30505   6.029   2.939   0.921
 9869SOL    HW130506   6.084   2.912   0.842
 9869SOL    HW230507   6.042   2.872   0.994
 9870SOL     OW30508   2.716   1.516   2.587
 9870SOL    HW130509   2.811   1.493   2.609
 9870SOL    HW230510   2.655   1.454   2.634
 9871SOL     OW30511   6.854   4.708   4.607
 9871SOL    HW130512   6.837   4.610   4.619
 9871SOL    HW230513   6.943   4.732   4.645
 9872SOL     OW30514   0.697   4.691   6.141
 9872SOL    HW130515   0.716   4.789   6.140
 9872SOL    HW230516   0.626   4.671   6.073
 9873SOL     OW30517   1.335   1.901   5.819
 9873SOL    HW130518   1.434   1.887   5.820
 9873SOL    HW230519   1.296   1.856   5.738
 9874SOL     OW30520   0.086   2.626   4.904
 9874SOL    HW130521   0.058   2.718   4.928
 9874SOL    HW230522   0.164   2.599   4.960
 9875SOL     OW30523   6.523   5.690   0.923
 9875SOL    HW130524   6.566   5.603   0.949
 9875SOL    HW230525   6.428   5.691   0.954
 9876SOL     OW30526   1.696   6.433   3.855
 9876SOL    HW130527   1.742   6.473   3.775
 9876SOL    HW230528   1.683   6.504   3.925
 9877SOL     OW30529   0.977   4.765   5.107
 9877SOL    HW130530   1.046   4.744   5.038
 9877SOL    HW230531   1.000   4.850   5.153
 9878SOL     OW30532   2.605   2.831   6.658
 9878SOL    HW130533   2.676   2.798   6.596
 9878SOL    HW230534   2.641   2.909   6.711
 9879SOL     OW30535   6.956   5.271   6.378
 9879SOL    HW130536   6.963   5.304   6.472
 9879SOL    HW230537   6.880   5.206   6.372
 9880SOL     OW30538   2.965   1.448   0.236
 9880SOL    HW130539   2.899   1.508   0.281
 9880SOL    HW230540   3.020   1.401   0.305
 9881SOL     OW30541   5.922   0.712   4.007
 9881SOL    HW130542   6.020   0.692   4.005
 9881SOL    HW230543   5.908   0.811   4.005
 9882SOL     OW30544   3.127   3.004   4.781
 9882SOL    HW130545   3.070   3.086   4.777
 9882SOL    HW230546   3.069   2.924   4.795
 9883SOL     OW30547   2.654   0.058   1.939
 9883SOL    HW130548   2.602   0.055   1.853
 9883SOL    HW230549   2.618   0.132   1.997
 9884SOL     OW30550   2.746   3.484   5.809
 9884SOL    HW130551   2.681   3.552   5.773
 9884SOL    HW230552   2.818   3.468   5.742
 9885SOL     OW30553   5.476   2.760   5.058
 9885SOL    HW130554   5.472   2.750   5.158
 9885SOL    HW230555   5.453   2.673   5.015
 9886SOL     OW30556   4.027   5.747   1.017
 9886SOL    HW130557   4.122   5.728   0.991
 9886SOL    HW230558   4.018   5.741   1.116
 9887SOL     OW30559   3.146   0.369   6.414
 9887SOL    HW130560   3.087   0.291   6.436
 9887SOL    HW230561   3.135   0.394   6.318
 9888SOL     OW30562   6.654   6.275   3.318
 9888SOL    HW130563   6.743   6.320   3.321
 9888SOL    HW230564   6.613   6.277   3.409
 9889SOL     OW30565   6.788   5.764   3.661
 9889SOL    HW130566   6.755   5.858   3.672
 9889SOL    HW230567   6.856   5.744   3.732
 9890SOL     OW30568   0.294   3.649   1.899
 9890SOL    HW130569   0.306   3.560   1.854
 9890SOL    HW230570   0.236   3.638   1.980
 9891SOL     OW30571   5.533   5.713   0.971
 9891SOL    HW130572   5.573   5.757   1.051
 9891SOL    HW230573   5.532   5.777   0.895
 9892SOL     OW30574   1.801   4.786   3.984
 9892SOL    HW130575   1.834   4.697   3.952
 9892SOL    HW230576   1.822   4.796   4.081
 9893SOL     OW30577   5.061   5.303   3.638
 9893SOL    HW130578   5.077   5.210   3.603
 9893SOL    HW230579   5.135   5.363   3.607
 9894SOL     OW30580   4.115   3.404   5.797
 9894SOL    HW130581   4.197   3.399   5.740
 9894SOL    HW230582   4.099   3.316   5.841
 9895SOL     OW30583   5.641   2.080   6.360
 9895SOL    HW130584   5.736   2.106   6.376
 9895SOL    HW230585   5.638   1.998   6.302
 9896SOL     OW30586   4.315   3.407   0.287
 9896SOL    HW130587   4.392   3.393   0.225
 9896SOL    HW230588   4.298   3.506   0.297
 9897SOL     OW30589   6.718   2.005   3.781
 9897SOL    HW130590   6.719   1.920   3.834
 9897SOL    HW230591   6.812   2.033   3.761
 9898SOL     OW30592   1.108   5.269   5.605
 9898SOL    HW130593   1.159   5.355   5.611
 9898SOL    HW230594   1.138   5.217   5.525
 9899SOL     OW30595   5.855   4.695   1.705
 9899SOL    HW130596   5.815   4.703   1.797
 9899SOL    HW230597   5.864   4.786   1.664
 9900SOL     OW30598   0.788   3.568   3.279
 9900SOL    HW130599   0.824   3.509   3.207
 9900SOL    HW230600   0.731   3.514   3.341
 9901SOL     OW30601   2.932   1.752   5.330
 9901SOL    HW130602   2.851   1.808   5.317
 9901SOL    HW230603   2.959   1.754   5.426
 9902SOL     OW30604   4.490   3.847   6.996
 9902SOL    HW130605   4.431   3.928   7.005
 9902SOL    HW230606   4.493   3.818   6.901
 9903SOL     OW30607   3.984   1.257   1.394
 9903SOL    HW130608   3.940   1.190   1.454
 9903SOL    HW230609   3.969   1.349   1.430
 9904SOL     OW30610   6.435   0.425   2.137
 9904SOL    HW130611   6.486   0.477   2.206
 9904SOL    HW230612   6.358   0.480   2.105
 9905SOL     OW30613   1.316   6.262   5.281
 9905SOL    HW130614   1.245   6.333   5.283
 9905SOL    HW230615   1.374   6.272   5.362
 9906SOL     OW30616   3.276   3.122   5.976
 9906SOL    HW130617   3.315   3.062   6.046
 9906SOL    HW230618   3.198   3.076   5.933
 9907SOL     OW30619   1.994   6.547   2.522
 9907SOL    HW130620   1.919   6.563   2.458
 9907SOL    HW230621   1.957   6.539   2.615
 9908SOL     OW30622   0.939   3.459   5.526
 9908SOL    HW130623   0.917   3.540   5.581
 9908SOL    HW230624   1.032   3.429   5.546
 9909SOL     OW30625   3.991   6.629   2.605
 9909SOL    HW130626   4.083   6.601   2.629
 9909SOL    HW230627   3.980   6.624   2.505
 9910SOL     OW30628   0.180   4.051   1.844
 9910SOL    HW130629   0.260   4.006   1.805
 9910SOL    HW230630   0.196   4.070   1.941
 9911SOL     OW30631   2.763   4.730   3.523
 9911SOL    HW130632   2.749   4.658   3.455
 9911SOL    HW230633   2.831   4.795   3.490
 9912SOL     OW30634   5.142   0.229   1.412
 9912SOL    HW130635   5.044   0.221   1.428
 9912SOL    HW230636   5.182   0.137   1.403
 9913SOL     OW30637   4.622   2.025   2.656
 9913SOL    HW130638   4.659   2.114   2.627
 9913SOL    HW230639   4.687   1.953   2.631
 9914SOL     OW30640   1.586   6.141   5.218
 9914SOL    HW130641   1.539   6.198   5.286
 9914SOL    HW230642   1.573   6.044   5.241
 9915SOL     OW30643   5.374   3.592   4.525
 9915SOL    HW130644   5.459   3.638   4.551
 9915SOL    HW230645   5.346   3.621   4.434
 9916SOL     OW30646   2.319   3.107   1.255
 9916SOL    HW130647   2.414   3.135   1.269
 9916SOL    HW230648   2.295   3.118   1.158
 9917SOL     OW30649   2.348   3.482   5.598
 9917SOL    HW130650   2.444   3.475   5.571
 9917SOL    HW230651   2.315   3.575   5.583
 9918SOL     OW30652   1.562   1.239   4.850
 9918SOL    HW130653   1.644   1.297   4.850
 9918SOL    HW230654   1.563   1.180   4.931
 9919SOL     OW30655   0.100   5.726   3.122
 9919SOL    HW130656   0.116   5.815   3.080
 9919SOL    HW230657   0.109   5.734   3.222
 9920SOL     OW30658   4.733   6.783   1.889
 9920SOL    HW130659   4.746   6.872   1.845
 9920SOL    HW230660   4.635   6.767   1.901
 9921SOL     OW30661   5.136   0.165   2.953
 9921SOL    HW130662   5.072   0.089   2.947
 9921SOL    HW230663   5.092   0.249   2.923
 9922SOL     OW30664   4.551   3.072   1.404
 9922SOL    HW130665   4.523   3.075   1.500
 9922SOL    HW230666   4.645   3.039   1.398
 9923SOL     OW30667   6.648   1.478   6.349
 9923SOL    HW130668   6.739   1.512   6.372
 9923SOL    HW230669   6.579   1.542   6.382
 9924SOL     OW30670   5.924   0.868   3.103
 9924SOL    HW130671   5.990   0.801   3.136
 9924SOL    HW230672   5.971   0.935   3.045
 9925SOL     OW30673   2.323   2.779   4.855
 9925SOL    HW130674   2.335   2.854   4.919
 9925SOL    HW230675   2.412   2.749   4.821
 9926SOL     OW30676   0.993   1.816   0.615
 9926SOL    HW130677   0.944   1.904   0.619
 9926SOL    HW230678   1.063   1.821   0.544
 9927SOL     OW30679   0.833   2.461   2.716
 9927SOL    HW130680   0.842   2.366   2.688
 9927SOL    HW230681   0.737   2.484   2.725
 9928SOL     OW30682   0.120   3.221   2.783
 9928SOL    HW130683   0.112   3.262   2.692
 9928SOL    HW230684   0.103   3.122   2.777
 9929SOL     OW30685   1.937   4.411   6.398
 9929SOL    HW130686   1.898   4.451   6.316
 9929SOL    HW230687   2.037   4.407   6.389
 9930SOL     OW30688   0.494   5.704   0.030
 9930SOL    HW130689   0.484   5.691   0.128
 9930SOL    HW230690   0.413   5.750   7.014
 9931SOL     OW30691   2.545   5.412   6.275
 9931SOL    HW130692   2.455   5.367   6.276
 9931SOL    HW230693   2.593   5.388   6.191
 9932SOL     OW30694   2.081   2.226   0.130
 9932SOL    HW130695   2.180   2.242   0.130
 9932SOL    HW230696   2.063   2.128   0.143
 9933SOL     OW30697   1.023   2.395   3.956
 9933SOL    HW130698   0.978   2.359   3.875
 9933SOL    HW230699   1.112   2.433   3.930
 9934SOL     OW30700   4.028   0.867   6.167
 9934SOL    HW130701   4.073   0.811   6.097
 9934SOL    HW230702   4.056   0.836   6.258
 9935SOL     OW30703   2.777   2.019   0.611
 9935SOL    HW130704   2.728   1.935   0.635
 9935SOL    HW230705   2.875   2.006   0.625
 9936SOL     OW30706   6.005   6.587   5.791
 9936SOL    HW130707   5.927   6.633   5.833
 9936SOL    HW230708   6.016   6.496   5.830
 9937SOL     OW30709   0.594   0.318   3.305
 9937SOL    HW130710   0.564   0.352   3.394
 9937SOL    HW230711   0.578   0.220   3.300
 9938SOL     OW30712   6.996   1.541   3.809
 9938SOL    HW130713   0.006   1.484   3.886
 9938SOL    HW230714   0.048   1.607   3.786
 9939SOL     OW30715   3.049   4.305   0.941
 9939SOL    HW130716   3.057   4.384   1.001
 9939SOL    HW230717   3.126   4.243   0.957
 9940SOL     OW30718   0.165   1.062   3.679
 9940SOL    HW130719   0.200   1.152   3.651
 9940SOL    HW230720   0.075   1.073   3.721
 9941SOL     OW30721   5.386   5.091   0.003
 9941SOL    HW130722   5.468   5.100   6.966
 9941SOL    HW230723   5.399   5.016   0.067
 9942SOL     OW30724   4.937   4.886   3.092
 9942SOL    HW130725   4.898   4.959   3.149
 9942SOL    HW230726   4.895   4.888   3.001
 9943SOL     OW30727   2.205   3.779   6.432
 9943SOL    HW130728   2.299   3.809   6.441
 9943SOL    HW230729   2.203   3.686   6.395
 9944SOL     OW30730   0.493   4.544   6.582
 9944SOL    HW130731   0.411   4.553   6.526
 9944SOL    HW230732   0.566   4.601   6.544
 9945SOL     OW30733   6.485   3.129   6.004
 9945SOL    HW130734   6.525   3.044   5.971
 9945SOL    HW230735   6.423   3.166   5.934
 9946SOL     OW30736   5.601   1.643   1.552
 9946SOL    HW130737   5.569   1.727   1.595
 9946SOL    HW230738   5.570   1.565   1.606
 9947SOL     OW30739   1.269   1.730   3.848
 9947SOL    HW130740   1.254   1.828   3.863
 9947SOL    HW230741   1.357   1.716   3.804
 9948SOL     OW30742   5.441   7.010   4.416
 9948SOL    HW130743   5.529   0.030   4.394
 9948SOL    HW230744   5.377   0.062   4.443
 9949SOL     OW30745   6.111   5.297   3.978
 9949SOL    HW130746   6.186   5.262   3.921
 9949SOL    HW230747   6.024   5.280   3.932
 9950SOL     OW30748   5.781   4.208   5.441
 9950SOL    HW130749   5.822   4.131   5.391
 9950SOL    HW230750   5.744   4.176   5.528
 9951SOL     OW30751   0.407   1.860   3.743
 9951SOL    HW130752   0.417   1.930   3.814
 9951SOL    HW230753   0.400   1.904   3.653
 9952SOL     OW30754   0.558   5.091   1.910
 9952SOL    HW130755   0.613   5.064   1.990
 9952SOL    HW230756   0.538   5.189   1.915
 9953SOL     OW30757   5.757   2.470   3.638
 9953SOL    HW130758   5.717   2.506   3.554
 9953SOL    HW230759   5.766   2.544   3.705
 9954SOL     OW30760   3.391   1.416   6.105
 9954SOL    HW130761   3.407   1.323   6.070
 9954SOL    HW230762   3.458   1.437   6.176
 9955SOL     OW30763   5.460   4.197   0.931
 9955SOL    HW130764   5.500   4.289   0.928
 9955SOL    HW230765   5.387   4.191   0.863
 9956SOL     OW30766   2.099   3.275   3.200
 9956SOL    HW130767   2.107   3.221   3.117
 9956SOL    HW230768   2.135   3.223   3.277
 9957SOL     OW30769   5.366   0.170   0.816
 9957SOL    HW130770   5.330   0.249   0.865
 9957SOL    HW230771   5.290   0.111   0.788
 9958SOL     OW30772   5.120   6.175   0.189
 9958SOL    HW130773   5.183   6.110   0.147
 9958SOL    HW230774   5.092   6.140   0.279
 9959SOL     OW30775   4.998   4.745   0.823
 9959SOL    HW130776   5.039   4.761   0.913
 9959SOL    HW230777   4.936   4.666   0.828
 9960SOL     OW30778   0.407   0.493   0.246
 9960SOL    HW130779   0.503   0.521   0.248
 9960SOL    HW230780   0.380   0.475   0.151
 9961SOL     OW30781   2.918   5.157   1.090
 9961SOL    HW130782   2.885   5.120   1.003
 9961SOL    HW230783   2.974   5.238   1.072
 9962SOL     OW30784   2.989   0.442   1.534
 9962SOL    HW130785   2.898   0.481   1.532
 9962SOL    HW230786   2.993   0.362   1.474
 9963SOL     OW30787   0.812   0.894   6.465
 9963SOL    HW130788   0.780   0.831   6.395
 9963SOL    HW230789   0.912   0.892   6.468
 9964SOL     OW30790   4.731   4.121   5.957
 9964SOL    HW130791   4.674   4.070   6.022
 9964SOL    HW230792   4.827   4.097   5.971
 9965SOL     OW30793   2.692   5.354   3.890
 9965SOL    HW130794   2.609   5.309   3.922
 9965SOL    HW230795   2.676   5.453   3.887
 9966SOL     OW30796   3.916   4.850   1.976
 9966SOL    HW130797   3.928   4.830   2.073
 9966SOL    HW230798   3.818   4.854   1.955
 9967SOL     OW30799   6.620   0.428   2.754
 9967SOL    HW130800   6.598   0.505   2.814
 9967SOL    HW230801   6.714   0.399   2.771
 9968SOL     OW30802   3.189   6.541   0.106
 9968SOL    HW130803   3.261   6.606   0.131
 9968SOL    HW230804   3.148   6.569   0.019
 9969SOL     OW30805   1.075   6.277   3.553
 9969SOL    HW130806   1.131   6.348   3.511
 9969SOL    HW230807   0.986   6.316   3.579
 9970SOL     OW30808   6.331   3.874   1.709
 9970SOL    HW130809   6.279   3.825   1.640
 9970SOL    HW230810   6.318   3.973   1.697
 9971SOL     OW30811   0.619   5.310   3.519
 9971SOL    HW130812   0.716   5.330   3.505
 9971SOL    HW230813   0.573   5.300   3.430
 9972SOL     OW30814   2.939   3.746   6.550
 9972SOL    HW130815   2.949   3.836   6.507
 9972SOL    HW230816   2.985   3.677   6.495
 9973SOL     OW30817   2.737   2.243   3.614
 9973SOL    HW130818   2.739   2.285   3.705
 9973SOL    HW230819   2.797   2.162   3.614
 9974SOL     OW30820   1.193   3.006   2.940
 9974SOL    HW130821   1.145   2.935   2.887
 9974SOL    HW230822   1.244   2.963   3.014
 9975SOL     OW30823   1.970   5.243   6.842
 9975SOL    HW130824   2.026   5.325   6.856
 9975SOL    HW230825   1.989   5.177   6.915
 9976SOL     OW30826   3.586   4.215   6.334
 9976SOL    HW130827   3.534   4.297   6.311
 9976SOL    HW230828   3.590   4.206   6.434
 9977SOL     OW30829   4.754   6.640   5.543
 9977SOL    HW130830   4.835   6.672   5.494
 9977SOL    HW230831   4.744   6.692   5.628
 9978SOL     OW30832   0.693   3.537   6.693
 9978SOL    HW130833   0.688   3.592   6.609
 9978SOL    HW230834   0.620   3.469   6.692
 9979SOL     OW30835   3.704   3.314   4.799
 9979SOL    HW130836   3.693   3.411   4.818
 9979SOL    HW230837   3.801   3.288   4.808
 9980SOL     OW30838   2.415   1.598   0.510
 9980SOL    HW130839   2.340   1.662   0.527
 9980SOL    HW230840   2.403   1.517   0.568
 9981SOL     OW30841   6.986   2.780   1.638
 9981SOL    HW130842   0.015   2.746   1.558
 9981SOL    HW230843   0.028   2.827   1.700
 9982SOL     OW30844   1.945   2.235   4.768
 9982SOL    HW130845   1.894   2.295   4.705
 9982SOL    HW230846   1.896   2.230   4.855
 9983SOL     OW30847   0.891   2.743   2.595
 9983SOL    HW130848   0.989   2.752   2.613
 9983SOL    HW230849   0.861   2.651   2.621
 9984SOL     OW30850   0.512   5.863   1.366
 9984SOL    HW130851   0.524   5.816   1.279
 9984SOL    HW230852   0.438   5.820   1.418
 9985SOL     OW30853   4.444   4.422   0.550
 9985SOL    HW130854   4.507   4.344   0.556
 9985SOL    HW230855   4.351   4.390   0.565
 9986SOL     OW30856   5.574   5.088   6.802
 9986SOL    HW130857   5.537   5.147   6.731
 9986SOL    HW230858   5.671   5.071   6.784
 9987SOL     OW30859   5.227   2.679   1.194
 9987SOL    HW130860   5.194   2.586   1.174
 9987SOL    HW230861   5.295   2.705   1.126
 9988SOL     OW30862   5.256   6.162   4.389
 9988SOL    HW130863   5.268   6.170   4.489
 9988SOL    HW230864   5.159   6.160   4.367
 9989SOL     OW30865   6.630   5.245   2.460
 9989SOL    HW130866   6.668   5.333   2.488
 9989SOL    HW230867   6.559   5.217   2.524
 9990SOL     OW30868   0.686   6.877   3.876
 9990SOL    HW130869   0.754   6.948   3.857
 9990SOL    HW230870   0.601   6.921   3.904
 9991SOL     OW30871   1.523   4.813   3.385
 9991SOL    HW130872   1.508   4.719   3.414
 9991SOL    HW230873   1.605   4.819   3.329
 9992SOL     OW30874   3.467   4.826   0.531
 9992SOL    HW130875   3.395   4.882   0.571
 9992SOL    HW230876   3.510   4.770   0.603
 9993SOL     OW30877   3.648   6.415   4.707
 9993SOL    HW130878   3.659   6.349   4.633
 9993SOL    HW230879   3.733   6.422   4.759
 9994SOL     OW30880   6.424   5.046   4.792
 9994SOL    HW130881   6.339   5.084   4.755
 9994SOL    HW230882   6.490   5.033   4.718
 9995SOL     OW30883   3.132   0.471   4.873
 9995SOL    HW130884   3.149   0.392   4.815
 9995SOL    HW230885   3.115   0.440   4.967
 9996SOL     OW30886   2.633   3.195   1.083
 9996SOL    HW130887   2.631   3.231   1.177
 9996SOL    HW230888   2.540   3.173   1.054
 9997SOL     OW30889   5.964   2.809   3.577
 9997SOL    HW130890   6.045   2.829   3.521
 9997SOL    HW230891   5.974   2.718   3.617
 9998SOL     OW30892   5.080   4.485   2.721
 9998SOL    HW130893   5.126   4.534   2.647
 9998SOL    HW230894   5.061   4.391   2.691
 9999SOL     OW30895   1.238   6.478   3.473
 9999SOL    HW130896   1.193   6.560   3.508
 9999SOL    HW230897   1.241   6.481   3.373
10000SOL     OW30898   5.413   2.108   1.511
10000SOL    HW130899   5.485   2.131   1.576
10000SOL    HW230900   5.327   2.094   1.560
10001SOL     OW30901   4.352   6.325   2.139
10001SOL    HW130902   4.338   6.364   2.048
10001SOL    HW230903   4.338   6.396   2.209
10002SOL     OW30904   2.710   0.854   1.630
10002SOL    HW130905   2.680   0.825   1.721
10002SOL    HW230906   2.769   0.784   1.590
10003SOL     OW30907   1.711   0.523   4.044
10003SOL    HW130908   1.633   0.568   4.087
10003SOL    HW230909   1.682   0.481   3.958
10004SOL     OW30910   6.180   3.974   5.055
10004SOL    HW130911   6.126   4.027   5.120
10004SOL    HW230912   6.146   3.879   5.054
10005SOL     OW30913   1.803   5.301   3.257
10005SOL    HW130914   1.845   5.242   3.189
10005SOL    HW230915   1.822   5.397   3.235
10006SOL     OW30916   5.229   0.272   5.087
10006SOL    HW130917   5.188   0.209   5.152
10006SOL    HW230918   5.160   0.303   5.022
10007SOL     OW30919   1.619   5.004   4.322
10007SOL    HW130920   1.627   5.081   4.259
10007SOL    HW230921   1.548   4.941   4.290
10008SOL     OW30922   4.613   1.396   5.944
10008SOL    HW130923   4.643   1.358   6.031
10008SOL    HW230924   4.681   1.378   5.874
10009SOL     OW30925   1.488   3.279   1.975
10009SOL    HW130926   1.453   3.196   2.017
10009SOL    HW230927   1.495   3.267   1.876
10010SOL     OW30928   2.532   3.820   0.143
10010SOL    HW130929   2.503   3.885   0.073
10010SOL    HW230930   2.459   3.808   0.210
10011SOL     OW30931   1.331   3.521   0.464
10011SOL    HW130932   1.355   3.616   0.441
10011SOL    HW230933   1.379   3.494   0.547
10012SOL     OW30934   4.975   1.626   2.590
10012SOL    HW130935   5.057   1.677   2.562
10012SOL    HW230936   5.003   1.543   2.639
10013SOL     OW30937   0.447   5.875   4.825
10013SOL    HW130938   0.385   5.850   4.898
10013SOL    HW230939   0.413   5.958   4.780
10014SOL     OW30940   0.673   6.817   2.921
10014SOL    HW130941   0.757   6.762   2.930
10014SOL    HW230942   0.698   6.911   2.897
10015SOL     OW30943   4.319   4.658   5.643
10015SOL    HW130944   4.332   4.566   5.604
10015SOL    HW230945   4.354   4.726   5.579
10016SOL     OW30946   2.301   0.244   2.984
10016SOL    HW130947   2.338   0.316   3.043
10016SOL    HW230948   2.337   0.255   2.891
10017SOL     OW30949   2.650   1.749   2.780
10017SOL    HW130950   2.597   1.682   2.729
10017SOL    HW230951   2.745   1.746   2.750
10018SOL     OW30952   6.334   2.844   6.140
10018SOL    HW130953   6.315   2.752   6.172
10018SOL    HW230954   6.432   2.854   6.123
10019SOL     OW30955   0.503   2.174   2.723
10019SOL    HW130956   0.446   2.220   2.792
10019SOL    HW230957   0.586   2.138   2.767
10020SOL     OW30958   6.242   0.609   2.000
10020SOL    HW130959   6.197   0.610   1.910
10020SOL    HW230960   6.179   0.571   2.068
10021SOL     OW30961   1.283   4.032   2.316
10021SOL    HW130962   1.286   4.059   2.220
10021SOL    HW230963   1.200   4.067   2.359
10022SOL     OW30964   2.759   5.883   0.077
10022SOL    HW130965   2.701   5.829   0.016
10022SOL    HW230966   2.701   5.935   0.140
10023SOL     OW30967   1.398   6.557   5.687
10023SOL    HW130968   1.354   6.617   5.753
10023SOL    HW230969   1.328   6.509   5.633
10024SOL     OW30970   1.738   4.615   2.719
10024SOL    HW130971   1.823   4.562   2.721
10024SOL    HW230972   1.683   4.592   2.799
10025SOL     OW30973   1.201   4.352   1.861
10025SOL    HW130974   1.157   4.372   1.949
10025SOL    HW230975   1.198   4.253   1.844
10026SOL     OW30976   5.380   1.764   4.176
10026SOL    HW130977   5.429   1.820   4.242
10026SOL    HW230978   5.302   1.815   4.140
10027SOL     OW30979   1.828   1.741   5.516
10027SOL    HW130980   1.777   1.657   5.535
10027SOL    HW230981   1.883   1.729   5.433
10028SOL     OW30982   4.847   0.620   1.549
10028SOL    HW130983   4.791   0.558   1.494
10028SOL    HW230984   4.791   0.660   1.622
10029SOL     OW30985   0.066   3.426   4.998
10029SOL    HW130986   0.108   3.368   5.068
10029SOL    HW230987   0.130   3.440   4.923
10030SOL     OW30988   2.469   0.048   4.897
10030SOL    HW130989   2.399   0.065   4.828
10030SOL    HW230990   2.555   0.021   4.853
10031SOL     OW30991   3.073   4.866   4.199
10031SOL    HW130992   3.153   4.849   4.141
10031SOL    HW230993   3.089   4.948   4.254
10032SOL     OW30994   2.817   6.260   4.744
10032SOL    HW130995   2.821   6.163   4.720
10032SOL    HW230996   2.880   6.278   4.820
10033SOL     OW30997   3.683   1.402   3.015
10033SOL    HW130998   3.628   1.409   2.931
10033SOL    HW230999   3.677   1.488   3.066
10034SOL     OW31000   2.663   0.622   3.435
10034SOL    HW131001   2.665   0.712   3.478
10034SOL    HW231002   2.745   0.610   3.379
10035SOL     OW31003   5.955   2.999   2.102
10035SOL    HW131004   5.914   3.080   2.062
10035SOL    HW231005   5.991   3.021   2.193
10036SOL     OW31006   6.697   0.433   6.535
10036SOL    HW131007   6.610   0.394   6.564
10036SOL    HW231008   6.725   0.505   6.599
10037SOL     OW31009   6.340   0.220   0.045
10037SOL    HW131010   6.362   0.258   0.135
10037SOL    HW231011   6.241   0.204   0.040
10038SOL     OW31012   4.389   0.074   0.103
10038SOL    HW131013   4.310   0.132   0.083
10038SOL    HW231014   4.366   7.000   0.082
10039SOL     OW31015   6.184   5.542   3.377
10039SOL    HW131016   6.272   5.550   3.425
10039SOL    HW231017   6.123   5.614   3.408
10040SOL     OW31018   3.734   0.557   0.162
10040SOL    HW131019   3.741   0.552   0.262
10040SOL    HW231020   3.784   0.481   0.121
10041SOL     OW31021   6.811   4.845   4.941
10041SOL    HW131022   6.874   4.922   4.935
10041SOL    HW231023   6.764   4.834   4.853
10042SOL     OW31024   0.297   0.488   4.747
10042SOL    HW131025   0.302   0.389   4.758
10042SOL    HW231026   0.271   0.530   4.834
10043SOL     OW31027   1.025   0.900   3.041
10043SOL    HW131028   1.057   0.950   3.122
10043SOL    HW231029   0.998   0.965   2.971
10044SOL     OW31030   2.252   1.473   5.726
10044SOL    HW131031   2.335   1.498   5.776
10044SOL    HW231032   2.189   1.550   5.727
10045SOL     OW31033   3.842   6.390   4.959
10045SOL    HW131034   3.890   6.370   4.874
10045SOL    HW231035   3.856   6.486   4.983
10046SOL     OW31036   6.887   2.620   1.816
10046SOL    HW131037   6.969   2.594   1.867
10046SOL    HW231038   6.906   2.701   1.761
10047SOL     OW31039   6.682   1.599   5.008
10047SOL    HW131040   6.703   1.664   5.080
10047SOL    HW231041   6.746   1.611   4.932
10048SOL     OW31042   3.542   1.753   1.562
10048SOL    HW131043   3.530   1.784   1.468
10048SOL    HW231044   3.455   1.717   1.597
10049SOL     OW31045   2.172   0.629   6.010
10049SOL    HW131046   2.073   0.635   6.023
10049SOL    HW231047   2.192   0.562   5.939
10050SOL     OW31048   5.179   2.843   4.429
10050SOL    HW131049   5.183   2.774   4.500
10050SOL    HW231050   5.156   2.932   4.470
10051SOL     OW31051   5.922   3.313   4.635
10051SOL    HW131052   5.944   3.227   4.587
10051SOL    HW231053   5.829   3.340   4.612
10052SOL     OW31054   1.397   3.569   1.792
10052SOL    HW131055   1.399   3.600   1.887
10052SOL    HW231056   1.411   3.648   1.731
10053SOL     OW31057   3.402   5.270   3.322
10053SOL    HW131058   3.435   5.275   3.416
10053SOL    HW231059   3.480   5.276   3.259
10054SOL     OW31060   3.695   5.553   5.062
10054SOL    HW131061   3.779   5.553   5.117
10054SOL    HW231062   3.617   5.578   5.119
10055SOL     OW31063   6.563   2.371   5.029
10055SOL    HW131064   6.496   2.299   5.047
10055SOL    HW231065   6.655   2.332   5.030
10056SOL     OW31066   6.403   4.680   1.765
10056SOL    HW131067   6.405   4.780   1.767
10056SOL    HW231068   6.322   4.647   1.814
10057SOL     OW31069   3.865   1.824   4.561
10057SOL    HW131070   3.944   1.764   4.548
10057SOL    HW231071   3.781   1.771   4.546
10058SOL     OW31072   0.157   5.396   4.171
10058SOL    HW131073   0.082   5.348   4.123
10058SOL    HW231074   0.244   5.367   4.132
10059SOL     OW31075   5.667   0.757   0.890
10059SOL    HW131076   5.633   0.721   0.977
10059SOL    HW231077   5.760   0.792   0.903
10060SOL     OW31078   3.082   2.049   1.684
10060SOL    HW131079   3.041   2.136   1.658
10060SOL    HW231080   3.122   2.057   1.776
10061SOL     OW31081   6.397   1.375   4.319
10061SOL    HW131082   6.377   1.288   4.365
10061SOL    HW231083   6.314   1.409   4.274
10062SOL     OW31084   6.333   5.716   3.550
10062SOL    HW131085   6.323   5.721   3.649
10062SOL    HW231086   6.418   5.668   3.527
10063SOL     OW31087   0.997   3.729   3.588
10063SOL    HW131088   1.025   3.788   3.664
10063SOL    HW231089   0.949   3.783   3.520
10064SOL     OW31090   4.976   5.825   4.342
10064SOL    HW131091   4.979   5.729   4.367
10064SOL    HW231092   4.899   5.869   4.387
10065SOL     OW31093   1.142   6.808   2.680
10065SOL    HW131094   1.080   6.772   2.750
10065SOL    HW231095   1.231   6.762   2.687
10066SOL     OW31096   1.020   6.943   4.410
10066SOL    HW131097   0.974   0.003   4.371
10066SOL    HW231098   1.077   6.901   4.339
10067SOL     OW31099   4.812   4.708   3.881
10067SOL    HW131100   4.889   4.720   3.945
10067SOL    HW231101   4.815   4.617   3.841
10068SOL     OW31102   5.360   2.943   4.697
10068SOL    HW131103   5.416   3.017   4.733
10068SOL    HW231104   5.322   2.969   4.608
10069SOL     OW31105   3.151   1.453   3.548
10069SOL    HW131106   3.238   1.488   3.584
10069SOL    HW231107   3.132   1.498   3.460
10070SOL     OW31108   1.028   6.693   4.894
10070SOL    HW131109   0.968   6.696   4.814
10070SOL    HW231110   1.124   6.689   4.864
10071SOL     OW31111   4.851   5.405   4.077
10071SOL    HW131112   4.874   5.441   3.987
10071SOL    HW231113   4.907   5.325   4.096
10072SOL     OW31114   0.403   6.417   3.546
10072SOL    HW131115   0.327   6.352   3.550
10072SOL    HW231116   0.425   6.438   3.451
10073SOL     OW31117   6.880   4.988   5.511
10073SOL    HW131118   6.887   4.971   5.413
10073SOL    HW231119   6.867   4.901   5.560
10074SOL     OW31120   1.268   0.153   6.267
10074SOL    HW131121   1.368   0.145   6.270
10074SOL    HW231122   1.241   0.232   6.213
10075SOL     OW31123   1.607   2.727   3.975
10075SOL    HW131124   1.641   2.816   4.003
10075SOL    HW231125   1.660   2.695   3.896
10076SOL     OW31126   4.826   6.695   4.386
10076SOL    HW131127   4.876   6.781   4.374
10076SOL    HW231128   4.735   6.714   4.422
10077SOL     OW31129   3.942   2.254   6.115
10077SOL    HW131130   4.032   2.290   6.140
10077SOL    HW231131   3.952   2.185   6.043
10078SOL     OW31132   5.539   0.157   5.297
10078SOL    HW131133   5.495   0.126   5.212
10078SOL    HW231134   5.483   0.228   5.339
10079SOL     OW31135   0.880   3.178   1.371
10079SOL    HW131136   0.837   3.203   1.285
10079SOL    HW231137   0.813   3.129   1.428
10080SOL     OW31138   2.300   2.726   0.067
10080SOL    HW131139   2.340   2.674   0.142
10080SOL    HW231140   2.373   2.765   0.011
10081SOL     OW31141   0.651   0.386   6.345
10081SOL    HW131142   0.734   0.414   6.296
10081SOL    HW231143   0.634   0.450   6.420
10082SOL     OW31144   6.150   2.682   1.593
10082SOL    HW131145   6.167   2.772   1.552
10082SOL    HW231146   6.221   2.662   1.660
10083SOL     OW31147   3.960   0.189   3.716
10083SOL    HW131148   3.887   0.255   3.694
10083SOL    HW231149   3.934   0.099   3.682
10084SOL     OW31150   2.346   1.260   5.559
10084SOL    HW131151   2.291   1.329   5.606
10084SOL    HW231152   2.442   1.288   5.559
10085SOL     OW31153   1.069   5.776   3.189
10085SOL    HW131154   1.087   5.773   3.287
10085SOL    HW231155   1.007   5.852   3.169
10086SOL     OW31156   6.171   4.657   1.917
10086SOL    HW131157   6.177   4.657   2.016
10086SOL    HW231158   6.078   4.632   1.889
10087SOL     OW31159   1.334   0.374   3.952
10087SOL    HW131160   1.374   0.462   3.975
10087SOL    HW231161   1.315   0.322   4.035
10088SOL     OW31162   0.838   6.414   4.793
10088SOL    HW131163   0.847   6.379   4.700
10088SOL    HW231164   0.928   6.438   4.829
10089SOL     OW31165   2.421   1.774   2.355
10089SOL    HW131166   2.377   1.851   2.307
10089SOL    HW231167   2.399   1.778   2.452
10090SOL     OW31168   1.281   4.290   0.536
10090SOL    HW131169   1.275   4.380   0.578
10090SOL    HW231170   1.330   4.227   0.597
10091SOL     OW31171   1.076   3.836   4.240
10091SOL    HW131172   1.053   3.764   4.174
10091SOL    HW231173   1.175   3.845   4.245
10092SOL     OW31174   1.813   3.268   5.005
10092SOL    HW131175   1.791   3.364   4.989
10092SOL    HW231176   1.839   3.224   4.919
10093SOL     OW31177   0.062   5.562   5.381
10093SOL    HW131178   0.106   5.635   5.330
10093SOL    HW231179   0.034   5.595   5.471
10094SOL     OW31180   2.434   1.176   2.417
10094SOL    HW131181   2.513   1.166   2.355
10094SOL    HW231182   2.351   1.145   2.370
10095SOL     OW31183   7.015   1.284   6.155
10095SOL    HW131184   6.921   1.257   6.137
10095SOL    HW231185   0.057   1.218   6.113
10096SOL     OW31186   0.097   5.299   2.493
10096SOL    HW131187   0.190   5.311   2.458
10096SOL    HW231188   0.095   5.323   2.590
10097SOL     OW31189   1.551   1.247   0.849
10097SOL    HW131190   1.507   1.335   0.868
10097SOL    HW231191   1.506   1.175   0.901
10098SOL     OW31192   2.173   5.940   6.191
10098SOL    HW131193   2.178   6.021   6.250
10098SOL    HW231194   2.262   5.896   6.188
10099SOL     OW31195   6.909   3.982   5.106
10099SOL    HW131196   6.818   3.966   5.143
10099SOL    HW231197   6.948   3.896   5.073
10100SOL     OW31198   4.746   0.854   4.792
10100SOL    HW131199   4.726   0.921   4.863
10100SOL    HW231200   4.832   0.808   4.812
10101SOL     OW31201   6.874   4.747   2.552
10101SOL    HW131202   6.913   4.734   2.461
10101SOL    HW231203   6.860   4.657   2.595
10102SOL     OW31204   3.558   1.392   2.167
10102SOL    HW131205   3.583   1.369   2.261
10102SOL    HW231206   3.484   1.460   2.168
10103SOL     OW31207   2.738   1.346   5.250
10103SOL    HW131208   2.736   1.444   5.227
10103SOL    HW231209   2.730   1.292   5.166
10104SOL     OW31210   1.120   4.843   5.350
10104SOL    HW131211   1.026   4.830   5.380
10104SOL    HW231212   1.169   4.897   5.419
10105SOL     OW31213   1.617   0.817   6.201
10105SOL    HW131214   1.692   0.802   6.264
10105SOL    HW231215   1.625   0.909   6.160
10106SOL     OW31216   5.259   5.673   0.962
10106SOL    HW131217   5.223   5.660   1.055
10106SOL    HW231218   5.354   5.704   0.967
10107SOL     OW31219   5.745   1.533   6.083
10107SOL    HW131220   5.739   1.437   6.113
10107SOL    HW231221   5.717   1.539   5.987
10108SOL     OW31222   6.265   6.632   0.600
10108SOL    HW131223   6.191   6.647   0.666
10108SOL    HW231224   6.251   6.546   0.552
10109SOL     OW31225   5.103   5.765   3.505
10109SOL    HW131226   5.051   5.685   3.473
10109SOL    HW231227   5.178   5.783   3.443
10110SOL     OW31228   3.512   6.872   6.147
10110SOL    HW131229   3.563   6.943   6.099
10110SOL    HW231230   3.466   6.814   6.080
10111SOL     OW31231   6.471   3.348   3.515
10111SOL    HW131232   6.506   3.294   3.591
10111SOL    HW231233   6.414   3.290   3.457
10112SOL     OW31234   5.290   4.302   5.463
10112SOL    HW131235   5.193   4.328   5.471
10112SOL    HW231236   5.298   4.203   5.474
10113SOL     OW31237   4.108   0.490   0.190
10113SOL    HW131238   4.193   0.521   0.148
10113SOL    HW231239   4.054   0.440   0.122
10114SOL     OW31240   5.091   1.499   6.884
10114SOL    HW131241   4.992   1.505   6.871
10114SOL    HW231242   5.121   1.569   6.949
10115SOL     OW31243   2.127   2.645   3.892
10115SOL    HW131244   2.072   2.583   3.836
10115SOL    HW231245   2.083   2.735   3.896
10116SOL     OW31246   0.366   0.176   1.267
10116SOL    HW131247   0.450   0.223   1.238
10116SOL    HW231248   0.295   0.244   1.285
10117SOL     OW31249   6.190   0.167   5.558
10117SOL    HW131250   6.241   0.104   5.500
10117SOL    HW231251   6.112   0.204   5.507
10118SOL     OW31252   0.018   5.434   2.733
10118SOL    HW131253   6.986   5.416   2.816
10118SOL    HW231254   0.025   5.533   2.719
10119SOL     OW31255   2.565   0.817   5.429
10119SOL    HW131256   2.647   0.770   5.396
10119SOL    HW231257   2.589   0.911   5.455
10120SOL     OW31258   0.587   3.366   4.099
10120SOL    HW131259   0.582   3.305   4.020
10120SOL    HW231260   0.667   3.342   4.154
10121SOL     OW31261   5.968   4.820   5.153
10121SOL    HW131262   5.998   4.806   5.247
10121SOL    HW231263   5.972   4.917   5.131
10122SOL     OW31264   4.975   2.898   0.151
10122SOL    HW131265   5.037   2.823   0.174
10122SOL    HW231266   4.996   2.932   0.060
10123SOL     OW31267   0.315   5.906   0.714
10123SOL    HW131268   0.313   5.956   0.800
10123SOL    HW231269   0.350   5.965   0.642
10124SOL     OW31270   3.387   4.171   0.128
10124SOL    HW131271   3.349   4.250   0.175
10124SOL    HW231272   3.341   4.160   0.039
10125SOL     OW31273   1.928   1.088   3.035
10125SOL    HW131274   1.884   1.058   2.950
10125SOL    HW231275   1.955   1.008   3.089
10126SOL     OW31276   6.479   5.214   0.003
10126SOL    HW131277   6.470   5.128   6.973
10126SOL    HW231278   6.443   5.289   6.969
10127SOL     OW31279   3.341   5.266   5.501
10127SOL    HW131280   3.426   5.308   5.533
10127SOL    HW231281   3.349   5.166   5.507
10128SOL     OW31282   6.770   1.637   0.643
10128SOL    HW131283   6.771   1.572   0.718
10128SOL    HW231284   6.783   1.730   0.678
10129SOL     OW31285   5.104   2.719   3.625
10129SOL    HW131286   5.076   2.756   3.714
10129SOL    HW231287   5.051   2.636   3.605
10130SOL     OW31288   1.147   5.569   2.641
10130SOL    HW131289   1.179   5.514   2.563
10130SOL    HW231290   1.160   5.517   2.725
10131SOL     OW31291   0.617   1.703   2.076
10131SOL    HW131292   0.660   1.625   2.032
10131SOL    HW231293   0.585   1.677   2.168
10132SOL     OW31294   3.513   6.417   2.955
10132SOL    HW131295   3.567   6.498   2.931
10132SOL    HW231296   3.440   6.405   2.888
10133SOL     OW31297   4.413   6.186   3.747
10133SOL    HW131298   4.382   6.124   3.675
10133SOL    HW231299   4.343   6.255   3.764
10134SOL     OW31300   6.350   1.478   3.463
10134SOL    HW131301   6.370   1.386   3.496
10134SOL    HW231302   6.428   1.538   3.481
10135SOL     OW31303   4.520   4.488   2.920
10135SOL    HW131304   4.477   4.550   2.985
10135SOL    HW231305   4.492   4.513   2.827
10136SOL     OW31306   5.757   6.893   3.681
10136SOL    HW131307   5.796   6.923   3.768
10136SOL    HW231308   5.692   6.961   3.648
10137SOL     OW31309   6.522   5.653   4.447
10137SOL    HW131310   6.522   5.744   4.489
10137SOL    HW231311   6.615   5.617   4.445
10138SOL     OW31312   5.523   2.045   0.481
10138SOL    HW131313   5.568   1.990   0.411
10138SOL    HW231314   5.434   2.005   0.503
10139SOL     OW31315   3.545   2.854   3.291
10139SOL    HW131316   3.546   2.762   3.253
10139SOL    HW231317   3.637   2.880   3.321
10140SOL     OW31318   6.237   5.500   0.158
10140SOL    HW131319   6.196   5.511   0.249
10140SOL    HW231320   6.199   5.419   0.114
10141SOL     OW31321   2.409   1.760   4.892
10141SOL    HW131322   2.399   1.859   4.889
10141SOL    HW231323   2.332   1.717   4.844
10142SOL     OW31324   4.578   6.290   5.144
10142SOL    HW131325   4.597   6.385   5.167
10142SOL    HW231326   4.543   6.242   5.224
10143SOL     OW31327   4.867   0.208   1.428
10143SOL    HW131328   4.813   0.156   1.494
10143SOL    HW231329   4.833   0.302   1.423
10144SOL     OW31330   3.371   5.572   5.942
10144SOL    HW131331   3.451   5.602   5.890
10144SOL    HW231332   3.299   5.541   5.880
10145SOL     OW31333   2.960   5.866   6.039
10145SOL    HW131334   3.050   5.868   6.082
10145SOL    HW231335   2.919   5.957   6.041
10146SOL     OW31336   3.491   5.400   4.430
10146SOL    HW131337   3.421   5.331   4.449
10146SOL    HW231338   3.539   5.423   4.515
10147SOL     OW31339   4.640   4.392   4.069
10147SOL    HW131340   4.572   4.323   4.093
10147SOL    HW231341   4.643   4.403   3.969
10148SOL     OW31342   6.236   5.967   0.574
10148SOL    HW131343   6.290   6.002   0.498
10148SOL    HW231344   6.214   6.043   0.636
10149SOL     OW31345   4.764   1.582   0.751
10149SOL    HW131346   4.799   1.489   0.734
10149SOL    HW231347   4.809   1.620   0.832
10150SOL     OW31348   4.607   4.794   0.865
10150SOL    HW131349   4.588   4.881   0.910
10150SOL    HW231350   4.621   4.723   0.935
10151SOL     OW31351   0.968   6.980   6.559
10151SOL    HW131352   0.962   0.046   6.508
10151SOL    HW231353   0.920   6.990   6.646
10152SOL     OW31354   1.564   5.219   4.106
10152SOL    HW131355   1.554   5.270   4.021
10152SOL    HW231356   1.492   5.150   4.113
10153SOL     OW31357   4.189   5.798   3.615
10153SOL    HW131358   4.208   5.787   3.712
10153SOL    HW231359   4.249   5.869   3.577
10154SOL     OW31360   6.444   6.188   5.880
10154SOL    HW131361   6.388   6.243   5.942
10154SOL    HW231362   6.444   6.230   5.789
10155SOL     OW31363   3.805   0.521   6.096
10155SOL    HW131364   3.877   0.582   6.129
10155SOL    HW231365   3.716   0.564   6.110
10156SOL     OW31366   5.588   0.016   2.667
10156SOL    HW131367   5.646   6.977   2.722
10156SOL    HW231368   5.497   0.021   2.708
10157SOL     OW31369   5.942   1.671   6.209
10157SOL    HW131370   5.937   1.670   6.309
10157SOL    HW231371   5.865   1.619   6.171
10158SOL     OW31372   4.863   3.903   7.019
10158SOL    HW131373   4.942   3.965   7.014
10158SOL    HW231374   4.893   3.815   0.036
10159SOL     OW31375   2.707   2.914   6.144
10159SOL    HW131376   2.715   3.008   6.177
10159SOL    HW231377   2.711   2.914   6.044
10160SOL     OW31378   0.773   4.487   2.797
10160SOL    HW131379   0.775   4.568   2.739
10160SOL    HW231380   0.685   4.483   2.846
10161SOL     OW31381   3.149   4.656   0.193
10161SOL    HW131382   3.191   4.676   0.282
10161SOL    HW231383   3.101   4.738   0.161
10162SOL     OW31384   2.475   3.596   6.838
10162SOL    HW131385   2.524   3.580   6.753
10162SOL    HW231386   2.538   3.586   6.915
10163SOL     OW31387   5.966   3.981   6.318
10163SOL    HW131388   6.049   3.959   6.368
10163SOL    HW231389   5.904   3.902   6.321
10164SOL     OW31390   6.766   3.231   4.461
10164SOL    HW131391   6.745   3.327   4.440
10164SOL    HW231392   6.780   3.221   4.559
10165SOL     OW31393   0.790   2.181   4.639
10165SOL    HW131394   0.857   2.255   4.638
10165SOL    HW231395   0.725   2.196   4.713
10166SOL     OW31396   3.493   0.749   1.560
10166SOL    HW131397   3.484   0.848   1.546
10166SOL    HW231398   3.433   0.721   1.634
10167SOL     OW31399   5.623   1.033   6.573
10167SOL    HW131400   5.545   1.067   6.626
10167SOL    HW231401   5.663   0.954   6.619
10168SOL     OW31402   6.956   4.248   5.163
10168SOL    HW131403   0.022   4.250   5.213
10168SOL    HW231404   6.927   4.153   5.151
10169SOL     OW31405   6.333   4.907   3.323
10169SOL    HW131406   6.387   4.960   3.387
10169SOL    HW231407   6.390   4.880   3.245
10170SOL     OW31408   0.716   4.425   5.783
10170SOL    HW131409   0.663   4.373   5.851
10170SOL    HW231410   0.792   4.470   5.828
10171SOL     OW31411   6.736   3.487   5.777
10171SOL    HW131412   6.734   3.387   5.789
10171SOL    HW231413   6.825   3.522   5.805
10172SOL     OW31414   5.612   0.207   2.989
10172SOL    HW131415   5.645   0.264   3.064
10172SOL    HW231416   5.536   0.151   3.022
10173SOL     OW31417   2.060   2.046   0.757
10173SOL    HW131418   2.064   2.092   0.668
10173SOL    HW231419   1.980   1.986   0.760
10174SOL     OW31420   5.548   4.414   2.787
10174SOL    HW131421   5.587   4.385   2.699
10174SOL    HW231422   5.500   4.338   2.829
10175SOL     OW31423   6.742   2.989   4.015
10175SOL    HW131424   6.683   3.025   4.087
10175SOL    HW231425   6.808   3.059   3.988
10176SOL     OW31426   1.531   3.259   5.993
10176SOL    HW131427   1.559   3.171   6.031
10176SOL    HW231428   1.473   3.244   5.912
10177SOL     OW31429   2.998   0.240   0.573
10177SOL    HW131430   2.919   0.192   0.534
10177SOL    HW231431   3.051   0.177   0.629
10178SOL     OW31432   6.111   3.061   4.086
10178SOL    HW131433   6.021   3.053   4.045
10178SOL    HW231434   6.105   3.046   4.185
10179SOL     OW31435   0.669   2.155   6.272
10179SOL    HW131436   0.662   2.056   6.262
10179SOL    HW231437   0.703   2.177   6.364
10180SOL     OW31438   2.995   5.312   6.006
10180SOL    HW131439   2.919   5.366   6.045
10180SOL    HW231440   2.958   5.241   5.947
10181SOL     OW31441   5.427   3.517   2.019
10181SOL    HW131442   5.336   3.531   2.058
10181SOL    HW231443   5.447   3.592   1.955
10182SOL     OW31444   5.841   1.481   1.558
10182SOL    HW131445   5.891   1.514   1.637
10182SOL    HW231446   5.750   1.524   1.556
10183SOL     OW31447   1.108   2.235   6.654
10183SOL    HW131448   1.163   2.303   6.702
10183SOL    HW231449   1.018   2.273   6.633
10184SOL     OW31450   4.545   1.700   6.042
10184SOL    HW131451   4.612   1.664   5.977
10184SOL    HW231452   4.592   1.750   6.115
10185SOL     OW31453   4.778   6.758   0.805
10185SOL    HW131454   4.822   6.678   0.764
10185SOL    HW231455   4.782   6.835   0.741
10186SOL     OW31456   5.850   3.260   3.219
10186SOL    HW131457   5.836   3.337   3.282
10186SOL    HW231458   5.790   3.184   3.245
10187SOL     OW31459   0.442   1.987   1.854
10187SOL    HW131460   0.518   1.923   1.856
10187SOL    HW231461   0.451   2.053   1.928
10188SOL     OW31462   3.851   6.174   0.263
10188SOL    HW131463   3.788   6.244   0.228
10188SOL    HW231464   3.903   6.135   0.186
10189SOL     OW31465   2.394   6.977   5.330
10189SOL    HW131466   2.407   0.042   5.380
10189SOL    HW231467   2.371   6.998   5.235
10190SOL     OW31468   4.982   2.099   1.024
10190SOL    HW131469   4.905   2.079   1.085
10190SOL    HW231470   4.981   2.196   1.000
10191SOL     OW31471   5.271   4.450   7.007
10191SOL    HW131472   5.207   4.483   0.055
10191SOL    HW231473   5.275   4.514   6.931
10192SOL     OW31474   4.187   0.729   4.769
10192SOL    HW131475   4.251   0.692   4.836
10192SOL    HW231476   4.200   0.683   4.681
10193SOL     OW31477   4.144   3.942   1.565
10193SOL    HW131478   4.150   3.850   1.604
10193SOL    HW231479   4.192   3.945   1.478
10194SOL     OW31480   5.895   4.138   4.689
10194SOL    HW131481   5.810   4.181   4.719
10194SOL    HW231482   5.967   4.207   4.683
10195SOL     OW31483   5.661   4.571   1.561
10195SOL    HW131484   5.704   4.625   1.633
10195SOL    HW231485   5.714   4.582   1.476
10196SOL     OW31486   6.300   1.635   4.809
10196SOL    HW131487   6.249   1.623   4.724
10196SOL    HW231488   6.306   1.733   4.831
10197SOL     OW31489   6.706   1.196   5.023
10197SOL    HW131490   6.698   1.099   4.999
10197SOL    HW231491   6.777   1.239   4.966
10198SOL     OW31492   3.846   0.569   2.445
10198SOL    HW131493   3.820   0.569   2.349
10198SOL    HW231494   3.830   0.479   2.484
10199SOL     OW31495   0.977   2.655   5.511
10199SOL    HW131496   0.885   2.689   5.491
10199SOL    HW231497   1.030   2.725   5.558
10200SOL     OW31498   4.849   2.515   1.033
10200SOL    HW131499   4.886   2.476   0.949
10200SOL    HW231500   4.887   2.467   1.112
10201SOL     OW31501   1.470   4.185   0.721
10201SOL    HW131502   1.524   4.146   0.647
10201SOL    HW231503   1.527   4.248   0.774
10202SOL     OW31504   3.978   1.522   5.451
10202SOL    HW131505   4.063   1.492   5.408
10202SOL    HW231506   3.999   1.576   5.533
10203SOL     OW31507   5.401   2.508   4.945
10203SOL    HW131508   5.480   2.498   4.884
10203SOL    HW231509   5.329   2.445   4.917
10204SOL     OW31510   5.167   6.472   6.665
10204SOL    HW131511   5.225   6.478   6.583
10204SOL    HW231512   5.224   6.455   6.745
10205SOL     OW31513   0.391   1.582   6.798
10205SOL    HW131514   0.485   1.570   6.766
10205SOL    HW231515   0.378   1.677   6.826
10206SOL     OW31516   1.071   0.597   5.964
10206SOL    HW131517   1.127   0.516   5.979
10206SOL    HW231518   1.127   0.670   5.925
10207SOL     OW31519   1.298   2.058   6.183
10207SOL    HW131520   1.201   2.049   6.159
10207SOL    HW231521   1.341   1.968   6.183
10208SOL     OW31522   5.255   5.430   4.862
10208SOL    HW131523   5.282   5.362   4.793
10208SOL    HW231524   5.234   5.384   4.948
10209SOL     OW31525   0.082   0.278   6.213
10209SOL    HW131526   0.144   0.355   6.194
10209SOL    HW231527   0.033   0.296   6.298
10210SOL     OW31528   4.651   6.385   1.363
10210SOL    HW131529   4.622   6.399   1.269
10210SOL    HW231530   4.677   6.473   1.404
10211SOL     OW31531   4.007   6.516   5.360
10211SOL    HW131532   4.023   6.601   5.410
10211SOL    HW231533   4.087   6.495   5.304
10212SOL     OW31534   0.968   0.196   5.767
10212SOL    HW131535   0.972   0.200   5.667
10212SOL    HW231536   0.900   0.129   5.795
10213SOL     OW31537   5.243   2.280   0.435
10213SOL    HW131538   5.145   2.282   0.457
10213SOL    HW231539   5.264   2.197   0.383
10214SOL     OW31540   1.451   2.733   1.574
10214SOL    HW131541   1.400   2.811   1.538
10214SOL    HW231542   1.387   2.660   1.598
10215SOL     OW31543   4.080   3.574   2.514
10215SOL    HW131544   4.079   3.638   2.590
10215SOL    HW231545   3.997   3.519   2.515
10216SOL     OW31546   6.154   0.493   2.230
10216SOL    HW131547   6.224   0.493   2.301
10216SOL    HW231548   6.097   0.411   2.238
10217SOL     OW31549   3.029   1.223   3.614
10217SOL    HW131550   2.973   1.232   3.697
10217SOL    HW231551   3.078   1.309   3.598
10218SOL     OW31552   1.311   2.710   2.405
10218SOL    HW131553   1.397   2.758   2.419
10218SOL    HW231554   1.314   2.659   2.319
10219SOL     OW31555   0.743   0.999   2.283
10219SOL    HW131556   0.710   1.077   2.336
10219SOL    HW231557   0.686   0.986   2.202
10220SOL     OW31558   3.878   2.730   1.494
10220SOL    HW131559   3.818   2.680   1.432
10220SOL    HW231560   3.848   2.715   1.589
10221SOL     OW31561   0.952   6.344   2.860
10221SOL    HW131562   1.008   6.305   2.787
10221SOL    HW231563   0.863   6.369   2.823
10222SOL     OW31564   2.919   3.818   4.524
10222SOL    HW131565   2.972   3.851   4.602
10222SOL    HW231566   2.821   3.827   4.543
10223SOL     OW31567   0.533   5.696   1.014
10223SOL    HW131568   0.554   5.623   0.949
10223SOL    HW231569   0.480   5.659   1.090
10224SOL     OW31570   6.141   4.135   3.244
10224SOL    HW131571   6.202   4.119   3.166
10224SOL    HW231572   6.185   4.198   3.308
10225SOL     OW31573   1.479   3.516   5.873
10225SOL    HW131574   1.535   3.499   5.792
10225SOL    HW231575   1.485   3.438   5.935
10226SOL     OW31576   4.244   2.374   7.017
10226SOL    HW131577   4.280   2.453   6.968
10226SOL    HW231578   4.271   2.290   6.970
10227SOL     OW31579   5.565   4.020   0.710
10227SOL    HW131580   5.609   4.090   0.653
10227SOL    HW231581   5.525   4.063   0.791
10228SOL     OW31582   5.353   1.003   0.613
10228SOL    HW131583   5.415   0.924   0.610
10228SOL    HW231584   5.383   1.065   0.686
10229SOL     OW31585   0.484   3.504   5.238
10229SOL    HW131586   0.478   3.489   5.139
10229SOL    HW231587   0.579   3.525   5.263
10230SOL     OW31588   6.431   5.700   2.568
10230SOL    HW131589   6.517   5.735   2.605
10230SOL    HW231590   6.368   5.681   2.643
10231SOL     OW31591   1.708   6.345   3.198
10231SOL    HW131592   1.684   6.441   3.213
10231SOL    HW231593   1.644   6.286   3.248
10232SOL     OW31594   4.337   6.866   2.715
10232SOL    HW131595   4.340   6.853   2.814
10232SOL    HW231596   4.403   6.804   2.671
10233SOL     OW31597   3.967   4.001   6.277
10233SOL    HW131598   4.022   4.027   6.357
10233SOL    HW231599   3.940   4.083   6.227
10234SOL     OW31600   6.935   1.093   1.293
10234SOL    HW131601   6.872   1.167   1.267
10234SOL    HW231602   6.882   1.017   1.331
10235SOL     OW31603   1.068   1.289   3.236
10235SOL    HW131604   1.104   1.211   3.287
10235SOL    HW231605   1.031   1.258   3.149
10236SOL     OW31606   2.006   0.003   0.854
10236SOL    HW131607   2.073   0.037   0.788
10236SOL    HW231608   1.935   6.972   0.807
10237SOL     OW31609   0.304   3.513   6.851
10237SOL    HW131610   0.213   3.496   6.813
10237SOL    HW231611   0.295   3.556   6.941
10238SOL     OW31612   4.097   5.398   0.717
10238SOL    HW131613   4.024   5.427   0.655
10238SOL    HW231614   4.082   5.303   0.744
10239SOL     OW31615   1.696   2.848   4.799
10239SOL    HW131616   1.714   2.903   4.881
10239SOL    HW231617   1.630   2.895   4.741
10240SOL     OW31618   2.505   0.298   0.847
10240SOL    HW131619   2.541   0.381   0.891
10240SOL    HW231620   2.524   0.219   0.905
10241SOL     OW31621   4.582   2.337   1.511
10241SOL    HW131622   4.675   2.322   1.543
10241SOL    HW231623   4.533   2.395   1.576
10242SOL     OW31624   6.849   2.174   0.578
10242SOL    HW131625   6.890   2.107   0.639
10242SOL    HW231626   6.750   2.161   0.576
10243SOL     OW31627   2.716   4.859   0.763
10243SOL    HW131628   2.789   4.793   0.779
10243SOL    HW231629   2.696   4.864   0.665
10244SOL     OW31630   2.278   4.116   1.789
10244SOL    HW131631   2.270   4.036   1.731
10244SOL    HW231632   2.260   4.090   1.884
10245SOL     OW31633   4.014   3.980   0.458
10245SOL    HW131634   3.992   3.946   0.549
10245SOL    HW231635   3.948   4.052   0.433
10246SOL     OW31636   3.439   3.011   4.139
10246SOL    HW131637   3.348   3.007   4.099
10246SOL    HW231638   3.439   2.961   4.226
10247SOL     OW31639   1.000   3.743   4.495
10247SOL    HW131640   0.927   3.810   4.512
10247SOL    HW231641   1.016   3.736   4.396
10248SOL     OW31642   1.288   0.446   3.409
10248SOL    HW131643   1.366   0.459   3.470
10248SOL    HW231644   1.317   0.394   3.328
10249SOL     OW31645   2.229   4.571   6.689
10249SOL    HW131646   2.245   4.602   6.596
10249SOL    HW231647   2.150   4.509   6.691
10250SOL     OW31648   5.100   2.701   6.686
10250SOL    HW131649   5.089   2.782   6.629
10250SOL    HW231650   5.186   2.655   6.662
10251SOL     OW31651   1.892   0.316   4.175
10251SOL    HW131652   1.827   0.282   4.243
10251SOL    HW231653   1.850   0.391   4.124
10252SOL     OW31654   5.168   4.211   5.853
10252SOL    HW131655   5.206   4.131   5.806
10252SOL    HW231656   5.090   4.246   5.802
10253SOL     OW31657   4.136   6.527   7.000
10253SOL    HW131658   4.178   6.593   6.938
10253SOL    HW231659   4.191   6.521   0.063
10254SOL     OW31660   5.688   1.824   4.630
10254SOL    HW131661   5.784   1.812   4.605
10254SOL    HW231662   5.681   1.837   4.729
10255SOL     OW31663   3.617   5.609   1.549
10255SOL    HW131664   3.545   5.574   1.609
10255SOL    HW231665   3.632   5.706   1.569
10256SOL     OW31666   4.965   0.870   2.593
10256SOL    HW131667   4.914   0.933   2.651
10256SOL    HW231668   5.062   0.873   2.617
10257SOL     OW31669   2.739   5.024   2.457
10257SOL    HW131670   2.800   5.078   2.514
10257SOL    HW231671   2.791   4.952   2.412
10258SOL     OW31672   2.314   1.988   2.254
10258SOL    HW131673   2.363   2.015   2.171
10258SOL    HW231674   2.265   2.067   2.290
10259SOL     OW31675   0.762   4.320   3.999
10259SOL    HW131676   0.814   4.367   3.928
10259SOL    HW231677   0.665   4.323   3.977
10260SOL     OW31678   1.762   1.340   3.607
10260SOL    HW131679   1.734   1.280   3.532
10260SOL    HW231680   1.681   1.383   3.647
10261SOL     OW31681   6.839   3.948   0.742
10261SOL    HW131682   6.770   3.982   0.678
10261SOL    HW231683   6.802   3.869   0.792
10262SOL     OW31684   3.661   1.189   6.798
10262SOL    HW131685   3.657   1.286   6.772
10262SOL    HW231686   3.725   1.141   6.738
10263SOL     OW31687   5.955   1.036   1.799
10263SOL    HW131688   5.910   1.015   1.886
10263SOL    HW231689   5.900   1.103   1.750
10264SOL     OW31690   6.013   5.076   7.006
10264SOL    HW131691   5.952   5.060   0.064
10264SOL    HW231692   5.992   5.010   6.934
10265SOL     OW31693   2.310   2.056   6.973
10265SOL    HW131694   2.265   2.094   6.892
10265SOL    HW231695   2.343   2.130   0.010
10266SOL     OW31696   2.880   3.321   2.441
10266SOL    HW131697   2.846   3.388   2.508
10266SOL    HW231698   2.912   3.369   2.359
10267SOL     OW31699   5.564   1.104   0.756
10267SOL    HW131700   5.629   1.118   0.831
10267SOL    HW231701   5.571   1.009   0.725
10268SOL     OW31702   5.072   6.885   1.223
10268SOL    HW131703   4.999   6.953   1.230
10268SOL    HW231704   5.082   6.856   1.128
10269SOL     OW31705   2.002   2.003   6.036
10269SOL    HW131706   1.933   2.066   5.999
10269SOL    HW231707   2.066   1.978   5.963
10270SOL     OW31708   3.129   5.890   1.801
10270SOL    HW131709   3.206   5.842   1.842
10270SOL    HW231710   3.093   5.956   1.867
10271SOL     OW31711   2.119   2.031   0.427
10271SOL    HW131712   2.093   2.045   0.332
10271SOL    HW231713   2.164   1.942   0.437
10272SOL     OW31714   6.707   0.716   4.397
10272SOL    HW131715   6.743   0.709   4.490
10272SOL    HW231716   6.746   0.796   4.353
10273SOL     OW31717   2.578   4.974   3.959
10273SOL    HW131718   2.674   4.988   3.983
10273SOL    HW231719   2.573   4.923   3.873
10274SOL     OW31720   0.236   5.080   5.410
10274SOL    HW131721   0.284   5.057   5.326
10274SOL    HW231722   0.285   5.041   5.488
10275SOL     OW31723   0.351   0.571   2.947
10275SOL    HW131724   0.384   0.538   3.035
10275SOL    HW231725   0.424   0.566   2.879
10276SOL     OW31726   4.403   5.995   5.939
10276SOL    HW131727   4.377   6.086   5.907
10276SOL    HW231728   4.359   5.926   5.881
10277SOL     OW31729   1.257   6.304   4.277
10277SOL    HW131730   1.190   6.354   4.222
10277SOL    HW231731   1.265   6.210   4.242
10278SOL     OW31732   0.402   0.526   5.085
10278SOL    HW131733   0.340   0.449   5.101
10278SOL    HW231734   0.489   0.492   5.051
10279SOL     OW31735   2.122   4.991   4.193
10279SOL    HW131736   2.187   4.965   4.122
10279SOL    HW231737   2.051   4.921   4.201
10280SOL     OW31738   5.261   4.218   0.764
10280SOL    HW131739   5.203   4.175   0.695
10280SOL    HW231740   5.247   4.317   0.763
10281SOL     OW31741   6.090   2.218   3.297
10281SOL    HW131742   6.181   2.189   3.268
10281SOL    HW231743   6.023   2.195   3.226
10282SOL     OW31744   4.879   3.417   2.909
10282SOL    HW131745   4.840   3.470   2.983
10282SOL    HW231746   4.906   3.478   2.835
10283SOL     OW31747   0.481   4.280   1.145
10283SOL    HW131748   0.424   4.326   1.077
10283SOL    HW231749   0.573   4.320   1.145
10284SOL     OW31750   0.230   2.506   3.635
10284SOL    HW131751   0.149   2.557   3.606
10284SOL    HW231752   0.231   2.500   3.735
10285SOL     OW31753   4.691   6.138   3.707
10285SOL    HW131754   4.606   6.143   3.760
10285SOL    HW231755   4.739   6.226   3.714
10286SOL     OW31756   3.291   1.529   4.254
10286SOL    HW131757   3.367   1.494   4.308
10286SOL    HW231758   3.230   1.582   4.313
10287SOL     OW31759   1.846   5.780   2.023
10287SOL    HW131760   1.914   5.774   2.096
10287SOL    HW231761   1.761   5.818   2.059
10288SOL     OW31762   3.779   0.086   5.022
10288SOL    HW131763   3.862   0.124   5.063
10288SOL    HW231764   3.768   0.122   4.929
10289SOL     OW31765   2.747   6.280   0.285
10289SOL    HW131766   2.660   6.329   0.281
10289SOL    HW231767   2.822   6.344   0.270
10290SOL     OW31768   3.032   3.091   2.479
10290SOL    HW131769   3.035   3.058   2.574
10290SOL    HW231770   2.939   3.122   2.458
10291SOL     OW31771   3.075   1.053   2.635
10291SOL    HW131772   3.105   1.138   2.592
10291SOL    HW231773   2.983   1.066   2.674
10292SOL     OW31774   6.901   0.306   6.412
10292SOL    HW131775   6.832   0.370   6.446
10292SOL    HW231776   6.875   0.213   6.438
10293SOL     OW31777   0.525   4.275   3.792
10293SOL    HW131778   0.520   4.210   3.716
10293SOL    HW231779   0.487   4.363   3.763
10294SOL     OW31780   3.234   2.021   2.755
10294SOL    HW131781   3.196   1.957   2.822
10294SOL    HW231782   3.182   2.106   2.757
10295SOL     OW31783   0.920   2.642   6.903
10295SOL    HW131784   0.945   2.666   6.997
10295SOL    HW231785   0.955   2.712   6.841
10296SOL     OW31786   6.087   0.462   5.693
10296SOL    HW131787   6.001   0.508   5.669
10296SOL    HW231788   6.073   0.406   5.775
10297SOL     OW31789   2.901   2.227   6.419
10297SOL    HW131790   2.986   2.176   6.406
10297SOL    HW231791   2.881   2.234   6.517
10298SOL     OW31792   0.813   3.249   2.433
10298SOL    HW131793   0.823   3.192   2.514
10298SOL    HW231794   0.808   3.191   2.351
10299SOL     OW31795   4.841   6.110   2.104
10299SOL    HW131796   4.748   6.128   2.137
10299SOL    HW231797   4.884   6.041   2.162
10300SOL     OW31798   0.647   3.474   2.157
10300SOL    HW131799   0.616   3.564   2.187
10300SOL    HW231800   0.649   3.470   2.057
10301SOL     OW31801   4.197   1.209   6.137
10301SOL    HW131802   4.229   1.300   6.109
10301SOL    HW231803   4.138   1.171   6.065
10302SOL     OW31804   2.713   6.132   4.452
10302SOL    HW131805   2.630   6.168   4.493
10302SOL    HW231806   2.734   6.183   4.368
10303SOL     OW31807   0.938   5.989   4.009
10303SOL    HW131808   0.988   5.978   4.095
10303SOL    HW231809   0.970   5.922   3.943
10304SOL     OW31810   6.521   0.013   0.184
10304SOL    HW131811   6.457   6.982   0.241
10304SOL    HW231812   6.565   6.972   0.119
10305SOL     OW31813   2.754   3.594   6.074
10305SOL    HW131814   2.685   3.664   6.056
10305SOL    HW231815   2.778   3.548   5.988
10306SOL     OW31816   6.013   0.464   1.103
10306SOL    HW131817   5.992   0.370   1.132
10306SOL    HW231818   5.975   0.528   1.169
10307SOL     OW31819   2.946   0.697   4.839
10307SOL    HW131820   2.991   0.610   4.860
10307SOL    HW231821   2.983   0.734   4.753
10308SOL     OW31822   2.475   4.663   2.251
10308SOL    HW131823   2.427   4.655   2.165
10308SOL    HW231824   2.478   4.574   2.297
10309SOL     OW31825   6.197   0.731   5.609
10309SOL    HW131826   6.115   0.713   5.663
10309SOL    HW231827   6.271   0.760   5.669
10310SOL     OW31828   2.714   3.198   6.612
10310SOL    HW131829   2.772   3.278   6.598
10310SOL    HW231830   2.619   3.227   6.628
10311SOL     OW31831   5.674   5.682   6.617
10311SOL    HW131832   5.600   5.666   6.683
10311SOL    HW231833   5.635   5.700   6.527
10312SOL     OW31834   4.505   0.329   2.181
10312SOL    HW131835   4.574   0.384   2.230
10312SOL    HW231836   4.428   0.387   2.156
10313SOL     OW31837   4.534   5.880   2.558
10313SOL    HW131838   4.630   5.896   2.582
10313SOL    HW231839   4.495   5.812   2.621
10314SOL     OW31840   0.821   6.962   6.943
10314SOL    HW131841   0.887   0.015   6.957
10314SOL    HW231842   0.742   6.997   6.893
10315SOL     OW31843   4.905   6.693   3.736
10315SOL    HW131844   4.880   6.772   3.679
10315SOL    HW231845   4.999   6.666   3.715
10316SOL     OW31846   6.657   2.045   6.360
10316SOL    HW131847   6.703   2.126   6.322
10316SOL    HW231848   6.667   1.969   6.296
10317SOL     OW31849   3.418   6.093   6.344
10317SOL    HW131850   3.325   6.105   6.311
10317SOL    HW231851   3.483   6.117   6.271
10318SOL     OW31852   5.445   0.062   0.099
10318SOL    HW131853   5.538   0.099   0.108
10318SOL    HW231854   5.380   0.137   0.097
10319SOL     OW31855   0.101   4.761   4.666
10319SOL    HW131856   0.137   4.692   4.729
10319SOL    HW231857   0.147   4.752   4.577
10320SOL     OW31858   0.146   0.458   3.400
10320SOL    HW131859   0.114   0.383   3.457
10320SOL    HW231860   0.142   0.431   3.304
10321SOL     OW31861   5.616   2.250   2.045
10321SOL    HW131862   5.658   2.297   2.122
10321SOL    HW231863   5.612   2.152   2.065
10322SOL     OW31864   4.323   4.785   4.133
10322SOL    HW131865   4.317   4.743   4.224
10322SOL    HW231866   4.419   4.791   4.105
10323SOL     OW31867   6.658   4.381   5.756
10323SOL    HW131868   6.724   4.394   5.683
10323SOL    HW231869   6.662   4.459   5.818
10324SOL     OW31870   3.146   3.437   2.255
10324SOL    HW131871   3.222   3.502   2.250
10324SOL    HW231872   3.061   3.486   2.271
10325SOL     OW31873   0.506   5.900   2.208
10325SOL    HW131874   0.411   5.915   2.181
10325SOL    HW231875   0.513   5.904   2.308
10326SOL     OW31876   5.454   3.898   6.673
10326SOL    HW131877   5.445   3.806   6.634
10326SOL    HW231878   5.383   3.912   6.741
10327SOL     OW31879   2.707   3.739   1.137
10327SOL    HW131880   2.695   3.653   1.088
10327SOL    HW231881   2.681   3.727   1.233
10328SOL     OW31882   6.465   3.424   2.016
10328SOL    HW131883   6.528   3.352   1.985
10328SOL    HW231884   6.421   3.466   1.936
10329SOL     OW31885   3.011   0.883   3.090
10329SOL    HW131886   3.100   0.863   3.050
10329SOL    HW231887   3.014   0.866   3.189
10330SOL     OW31888   4.926   0.306   0.803
10330SOL    HW131889   4.856   0.350   0.859
10330SOL    HW231890   4.959   0.225   0.850
10331SOL     OW31891   6.082   6.230   6.604
10331SOL    HW131892   6.076   6.297   6.531
10331SOL    HW231893   6.166   6.245   6.657
10332SOL     OW31894   0.800   1.268   0.481
10332SOL    HW131895   0.886   1.218   0.490
10332SOL    HW231896   0.771   1.300   0.572
10333SOL     OW31897   0.692   5.832   4.385
10333SOL    HW131898   0.624   5.794   4.448
10333SOL    HW231899   0.646   5.869   4.305
10334SOL     OW31900   2.980   6.884   3.871
10334SOL    HW131901   2.903   6.947   3.877
10334SOL    HW231902   3.059   6.922   3.919
10335SOL     OW31903   0.247   4.608   6.503
10335SOL    HW131904   0.228   4.599   6.601
10335SOL    HW231905   0.161   4.612   6.452
10336SOL     OW31906   6.001   6.871   2.774
10336SOL    HW131907   6.029   6.920   2.855
10336SOL    HW231908   6.023   6.774   2.784
10337SOL     OW31909   6.141   5.302   7.002
10337SOL    HW131910   6.109   5.208   7.013
10337SOL    HW231911   6.203   5.308   6.923
10338SOL     OW31912   1.815   6.334   1.635
10338SOL    HW131913   1.732   6.346   1.581
10338SOL    HW231914   1.892   6.317   1.574
10339SOL     OW31915   6.648   2.930   5.890
10339SOL    HW131916   6.747   2.925   5.902
10339SOL    HW231917   6.616   2.846   5.845
10340SOL     OW31918   1.413   3.022   6.366
10340SOL    HW131919   1.468   3.072   6.433
10340SOL    HW231920   1.394   2.930   6.401
10341SOL     OW31921   2.090   3.105   2.695
10341SOL    HW131922   2.151   3.052   2.755
10341SOL    HW231923   2.064   3.049   2.617
10342SOL     OW31924   1.823   0.629   3.711
10342SOL    HW131925   1.775   0.711   3.740
10342SOL    HW231926   1.760   0.567   3.665
10343SOL     OW31927   2.464   5.817   0.765
10343SOL    HW131928   2.526   5.878   0.717
10343SOL    HW231929   2.398   5.778   0.700
10344SOL     OW31930   3.676   3.857   6.712
10344SOL    HW131931   3.622   3.843   6.629
10344SOL    HW231932   3.618   3.848   6.792
10345SOL     OW31933   1.250   2.792   5.334
10345SOL    HW131934   1.177   2.747   5.284
10345SOL    HW231935   1.335   2.787   5.282
10346SOL     OW31936   6.830   5.608   1.582
10346SOL    HW131937   6.817   5.575   1.676
10346SOL    HW231938   6.776   5.691   1.568
10347SOL     OW31939   4.555   0.910   3.816
10347SOL    HW131940   4.468   0.863   3.804
10347SOL    HW231941   4.593   0.887   3.905
10348SOL     OW31942   5.866   3.214   0.165
10348SOL    HW131943   5.856   3.309   0.135
10348SOL    HW231944   5.961   3.195   0.188
10349SOL     OW31945   0.782   6.978   6.153
10349SOL    HW131946   0.865   6.975   6.098
10349SOL    HW231947   0.791   6.913   6.229
10350SOL     OW31948   2.939   6.329   5.436
10350SOL    HW131949   2.977   6.309   5.346
10350SOL    HW231950   2.853   6.280   5.447
10351SOL     OW31951   4.482   5.396   5.767
10351SOL    HW131952   4.409   5.406   5.835
10351SOL    HW231953   4.500   5.484   5.723
10352SOL     OW31954   3.753   1.162   6.151
10352SOL    HW131955   3.733   1.199   6.242
10352SOL    HW231956   3.768   1.238   6.087
10353SOL     OW31957   6.654   3.195   4.190
10353SOL    HW131958   6.681   3.202   4.286
10353SOL    HW231959   6.562   3.231   4.178
10354SOL     OW31960   5.423   0.797   1.723
10354SOL    HW131961   5.369   0.854   1.786
10354SOL    HW231962   5.371   0.783   1.639
10355SOL     OW31963   2.667   6.032   2.189
10355SOL    HW131964   2.721   5.949   2.205
10355SOL    HW231965   2.679   6.094   2.266
10356SOL     OW31966   6.894   4.284   5.561
10356SOL    HW131967   6.805   4.256   5.525
10356SOL    HW231968   6.965   4.220   5.529
10357SOL     OW31969   2.172   2.283   6.505
10357SOL    HW131970   2.081   2.265   6.468
10357SOL    HW231971   2.179   2.379   6.531
10358SOL     OW31972   0.615   3.037   2.810
10358SOL    HW131973   0.620   3.023   2.909
10358SOL    HW231974   0.543   3.105   2.791
10359SOL     OW31975   0.375   1.381   1.677
10359SOL    HW131976   0.276   1.388   1.668
10359SOL    HW231977   0.412   1.328   1.600
10360SOL     OW31978   5.267   6.187   3.319
10360SOL    HW131979   5.332   6.260   3.340
10360SOL    HW231980   5.225   6.154   3.404
10361SOL     OW31981   2.881   5.868   2.222
10361SOL    HW131982   2.874   5.769   2.232
10361SOL    HW231983   2.977   5.895   2.216
10362SOL     OW31984   1.966   4.408   4.810
10362SOL    HW131985   1.996   4.394   4.904
10362SOL    HW231986   1.942   4.504   4.797
10363SOL     OW31987   5.206   0.206   3.678
10363SOL    HW131988   5.163   0.291   3.648
10363SOL    HW231989   5.297   0.225   3.714
10364SOL     OW31990   2.277   4.285   1.089
10364SOL    HW131991   2.351   4.219   1.086
10364SOL    HW231992   2.190   4.239   1.073
10365SOL     OW31993   4.835   5.145   0.060
10365SOL    HW131994   4.838   5.233   0.013
10365SOL    HW231995   4.752   5.096   0.035
10366SOL     OW31996   2.676   6.861   3.520
10366SOL    HW131997   2.699   6.932   3.454
10366SOL    HW231998   2.743   6.787   3.514
10367SOL     OW31999   6.076   2.873   3.314
10367SOL    HW132000   6.031   2.912   3.234
10367SOL    HW232001   6.129   2.793   3.287
10368SOL     OW32002   2.221   1.310   1.870
10368SOL    HW132003   2.287   1.356   1.929
10368SOL    HW232004   2.236   1.212   1.873
10369SOL     OW32005   3.586   2.134   0.617
10369SOL    HW132006   3.614   2.079   0.696
10369SOL    HW232007   3.527   2.208   0.648
10370SOL     OW32008   4.090   0.871   5.283
10370SOL    HW132009   4.092   0.892   5.185
10370SOL    HW232010   4.012   0.917   5.325
10371SOL     OW32011   4.518   5.711   5.163
10371SOL    HW132012   4.551   5.622   5.193
10371SOL    HW232013   4.512   5.773   5.241
10372SOL     OW32014   2.262   1.405   3.883
10372SOL    HW132015   2.210   1.366   3.959
10372SOL    HW232016   2.359   1.401   3.904
10373SOL     OW32017   1.093   6.689   4.083
10373SOL    HW132018   1.009   6.737   4.107
10373SOL    HW232019   1.077   6.591   4.079
10374SOL     OW32020   2.952   1.969   3.016
10374SOL    HW132021   3.042   1.986   3.057
10374SOL    HW232022   2.902   1.903   3.072
10375SOL     OW32023   5.669   1.653   1.123
10375SOL    HW132024   5.706   1.722   1.061
10375SOL    HW232025   5.688   1.679   1.218
10376SOL     OW32026   0.121   0.810   3.786
10376SOL    HW132027   0.114   0.751   3.705
10376SOL    HW232028   0.159   0.898   3.760
10377SOL     OW32029   0.328   0.549   3.662
10377SOL    HW132030   0.301   0.528   3.755
10377SOL    HW232031   0.253   0.528   3.599
10378SOL     OW32032   6.820   0.344   6.051
10378SOL    HW132033   6.757   0.276   6.089
10378SOL    HW232034   6.912   0.328   6.086
10379SOL     OW32035   5.206   0.827   4.537
10379SOL    HW132036   5.206   0.794   4.632
10379SOL    HW232037   5.294   0.869   4.517
10380SOL     OW32038   5.099   0.508   1.967
10380SOL    HW132039   5.079   0.435   2.032
10380SOL    HW232040   5.038   0.586   1.984
10381SOL     OW32041   4.728   4.791   5.859
10381SOL    HW132042   4.775   4.863   5.808
10381SOL    HW232043   4.695   4.721   5.796
10382SOL     OW32044   2.532   5.127   6.715
10382SOL    HW132045   2.490   5.107   6.627
10382SOL    HW232046   2.537   5.043   6.770
10383SOL     OW32047   0.532   2.351   1.436
10383SOL    HW132048   0.501   2.285   1.367
10383SOL    HW232049   0.578   2.304   1.511
10384SOL     OW32050   6.554   6.802   0.728
10384SOL    HW132051   6.546   6.889   0.680
10384SOL    HW232052   6.624   6.746   0.683
10385SOL     OW32053   6.343   1.186   6.613
10385SOL    HW132054   6.335   1.088   6.630
10385SOL    HW232055   6.365   1.233   6.699
10386SOL     OW32056   6.359   3.081   5.246
10386SOL    HW132057   6.397   3.171   5.267
10386SOL    HW232058   6.402   3.046   5.162
10387SOL     OW32059   1.793   2.508   3.453
10387SOL    HW132060   1.742   2.425   3.429
10387SOL    HW232061   1.820   2.556   3.369
10388SOL     OW32062   1.428   5.090   2.954
10388SOL    HW132063   1.479   5.087   3.040
10388SOL    HW232064   1.489   5.065   2.879
10389SOL     OW32065   0.741   4.699   3.386
10389SOL    HW132066   0.751   4.788   3.432
10389SOL    HW232067   0.698   4.713   3.297
10390SOL     OW32068   0.793   3.495   3.581
10390SOL    HW132069   0.829   3.579   3.539
10390SOL    HW232070   0.841   3.416   3.542
10391SOL     OW32071   2.405   6.436   6.096
10391SOL    HW132072   2.435   6.341   6.097
10391SOL    HW232073   2.449   6.486   6.170
10392SOL     OW32074   6.771   5.050   0.514
10392SOL    HW132075   6.745   5.145   0.495
10392SOL    HW232076   6.852   5.027   0.460
10393SOL     OW32077   1.455   1.456   4.016
10393SOL    HW132078   1.487   1.384   4.077
10393SOL    HW232079   1.358   1.472   4.031
10394SOL     OW32080   2.334   6.380   0.089
10394SOL    HW132081   2.376   6.311   0.029
10394SOL    HW232082   2.378   6.376   0.179
10395SOL     OW32083   0.223   1.006   4.905
10395SOL    HW132084   0.218   0.937   4.834
10395SOL    HW232085   0.314   1.003   4.948
10396SOL     OW32086   1.307   6.884   5.077
10396SOL    HW132087   1.335   6.976   5.105
10396SOL    HW232088   1.372   6.848   5.011
10397SOL     OW32089   3.391   1.656   2.951
10397SOL    HW132090   3.479   1.698   2.932
10397SOL    HW232091   3.319   1.703   2.901
10398SOL     OW32092   6.123   2.863   2.297
10398SOL    HW132093   6.188   2.896   2.229
10398SOL    HW232094   6.063   2.795   2.257
10399SOL     OW32095   5.399   2.456   5.210
10399SOL    HW132096   5.308   2.428   5.237
10399SOL    HW232097   5.400   2.476   5.112
10400SOL     OW32098   2.543   5.459   1.729
10400SOL    HW132099   2.446   5.449   1.711
10400SOL    HW232100   2.577   5.541   1.682
10401SOL     OW32101   0.889   6.054   2.003
10401SOL    HW132102   0.945   6.033   1.923
10401SOL    HW232103   0.945   6.096   2.074
10402SOL     OW32104   0.472   3.610   4.473
10402SOL    HW132105   0.528   3.545   4.524
10402SOL    HW232106   0.404   3.560   4.420
10403SOL     OW32107   5.621   1.272   1.994
10403SOL    HW132108   5.587   1.210   2.065
10403SOL    HW232109   5.717   1.293   2.011
10404SOL     OW32110   0.575   6.326   3.736
10404SOL    HW132111   0.662   6.371   3.757
10404SOL    HW232112   0.537   6.365   3.652
10405SOL     OW32113   1.741   6.339   6.136
10405SOL    HW132114   1.679   6.389   6.076
10405SOL    HW232115   1.692   6.261   6.176
10406SOL     OW32116   2.274   4.411   6.012
10406SOL    HW132117   2.304   4.436   5.920
10406SOL    HW232118   2.300   4.316   6.030
10407SOL     OW32119   0.556   2.281   0.034
10407SOL    HW132120   0.614   2.331   0.098
10407SOL    HW232121   0.598   2.193   0.012
10408SOL     OW32122   4.555   5.730   2.842
10408SOL    HW132123   4.592   5.641   2.813
10408SOL    HW232124   4.620   5.774   2.904
10409SOL     OW32125   6.210   4.838   2.733
10409SOL    HW132126   6.170   4.819   2.823
10409SOL    HW232127   6.270   4.762   2.707
10410SOL     OW32128   5.272   0.430   0.977
10410SOL    HW132129   5.272   0.454   1.074
10410SOL    HW232130   5.284   0.513   0.923
10411SOL     OW32131   1.922   4.766   2.926
10411SOL    HW132132   1.934   4.840   2.860
10411SOL    HW232133   1.838   4.716   2.905
10412SOL     OW32134   0.496   2.179   0.855
10412SOL    HW132135   0.479   2.083   0.880
10412SOL    HW232136   0.411   2.221   0.825
10413SOL     OW32137   6.951   1.992   6.982
10413SOL    HW132138   6.926   2.058   6.911
10413SOL    HW232139   6.991   2.041   0.039
10414SOL     OW32140   5.841   6.315   5.362
10414SOL    HW132141   5.868   6.368   5.442
10414SOL    HW232142   5.766   6.253   5.385
10415SOL     OW32143   0.644   5.859   3.693
10415SOL    HW132144   0.734   5.903   3.681
10415SOL    HW232145   0.577   5.928   3.720
10416SOL     OW32146   5.632   1.264   5.684
10416SOL    HW132147   5.669   1.336   5.625
10416SOL    HW232148   5.598   1.189   5.627
10417SOL     OW32149   3.819   4.978   4.264
10417SOL    HW132150   3.873   4.901   4.228
10417SOL    HW232151   3.862   5.064   4.237
10418SOL     OW32152   6.145   3.426   6.535
10418SOL    HW132153   6.150   3.444   6.633
10418SOL    HW232154   6.051   3.437   6.503
10419SOL     OW32155   2.659   1.491   4.417
10419SOL    HW132156   2.682   1.483   4.514
10419SOL    HW232157   2.598   1.569   4.403
10420SOL     OW32158   6.395   3.645   3.328
10420SOL    HW132159   6.407   3.739   3.295
10420SOL    HW232160   6.465   3.624   3.396
10421SOL     OW32161   1.117   4.322   4.691
10421SOL    HW132162   1.026   4.361   4.706
10421SOL    HW232163   1.128   4.241   4.748
10422SOL     OW32164   6.520   3.659   4.875
10422SOL    HW132165   6.605   3.684   4.829
10422SOL    HW232166   6.529   3.678   4.973
10423SOL     OW32167   3.041   4.944   3.752
10423SOL    HW132168   3.100   4.907   3.681
10423SOL    HW232169   3.096   4.982   3.826
10424SOL     OW32170   3.822   1.100   0.537
10424SOL    HW132171   3.884   1.146   0.600
10424SOL    HW232172   3.741   1.069   0.586
10425SOL     OW32173   1.371   2.320   0.712
10425SOL    HW132174   1.421   2.359   0.789
10425SOL    HW232175   1.282   2.365   0.704
10426SOL     OW32176   6.059   2.064   6.134
10426SOL    HW132177   6.145   2.042   6.180
10426SOL    HW232178   6.037   1.993   6.067
10427SOL     OW32179   5.398   6.475   4.375
10427SOL    HW132180   5.304   6.446   4.361
10427SOL    HW232181   5.399   6.570   4.409
10428SOL     OW32182   2.602   0.439   4.071
10428SOL    HW132183   2.588   0.515   4.009
10428SOL    HW232184   2.560   0.356   4.033
10429SOL     OW32185   1.317   2.591   2.165
10429SOL    HW132186   1.329   2.667   2.102
10429SOL    HW232187   1.247   2.528   2.129
10430SOL     OW32188   3.437   0.019   3.620
10430SOL    HW132189   3.408   6.962   3.677
10430SOL    HW232190   3.384   0.099   3.646
10431SOL     OW32191   3.354   0.378   2.631
10431SOL    HW132192   3.292   0.399   2.555
10431SOL    HW232193   3.318   0.418   2.715
10432SOL     OW32194   1.299   5.763   5.957
10432SOL    HW132195   1.294   5.732   6.052
10432SOL    HW232196   1.312   5.684   5.897
10433SOL     OW32197   2.556   0.143   2.559
10433SOL    HW132198   2.631   0.144   2.626
10433SOL    HW232199   2.503   0.060   2.570
10434SOL     OW32200   5.028   0.153   5.627
10434SOL    HW132201   5.041   0.118   5.720
10434SOL    HW232202   5.082   0.098   5.564
10435SOL     OW32203   2.283   1.811   6.843
10435SOL    HW132204   2.298   1.904   6.877
10435SOL    HW232205   2.354   1.788   6.776
10436SOL     OW32206   6.663   3.495   5.132
10436SOL    HW132207   6.729   3.547   5.188
10436SOL    HW232208   6.578   3.546   5.124
10437SOL     OW32209   5.106   6.474   4.986
10437SOL    HW132210   5.199   6.471   5.022
10437SOL    HW232211   5.109   6.487   4.886
10438SOL     OW32212   6.704   5.884   6.724
10438SOL    HW132213   6.733   5.832   6.643
10438SOL    HW232214   6.631   5.834   6.771
10439SOL     OW32215   6.657   6.550   5.221
10439SOL    HW132216   6.672   6.451   5.217
10439SOL    HW232217   6.636   6.584   5.129
10440SOL     OW32218   6.699   2.480   0.728
10440SOL    HW132219   6.771   2.544   0.701
10440SOL    HW232220   6.637   2.466   0.651
10441SOL     OW32221   4.118   1.775   0.413
10441SOL    HW132222   4.192   1.817   0.361
10441SOL    HW232223   4.144   1.767   0.509
10442SOL     OW32224   2.311   1.936   5.923
10442SOL    HW132225   2.399   1.909   5.884
10442SOL    HW232226   2.318   2.026   5.965
10443SOL     OW32227   0.481   1.523   3.089
10443SOL    HW132228   0.559   1.503   3.031
10443SOL    HW232229   0.506   1.514   3.185
10444SOL     OW32230   3.943   5.467   4.280
10444SOL    HW132231   3.972   5.381   4.239
10444SOL    HW232232   3.985   5.543   4.232
10445SOL     OW32233   0.930   3.440   3.087
10445SOL    HW132234   0.933   3.374   3.012
10445SOL    HW232235   0.934   3.533   3.050
10446SOL     OW32236   1.692   4.310   5.610
10446SOL    HW132237   1.611   4.283   5.662
10446SOL    HW232238   1.755   4.233   5.603
10447SOL     OW32239   0.253   1.901   3.083
10447SOL    HW132240   0.291   1.977   3.136
10447SOL    HW232241   0.214   1.936   2.997
10448SOL     OW32242   2.445   6.322   2.557
10448SOL    HW132243   2.478   6.348   2.648
10448SOL    HW232244   2.384   6.392   2.522
10449SOL     OW32245   3.747   4.948   4.518
10449SOL    HW132246   3.793   4.888   4.584
10449SOL    HW232247   3.799   4.950   4.433
10450SOL     OW32248   6.825   0.837   6.295
10450SOL    HW132249   6.832   0.916   6.234
10450SOL    HW232250   6.823   0.753   6.240
10451SOL     OW32251   3.029   0.821   3.369
10451SOL    HW132252   3.007   0.860   3.459
10451SOL    HW232253   3.091   0.744   3.381
10452SOL     OW32254   6.631   3.641   4.604
10452SOL    HW132255   6.561   3.647   4.676
10452SOL    HW232256   6.722   3.647   4.645
10453SOL     OW32257   3.604   5.700   3.504
10453SOL    HW132258   3.603   5.789   3.459
10453SOL    HW232259   3.606   5.713   3.603
10454SOL     OW32260   6.571   0.904   6.027
10454SOL    HW132261   6.510   0.977   6.060
10454SOL    HW232262   6.663   0.941   6.013
10455SOL     OW32263   6.321   5.780   3.803
10455SOL    HW132264   6.357   5.873   3.811
10455SOL    HW232265   6.265   5.759   3.884
10456SOL     OW32266   1.194   5.047   6.701
10456SOL    HW132267   1.126   4.977   6.726
10456SOL    HW232268   1.282   5.003   6.686
10457SOL     OW32269   3.683   2.469   6.664
10457SOL    HW132270   3.619   2.545   6.674
10457SOL    HW232271   3.749   2.470   6.740
10458SOL     OW32272   0.258   5.974   6.520
10458SOL    HW132273   0.237   5.905   6.589
10458SOL    HW232274   0.315   5.932   6.449
10459SOL     OW32275   0.148   5.064   0.644
10459SOL    HW132276   0.110   5.071   0.551
10459SOL    HW232277   0.240   5.026   0.639
10460SOL     OW32278   0.009   1.705   0.822
10460SOL    HW132279   7.015   1.757   0.906
10460SOL    HW232280   0.062   1.761   0.757
10461SOL     OW32281   6.835   5.106   6.047
10461SOL    HW132282   6.825   5.133   5.951
10461SOL    HW232283   6.810   5.183   6.105
10462SOL     OW32284   4.742   2.137   0.744
10462SOL    HW132285   4.780   2.053   0.704
10462SOL    HW232286   4.787   2.156   0.831
10463SOL     OW32287   4.409   2.761   6.274
10463SOL    HW132288   4.370   2.694   6.210
10463SOL    HW232289   4.508   2.749   6.280
10464SOL     OW32290   6.564   4.800   2.518
10464SOL    HW132291   6.537   4.894   2.540
10464SOL    HW232292   6.663   4.792   2.526
10465SOL     OW32293   5.075   4.470   1.347
10465SOL    HW132294   5.155   4.528   1.356
10465SOL    HW232295   5.095   4.394   1.285
10466SOL     OW32296   6.253   4.931   6.653
10466SOL    HW132297   6.157   4.948   6.632
10466SOL    HW232298   6.284   4.848   6.606
10467SOL     OW32299   0.609   3.442   0.294
10467SOL    HW132300   0.638   3.490   0.377
10467SOL    HW232301   0.576   3.508   0.227
10468SOL     OW32302   2.195   4.574   4.058
10468SOL    HW132303   2.189   4.609   4.151
10468SOL    HW232304   2.217   4.650   3.995
10469SOL     OW32305   0.041   1.384   4.022
10469SOL    HW132306   0.056   1.450   4.096
10469SOL    HW232307   0.129   1.343   3.996
10470SOL     OW32308   1.814   2.715   3.084
10470SOL    HW132309   1.762   2.660   3.019
10470SOL    HW232310   1.757   2.792   3.115
10471SOL     OW32311   2.936   6.950   6.841
10471SOL    HW132312   2.932   6.978   6.937
10471SOL    HW232313   2.845   6.919   6.812
10472SOL     OW32314   3.779   4.478   6.526
10472SOL    HW132315   3.833   4.464   6.443
10472SOL    HW232316   3.712   4.551   6.510
10473SOL     OW32317   5.262   5.402   0.381
10473SOL    HW132318   5.251   5.460   0.300
10473SOL    HW232319   5.292   5.311   0.352
10474SOL     OW32320   5.410   0.685   4.176
10474SOL    HW132321   5.504   0.680   4.211
10474SOL    HW232322   5.346   0.665   4.250
10475SOL     OW32323   1.482   6.430   0.891
10475SOL    HW132324   1.448   6.524   0.884
10475SOL    HW232325   1.567   6.429   0.944
10476SOL     OW32326   4.113   5.526   6.928
10476SOL    HW132327   4.111   5.458   7.001
10476SOL    HW232328   4.205   5.532   6.890
10477SOL     OW32329   6.714   5.444   3.815
10477SOL    HW132330   6.748   5.523   3.865
10477SOL    HW232331   6.614   5.448   3.811
10478SOL     OW32332   5.927   1.089   0.250
10478SOL    HW132333   6.008   1.120   0.299
10478SOL    HW232334   5.874   1.028   0.309
10479SOL     OW32335   1.428   2.519   1.845
10479SOL    HW132336   1.374   2.455   1.790
10479SOL    HW232337   1.461   2.472   1.927
10480SOL     OW32338   2.041   0.161   2.110
10480SOL    HW132339   2.071   0.109   2.030
10480SOL    HW232340   2.032   0.258   2.086
10481SOL     OW32341   6.952   0.977   2.066
10481SOL    HW132342   6.968   1.036   2.145
10481SOL    HW232343   0.015   0.971   2.011
10482SOL     OW32344   4.888   3.913   4.650
10482SOL    HW132345   4.890   3.830   4.595
10482SOL    HW232346   4.849   3.988   4.596
10483SOL     OW32347   6.159   6.426   0.407
10483SOL    HW132348   6.135   6.359   0.337
10483SOL    HW232349   6.105   6.410   0.489
10484SOL     OW32350   6.121   1.168   2.425
10484SOL    HW132351   6.097   1.138   2.517
10484SOL    HW232352   6.040   1.205   2.379
10485SOL     OW32353   5.830   3.913   5.393
10485SOL    HW132354   5.854   3.888   5.487
10485SOL    HW232355   5.864   3.843   5.330
10486SOL     OW32356   5.235   2.870   1.678
10486SOL    HW132357   5.177   2.817   1.739
10486SOL    HW232358   5.178   2.922   1.614
10487SOL     OW32359   5.751   6.624   1.614
10487SOL    HW132360   5.792   6.537   1.588
10487SOL    HW232361   5.657   6.609   1.646
10488SOL     OW32362   2.318   2.397   6.194
10488SOL    HW132363   2.354   2.343   6.270
10488SOL    HW232364   2.341   2.352   6.108
10489SOL     OW32365   0.953   6.012   6.263
10489SOL    HW132366   0.955   5.932   6.322
10489SOL    HW232367   0.973   5.985   6.168
10490SOL     OW32368   6.932   1.058   3.795
10490SOL    HW132369   6.911   1.061   3.893
10490SOL    HW232370   6.880   1.129   3.748
10491SOL     OW32371   1.568   4.059   5.975
10491SOL    HW132372   1.599   4.154   5.973
10491SOL    HW232373   1.472   4.054   5.947
10492SOL     OW32374   4.979   3.387   5.123
10492SOL    HW132375   4.913   3.445   5.076
10492SOL    HW232376   5.031   3.442   5.189
10493SOL     OW32377   3.028   1.019   1.704
10493SOL    HW132378   3.102   0.958   1.734
10493SOL    HW232379   3.065   1.110   1.685
10494SOL     OW32380   6.213   2.140   4.569
10494SOL    HW132381   6.219   2.107   4.663
10494SOL    HW232382   6.148   2.216   4.565
10495SOL     OW32383   1.015   6.441   0.315
10495SOL    HW132384   1.031   6.343   0.325
10495SOL    HW232385   1.080   6.480   0.250
10496SOL     OW32386   0.092   0.004   5.474
10496SOL    HW132387   0.054   0.094   5.454
10496SOL    HW232388   0.038   6.981   5.546
10497SOL     OW32389   1.504   1.016   1.024
10497SOL    HW132390   1.553   1.062   1.098
10497SOL    HW232391   1.436   0.953   1.062
10498SOL     OW32392   2.429   5.878   6.134
10498SOL    HW132393   2.486   5.945   6.086
10498SOL    HW232394   2.477   5.791   6.140
10499SOL     OW32395   3.354   5.813   3.140
10499SOL    HW132396   3.298   5.881   3.093
10499SOL    HW232397   3.298   5.734   3.164
10500SOL     OW32398   1.104   1.768   6.323
10500SOL    HW132399   1.029   1.786   6.260
10500SOL    HW232400   1.191   1.773   6.274
10501SOL     OW32401   1.561   3.387   2.794
10501SOL    HW132402   1.606   3.325   2.860
10501SOL    HW232403   1.603   3.375   2.704
10502SOL     OW32404   3.332   5.981   6.665
10502SOL    HW132405   3.301   5.964   6.571
10502SOL    HW232406   3.432   5.971   6.669
10503SOL     OW32407   3.121   3.132   6.775
10503SOL    HW132408   3.130   3.034   6.760
10503SOL    HW232409   3.024   3.155   6.787
10504SOL     OW32410   2.908   3.253   1.004
10504SOL    HW132411   2.812   3.249   0.979
10504SOL    HW232412   2.934   3.168   1.050
10505SOL     OW32413   6.795   6.086   1.448
10505SOL    HW132414   6.887   6.111   1.480
10505SOL    HW232415   6.761   6.157   1.387
10506SOL     OW32416   0.521   4.028   5.842
10506SOL    HW132417   0.453   3.976   5.791
10506SOL    HW232418   0.593   4.058   5.780
10507SOL     OW32419   0.852   0.277   6.043
10507SOL    HW132420   0.941   0.257   6.000
10507SOL    HW232421   0.790   0.201   6.027
10508SOL     OW32422   5.246   4.117   3.048
10508SOL    HW132423   5.195   4.033   3.027
10508SOL    HW232424   5.188   4.178   3.102
10509SOL     OW32425   1.495   0.352   6.481
10509SOL    HW132426   1.501   0.267   6.428
10509SOL    HW232427   1.517   0.332   6.577
10510SOL     OW32428   6.475   5.372   0.244
10510SOL    HW132429   6.410   5.447   0.230
10510SOL    HW232430   6.488   5.323   0.158
10511SOL     OW32431   4.302   2.804   0.817
10511SOL    HW132432   4.339   2.859   0.743
10511SOL    HW232433   4.322   2.707   0.799
10512SOL     OW32434   4.061   6.410   6.207
10512SOL    HW132435   3.971   6.427   6.168
10512SOL    HW232436   4.082   6.480   6.276
10513SOL     OW32437   0.535   2.689   6.993
10513SOL    HW132438   0.496   2.618   6.935
10513SOL    HW232439   0.602   2.742   6.941
10514SOL     OW32440   0.370   5.087   0.960
10514SOL    HW132441   0.363   5.128   0.869
10514SOL    HW232442   0.279   5.070   0.997
10515SOL     OW32443   6.375   2.232   3.188
10515SOL    HW132444   6.443   2.184   3.133
10515SOL    HW232445   6.368   2.327   3.157
10516SOL     OW32446   4.075   0.363   5.958
10516SOL    HW132447   3.981   0.337   5.938
10516SOL    HW232448   4.084   0.382   6.056
10517SOL     OW32449   6.775   2.224   2.634
10517SOL    HW132450   6.867   2.239   2.598
10517SOL    HW232451   6.708   2.266   2.572
10518SOL     OW32452   0.874   5.998   1.056
10518SOL    HW132453   0.859   5.982   0.958
10518SOL    HW232454   0.966   6.034   1.070
10519SOL     OW32455   3.076   3.297   5.376
10519SOL    HW132456   3.069   3.203   5.409
10519SOL    HW232457   3.104   3.297   5.280
10520SOL     OW32458   4.448   2.146   6.932
10520SOL    HW132459   4.508   2.193   6.997
10520SOL    HW232460   4.453   2.047   6.949
10521SOL     OW32461   6.374   5.735   1.271
10521SOL    HW132462   6.425   5.650   1.278
10521SOL    HW232463   6.334   5.743   1.180
10522SOL     OW32464   6.408   1.027   1.674
10522SOL    HW132465   6.354   1.036   1.758
10522SOL    HW232466   6.368   0.956   1.616
10523SOL     OW32467   0.074   5.683   6.086
10523SOL    HW132468   0.051   5.589   6.110
10523SOL    HW232469   0.072   5.740   6.168
10524SOL     OW32470   2.825   0.423   3.716
10524SOL    HW132471   2.877   0.337   3.721
10524SOL    HW232472   2.746   0.410   3.655
10525SOL     OW32473   2.434   6.119   5.063
10525SOL    HW132474   2.444   6.106   4.964
10525SOL    HW232475   2.423   6.216   5.083
10526SOL     OW32476   6.915   0.850   2.609
10526SOL    HW132477   6.954   0.767   2.647
10526SOL    HW232478   6.834   0.827   2.554
10527SOL     OW32479   0.835   2.718   4.390
10527SOL    HW132480   0.768   2.656   4.429
10527SOL    HW232481   0.811   2.739   4.295
10528SOL     OW32482   0.377   4.947   5.211
10528SOL    HW132483   0.353   4.851   5.201
10528SOL    HW232484   0.476   4.958   5.209
10529SOL     OW32485   0.042   0.262   3.544
10529SOL    HW132486   0.050   0.228   3.638
10529SOL    HW232487   6.978   0.228   3.503
10530SOL     OW32488   2.734   2.071   6.070
10530SOL    HW132489   2.804   2.002   6.084
10530SOL    HW232490   2.685   2.053   5.985
10531SOL     OW32491   1.691   2.985   5.069
10531SOL    HW132492   1.699   3.072   5.118
10531SOL    HW232493   1.740   2.914   5.121
10532SOL     OW32494   3.837   2.448   5.743
10532SOL    HW132495   3.824   2.493   5.831
10532SOL    HW232496   3.923   2.481   5.702
10533SOL     OW32497   2.640   1.371   5.534
10533SOL    HW132498   2.622   1.469   5.520
10533SOL    HW232499   2.680   1.333   5.452
10534SOL     OW32500   0.106   5.355   0.856
10534SOL    HW132501   0.179   5.343   0.788
10534SOL    HW232502   0.021   5.377   0.809
10535SOL     OW32503   0.518   1.316   2.259
10535SOL    HW132504   0.579   1.330   2.181
10535SOL    HW232505   0.514   1.399   2.314
10536SOL     OW32506   4.492   0.440   2.761
10536SOL    HW132507   4.438   0.433   2.845
10536SOL    HW232508   4.574   0.494   2.779
10537SOL     OW32509   1.226   4.868   2.364
10537SOL    HW132510   1.201   4.942   2.302
10537SOL    HW232511   1.308   4.822   2.330
10538SOL     OW32512   4.661   3.790   0.561
10538SOL    HW132513   4.663   3.715   0.494
10538SOL    HW232514   4.592   3.769   0.631
10539SOL     OW32515   0.478   3.633   6.479
10539SOL    HW132516   0.515   3.608   6.390
10539SOL    HW232517   0.401   3.572   6.501
10540SOL     OW32518   2.122   0.271   6.392
10540SOL    HW132519   2.192   0.328   6.349
10540SOL    HW232520   2.080   0.321   6.467
10541SOL     OW32521   3.868   3.226   0.054
10541SOL    HW132522   3.822   3.226   6.986
10541SOL    HW232523   3.812   3.176   0.121
10542SOL     OW32524   6.856   2.390   0.414
10542SOL    HW132525   6.781   2.378   0.349
10542SOL    HW232526   6.859   2.312   0.476
10543SOL     OW32527   0.846   1.061   5.998
10543SOL    HW132528   0.822   1.122   5.923
10543SOL    HW232529   0.853   0.967   5.964
10544SOL     OW32530   1.977   2.298   2.271
10544SOL    HW132531   1.904   2.366   2.266
10544SOL    HW232532   2.065   2.345   2.277
10545SOL     OW32533   6.358   0.877   2.597
10545SOL    HW132534   6.348   0.852   2.501
10545SOL    HW232535   6.449   0.852   2.629
10546SOL     OW32536   2.761   0.456   4.286
10546SOL    HW132537   2.696   0.451   4.209
10546SOL    HW232538   2.761   0.549   4.323
10547SOL     OW32539   4.461   1.579   1.593
10547SOL    HW132540   4.453   1.576   1.494
10547SOL    HW232541   4.388   1.526   1.635
10548SOL     OW32542   5.159   4.049   4.692
10548SOL    HW132543   5.111   3.989   4.628
10548SOL    HW232544   5.181   3.998   4.775
10549SOL     OW32545   1.149   1.360   1.754
10549SOL    HW132546   1.062   1.317   1.731
10549SOL    HW232547   1.172   1.341   1.849
10550SOL     OW32548   4.811   7.001   4.333
10550SOL    HW132549   4.788   0.006   4.239
10550SOL    HW232550   4.910   6.982   4.339
10551SOL     OW32551   1.184   2.576   6.243
10551SOL    HW132552   1.187   2.589   6.342
10551SOL    HW232553   1.133   2.492   6.222
10552SOL     OW32554   3.420   2.249   5.269
10552SOL    HW132555   3.496   2.277   5.328
10552SOL    HW232556   3.359   2.327   5.254
10553SOL     OW32557   1.436   5.219   0.222
10553SOL    HW132558   1.466   5.287   0.288
10553SOL    HW232559   1.448   5.127   0.260
10554SOL     OW32560   6.816   4.746   0.009
10554SOL    HW132561   6.787   4.778   6.940
10554SOL    HW232562   6.915   4.757   0.018
10555SOL     OW32563   3.435   1.268   1.662
10555SOL    HW132564   3.372   1.274   1.585
10555SOL    HW232565   3.414   1.340   1.729
10556SOL     OW32566   1.872   3.629   5.221
10556SOL    HW132567   1.914   3.620   5.131
10556SOL    HW232568   1.841   3.724   5.234
10557SOL     OW32569   6.852   2.732   3.280
10557SOL    HW132570   6.802   2.676   3.213
10557SOL    HW232571   6.864   2.824   3.243
10558SOL     OW32572   4.562   5.932   5.329
10558SOL    HW132573   4.497   6.005   5.306
10558SOL    HW232574   4.644   5.941   5.274
10559SOL     OW32575   4.172   1.970   0.835
10559SOL    HW132576   4.219   2.057   0.848
10559SOL    HW232577   4.074   1.983   0.845
10560SOL     OW32578   0.986   3.603   3.983
10560SOL    HW132579   0.887   3.589   3.978
10560SOL    HW232580   1.031   3.541   3.919
10561SOL     OW32581   2.563   4.228   6.985
10561SOL    HW132582   2.538   4.183   6.899
10561SOL    HW232583   2.528   4.175   0.041
10562SOL     OW32584   4.228   1.397   0.411
10562SOL    HW132585   4.145   1.359   0.370
10562SOL    HW232586   4.205   1.438   0.499
10563SOL     OW32587   1.292   2.014   5.530
10563SOL    HW132588   1.307   2.062   5.617
10563SOL    HW232589   1.252   1.924   5.548
10564SOL     OW32590   6.281   2.247   1.890
10564SOL    HW132591   6.369   2.252   1.842
10564SOL    HW232592   6.245   2.339   1.905
10565SOL     OW32593   5.876   1.574   4.860
10565SOL    HW132594   5.892   1.644   4.790
10565SOL    HW232595   5.880   1.616   4.951
10566SOL     OW32596   3.771   3.817   6.157
10566SOL    HW132597   3.695   3.823   6.222
10566SOL    HW232598   3.852   3.861   6.195
10567SOL     OW32599   1.793   3.572   3.911
10567SOL    HW132600   1.745   3.634   3.973
10567SOL    HW232601   1.848   3.508   3.963
10568SOL     OW32602   4.952   1.327   3.118
10568SOL    HW132603   4.899   1.270   3.055
10568SOL    HW232604   4.890   1.371   3.183
10569SOL     OW32605   5.572   2.919   4.410
10569SOL    HW132606   5.602   2.906   4.505
10569SOL    HW232607   5.652   2.915   4.350
10570SOL     OW32608   1.683   5.066   2.765
10570SOL    HW132609   1.719   4.993   2.707
10570SOL    HW232610   1.692   5.153   2.717
10571SOL     OW32611   6.466   6.400   3.060
10571SOL    HW132612   6.447   6.319   3.115
10571SOL    HW232613   6.380   6.437   3.024
10572SOL     OW32614   5.653   3.571   1.706
10572SOL    HW132615   5.620   3.478   1.720
10572SOL    HW232616   5.589   3.637   1.745
10573SOL     OW32617   6.078   5.247   4.903
10573SOL    HW132618   6.133   5.207   4.830
10573SOL    HW232619   6.078   5.347   4.894
10574SOL     OW32620   0.267   1.586   3.535
10574SOL    HW132621   0.274   1.657   3.464
10574SOL    HW232622   0.178   1.541   3.528
10575SOL     OW32623   1.124   0.147   5.222
10575SOL    HW132624   1.210   0.135   5.172
10575SOL    HW232625   1.054   0.180   5.159
10576SOL     OW32626   1.997   5.476   3.905
10576SOL    HW132627   2.023   5.478   4.002
10576SOL    HW232628   2.040   5.397   3.861
10577SOL     OW32629   1.760   2.879   6.059
10577SOL    HW132630   1.742   2.856   5.964
10577SOL    HW232631   1.790   2.798   6.109
10578SOL     OW32632   6.165   0.212   5.817
10578SOL    HW132633   6.186   0.207   5.719
10578SOL    HW232634   6.199   0.130   5.862
10579SOL     OW32635   4.438   1.848   0.508
10579SOL    HW132636   4.473   1.942   0.510
10579SOL    HW232637   4.381   1.832   0.588
10580SOL     OW32638   6.750   6.009   7.006
10580SOL    HW132639   6.764   6.068   6.926
10580SOL    HW232640   6.658   5.970   7.003
10581SOL     OW32641   5.874   0.335   3.491
10581SOL    HW132642   5.932   0.301   3.416
10581SOL    HW232643   5.925   0.404   3.543
10582SOL     OW32644   3.894   5.042   6.559
10582SOL    HW132645   3.847   5.030   6.647
10582SOL    HW232646   3.826   5.053   6.487
10583SOL     OW32647   4.010   0.776   0.133
10583SOL    HW132648   4.032   0.813   0.224
10583SOL    HW232649   4.025   0.677   0.133
10584SOL     OW32650   5.710   6.911   1.276
10584SOL    HW132651   5.672   7.003   1.277
10584SOL    HW232652   5.657   6.854   1.212
10585SOL     OW32653   0.649   2.896   6.207
10585SOL    HW132654   0.653   2.995   6.196
10585SOL    HW232655   0.741   2.861   6.227
10586SOL     OW32656   2.912   6.033   5.713
10586SOL    HW132657   2.926   6.111   5.773
10586SOL    HW232658   2.817   6.002   5.721
10587SOL     OW32659   6.016   4.041   0.953
10587SOL    HW132660   6.071   3.966   0.991
10587SOL    HW232661   6.065   4.127   0.964
10588SOL     OW32662   0.362   5.507   3.163
10588SOL    HW132663   0.307   5.437   3.118
10588SOL    HW232664   0.431   5.542   3.099
10589SOL     OW32665   5.754   1.992   3.815
10589SOL    HW132666   5.814   1.917   3.786
10589SOL    HW232667   5.716   2.037   3.734
10590SOL     OW32668   1.448   0.224   3.202
10590SOL    HW132669   1.418   0.294   3.138
10590SOL    HW232670   1.448   0.135   3.156
10591SOL     OW32671   1.013   2.248   0.125
10591SOL    HW132672   1.032   2.167   0.181
10591SOL    HW232673   1.016   2.330   0.183
10592SOL     OW32674   6.371   1.332   0.206
10592SOL    HW132675   6.321   1.393   0.267
10592SOL    HW232676   6.446   1.383   0.162
10593SOL     OW32677   2.340   5.498   1.089
10593SOL    HW132678   2.351   5.414   1.036
10593SOL    HW232679   2.246   5.531   1.079
10594SOL     OW32680   6.895   2.036   4.049
10594SOL    HW132681   6.820   1.987   4.094
10594SOL    HW232682   6.857   2.108   3.991
10595SOL     OW32683   3.767   6.540   6.502
10595SOL    HW132684   3.808   6.622   6.462
10595SOL    HW232685   3.829   6.463   6.491
10596SOL     OW32686   3.927   0.012   2.594
10596SOL    HW132687   3.934   0.091   2.655
10596SOL    HW232688   3.948   0.040   2.501
10597SOL     OW32689   1.723   0.936   4.838
10597SOL    HW132690   1.730   0.947   4.739
10597SOL    HW232691   1.738   0.840   4.862
10598SOL     OW32692   2.190   2.193   6.778
10598SOL    HW132693   2.092   2.177   6.795
10598SOL    HW232694   2.200   2.256   6.701
10599SOL     OW32695   5.717   1.557   6.992
10599SOL    HW132696   5.706   1.525   0.065
10599SOL    HW232697   5.807   1.528   6.957
10600SOL     OW32698   2.478   2.799   5.954
10600SOL    HW132699   2.399   2.753   5.993
10600SOL    HW232700   2.457   2.829   5.861
10601SOL     OW32701   3.101   6.213   6.477
10601SOL    HW132702   3.191   6.207   6.520
10601SOL    HW232703   3.074   6.309   6.471
10602SOL     OW32704   4.570   1.835   1.755
10602SOL    HW132705   4.545   1.903   1.687
10602SOL    HW232706   4.525   1.748   1.733
10603SOL     OW32707   1.555   5.573   4.246
10603SOL    HW132708   1.465   5.531   4.243
10603SOL    HW232709   1.624   5.506   4.219
10604SOL     OW32710   6.832   4.428   4.474
10604SOL    HW132711   6.803   4.336   4.497
10604SOL    HW232712   6.756   4.492   4.486
10605SOL     OW32713   1.340   5.409   6.704
10605SOL    HW132714   1.411   5.471   6.736
10605SOL    HW232715   1.376   5.351   6.631
10606SOL     OW32716   0.729   0.493   2.036
10606SOL    HW132717   0.653   0.557   2.048
10606SOL    HW232718   0.796   0.532   1.973
10607SOL     OW32719   5.383   4.905   0.209
10607SOL    HW132720   5.293   4.864   0.221
10607SOL    HW232721   5.454   4.835   0.223
10608SOL     OW32722   6.618   1.438   4.141
10608SOL    HW132723   6.588   1.467   4.050
10608SOL    HW232724   6.540   1.399   4.191
10609SOL     OW32725   3.922   6.495   1.061
10609SOL    HW132726   3.971   6.431   1.121
10609SOL    HW232727   3.852   6.446   1.010
10610SOL     OW32728   1.066   3.170   5.710
10610SOL    HW132729   1.015   3.134   5.632
10610SOL    HW232730   1.164   3.155   5.695
10611SOL     OW32731   5.790   2.456   6.035
10611SOL    HW132732   5.739   2.379   6.072
10611SOL    HW232733   5.869   2.422   5.984
10612SOL     OW32734   1.992   0.327   6.968
10612SOL    HW132735   2.048   0.277   6.901
10612SOL    HW232736   1.904   0.349   6.928
10613SOL     OW32737   0.697   6.201   5.528
10613SOL    HW132738   0.672   6.208   5.431
10613SOL    HW232739   0.731   6.109   5.547
10614SOL     OW32740   6.895   0.914   4.320
10614SOL    HW132741   6.842   0.990   4.358
10614SOL    HW232742   6.951   0.874   4.391
10615SOL     OW32743   5.358   5.508   5.443
10615SOL    HW132744   5.450   5.472   5.459
10615SOL    HW232745   5.290   5.442   5.472
10616SOL     OW32746   2.925   5.997   6.911
10616SOL    HW132747   2.900   5.928   6.842
10616SOL    HW232748   2.883   5.972   6.998
10617SOL     OW32749   1.533   2.200   0.157
10617SOL    HW132750   1.629   2.228   0.164
10617SOL    HW232751   1.526   2.118   0.101
10618SOL     OW32752   5.928   3.039   6.971
10618SOL    HW132753   5.873   3.094   0.014
10618SOL    HW232754   6.022   3.035   7.004
10619SOL     OW32755   1.143   4.457   4.144
10619SOL    HW132756   1.204   4.437   4.067
10619SOL    HW232757   1.078   4.528   4.117
10620SOL     OW32758   1.591   5.771   4.722
10620SOL    HW132759   1.626   5.796   4.812
10620SOL    HW232760   1.593   5.671   4.712
10621SOL     OW32761   2.046   6.699   0.028
10621SOL    HW132762   2.050   6.797   0.012
10621SOL    HW232763   2.093   6.651   6.974
10622SOL     OW32764   3.846   0.970   1.467
10622SOL    HW132765   3.876   1.022   1.547
10622SOL    HW232766   3.829   0.875   1.493
10623SOL     OW32767   6.084   2.167   3.717
10623SOL    HW132768   6.130   2.098   3.662
10623SOL    HW232769   5.988   2.173   3.690
10624SOL     OW32770   1.768   0.691   4.315
10624SOL    HW132771   1.718   0.606   4.332
10624SOL    HW232772   1.703   0.766   4.302
10625SOL     OW32773   0.358   3.108   0.840
10625SOL    HW132774   0.283   3.160   0.800
10625SOL    HW232775   0.329   3.014   0.857
10626SOL     OW32776   0.569   2.409   1.906
10626SOL    HW132777   0.635   2.479   1.935
10626SOL    HW232778   0.617   2.336   1.857
10627SOL     OW32779   5.840   6.228   3.596
10627SOL    HW132780   5.789   6.219   3.682
10627SOL    HW232781   5.903   6.152   3.587
10628SOL     OW32782   5.980   5.495   5.940
10628SOL    HW132783   5.976   5.559   5.864
10628SOL    HW232784   5.911   5.424   5.927
10629SOL     OW32785   2.417   5.484   5.746
10629SOL    HW132786   2.383   5.417   5.811
10629SOL    HW232787   2.475   5.439   5.678
10630SOL     OW32788   6.378   1.911   3.519
10630SOL    HW132789   6.324   1.930   3.601
10630SOL    HW232790   6.474   1.900   3.544
10631SOL     OW32791   0.869   6.900   3.519
10631SOL    HW132792   0.863   6.942   3.610
10631SOL    HW232793   0.793   6.836   3.508
10632SOL     OW32794   0.268   1.934   4.998
10632SOL    HW132795   0.323   1.992   5.059
10632SOL    HW232796   0.224   1.992   4.928
10633SOL     OW32797   1.742   4.886   1.825
10633SOL    HW132798   1.811   4.957   1.840
10633SOL    HW232799   1.782   4.813   1.769
10634SOL     OW32800   3.613   6.454   1.004
10634SOL    HW132801   3.518   6.485   1.014
10634SOL    HW232802   3.614   6.358   0.977
10635SOL     OW32803   2.276   0.697   1.149
10635SOL    HW132804   2.335   0.775   1.132
10635SOL    HW232805   2.311   0.645   1.227
10636SOL     OW32806   1.120   2.212   1.266
10636SOL    HW132807   1.158   2.120   1.261
10636SOL    HW232808   1.028   2.212   1.226
10637SOL     OW32809   3.438   4.125   4.790
10637SOL    HW132810   3.397   4.035   4.775
10637SOL    HW232811   3.527   4.129   4.746
10638SOL     OW32812   0.231   6.288   5.515
10638SOL    HW132813   0.275   6.207   5.553
10638SOL    HW232814   0.276   6.370   5.550
10639SOL     OW32815   2.198   0.750   4.893
10639SOL    HW132816   2.100   0.758   4.876
10639SOL    HW232817   2.227   0.821   4.956
10640SOL     OW32818   4.338   0.852   0.059
10640SOL    HW132819   4.425   0.899   0.046
10640SOL    HW232820   4.355   0.758   0.090
10641SOL     OW32821   5.860   1.795   6.931
10641SOL    HW132822   5.785   1.743   6.973
10641SOL    HW232823   5.822   1.866   6.872
10642SOL     OW32824   0.274   3.065   2.025
10642SOL    HW132825   0.349   3.078   1.960
10642SOL    HW232826   0.251   3.153   2.067
10643SOL     OW32827   2.678   3.240   5.584
10643SOL    HW132828   2.595   3.260   5.532
10643SOL    HW232829   2.753   3.297   5.550
10644SOL     OW32830   4.408   1.355   4.013
10644SOL    HW132831   4.441   1.384   4.103
10644SOL    HW232832   4.460   1.275   3.983
10645SOL     OW32833   2.797   0.604   5.056
10645SOL    HW132834   2.854   0.667   5.004
10645SOL    HW232835   2.761   0.533   4.994
10646SOL     OW32836   1.203   3.521   6.589
10646SOL    HW132837   1.214   3.519   6.689
10646SOL    HW232838   1.184   3.615   6.560
10647SOL     OW32839   6.892   5.073   0.769
10647SOL    HW132840   6.992   5.072   0.773
10647SOL    HW232841   6.863   5.103   0.679
10648SOL     OW32842   4.703   2.808   6.736
10648SOL    HW132843   4.756   2.793   6.819
10648SOL    HW232844   4.751   2.768   6.658
10649SOL     OW32845   0.108   5.115   5.885
10649SOL    HW132846   0.132   5.023   5.916
10649SOL    HW232847   0.100   5.116   5.786
10650SOL     OW32848   2.826   6.633   3.559
10650SOL    HW132849   2.818   6.608   3.655
10650SOL    HW232850   2.869   6.559   3.508
10651SOL     OW32851   4.565   6.155   6.395
10651SOL    HW132852   4.608   6.229   6.345
10651SOL    HW232853   4.567   6.174   6.493
10652SOL     OW32854   3.289   0.666   6.034
10652SOL    HW132855   3.225   0.622   5.971
10652SOL    HW232856   3.245   0.675   6.124
10653SOL     OW32857   5.191   3.219   4.187
10653SOL    HW132858   5.224   3.134   4.147
10653SOL    HW232859   5.094   3.230   4.165
10654SOL     OW32860   4.105   0.696   0.482
10654SOL    HW132861   4.196   0.695   0.525
10654SOL    HW232862   4.056   0.613   0.506
10655SOL     OW32863   2.621   6.226   1.292
10655SOL    HW132864   2.584   6.258   1.205
10655SOL    HW232865   2.714   6.192   1.278
10656SOL     OW32866   6.588   2.622   6.510
10656SOL    HW132867   6.596   2.563   6.590
10656SOL    HW232868   6.582   2.718   6.540
10657SOL     OW32869   6.375   0.666   1.119
10657SOL    HW132870   6.333   0.631   1.203
10657SOL    HW232871   6.372   0.595   1.049
10658SOL     OW32872   7.015   5.576   4.544
10658SOL    HW132873   6.919   5.590   4.521
10658SOL    HW232874   0.050   5.580   4.461
10659SOL     OW32875   5.908   0.808   0.385
10659SOL    HW132876   5.864   0.746   0.450
10659SOL    HW232877   5.930   0.758   0.301
10660SOL     OW32878   4.592   5.014   5.741
10660SOL    HW132879   4.611   4.917   5.723
10660SOL    HW232880   4.657   5.071   5.691
10661SOL     OW32881   0.192   6.576   2.699
10661SOL    HW132882   0.278   6.622   2.677
10661SOL    HW232883   0.148   6.623   2.775
10662SOL     OW32884   5.657   1.297   0.570
10662SOL    HW132885   5.635   1.372   0.632
10662SOL    HW232886   5.644   1.210   0.618
10663SOL     OW32887   6.815   0.401   0.190
10663SOL    HW132888   6.789   0.322   0.134
10663SOL    HW232889   6.800   0.484   0.137
10664SOL     OW32890   2.014   5.382   0.211
10664SOL    HW132891   2.083   5.452   0.192
10664SOL    HW232892   2.019   5.356   0.307
10665SOL     OW32893   6.730   1.456   0.975
10665SOL    HW132894   6.659   1.390   0.951
10665SOL    HW232895   6.769   1.432   1.064
10666SOL     OW32896   1.231   6.766   0.263
10666SOL    HW132897   1.234   6.862   0.292
10666SOL    HW232898   1.167   6.756   0.187
10667SOL     OW32899   3.308   2.024   5.344
10667SOL    HW132900   3.290   2.053   5.438
10667SOL    HW232901   3.347   2.101   5.293
10668SOL     OW32902   1.317   1.179   5.819
10668SOL    HW132903   1.411   1.197   5.848
10668SOL    HW232904   1.308   1.200   5.721
10669SOL     OW32905   1.204   6.864   6.595
10669SOL    HW132906   1.247   6.884   6.507
10669SOL    HW232907   1.122   6.920   6.606
10670SOL     OW32908   6.159   4.560   5.884
10670SOL    HW132909   6.117   4.498   5.818
10670SOL    HW232910   6.109   4.555   5.970
10671SOL     OW32911   1.923   1.051   3.589
10671SOL    HW132912   1.960   0.972   3.637
10671SOL    HW232913   1.973   1.133   3.617
10672SOL     OW32914   0.390   2.944   1.338
10672SOL    HW132915   0.438   2.918   1.254
10672SOL    HW232916   0.328   3.020   1.320
10673SOL     OW32917   2.671   2.893   5.362
10673SOL    HW132918   2.615   2.960   5.313
10673SOL    HW232919   2.661   2.803   5.320
10674SOL     OW32920   3.810   2.479   1.693
10674SOL    HW132921   3.862   2.436   1.620
10674SOL    HW232922   3.758   2.410   1.743
10675SOL     OW32923   0.157   0.769   5.646
10675SOL    HW132924   0.150   0.866   5.667
10675SOL    HW232925   0.065   0.733   5.627
10676SOL     OW32926   6.731   0.043   6.167
10676SOL    HW132927   6.781   0.014   6.249
10676SOL    HW232928   6.691   6.983   6.122
10677SOL     OW32929   0.394   0.198   0.798
10677SOL    HW132930   0.306   0.236   0.825
10677SOL    HW232931   0.466   0.239   0.854
10678SOL     OW32932   2.627   6.401   3.063
10678SOL    HW132933   2.548   6.454   3.092
10678SOL    HW232934   2.710   6.455   3.075
10679SOL     OW32935   5.338   5.010   4.460
10679SOL    HW132936   5.277   5.088   4.472
10679SOL    HW232937   5.431   5.043   4.443
10680SOL     OW32938   1.435   2.004   3.511
10680SOL    HW132939   1.463   2.051   3.428
10680SOL    HW232940   1.510   2.005   3.577
10681SOL     OW32941   0.250   1.394   6.081
10681SOL    HW132942   0.269   1.360   6.173
10681SOL    HW232943   0.303   1.478   6.065
10682SOL     OW32944   0.027   1.766   2.759
10682SOL    HW132945   6.996   1.851   2.771
10682SOL    HW232946   0.061   1.735   2.848
10683SOL     OW32947   1.860   1.694   4.746
10683SOL    HW132948   1.889   1.788   4.763
10683SOL    HW232949   1.785   1.670   4.809
10684SOL     OW32950   5.874   5.486   0.352
10684SOL    HW132951   5.964   5.483   0.396
10684SOL    HW232952   5.876   5.429   0.270
10685SOL     OW32953   0.179   2.926   2.664
10685SOL    HW132954   0.219   2.987   2.595
10685SOL    HW232955   0.225   2.940   2.751
10686SOL     OW32956   3.554   4.969   0.222
10686SOL    HW132957   3.594   5.057   0.245
10686SOL    HW232958   3.459   4.981   0.195
10687SOL     OW32959   0.123   4.798   2.767
10687SOL    HW132960   0.182   4.878   2.784
10687SOL    HW232961   0.137   4.767   2.673
10688SOL     OW32962   6.282   5.344   2.141
10688SOL    HW132963   6.375   5.320   2.111
10688SOL    HW232964   6.231   5.381   2.064
10689SOL     OW32965   0.243   0.860   2.216
10689SOL    HW132966   0.296   0.921   2.156
10689SOL    HW232967   0.277   0.767   2.207
10690SOL     OW32968   4.516   5.197   1.777
10690SOL    HW132969   4.526   5.210   1.679
10690SOL    HW232970   4.470   5.110   1.796
10691SOL     OW32971   6.988   1.358   1.439
10691SOL    HW132972   6.997   1.279   1.500
10691SOL    HW232973   6.954   1.436   1.491
10692SOL     OW32974   3.925   6.007   3.850
10692SOL    HW132975   3.851   6.066   3.818
10692SOL    HW232976   3.909   5.913   3.817
10693SOL     OW32977   6.283   2.100   2.110
10693SOL    HW132978   6.325   2.011   2.093
10693SOL    HW232979   6.300   2.161   2.032
10694SOL     OW32980   3.604   6.269   0.686
10694SOL    HW132981   3.639   6.362   0.683
10694SOL    HW232982   3.608   6.228   0.595
10695SOL     OW32983   6.415   3.227   3.944
10695SOL    HW132984   6.319   3.234   3.918
10695SOL    HW232985   6.427   3.254   4.039
10696SOL     OW32986   6.513   6.146   1.481
10696SOL    HW132987   6.586   6.110   1.539
10696SOL    HW232988   6.516   6.246   1.481
10697SOL     OW32989   2.697   5.898   3.624
10697SOL    HW132990   2.617   5.952   3.597
10697SOL    HW232991   2.710   5.905   3.723
10698SOL     OW32992   3.116   0.253   3.510
10698SOL    HW132993   3.090   0.225   3.417
10698SOL    HW232994   3.052   0.212   3.576
10699SOL     OW32995   2.065   2.508   2.988
10699SOL    HW132996   2.124   2.541   3.062
10699SOL    HW232997   2.036   2.586   2.933
10700SOL     OW32998   6.789   0.342   1.408
10700SOL    HW132999   6.794   0.440   1.391
10700SOL    HW233000   6.746   0.297   1.330
10701SOL     OW33001   3.568   6.367   0.364
10701SOL    HW133002   3.612   6.387   0.276
10701SOL    HW233003   3.516   6.282   0.357
10702SOL     OW33004   6.410   3.063   1.160
10702SOL    HW133005   6.375   3.156   1.163
10702SOL    HW233006   6.446   3.038   1.250
10703SOL     OW33007   4.066   3.543   3.634
10703SOL    HW133008   4.060   3.597   3.718
10703SOL    HW233009   4.067   3.446   3.656
10704SOL     OW33010   5.486   6.517   1.682
10704SOL    HW133011   5.496   6.419   1.661
10704SOL    HW233012   5.389   6.539   1.694
10705SOL     OW33013   0.095   2.558   6.840
10705SOL    HW133014   7.016   2.565   6.841
10705SOL    HW233015   0.123   2.507   6.759
10706SOL     OW33016   3.617   1.148   2.067
10706SOL    HW133017   3.616   1.239   2.110
10706SOL    HW233018   3.524   1.123   2.040
10707SOL     OW33019   6.199   6.970   5.967
10707SOL    HW133020   6.180   7.019   6.052
10707SOL    HW233021   6.250   6.886   5.987
10708SOL     OW33022   4.542   1.025   1.178
10708SOL    HW133023   4.449   1.054   1.198
10708SOL    HW233024   4.599   1.106   1.161
10709SOL     OW33025   0.488   5.873   5.852
10709SOL    HW133026   0.508   5.894   5.948
10709SOL    HW233027   0.402   5.823   5.845
10710SOL     OW33028   6.241   5.867   3.211
10710SOL    HW133029   6.162   5.919   3.179
10710SOL    HW233030   6.229   5.844   3.307
10711SOL     OW33031   2.024   5.737   4.447
10711SOL    HW133032   1.975   5.686   4.518
10711SOL    HW233033   1.966   5.746   4.367
10712SOL     OW33034   3.751   1.182   4.985
10712SOL    HW133035   3.777   1.259   5.043
10712SOL    HW233036   3.687   1.122   5.035
10713SOL     OW33037   1.186   5.847   1.605
10713SOL    HW133038   1.231   5.896   1.531
10713SOL    HW233039   1.197   5.748   1.592
10714SOL     OW33040   6.871   4.741   5.769
10714SOL    HW133041   6.961   4.716   5.806
10714SOL    HW233042   6.846   4.677   5.697
10715SOL     OW33043   6.133   1.441   4.218
10715SOL    HW133044   6.094   1.387   4.292
10715SOL    HW233045   6.107   1.537   4.230
10716SOL     OW33046   6.194   0.164   2.990
10716SOL    HW133047   6.141   0.247   3.011
10716SOL    HW233048   6.258   0.184   2.916
10717SOL     OW33049   6.847   6.370   1.920
10717SOL    HW133050   6.896   6.284   1.906
10717SOL    HW233051   6.827   6.382   2.018
10718SOL     OW33052   6.831   4.562   6.606
10718SOL    HW133053   6.799   4.488   6.547
10718SOL    HW233054   6.895   4.527   6.673
10719SOL     OW33055   4.777   0.544   2.007
10719SOL    HW133056   4.683   0.511   2.021
10719SOL    HW233057   4.815   0.573   2.095
10720SOL     OW33058   0.551   3.750   0.159
10720SOL    HW133059   0.595   3.808   0.228
10720SOL    HW233060   0.621   3.709   0.101
10721SOL     OW33061   4.694   2.770   4.322
10721SOL    HW133062   4.633   2.730   4.253
10721SOL    HW233063   4.785   2.783   4.283
10722SOL     OW33064   0.145   4.042   0.778
10722SOL    HW133065   0.076   4.110   0.803
10722SOL    HW233066   0.145   4.029   0.679
10723SOL     OW33067   6.431   4.190   0.382
10723SOL    HW133068   6.454   4.235   0.296
10723SOL    HW233069   6.355   4.239   0.425
10724SOL     OW33070   3.699   6.657   5.645
10724SOL    HW133071   3.703   6.639   5.546
10724SOL    HW233072   3.680   6.754   5.660
10725SOL     OW33073   6.815   6.670   4.901
10725SOL    HW133074   6.839   6.598   4.836
10725SOL    HW233075   6.728   6.648   4.945
10726SOL     OW33076   4.998   0.778   4.360
10726SOL    HW133077   4.975   0.855   4.301
10726SOL    HW233078   5.072   0.803   4.421
10727SOL     OW33079   2.177   6.060   6.859
10727SOL    HW133080   2.194   6.125   6.785
10727SOL    HW233081   2.133   6.107   6.936
10728SOL     OW33082   5.707   5.875   3.433
10728SOL    HW133083   5.722   5.806   3.504
10728SOL    HW233084   5.629   5.932   3.458
10729SOL     OW33085   5.962   3.375   4.201
10729SOL    HW133086   6.053   3.398   4.166
10729SOL    HW233087   5.969   3.302   4.269
10730SOL     OW33088   1.533   6.030   2.786
10730SOL    HW133089   1.625   6.050   2.751
10730SOL    HW233090   1.472   6.009   2.710
10731SOL     OW33091   4.494   6.506   6.954
10731SOL    HW133092   4.492   6.606   6.950
10731SOL    HW233093   4.520   6.470   6.864
10732SOL     OW33094   5.857   6.082   3.017
10732SOL    HW133095   5.922   6.093   2.942
10732SOL    HW233096   5.907   6.070   3.103
10733SOL     OW33097   0.435   1.057   6.564
10733SOL    HW133098   0.357   1.054   6.501
10733SOL    HW233099   0.443   1.149   6.603
10734SOL     OW33100   1.032   1.191   4.490
10734SOL    HW133101   0.948   1.201   4.542
10734SOL    HW233102   1.102   1.252   4.528
10735SOL     OW33103   0.272   6.203   2.011
10735SOL    HW133104   0.355   6.252   2.037
10735SOL    HW233105   0.193   6.249   2.052
10736SOL     OW33106   5.607   6.101   4.081
10736SOL    HW133107   5.564   6.188   4.103
10736SOL    HW233108   5.647   6.105   3.989
10737SOL     OW33109   6.497   1.144   2.590
10737SOL    HW133110   6.594   1.118   2.591
10737SOL    HW233111   6.441   1.061   2.584
10738SOL     OW33112   4.080   1.232   1.146
10738SOL    HW133113   4.167   1.183   1.134
10738SOL    HW233114   4.068   1.254   1.243
10739SOL     OW33115   5.693   3.056   3.352
10739SOL    HW133116   5.675   2.989   3.423
10739SOL    HW233117   5.606   3.092   3.318
10740SOL     OW33118   2.266   0.401   5.851
10740SOL    HW133119   2.290   0.304   5.858
10740SOL    HW233120   2.347   0.453   5.821
10741SOL     OW33121   2.418   2.236   3.868
10741SOL    HW133122   2.347   2.295   3.830
10741SOL    HW233123   2.381   2.183   3.944
10742SOL     OW33124   6.104   6.262   2.385
10742SOL    HW133125   6.051   6.322   2.445
10742SOL    HW233126   6.200   6.265   2.413
10743SOL     OW33127   2.742   1.383   5.800
10743SOL    HW133128   2.682   1.361   5.723
10743SOL    HW233129   2.829   1.336   5.788
10744SOL     OW33130   1.885   1.234   0.289
10744SOL    HW133131   1.947   1.173   0.240
10744SOL    HW233132   1.922   1.253   0.380
10745SOL     OW33133   1.493   4.100   2.059
10745SOL    HW133134   1.491   4.001   2.076
10745SOL    HW233135   1.559   4.143   2.121
10746SOL     OW33136   1.820   6.211   6.718
10746SOL    HW133137   1.761   6.283   6.683
10746SOL    HW233138   1.794   6.189   6.812
10747SOL     OW33139   6.362   1.185   4.666
10747SOL    HW133140   6.422   1.110   4.638
10747SOL    HW233141   6.415   1.269   4.677
10748SOL     OW33142   3.446   6.336   1.505
10748SOL    HW133143   3.412   6.365   1.594
10748SOL    HW233144   3.536   6.375   1.489
10749SOL     OW33145   6.032   4.467   1.625
10749SOL    HW133146   5.975   4.549   1.633
10749SOL    HW233147   6.041   4.424   1.715
10750SOL     OW33148   4.112   2.246   4.356
10750SOL    HW133149   4.149   2.258   4.264
10750SOL    HW233150   4.073   2.154   4.365
10751SOL     OW33151   0.416   5.364   4.735
10751SOL    HW133152   0.505   5.391   4.771
10751SOL    HW233153   0.350   5.356   4.810
10752SOL     OW33154   6.008   6.378   0.628
10752SOL    HW133155   5.996   6.393   0.726
10752SOL    HW233156   5.920   6.353   0.588
10753SOL     OW33157   5.047   6.715   4.220
10753SOL    HW133158   5.070   6.803   4.263
10753SOL    HW233159   4.964   6.679   4.262
10754SOL     OW33160   0.673   3.891   2.653
10754SOL    HW133161   0.622   3.962   2.605
10754SOL    HW233162   0.726   3.933   2.727
10755SOL     OW33163   0.225   2.738   1.446
10755SOL    HW133164   0.277   2.802   1.390
10755SOL    HW233165   0.264   2.646   1.437
10756SOL     OW33166   1.009   1.337   0.714
10756SOL    HW133167   0.997   1.307   0.809
10756SOL    HW233168   1.087   1.289   0.674
10757SOL     OW33169   0.075   3.885   2.165
10757SOL    HW133170   0.129   3.964   2.135
10757SOL    HW233171   0.078   3.880   2.265
10758SOL     OW33172   0.702   0.600   6.917
10758SOL    HW133173   0.680   0.545   6.998
10758SOL    HW233174   0.618   0.643   6.883
10759SOL     OW33175   2.995   2.148   5.595
10759SOL    HW133176   3.057   2.188   5.528
10759SOL    HW233177   2.975   2.215   5.666
10760SOL     OW33178   1.131   5.045   0.282
10760SOL    HW133179   1.110   5.105   0.360
10760SOL    HW233180   1.228   5.018   0.286
10761SOL     OW33181   1.076   1.639   5.836
10761SOL    HW133182   1.106   1.544   5.831
10761SOL    HW233183   1.000   1.653   5.772
10762SOL     OW33184   3.169   5.957   6.417
10762SOL    HW133185   3.113   5.907   6.483
10762SOL    HW233186   3.144   6.054   6.418
10763SOL     OW33187   5.226   6.938   3.615
10763SOL    HW133188   5.292   6.975   3.549
10763SOL    HW233189   5.192   7.013   3.672
10764SOL     OW33190   4.509   0.094   4.683
10764SOL    HW133191   4.595   0.048   4.708
10764SOL    HW233192   4.509   0.112   4.585
10765SOL     OW33193   0.298   2.390   2.576
10765SOL    HW133194   0.396   2.395   2.595
10765SOL    HW233195   0.267   2.475   2.533
10766SOL     OW33196   2.031   4.821   6.630
10766SOL    HW133197   2.070   4.866   6.550
10766SOL    HW233198   2.090   4.835   6.709
10767SOL     OW33199   1.561   5.208   0.534
10767SOL    HW133200   1.519   5.283   0.482
10767SOL    HW233201   1.626   5.159   0.475
10768SOL     OW33202   5.621   5.762   0.013
10768SOL    HW133203   5.665   5.711   6.959
10768SOL    HW233204   5.679   5.759   0.094
10769SOL     OW33205   3.107   3.141   4.505
10769SOL    HW133206   3.192   3.131   4.453
10769SOL    HW233207   3.120   3.107   4.598
10770SOL     OW33208   5.855   6.951   3.333
10770SOL    HW133209   5.788   6.881   3.358
10770SOL    HW233210   5.947   6.916   3.348
10771SOL     OW33211   4.693   6.037   5.561
10771SOL    HW133212   4.646   5.999   5.481
10771SOL    HW233213   4.727   6.128   5.540
10772SOL     OW33214   5.633   5.166   2.459
10772SOL    HW133215   5.725   5.169   2.498
10772SOL    HW233216   5.616   5.251   2.409
10773SOL     OW33217   6.802   3.365   1.217
10773SOL    HW133218   6.801   3.446   1.275
10773SOL    HW233219   6.766   3.287   1.268
10774SOL     OW33220   0.530   2.691   0.946
10774SOL    HW133221   0.576   2.606   0.971
10774SOL    HW233222   0.514   2.693   0.848
10775SOL     OW33223   1.398   3.732   0.649
10775SOL    HW133224   1.485   3.774   0.677
10775SOL    HW233225   1.337   3.802   0.613
10776SOL     OW33226   0.728   2.790   4.125
10776SOL    HW133227   0.709   2.692   4.135
10776SOL    HW233228   0.751   2.811   4.031
10777SOL     OW33229   2.885   1.477   1.394
10777SOL    HW133230   2.889   1.573   1.423
10777SOL    HW233231   2.802   1.435   1.429
10778SOL     OW33232   6.011   0.248   3.263
10778SOL    HW133233   6.042   0.157   3.289
10778SOL    HW233234   5.991   0.250   3.165
10779SOL     OW33235   5.482   4.114   5.283
10779SOL    HW133236   5.508   4.085   5.375
10779SOL    HW233237   5.548   4.080   5.216
10780SOL     OW33238   2.073   5.552   4.786
10780SOL    HW133239   2.008   5.613   4.742
10780SOL    HW233240   2.145   5.606   4.830
10781SOL     OW33241   5.737   2.341   4.992
10781SOL    HW133242   5.654   2.287   4.984
10781SOL    HW233243   5.801   2.295   5.054
10782SOL     OW33244   0.789   1.579   5.398
10782SOL    HW133245   0.810   1.605   5.304
10782SOL    HW233246   0.832   1.642   5.461
10783SOL     OW33247   1.294   2.542   3.869
10783SOL    HW133248   1.353   2.594   3.808
10783SOL    HW233249   1.321   2.559   3.964
10784SOL     OW33250   3.532   5.651   2.784
10784SOL    HW133251   3.598   5.587   2.823
10784SOL    HW233252   3.451   5.601   2.754
10785SOL     OW33253   1.248   4.977   2.071
10785SOL    HW133254   1.341   4.965   2.038
10785SOL    HW233255   1.191   4.902   2.038
10786SOL     OW33256   4.517   1.580   2.236
10786SOL    HW133257   4.581   1.653   2.260
10786SOL    HW233258   4.434   1.620   2.198
10787SOL     OW33259   4.303   0.583   3.386
10787SOL    HW133260   4.249   0.661   3.353
10787SOL    HW233261   4.247   0.500   3.383
10788SOL     OW33262   1.586   3.975   0.059
10788SOL    HW133263   1.547   3.943   0.145
10788SOL    HW233264   1.564   4.072   0.046
10789SOL     OW33265   6.669   1.389   1.646
10789SOL    HW133266   6.649   1.390   1.744
10789SOL    HW233267   6.616   1.317   1.602
10790SOL     OW33268   0.553   1.707   5.612
10790SOL    HW133269   0.454   1.712   5.598
10790SOL    HW233270   0.599   1.712   5.524
10791SOL     OW33271   1.423   1.970   4.304
10791SOL    HW133272   1.375   1.891   4.266
10791SOL    HW233273   1.396   2.053   4.254
10792SOL     OW33274   3.877   1.798   2.554
10792SOL    HW133275   3.884   1.705   2.590
10792SOL    HW233276   3.885   1.796   2.454
10793SOL     OW33277   4.597   2.298   4.862
10793SOL    HW133278   4.596   2.282   4.764
10793SOL    HW233279   4.659   2.233   4.906
10794SOL     OW33280   5.333   1.791   0.931
10794SOL    HW133281   5.365   1.845   0.853
10794SOL    HW233282   5.368   1.831   1.016
10795SOL     OW33283   6.863   3.780   3.201
10795SOL    HW133284   6.767   3.808   3.198
10795SOL    HW233285   6.912   3.819   3.123
10796SOL     OW33286   0.382   6.840   5.617
10796SOL    HW133287   0.470   6.869   5.579
10796SOL    HW233288   0.313   6.837   5.545
10797SOL     OW33289   4.323   4.176   6.666
10797SOL    HW133290   4.273   4.259   6.689
10797SOL    HW233291   4.404   4.200   6.612
10798SOL     OW33292   1.558   7.002   6.876
10798SOL    HW133293   1.595   6.944   6.949
10798SOL    HW233294   1.460   6.988   6.868
10799SOL     OW33295   3.263   1.012   2.866
10799SOL    HW133296   3.250   1.079   2.939
10799SOL    HW233297   3.186   1.015   2.803
10800SOL     OW33298   2.216   0.171   5.569
10800SOL    HW133299   2.172   0.239   5.628
10800SOL    HW233300   2.181   0.180   5.476
10801SOL     OW33301   2.630   6.016   6.044
10801SOL    HW133302   2.699   6.020   6.116
10801SOL    HW233303   2.576   6.100   6.044
10802SOL     OW33304   0.683   5.032   4.563
10802SOL    HW133305   0.690   4.940   4.523
10802SOL    HW233306   0.587   5.053   4.580
10803SOL     OW33307   0.429   4.048   4.746
10803SOL    HW133308   0.461   3.978   4.683
10803SOL    HW233309   0.507   4.098   4.784
10804SOL     OW33310   4.782   4.601   1.393
10804SOL    HW133311   4.740   4.678   1.345
10804SOL    HW233312   4.868   4.577   1.349
10805SOL     OW33313   3.738   6.102   0.500
10805SOL    HW133314   3.774   6.110   0.407
10805SOL    HW233315   3.813   6.091   0.565
10806SOL     OW33316   5.807   3.800   6.884
10806SOL    HW133317   5.828   3.857   6.964
10806SOL    HW233318   5.861   3.716   6.887
10807SOL     OW33319   4.563   0.183   4.028
10807SOL    HW133320   4.486   0.166   4.091
10807SOL    HW233321   4.528   0.220   3.942
10808SOL     OW33322   0.678   2.879   6.877
10808SOL    HW133323   0.669   2.975   6.903
10808SOL    HW233324   0.732   2.873   6.793
10809SOL     OW33325   3.284   0.474   3.115
10809SOL    HW133326   3.288   0.402   3.047
10809SOL    HW233327   3.328   0.443   3.199
10810SOL     OW33328   0.712   2.065   6.980
10810SOL    HW133329   0.787   2.019   0.007
10810SOL    HW233330   0.745   2.102   6.893
10811SOL     OW33331   4.990   4.728   5.476
10811SOL    HW133332   5.008   4.701   5.571
10811SOL    HW233333   4.974   4.647   5.421
10812SOL     OW33334   6.810   2.622   2.586
10812SOL    HW133335   6.803   2.576   2.497
10812SOL    HW233336   6.718   2.642   2.621
10813SOL     OW33337   2.596   5.517   2.279
10813SOL    HW133338   2.514   5.558   2.320
10813SOL    HW233339   2.573   5.483   2.188
10814SOL     OW33340   1.796   6.084   5.020
10814SOL    HW133341   1.804   6.114   4.924
10814SOL    HW233342   1.729   6.142   5.066
10815SOL     OW33343   4.382   2.470   3.636
10815SOL    HW133344   4.388   2.419   3.550
10815SOL    HW233345   4.297   2.447   3.683
10816SOL     OW33346   2.243   2.366   2.398
10816SOL    HW133347   2.296   2.437   2.445
10816SOL    HW233348   2.193   2.311   2.465
10817SOL     OW33349   4.945   6.655   2.032
10817SOL    HW133350   4.924   6.608   2.117
10817SOL    HW233351   4.860   6.679   1.984
10818SOL     OW33352   4.875   2.884   6.443
10818SOL    HW133353   4.972   2.881   6.469
10818SOL    HW233354   4.827   2.950   6.501
10819SOL     OW33355   0.675   3.538   6.302
10819SOL    HW133356   0.759   3.551   6.250
10819SOL    HW233357   0.657   3.440   6.311
10820SOL     OW33358   0.348   0.301   4.445
10820SOL    HW133359   0.314   0.254   4.527
10820SOL    HW233360   0.393   0.234   4.386
10821SOL     OW33361   0.081   0.114   0.479
10821SOL    HW133362   0.116   0.109   0.386
10821SOL    HW233363   0.065   0.209   0.504
10822SOL     OW33364   1.736   4.933   0.710
10822SOL    HW133365   1.672   4.870   0.754
10822SOL    HW233366   1.782   4.988   0.780
10823SOL     OW33367   1.192   2.067   1.809
10823SOL    HW133368   1.260   2.019   1.866
10823SOL    HW233369   1.195   2.031   1.716
10824SOL     OW33370   5.476   0.467   3.295
10824SOL    HW133371   5.427   0.384   3.269
10824SOL    HW233372   5.535   0.448   3.373
10825SOL     OW33373   3.599   2.007   0.921
10825SOL    HW133374   3.556   1.936   0.865
10825SOL    HW233375   3.528   2.058   0.970
10826SOL     OW33376   6.769   2.918   1.509
10826SOL    HW133377   6.699   2.849   1.526
10826SOL    HW233378   6.857   2.886   1.544
10827SOL     OW33379   1.154   2.388   4.514
10827SOL    HW133380   1.252   2.402   4.502
10827SOL    HW233381   1.109   2.387   4.425
10828SOL     OW33382   1.540   6.197   6.810
10828SOL    HW133383   1.489   6.239   6.886
10828SOL    HW233384   1.537   6.258   6.731
10829SOL     OW33385   2.234   3.868   1.607
10829SOL    HW133386   2.184   3.824   1.532
10829SOL    HW233387   2.206   3.828   1.694
10830SOL     OW33388   4.915   1.728   3.899
10830SOL    HW133389   4.963   1.687   3.976
10830SOL    HW233390   4.978   1.789   3.850
10831SOL     OW33391   5.063   2.647   3.157
10831SOL    HW133392   4.998   2.693   3.097
10831SOL    HW233393   5.064   2.692   3.246
10832SOL     OW33394   6.798   2.496   2.325
10832SOL    HW133395   6.783   2.457   2.234
10832SOL    HW233396   6.732   2.456   2.389
10833SOL     OW33397   3.178   0.275   4.208
10833SOL    HW133398   3.219   0.262   4.118
10833SOL    HW233399   3.110   0.348   4.203
10834SOL     OW33400   6.927   1.180   5.833
10834SOL    HW133401   6.876   1.152   5.752
10834SOL    HW233402   6.923   1.280   5.841
10835SOL     OW33403   6.853   1.922   2.447
10835SOL    HW133404   6.908   1.847   2.483
10835SOL    HW233405   6.901   2.009   2.463
10836SOL     OW33406   1.683   2.956   0.711
10836SOL    HW133407   1.708   3.047   0.743
10836SOL    HW233408   1.625   2.911   0.779
10837SOL     OW33409   0.784   5.774   1.429
10837SOL    HW133410   0.688   5.799   1.437
10837SOL    HW233411   0.823   5.761   1.521
10838SOL     OW33412   6.263   6.967   1.338
10838SOL    HW133413   6.168   6.977   1.308
10838SOL    HW233414   6.275   6.878   1.383
10839SOL     OW33415   1.966   1.721   0.367
10839SOL    HW133416   2.034   1.784   0.405
10839SOL    HW233417   1.921   1.763   0.288
10840SOL     OW33418   3.913   4.854   2.269
10840SOL    HW133419   3.816   4.863   2.248
10840SOL    HW233420   3.957   4.944   2.269
10841SOL     OW33421   5.253   3.554   5.272
10841SOL    HW133422   5.246   3.609   5.355
10841SOL    HW233423   5.190   3.589   5.203
10842SOL     OW33424   6.638   2.677   1.036
10842SOL    HW133425   6.604   2.585   1.016
10842SOL    HW233426   6.562   2.736   1.062
10843SOL     OW33427   0.420   1.198   1.440
10843SOL    HW133428   0.361   1.212   1.361
10843SOL    HW233429   0.378   1.130   1.501
10844SOL     OW33430   3.550   6.767   3.448
10844SOL    HW133431   3.594   6.679   3.467
10844SOL    HW233432   3.523   6.810   3.534
10845SOL     OW33433   0.922   2.997   0.805
10845SOL    HW133434   0.992   2.953   0.748
10845SOL    HW233435   0.901   2.938   0.883
10846SOL     OW33436   3.553   1.956   1.938
10846SOL    HW133437   3.595   2.038   1.976
10846SOL    HW233438   3.476   1.981   1.880
10847SOL     OW33439   3.551   2.622   5.947
10847SOL    HW133440   3.646   2.620   5.916
10847SOL    HW233441   3.543   2.575   6.034
10848SOL     OW33442   0.845   1.552   0.825
10848SOL    HW133443   0.907   1.482   0.789
10848SOL    HW233444   0.898   1.628   0.862
10849SOL     OW33445   2.646   4.914   4.375
10849SOL    HW133446   2.728   4.874   4.335
10849SOL    HW233447   2.629   5.004   4.334
10850SOL     OW33448   5.604   0.898   2.013
10850SOL    HW133449   5.595   0.962   2.089
10850SOL    HW233450   5.668   0.936   1.946
10851SOL     OW33451   4.198   2.246   6.191
10851SOL    HW133452   4.207   2.150   6.217
10851SOL    HW233453   4.222   2.303   6.269
10852SOL     OW33454   0.330   6.590   6.071
10852SOL    HW133455   0.360   6.663   6.010
10852SOL    HW233456   0.409   6.547   6.114
10853SOL     OW33457   2.188   1.157   4.716
10853SOL    HW133458   2.102   1.136   4.762
10853SOL    HW233459   2.250   1.079   4.723
10854SOL     OW33460   0.417   6.177   0.576
10854SOL    HW133461   0.438   6.168   0.479
10854SOL    HW233462   0.499   6.209   0.625
10855SOL     OW33463   1.517   6.025   1.628
10855SOL    HW133464   1.477   5.997   1.715
10855SOL    HW233465   1.615   6.002   1.627
10856SOL     OW33466   5.839   0.403   6.369
10856SOL    HW133467   5.878   0.359   6.450
10856SOL    HW233468   5.912   0.422   6.303
10857SOL     OW33469   6.183   0.511   4.795
10857SOL    HW133470   6.171   0.610   4.800
10857SOL    HW233471   6.129   0.476   4.718
10858SOL     OW33472   2.347   2.282   0.125
10858SOL    HW133473   2.378   2.343   0.053
10858SOL    HW233474   2.385   2.313   0.213
10859SOL     OW33475   0.914   5.918   2.300
10859SOL    HW133476   0.986   5.851   2.279
10859SOL    HW233477   0.836   5.902   2.239
10860SOL     OW33478   5.714   3.196   0.681
10860SOL    HW133479   5.729   3.153   0.770
10860SOL    HW233480   5.793   3.181   0.622
10861SOL     OW33481   3.080   2.668   1.602
10861SOL    HW133482   3.127   2.753   1.577
10861SOL    HW233483   3.046   2.622   1.519
10862SOL     OW33484   3.448   3.271   5.758
10862SOL    HW133485   3.478   3.328   5.835
10862SOL    HW233486   3.399   3.191   5.793
10863SOL     OW33487   2.585   0.919   2.933
10863SOL    HW133488   2.587   0.833   2.984
10863SOL    HW233489   2.528   0.985   2.982
10864SOL     OW33490   3.095   4.676   1.761
10864SOL    HW133491   3.033   4.607   1.799
10864SOL    HW233492   3.062   4.704   1.671
10865SOL     OW33493   3.644   1.334   2.415
10865SOL    HW133494   3.603   1.408   2.467
10865SOL    HW233495   3.744   1.334   2.428
10866SOL     OW33496   0.027   3.398   3.504
10866SOL    HW133497   7.013   3.454   3.579
10866SOL    HW233498   0.078   3.320   3.541
10867SOL     OW33499   4.487   3.128   0.885
10867SOL    HW133500   4.394   3.164   0.876
10867SOL    HW233501   4.490   3.060   0.958
10868SOL     OW33502   1.430   0.098   5.168
10868SOL    HW133503   1.463   0.092   5.262
10868SOL    HW233504   1.460   0.185   5.128
10869NA      NA33505   0.028   1.506   6.072
10870NA      NA33506   4.532   4.660   5.098
10871NA      NA33507   1.248   4.959   2.949
10872NA      NA33508   5.940   4.019   3.236
10873NA      NA33509   3.715   2.317   5.602
10874NA      NA33510   2.253   4.951   0.212
10875NA      NA33511   1.218   5.239   6.853
10876NA      NA33512   3.684   4.281   0.977
10877NA      NA33513   4.574   4.615   0.450
10878NA      NA33514   3.486   1.036   6.761
10879NA      NA33515   5.738   0.021   1.734
10880NA      NA33516   2.339   6.615   5.384
10881NA      NA33517   3.965   5.269   1.372
10882NA      NA33518   3.913   3.077   6.510
   7.02061   7.02061   7.02061
