Generated by trjconv : CNT in water t= 464.00000
33518
    1C        C    1   2.845   2.773   4.748
    1C        C    2   2.899   2.724   4.868
    1C        C    3   2.847   2.777   4.987
    1C        C    4   2.853   2.780   4.260
    1C        C    5   2.902   2.731   4.383
    1C        C    6   2.845   2.776   4.504
    1C        C    7   3.013   2.646   4.624
    1C        C    8   2.897   2.725   4.625
    1C        C    9   3.077   2.606   4.743
    1C        C   10   3.008   2.634   4.863
    1C        C   11   3.178   2.490   4.970
    1C        C   12   3.057   2.562   4.972
    1C        C   13   2.846   2.769   3.773
    1C        C   14   2.899   2.722   3.895
    1C        C   15   2.847   2.772   4.016
    1C        C   16   3.018   2.646   4.139
    1C        C   17   2.905   2.731   4.138
    1C        C   18   3.083   2.618   4.261
    1C        C   19   3.022   2.657   4.382
    1C        C   20   3.213   2.564   4.504
    1C        C   21   3.083   2.619   4.504
    1C        C   22   3.279   2.533   4.625
    1C        C   23   3.208   2.550   4.746
    1C        C   24   3.414   2.478   4.867
    1C        C   25   3.272   2.501   4.863
    1C        C   26   3.489   2.479   4.984
    1C        C   27   2.844   2.768   3.283
    1C        C   28   2.905   2.727   3.404
    1C        C   29   2.854   2.773   3.528
    1C        C   30   3.020   2.645   3.651
    1C        C   31   2.904   2.726   3.651
    1C        C   32   3.077   2.608   3.775
    1C        C   33   3.016   2.642   3.897
    1C        C   34   3.213   2.558   4.016
    1C        C   35   3.081   2.609   4.018
    1C        C   36   3.282   2.543   4.138
    1C        C   37   3.214   2.564   4.260
    1C        C   38   3.419   2.512   4.383
    1C        C   39   3.281   2.540   4.382
    1C        C   40   3.489   2.498   4.505
    1C        C   41   3.416   2.501   4.625
    1C        C   42   3.630   2.480   4.745
    1C        C   43   3.488   2.478   4.745
    1C        C   44   3.704   2.482   4.865
    1C        C   45   3.628   2.470   4.982
    1C        C   46   2.836   2.751   2.793
    1C        C   47   2.894   2.712   2.916
    1C        C   48   2.844   2.763   3.037
    1C        C   49   3.013   2.640   3.162
    1C        C   50   2.894   2.717   3.161
    1C        C   51   3.078   2.607   3.283
    1C        C   52   3.022   2.647   3.405
    1C        C   53   3.212   2.558   3.530
    1C        C   54   3.082   2.612   3.528
    1C        C   55   3.278   2.532   3.652
    1C        C   56   3.208   2.554   3.773
    1C        C   57   3.418   2.509   3.894
    1C        C   58   3.279   2.536   3.893
    1C        C   59   3.488   2.501   4.017
    1C        C   60   3.419   2.509   4.140
    1C        C   61   3.632   2.497   4.259
    1C        C   62   3.490   2.500   4.261
    1C        C   63   3.702   2.505   4.381
    1C        C   64   3.631   2.502   4.503
    1C        C   65   3.837   2.539   4.622
    1C        C   66   3.702   2.498   4.625
    1C        C   67   3.905   2.561   4.743
    1C        C   68   3.839   2.524   4.863
    1C        C   69   4.053   2.577   4.976
    1C        C   70   3.922   2.527   4.975
    1C        C   71   2.825   2.734   2.309
    1C        C   72   2.882   2.691   2.431
    1C        C   73   2.830   2.746   2.550
    1C        C   74   3.009   2.629   2.673
    1C        C   75   2.887   2.701   2.671
    1C        C   76   3.073   2.599   2.795
    1C        C   77   3.013   2.635   2.917
    1C        C   78   3.206   2.552   3.038
    1C        C   79   3.075   2.606   3.040
    1C        C   80   3.274   2.531   3.160
    1C        C   81   3.209   2.553   3.283
    1C        C   82   3.415   2.508   3.404
    1C        C   83   3.276   2.532   3.406
    1C        C   84   3.485   2.499   3.526
    1C        C   85   3.416   2.503   3.650
    1C        C   86   3.629   2.500   3.770
    1C        C   87   3.487   2.499   3.771
    1C        C   88   3.699   2.512   3.892
    1C        C   89   3.629   2.507   4.015
    1C        C   90   3.838   2.546   4.135
    1C        C   91   3.700   2.513   4.137
    1C        C   92   3.905   2.569   4.257
    1C        C   93   3.838   2.542   4.379
    1C        C   94   4.032   2.630   4.498
    1C        C   95   3.904   2.569   4.501
    1C        C   96   4.091   2.670   4.619
    1C        C   97   4.029   2.631   4.740
    1C        C   98   4.193   2.758   4.859
    1C        C   99   4.096   2.653   4.863
    1C        C  100   4.210   2.840   4.972
    1C        C  101   2.820   2.726   2.070
    1C        C  102   2.991   2.591   2.192
    1C        C  103   2.875   2.676   2.189
    1C        C  104   3.065   2.577   2.312
    1C        C  105   3.000   2.613   2.433
    1C        C  106   3.200   2.532   2.552
    1C        C  107   3.070   2.588   2.552
    1C        C  108   3.272   2.526   2.673
    1C        C  109   3.206   2.552   2.796
    1C        C  110   3.414   2.503   2.916
    1C        C  111   3.275   2.530   2.917
    1C        C  112   3.484   2.494   3.038
    1C        C  113   3.414   2.507   3.160
    1C        C  114   3.626   2.494   3.281
    1C        C  115   3.485   2.501   3.281
    1C        C  116   3.697   2.500   3.404
    1C        C  117   3.626   2.498   3.526
    1C        C  118   3.835   2.542   3.647
    1C        C  119   3.699   2.507   3.647
    1C        C  120   3.901   2.567   3.769
    1C        C  121   3.836   2.543   3.893
    1C        C  122   4.031   2.632   4.013
    1C        C  123   3.906   2.565   4.013
    1C        C  124   4.093   2.669   4.135
    1C        C  125   4.032   2.631   4.256
    1C        C  126   4.196   2.767   4.376
    1C        C  127   4.092   2.672   4.377
    1C        C  128   4.245   2.818   4.499
    1C        C  129   4.197   2.763   4.620
    1C        C  130   4.329   2.933   4.741
    1C        C  131   4.248   2.816   4.741
    1C        C  132   4.357   3.000   4.862
    1C        C  133   4.283   2.958   4.973
    1C        C  134   3.174   2.474   2.082
    1C        C  135   3.037   2.506   2.087
    1C        C  136   3.262   2.488   2.191
    1C        C  137   3.195   2.521   2.311
    1C        C  138   3.406   2.486   2.430
    1C        C  139   3.266   2.500   2.431
    1C        C  140   3.481   2.489   2.550
    1C        C  141   3.411   2.503   2.672
    1C        C  142   3.625   2.493   2.794
    1C        C  143   3.483   2.495   2.793
    1C        C  144   3.695   2.506   2.916
    1C        C  145   3.626   2.495   3.039
    1C        C  146   3.835   2.536   3.156
    1C        C  147   3.698   2.503   3.160
    1C        C  148   3.900   2.561   3.279
    1C        C  149   3.833   2.538   3.401
    1C        C  150   4.027   2.625   3.524
    1C        C  151   3.900   2.564   3.523
    1C        C  152   4.089   2.662   3.646
    1C        C  153   4.027   2.631   3.769
    1C        C  154   4.195   2.764   3.888
    1C        C  155   4.088   2.672   3.890
    1C        C  156   4.249   2.809   4.010
    1C        C  157   4.201   2.760   4.134
    1C        C  158   4.341   2.923   4.255
    1C        C  159   4.249   2.816   4.254
    1C        C  160   4.378   2.987   4.376
    1C        C  161   4.328   2.932   4.496
    1C        C  162   4.435   3.115   4.617
    1C        C  163   4.369   2.990   4.618
    1C        C  164   4.461   3.187   4.735
    1C        C  165   4.429   3.121   4.856
    1C        C  166   4.511   3.320   4.972
    1C        C  167   4.477   3.185   4.971
    1C        C  168   3.475   2.435   2.073
    1C        C  169   3.401   2.465   2.189
    1C        C  170   3.618   2.468   2.308
    1C        C  171   3.475   2.465   2.309
    1C        C  172   3.692   2.489   2.426
    1C        C  173   3.622   2.489   2.548
    1C        C  174   3.830   2.534   2.668
    1C        C  175   3.692   2.502   2.670
    1C        C  176   3.898   2.559   2.790
    1C        C  177   3.833   2.533   2.913
    1C        C  178   4.029   2.619   3.031
    1C        C  179   3.901   2.559   3.034
    1C        C  180   4.086   2.657   3.154
    1C        C  181   4.026   2.625   3.278
    1C        C  182   4.195   2.752   3.398
    1C        C  183   4.086   2.662   3.401
    1C        C  184   4.247   2.801   3.520
    1C        C  185   4.198   2.752   3.643
    1C        C  186   4.338   2.916   3.766
    1C        C  187   4.246   2.808   3.764
    1C        C  188   4.378   2.977   3.887
    1C        C  189   4.337   2.919   4.009
    1C        C  190   4.441   3.105   4.130
    1C        C  191   4.377   2.980   4.131
    1C        C  192   4.473   3.172   4.250
    1C        C  193   4.447   3.110   4.375
    1C        C  194   4.507   3.315   4.492
    1C        C  195   4.471   3.179   4.496
    1C        C  196   4.524   3.388   4.612
    1C        C  197   4.508   3.322   4.735
    1C        C  198   4.552   3.536   4.852
    1C        C  199   4.528   3.395   4.855
    1C        C  200   4.580   3.621   4.964
    1C        C  201   3.614   2.424   2.075
    1C        C  202   3.828   2.512   2.184
    1C        C  203   3.692   2.467   2.187
    1C        C  204   3.902   2.531   2.304
    1C        C  205   3.830   2.520   2.425
    1C        C  206   4.025   2.611   2.541
    1C        C  207   3.898   2.551   2.546
    1C        C  208   4.086   2.650   2.663
    1C        C  209   4.026   2.619   2.786
    1C        C  210   4.198   2.745   2.909
    1C        C  211   4.089   2.655   2.908
    1C        C  212   4.247   2.796   3.031
    1C        C  213   4.195   2.747   3.152
    1C        C  214   4.333   2.909   3.274
    1C        C  215   4.246   2.798   3.274
    1C        C  216   4.370   2.970   3.396
    1C        C  217   4.334   2.912   3.519
    1C        C  218   4.435   3.099   3.639
    1C        C  219   4.373   2.972   3.641
    1C        C  220   4.459   3.169   3.760
    1C        C  221   4.434   3.107   3.884
    1C        C  222   4.499   3.308   4.003
    1C        C  223   4.463   3.171   4.006
    1C        C  224   4.513   3.377   4.125
    1C        C  225   4.507   3.309   4.249
    1C        C  226   4.517   3.524   4.365
    1C        C  227   4.520   3.383   4.369
    1C        C  228   4.514   3.597   4.486
    1C        C  229   4.530   3.529   4.609
    1C        C  230   4.507   3.743   4.725
    1C        C  231   4.537   3.604   4.728
    1C        C  232   4.502   3.822   4.842
    1C        C  233   4.554   3.759   4.955
    1C        C  234   4.014   2.610   2.062
    1C        C  235   3.892   2.543   2.063
    1C        C  236   4.085   2.641   2.179
    1C        C  237   4.026   2.599   2.300
    1C        C  238   4.199   2.734   2.420
    1C        C  239   4.088   2.645   2.419
    1C        C  240   4.253   2.781   2.541
    1C        C  241   4.199   2.735   2.663
    1C        C  242   4.336   2.900   2.784
    1C        C  243   4.247   2.790   2.784
    1C        C  244   4.375   2.961   2.905
    1C        C  245   4.339   2.904   3.030
    1C        C  246   4.434   3.094   3.147
    1C        C  247   4.379   2.963   3.152
    1C        C  248   4.453   3.162   3.269
    1C        C  249   4.426   3.099   3.393
    1C        C  250   4.488   3.301   3.516
    1C        C  251   4.455   3.164   3.515
    1C        C  252   4.503   3.373   3.636
    1C        C  253   4.498   3.305   3.760
    1C        C  254   4.515   3.518   3.879
    1C        C  255   4.513   3.377   3.881
    1C        C  256   4.511   3.591   4.000
    1C        C  257   4.513   3.518   4.121
    1C        C  258   4.493   3.732   4.244
    1C        C  259   4.511   3.592   4.242
    1C        C  260   4.477   3.806   4.363
    1C        C  261   4.489   3.736   4.485
    1C        C  262   4.423   3.941   4.605
    1C        C  263   4.477   3.810   4.605
    1C        C  264   4.400   4.012   4.725
    1C        C  265   4.435   3.947   4.845
    1C        C  266   4.314   4.129   4.958
    1C        C  267   4.392   4.014   4.960
    1C        C  268   4.260   2.770   2.061
    1C        C  269   4.199   2.725   2.178
    1C        C  270   4.348   2.884   2.300
    1C        C  271   4.252   2.779   2.297
    1C        C  272   4.386   2.950   2.419
    1C        C  273   4.342   2.891   2.540
    1C        C  274   4.441   3.081   2.659
    1C        C  275   4.377   2.955   2.661
    1C        C  276   4.463   3.151   2.780
    1C        C  277   4.436   3.088   2.904
    1C        C  278   4.501   3.293   3.026
    1C        C  279   4.462   3.157   3.024
    1C        C  280   4.508   3.365   3.147
    1C        C  281   4.490   3.298   3.271
    1C        C  282   4.507   3.511   3.392
    1C        C  283   4.502   3.369   3.392
    1C        C  284   4.511   3.585   3.512
    1C        C  285   4.510   3.514   3.634
    1C        C  286   4.488   3.726   3.753
    1C        C  287   4.510   3.587   3.756
    1C        C  288   4.470   3.795   3.875
    1C        C  289   4.484   3.730   4.000
    1C        C  290   4.427   3.934   4.118
    1C        C  291   4.472   3.800   4.122
    1C        C  292   4.395   4.001   4.238
    1C        C  293   4.424   3.937   4.361
    1C        C  294   4.322   4.126   4.482
    1C        C  295   4.394   4.004   4.482
    1C        C  296   4.287   4.193   4.601
    1C        C  297   4.335   4.138   4.722
    1C        C  298   4.204   4.317   4.838
    1C        C  299   4.289   4.202   4.841
    1C        C  300   4.172   4.407   4.946
    1C        C  301   4.341   2.883   2.062
    1C        C  302   4.462   3.067   2.176
    1C        C  303   4.394   2.941   2.178
    1C        C  304   4.471   3.144   2.295
    1C        C  305   4.444   3.079   2.417
    1C        C  306   4.508   3.283   2.537
    1C        C  307   4.468   3.148   2.538
    1C        C  308   4.512   3.355   2.658
    1C        C  309   4.497   3.288   2.782
    1C        C  310   4.518   3.501   2.899
    1C        C  311   4.516   3.359   2.902
    1C        C  312   4.514   3.573   3.020
    1C        C  313   4.515   3.506   3.145
    1C        C  314   4.481   3.716   3.265
    1C        C  315   4.505   3.576   3.267
    1C        C  316   4.468   3.789   3.385
    1C        C  317   4.487   3.724   3.509
    1C        C  318   4.428   3.930   3.628
    1C        C  319   4.471   3.795   3.631
    1C        C  320   4.396   3.993   3.750
    1C        C  321   4.422   3.927   3.873
    1C        C  322   4.320   4.114   3.992
    1C        C  323   4.397   3.996   3.994
    1C        C  324   4.279   4.175   4.113
    1C        C  325   4.324   4.123   4.236
    1C        C  326   4.186   4.283   4.357
    1C        C  327   4.285   4.183   4.358
    1C        C  328   4.133   4.336   4.477
    1C        C  329   4.191   4.296   4.599
    1C        C  330   4.020   4.433   4.716
    1C        C  331   4.136   4.350   4.718
    1C        C  332   3.967   4.490   4.834
    1C        C  333   4.052   4.478   4.945
    1C        C  334   4.549   3.267   2.064
    1C        C  335   4.529   3.129   2.065
    1C        C  336   4.536   3.351   2.175
    1C        C  337   4.509   3.281   2.295
    1C        C  338   4.523   3.496   2.415
    1C        C  339   4.515   3.355   2.415
    1C        C  340   4.520   3.570   2.536
    1C        C  341   4.520   3.496   2.656
    1C        C  342   4.491   3.709   2.775
    1C        C  343   4.517   3.570   2.776
    1C        C  344   4.480   3.782   2.895
    1C        C  345   4.495   3.713   3.018
    1C        C  346   4.427   3.915   3.137
    1C        C  347   4.470   3.780   3.140
    1C        C  348   4.395   3.981   3.258
    1C        C  349   4.425   3.923   3.384
    1C        C  350   4.320   4.108   3.502
    1C        C  351   4.401   3.993   3.505
    1C        C  352   4.279   4.167   3.624
    1C        C  353   4.323   4.114   3.748
    1C        C  354   4.178   4.269   3.868
    1C        C  355   4.278   4.169   3.870
    1C        C  356   4.123   4.320   3.988
    1C        C  357   4.179   4.275   4.109
    1C        C  358   4.017   4.406   4.231
    1C        C  359   4.128   4.320   4.233
    1C        C  360   3.953   4.446   4.351
    1C        C  361   4.013   4.412   4.474
    1C        C  362   3.828   4.518   4.592
    1C        C  363   3.956   4.459   4.594
    1C        C  364   3.762   4.549   4.714
    1C        C  365   3.839   4.548   4.833
    1C        C  366   3.629   4.594   4.949
    1C        C  367   3.767   4.577   4.950
    1C        C  368   4.507   3.564   2.054
    1C        C  369   4.525   3.492   2.173
    1C        C  370   4.504   3.707   2.290
    1C        C  371   4.520   3.566   2.293
    1C        C  372   4.487   3.781   2.409
    1C        C  373   4.497   3.709   2.530
    1C        C  374   4.428   3.910   2.653
    1C        C  375   4.472   3.776   2.652
    1C        C  376   4.399   3.977   2.773
    1C        C  377   4.433   3.915   2.896
    1C        C  378   4.319   4.098   3.014
    1C        C  379   4.398   3.981   3.016
    1C        C  380   4.274   4.153   3.136
    1C        C  381   4.317   4.098   3.259
    1C        C  382   4.176   4.260   3.377
    1C        C  383   4.275   4.160   3.379
    1C        C  384   4.124   4.309   3.500
    1C        C  385   4.181   4.268   3.622
    1C        C  386   4.008   4.393   3.744
    1C        C  387   4.125   4.313   3.744
    1C        C  388   3.943   4.430   3.864
    1C        C  389   4.003   4.395   3.987
    1C        C  390   3.817   4.488   4.110
    1C        C  391   3.948   4.435   4.111
    1C        C  392   3.751   4.518   4.231
    1C        C  393   3.824   4.504   4.351
    1C        C  394   3.617   4.557   4.475
    1C        C  395   3.755   4.527   4.472
    1C        C  396   3.546   4.570   4.597
    1C        C  397   3.622   4.564   4.716
    1C        C  398   3.409   4.550   4.838
    1C        C  399   3.548   4.575   4.836
    1C        C  400   3.339   4.516   4.954
    1C        C  401   4.502   3.703   2.053
    1C        C  402   4.456   3.916   2.170
    1C        C  403   4.492   3.780   2.170
    1C        C  404   4.415   3.982   2.288
    1C        C  405   4.444   3.916   2.409
    1C        C  406   4.328   4.095   2.525
    1C        C  407   4.406   3.977   2.530
    1C        C  408   4.278   4.149   2.645
    1C        C  409   4.324   4.096   2.768
    1C        C  410   4.178   4.251   2.888
    1C        C  411   4.277   4.150   2.890
    1C        C  412   4.124   4.298   3.010
    1C        C  413   4.175   4.254   3.135
    1C        C  414   4.002   4.380   3.255
    1C        C  415   4.123   4.307   3.255
    1C        C  416   3.942   4.415   3.378
    1C        C  417   4.005   4.384   3.501
    1C        C  418   3.812   4.476   3.619
    1C        C  419   3.943   4.423   3.622
    1C        C  420   3.746   4.503   3.741
    1C        C  421   3.812   4.481   3.864
    1C        C  422   3.610   4.535   3.984
    1C        C  423   3.749   4.509   3.988
    1C        C  424   3.542   4.539   4.107
    1C        C  425   3.611   4.541   4.230
    1C        C  426   3.403   4.546   4.356
    1C        C  427   3.544   4.555   4.354
    1C        C  428   3.332   4.544   4.479
    1C        C  429   3.406   4.557   4.599
    1C        C  430   3.194   4.517   4.725
    1C        C  431   3.333   4.551   4.720
    1C        C  432   3.123   4.497   4.846
    1C        C  433   3.202   4.494   4.961
    1C        C  434   4.388   4.124   2.052
    1C        C  435   4.451   3.999   2.058
    1C        C  436   4.305   4.164   2.162
    1C        C  437   4.332   4.097   2.284
    1C        C  438   4.185   4.254   2.402
    1C        C  439   4.287   4.157   2.404
    1C        C  440   4.128   4.298   2.524
    1C        C  441   4.183   4.254   2.646
    1C        C  442   4.006   4.376   2.766
    1C        C  443   4.124   4.298   2.767
    1C        C  444   3.943   4.410   2.887
    1C        C  445   4.005   4.374   3.009
    1C        C  446   3.812   4.465   3.130
    1C        C  447   3.943   4.412   3.130
    1C        C  448   3.745   4.487   3.252
    1C        C  449   3.811   4.468   3.375
    1C        C  450   3.607   4.526   3.496
    1C        C  451   3.745   4.495   3.497
    1C        C  452   3.539   4.540   3.619
    1C        C  453   3.608   4.533   3.742
    1C        C  454   3.395   4.546   3.864
    1C        C  455   3.537   4.542   3.864
    1C        C  456   3.330   4.535   3.989
    1C        C  457   3.401   4.537   4.111
    1C        C  458   3.193   4.507   4.237
    1C        C  459   3.332   4.532   4.235
    1C        C  460   3.126   4.493   4.361
    1C        C  461   3.193   4.523   4.482
    1C        C  462   2.999   4.434   4.605
    1C        C  463   3.126   4.496   4.603
    1C        C  464   2.932   4.401   4.725
    1C        C  465   2.988   4.450   4.846
    1C        C  466   2.803   4.338   4.959
    1C        C  467   2.908   4.430   4.964
    1C        C  468   4.125   4.285   2.041
    1C        C  469   4.194   4.254   2.159
    1C        C  470   4.010   4.370   2.282
    1C        C  471   4.134   4.302   2.279
    1C        C  472   3.941   4.401   2.401
    1C        C  473   4.006   4.369   2.522
    1C        C  474   3.814   4.465   2.645
    1C        C  475   3.944   4.408   2.643
    1C        C  476   3.746   4.494   2.765
    1C        C  477   3.815   4.470   2.886
    1C        C  478   3.606   4.513   3.008
    1C        C  479   3.746   4.490   3.007
    1C        C  480   3.535   4.517   3.130
    1C        C  481   3.606   4.515   3.252
    1C        C  482   3.395   4.533   3.377
    1C        C  483   3.537   4.533   3.373
    1C        C  484   3.324   4.532   3.499
    1C        C  485   3.397   4.545   3.619
    1C        C  486   3.189   4.507   3.745
    1C        C  487   3.326   4.541   3.741
    1C        C  488   3.124   4.484   3.869
    1C        C  489   3.192   4.502   3.991
    1C        C  490   3.004   4.415   4.115
    1C        C  491   3.127   4.484   4.115
    1C        C  492   2.944   4.385   4.239
    1C        C  493   3.002   4.426   4.361
    1C        C  494   2.833   4.300   4.485
    1C        C  495   2.940   4.392   4.484
    1C        C  496   2.779   4.252   4.606
    1C        C  497   2.820   4.313   4.726
    1C        C  498   2.667   4.163   4.846
    1C        C  499   2.753   4.274   4.844
    1C        C  500   2.596   4.114   4.957
    1C        C  501   4.007   4.358   2.041
    1C        C  502   3.818   4.460   2.159
    1C        C  503   3.947   4.403   2.159
    1C        C  504   3.745   4.478   2.278
    1C        C  505   3.810   4.454   2.401
    1C        C  506   3.606   4.507   2.522
    1C        C  507   3.746   4.485   2.523
    1C        C  508   3.534   4.511   2.644
    1C        C  509   3.606   4.511   2.765
    1C        C  510   3.393   4.523   2.886
    1C        C  511   3.534   4.523   2.887
    1C        C  512   3.323   4.520   3.009
    1C        C  513   3.394   4.527   3.130
    1C        C  514   3.189   4.497   3.253
    1C        C  515   3.326   4.529   3.254
    1C        C  516   3.123   4.472   3.375
    1C        C  517   3.186   4.502   3.498
    1C        C  518   2.997   4.419   3.625
    1C        C  519   3.122   4.485   3.623
    1C        C  520   2.939   4.379   3.748
    1C        C  521   2.999   4.418   3.870
    1C        C  522   2.839   4.283   3.995
    1C        C  523   2.944   4.377   3.993
    1C        C  524   2.793   4.235   4.120
    1C        C  525   2.839   4.289   4.242
    1C        C  526   2.696   4.134   4.365
    1C        C  527   2.783   4.245   4.364
    1C        C  528   2.660   4.073   4.487
    1C        C  529   2.691   4.141   4.607
    1C        C  530   2.588   3.957   4.733
    1C        C  531   2.642   4.089   4.729
    1C        C  532   2.542   3.898   4.854
    1C        C  533   2.524   3.993   4.959
    1C        C  534   3.619   4.553   2.044
    1C        C  535   3.753   4.512   2.047
    1C        C  536   3.535   4.537   2.159
    1C        C  537   3.606   4.510   2.280
    1C        C  538   3.393   4.514   2.401
    1C        C  539   3.534   4.518   2.401
    1C        C  540   3.322   4.507   2.523
    1C        C  541   3.393   4.511   2.645
    1C        C  542   3.181   4.486   2.766
    1C        C  543   3.320   4.509   2.766
    1C        C  544   3.114   4.468   2.889
    1C        C  545   3.184   4.493   3.009
    1C        C  546   2.993   4.407   3.137
    1C        C  547   3.118   4.473   3.133
    1C        C  548   2.937   4.365   3.260
    1C        C  549   2.996   4.410   3.380
    1C        C  550   2.830   4.286   3.509
    1C        C  551   2.936   4.379   3.504
    1C        C  552   2.783   4.231   3.630
    1C        C  553   2.835   4.284   3.751
    1C        C  554   2.706   4.117   3.876
    1C        C  555   2.787   4.232   3.874
    1C        C  556   2.669   4.060   4.000
    1C        C  557   2.705   4.125   4.120
    1C        C  558   2.603   3.943   4.247
    1C        C  559   2.659   4.073   4.243
    1C        C  560   2.575   3.878   4.369
    1C        C  561   2.597   3.947   4.490
    1C        C  562   2.530   3.749   4.614
    1C        C  563   2.563   3.887   4.613
    1C        C  564   2.516   3.679   4.735
    1C        C  565   2.520   3.756   4.855
    1C        C  566   2.523   3.547   4.975
    1C        C  567   2.515   3.686   4.976
    1C        C  568   3.324   4.481   2.041
    1C        C  569   3.396   4.507   2.158
    1C        C  570   3.183   4.480   2.281
    1C        C  571   3.322   4.510   2.280
    1C        C  572   3.115   4.456   2.402
    1C        C  573   3.183   4.480   2.523
    1C        C  574   2.985   4.402   2.647
    1C        C  575   3.112   4.464   2.645
    1C        C  576   2.928   4.365   2.771
    1C        C  577   2.989   4.401   2.893
    1C        C  578   2.824   4.275   3.018
    1C        C  579   2.929   4.369   3.017
    1C        C  580   2.782   4.221   3.141
    1C        C  581   2.832   4.271   3.263
    1C        C  582   2.701   4.115   3.385
    1C        C  583   2.780   4.232   3.389
    1C        C  584   2.667   4.054   3.508
    1C        C  585   2.701   4.116   3.630
    1C        C  586   2.600   3.933   3.757
    1C        C  587   2.663   4.060   3.754
    1C        C  588   2.581   3.867   3.880
    1C        C  589   2.606   3.934   4.002
    1C        C  590   2.544   3.736   4.130
    1C        C  591   2.578   3.873   4.127
    1C        C  592   2.526   3.669   4.253
    1C        C  593   2.533   3.743   4.373
    1C        C  594   2.509   3.533   4.496
    1C        C  595   2.514   3.675   4.495
    1C        C  596   2.514   3.464   4.619
    1C        C  597   2.514   3.537   4.740
    1C        C  598   2.530   3.325   4.864
    1C        C  599   2.518   3.465   4.862
    1C        C  600   2.538   3.248   4.981
    1C        C  601   3.192   4.442   2.045
    1C        C  602   2.980   4.395   2.160
    1C        C  603   3.114   4.445   2.162
    1C        C  604   2.920   4.363   2.285
    1C        C  605   2.986   4.398   2.404
    1C        C  606   2.816   4.272   2.530
    1C        C  607   2.923   4.365   2.526
    1C        C  608   2.771   4.222   2.654
    1C        C  609   2.816   4.279   2.775
    1C        C  610   2.686   4.111   2.897
    1C        C  611   2.770   4.225   2.897
    1C        C  612   2.650   4.051   3.020
    1C        C  613   2.693   4.111   3.140
    1C        C  614   2.595   3.928   3.266
    1C        C  615   2.658   4.054   3.265
    1C        C  616   2.570   3.864   3.390
    1C        C  617   2.602   3.929   3.511
    1C        C  618   2.535   3.731   3.636
    1C        C  619   2.574   3.867   3.635
    1C        C  620   2.522   3.664   3.760
    1C        C  621   2.540   3.731   3.883
    1C        C  622   2.516   3.525   4.008
    1C        C  623   2.529   3.666   4.008
    1C        C  624   2.515   3.456   4.131
    1C        C  625   2.511   3.528   4.252
    1C        C  626   2.534   3.320   4.380
    1C        C  627   2.511   3.459   4.375
    1C        C  628   2.549   3.250   4.502
    1C        C  629   2.532   3.324   4.621
    1C        C  630   2.598   3.121   4.747
    1C        C  631   2.547   3.254   4.743
    1C        C  632   2.613   3.049   4.868
    1C        C  633   2.555   3.109   4.984
    1C        C  634   2.783   4.307   2.051
    1C        C  635   2.896   4.390   2.044
    1C        C  636   2.747   4.236   2.166
    1C        C  637   2.806   4.277   2.287
    1C        C  638   2.682   4.106   2.410
    1C        C  639   2.763   4.221   2.410
    1C        C  640   2.649   4.046   2.534
    1C        C  641   2.690   4.106   2.655
    1C        C  642   2.588   3.919   2.778
    1C        C  643   2.651   4.046   2.776
    1C        C  644   2.568   3.853   2.901
    1C        C  645   2.593   3.922   3.022
    1C        C  646   2.533   3.721   3.150
    1C        C  647   2.568   3.858   3.146
    1C        C  648   2.515   3.653   3.273
    1C        C  649   2.532   3.728   3.391
    1C        C  650   2.512   3.519   3.518
    1C        C  651   2.524   3.660   3.515
    1C        C  652   2.516   3.451   3.642
    1C        C  653   2.514   3.523   3.763
    1C        C  654   2.530   3.313   3.891
    1C        C  655   2.515   3.454   3.886
    1C        C  656   2.546   3.244   4.013
    1C        C  657   2.531   3.315   4.134
    1C        C  658   2.604   3.120   4.258
    1C        C  659   2.552   3.251   4.258
    1C        C  660   2.627   3.055   4.381
    1C        C  661   2.591   3.115   4.504
    1C        C  662   2.711   2.941   4.625
    1C        C  663   2.625   3.053   4.626
    1C        C  664   2.753   2.882   4.746
    1C        C  665   2.698   2.934   4.867
    1C        C  666   2.745   2.872   4.983
    1C        C  667   2.682   4.023   2.056
    1C        C  668   2.688   4.107   2.168
    1C        C  669   2.588   3.915   2.292
    1C        C  670   2.647   4.045   2.287
    1C        C  671   2.561   3.849   2.413
    1C        C  672   2.590   3.918   2.533
    1C        C  673   2.527   3.716   2.658
    1C        C  674   2.564   3.853   2.656
    1C        C  675   2.516   3.648   2.782
    1C        C  676   2.531   3.717   2.904
    1C        C  677   2.501   3.510   3.030
    1C        C  678   2.520   3.650   3.028
    1C        C  679   2.501   3.441   3.153
    1C        C  680   2.505   3.513   3.274
    1C        C  681   2.530   3.305   3.401
    1C        C  682   2.506   3.445   3.398
    1C        C  683   2.545   3.240   3.526
    1C        C  684   2.528   3.311   3.647
    1C        C  685   2.598   3.112   3.770
    1C        C  686   2.542   3.242   3.770
    1C        C  687   2.632   3.050   3.892
    1C        C  688   2.599   3.113   4.014
    1C        C  689   2.709   2.934   4.139
    1C        C  690   2.629   3.051   4.137
    1C        C  691   2.755   2.882   4.262
    1C        C  692   2.707   2.938   4.382
    1C        C  693   2.754   2.884   4.503
    1C        C  694   2.628   3.894   2.055
    1C        C  695   2.529   3.707   2.176
    1C        C  696   2.576   3.840   2.173
    1C        C  697   2.507   3.638   2.298
    1C        C  698   2.522   3.713   2.416
    1C        C  699   2.492   3.504   2.541
    1C        C  700   2.505   3.645   2.538
    1C        C  701   2.504   3.435   2.664
    1C        C  702   2.506   3.507   2.785
    1C        C  703   2.523   3.298   2.910
    1C        C  704   2.505   3.438   2.909
    1C        C  705   2.540   3.230   3.033
    1C        C  706   2.525   3.301   3.154
    1C        C  707   2.594   3.105   3.278
    1C        C  708   2.542   3.237   3.278
    1C        C  709   2.629   3.045   3.402
    1C        C  710   2.599   3.110   3.524
    1C        C  711   2.709   2.932   3.649
    1C        C  712   2.630   3.048   3.647
    1C        C  713   2.758   2.880   3.772
    1C        C  714   2.710   2.932   3.894
    1C        C  715   2.754   2.879   4.017
    1C        C  716   2.455   3.502   2.065
    1C        C  717   2.496   3.635   2.060
    1C        C  718   2.465   3.421   2.182
    1C        C  719   2.487   3.497   2.300
    1C        C  720   2.511   3.289   2.423
    1C        C  721   2.484   3.427   2.423
    1C        C  722   2.532   3.221   2.546
    1C        C  723   2.522   3.295   2.666
    1C        C  724   2.589   3.096   2.793
    1C        C  725   2.535   3.227   2.788
    1C        C  726   2.621   3.032   2.915
    1C        C  727   2.591   3.099   3.036
    1C        C  728   2.706   2.922   3.160
    1C        C  729   2.625   3.037   3.158
    1C        C  730   2.751   2.873   3.285
    1C        C  731   2.708   2.929   3.407
    1C        C  732   2.757   2.875   3.529
    1C        C  733   2.489   3.195   2.071
    1C        C  734   2.490   3.280   2.182
    1C        C  735   2.585   3.086   2.306
    1C        C  736   2.525   3.215   2.304
    1C        C  737   2.615   3.024   2.429
    1C        C  738   2.587   3.091   2.549
    1C        C  739   2.695   2.910   2.670
    1C        C  740   2.618   3.029   2.672
    1C        C  741   2.740   2.855   2.792
    1C        C  742   2.700   2.915   2.913
    1C        C  743   2.750   2.868   3.036
    1C        C  744   2.546   3.068   2.075
    1C        C  745   2.685   2.894   2.186
    1C        C  746   2.610   3.014   2.187
    1C        C  747   2.730   2.839   2.308
    1C        C  748   2.685   2.901   2.427
    1C        C  749   2.733   2.849   2.549
    1C        C  750   2.738   2.838   2.068
    1C        C  751   3.657   2.297   2.011
    1C        O  752   3.654   2.191   2.079
    1C        O  753   3.670   2.285   1.872
    1C        C  754   4.610   3.071   1.956
    1C        O  755   4.564   3.039   1.843
    1C        O  756   4.741   3.021   1.966
    1C        C  757   4.453   4.213   1.953
    1C        O  758   4.561   4.270   1.986
    1C        O  759   4.411   4.245   1.823
    1C        C  760   3.593   4.658   1.943
    1C        O  761   3.653   4.768   1.949
    1C        O  762   3.567   4.627   1.809
    1C        C  763   2.904   4.490   1.935
    1C        O  764   2.909   4.463   1.812
    1C        O  765   2.830   4.607   1.957
    1C        C  766   2.358   3.478   1.955
    1C        O  767   2.393   3.448   1.838
    1C        O  768   2.221   3.479   1.985
    1C        C  769   4.670   3.589   5.077
    1C        O  770   4.627   3.538   5.184
    1C        O  771   4.805   3.626   5.078
    1C        C  772   4.275   4.468   5.033
    1C        O  773   4.242   4.509   5.148
    1C        O  774   4.357   4.564   4.973
    1C        C  775   4.154   2.496   5.049
    1C        O  776   4.242   2.431   4.987
    1C        O  777   4.178   2.548   5.176
    1C        C  778   2.879   4.548   5.049
    1C        O  779   2.784   4.627   5.026
    1C        O  780   2.926   4.561   5.180
    1C        C  781   2.446   3.044   5.061
    1C        O  782   2.341   2.996   5.010
    1C        O  783   2.444   3.037   5.200
    1C        C  784   2.399   3.991   5.038
    1C        O  785   2.303   4.068   5.012
    1C        O  786   2.390   3.931   5.164
    1C        C  787   2.958   2.398   2.022
    1C        O  788   2.902   2.409   1.910
    1C        O  789   2.929   2.279   2.088
    1C        C  790   3.172   2.373   5.060
    1C        O  791   3.107   2.268   5.034
    1C        O  792   3.182   2.385   5.199
    1C        H  793   4.250   3.035   5.040
    1C        H  794   4.191   2.795   5.067
    1C        H  795   4.507   3.123   5.053
    1C        H  796   4.482   3.369   5.063
    1C        H  797   4.550   3.809   5.050
    1C        H  798   4.424   3.984   5.058
    1C        H  799   4.287   4.165   5.055
    1C        H  800   4.055   4.564   5.009
    1C        H  801   3.823   4.590   5.040
    1C        H  802   3.580   4.615   5.042
    1C        H  803   3.398   4.490   5.040
    1C        H  804   3.155   4.494   5.058
    1C        H  805   3.870   2.532   5.069
    1C        H  806   3.677   2.405   5.052
    1C        H  807   2.996   2.550   5.059
    1C        H  808   3.437   2.508   5.073
    1C        H  809   2.860   2.726   5.079
    1C        H  810   2.678   2.865   5.066
    1C        H  811   2.545   3.297   5.076
    1C        H  812   2.501   3.503   5.071
    1C        H  813   2.481   3.731   5.067
    1C        H  814   2.561   4.193   5.020
    1C        H  815   2.749   4.320   5.049
    1C        H  816   2.694   2.859   1.973
    1C        H  817   2.812   2.655   1.991
    1C        H  818   3.207   2.401   2.012
    1C        H  819   3.426   2.449   1.979
    1C        H  820   3.869   2.487   1.975
    1C        H  821   4.074   2.595   1.974
    1C        H  822   4.281   2.698   1.985
    1C        H  823   4.354   2.941   1.973
    1C        H  824   4.576   3.312   1.970
    1C        H  825   4.444   3.520   1.979
    1C        H  826   4.556   3.744   1.969
    1C        H  827   3.815   4.538   1.964
    1C        H  828   3.947   4.343   1.953
    1C        H  829   4.188   4.309   1.958
    1C        H  830   4.480   3.957   1.964
    1C        H  831   2.620   3.843   1.961
    1C        H  832   2.736   4.056   1.970
    1C        H  833   2.724   4.296   1.963
    1C        H  834   3.350   4.543   1.958
    1C        H  835   3.173   4.358   1.982
    1C        H  836   2.509   2.997   2.004
    1C        H  837   2.445   3.231   1.980
    1C        H  838   2.516   3.675   1.963
    2V3OU   H29  839   2.800   3.546   5.172
    2V3OU   C27  840   2.784   3.499   5.273
    2V3OU   H27  841   2.727   3.568   5.340
    2V3OU   H28  842   2.725   3.404   5.261
    2V3OU   O11  843   2.908   3.472   5.339
    2V3OU   C15  844   2.925   3.390   5.448
    2V3OU   C13  845   3.051   3.376   5.511
    2V3OU   C14  846   3.073   3.271   5.601
    2V3OU   C16  847   2.968   3.188   5.637
    2V3OU    H6  848   2.989   3.102   5.702
    2V3OU   C12  849   3.214   3.235   5.629
    2V3OU    O2  850   3.244   3.129   5.688
    2V3OU   C10  851   3.325   3.306   5.564
    2V3OU    C8  852   3.457   3.266   5.582
    2V3OU   O10  853   3.487   3.151   5.649
    2V3OU   H26  854   3.401   3.114   5.676
    2V3OU    C6  855   3.563   3.349   5.536
    2V3OU    C5  856   3.539   3.470   5.471
    2V3OU    C4  857   3.702   3.294   5.534
    2V3OU    H4  858   3.724   3.226   5.621
    2V3OU    H5  859   3.709   3.227   5.444
    2V3OU    C2  860   3.817   3.394   5.524
    2V3OU    O6  861   3.811   3.472   5.644
    2V3OU   H21  862   3.760   3.553   5.625
    2V3OU    C3  863   3.784   3.493   5.411
    2V3OU    H2  864   3.862   3.573   5.407
    2V3OU    H3  865   3.785   3.440   5.312
    2V3OU   C25  866   3.950   3.321   5.508
    2V3OU    O7  867   4.000   3.297   5.398
    2V3OU   C26  868   4.026   3.288   5.636
    2V3OU   H22  869   4.072   3.381   5.678
    2V3OU   H23  870   4.111   3.219   5.611
    2V3OU    O8  871   3.966   3.207   5.734
    2V3OU   H24  872   3.926   3.263   5.803
    2V3OU    C1  873   3.650   3.561   5.429
    2V3OU    H1  874   3.627   3.617   5.334
    2V3OU    O3  875   3.659   3.655   5.536
    2V3OU   C19  876   3.620   3.793   5.528
    2V3OU    H9  877   3.521   3.793   5.474
    2V3OU    O4  878   3.715   3.846   5.437
    2V3OU   C20  879   3.843   3.873   5.495
    2V3OU   H10  880   3.893   3.772   5.512
    2V3OU   C24  881   3.609   3.856   5.666
    2V3OU   H16  882   3.541   3.789   5.724
    2V3OU   H17  883   3.568   3.960   5.665
    2V3OU   C23  884   3.751   3.870   5.723
    2V3OU   H15  885   3.790   3.765   5.744
    2V3OU    N1  886   3.740   3.953   5.841
    2V3OU   H19  887   3.806   3.924   5.911
    2V3OU   H20  888   3.652   3.931   5.883
    2V3OU   C21  889   3.849   3.946   5.629
    2V3OU   H11  890   3.956   3.924   5.658
    2V3OU    O5  891   3.832   4.087   5.624
    2V3OU   H18  892   3.791   4.113   5.708
    2V3OU   C22  893   3.918   3.946   5.385
    2V3OU   H12  894   3.868   4.045   5.368
    2V3OU   H13  895   3.911   3.888   5.289
    2V3OU   H14  896   4.024   3.961   5.416
    2V3OU   C11  897   3.157   3.475   5.488
    2V3OU    O1  898   3.130   3.590   5.448
    2V3OU    C9  899   3.298   3.429   5.498
    2V3OU    C7  900   3.402   3.506   5.448
    2V3OU    O9  901   3.387   3.612   5.361
    2V3OU   H25  902   3.291   3.624   5.359
    2V3OU   C17  903   2.818   3.312   5.497
    2V3OU    H7  904   2.716   3.347   5.487
    2V3OU   C18  905   2.839   3.209   5.588
    2V3OU    H8  906   2.755   3.146   5.620
    3SOL     OW  907   4.101   3.299   4.048
    3SOL    HW1  908   4.054   3.214   4.026
    3SOL    HW2  909   4.111   3.307   4.147
    4SOL     OW  910   6.833   6.803   0.527
    4SOL    HW1  911   6.800   6.866   0.597
    4SOL    HW2  912   6.929   6.824   0.506
    5SOL     OW  913   4.916   2.043   0.409
    5SOL    HW1  914   4.934   2.045   0.507
    5SOL    HW2  915   4.946   2.128   0.367
    6SOL     OW  916   5.455   0.837   2.748
    6SOL    HW1  917   5.455   0.764   2.816
    6SOL    HW2  918   5.360   0.863   2.727
    7SOL     OW  919   1.181   4.208   4.460
    7SOL    HW1  920   1.108   4.165   4.406
    7SOL    HW2  921   1.266   4.205   4.408
    8SOL     OW  922   1.314   3.597   5.105
    8SOL    HW1  923   1.396   3.551   5.069
    8SOL    HW2  924   1.341   3.678   5.156
    9SOL     OW  925   6.896   0.600   6.378
    9SOL    HW1  926   6.978   0.591   6.321
    9SOL    HW2  927   6.843   0.679   6.347
   10SOL     OW  928   5.179   4.612   2.365
   10SOL    HW1  929   5.195   4.515   2.344
   10SOL    HW2  930   5.181   4.624   2.464
   11SOL     OW  931   2.434   2.276   0.378
   11SOL    HW1  932   2.487   2.347   0.426
   11SOL    HW2  933   2.337   2.296   0.387
   12SOL     OW  934   3.548   4.927   2.874
   12SOL    HW1  935   3.473   4.894   2.932
   12SOL    HW2  936   3.519   4.926   2.779
   13SOL     OW  937   5.823   6.049   1.142
   13SOL    HW1  938   5.753   6.072   1.074
   13SOL    HW2  939   5.903   6.010   1.095
   14SOL     OW  940   4.430   5.828   5.345
   14SOL    HW1  941   4.503   5.876   5.394
   14SOL    HW2  942   4.469   5.779   5.267
   15SOL     OW  943   0.232   6.832   6.139
   15SOL    HW1  944   0.317   6.880   6.163
   15SOL    HW2  945   0.203   6.776   6.216
   16SOL     OW  946   1.477   4.584   5.029
   16SOL    HW1  947   1.431   4.533   4.956
   16SOL    HW2  948   1.575   4.565   5.026
   17SOL     OW  949   6.423   1.702   5.574
   17SOL    HW1  950   6.460   1.626   5.522
   17SOL    HW2  951   6.366   1.759   5.514
   18SOL     OW  952   2.395   1.077   6.320
   18SOL    HW1  953   2.367   1.143   6.250
   18SOL    HW2  954   2.414   1.126   6.406
   19SOL     OW  955   2.806   0.012   3.362
   19SOL    HW1  956   2.788   6.971   3.436
   19SOL    HW2  957   2.832   0.100   3.400
   20SOL     OW  958   6.619   1.736   5.731
   20SOL    HW1  959   6.549   1.744   5.661
   20SOL    HW2  960   6.646   1.640   5.741
   21SOL     OW  961   2.663   4.679   3.433
   21SOL    HW1  962   2.721   4.678   3.351
   21SOL    HW2  963   2.668   4.769   3.475
   22SOL     OW  964   1.552   0.671   6.742
   22SOL    HW1  965   1.544   0.750   6.804
   22SOL    HW2  966   1.482   0.677   6.671
   23SOL     OW  967   6.058   5.122   1.188
   23SOL    HW1  968   5.987   5.066   1.146
   23SOL    HW2  969   6.033   5.142   1.283
   24SOL     OW  970   4.505   0.857   0.831
   24SOL    HW1  971   4.604   0.870   0.835
   24SOL    HW2  972   4.471   0.888   0.742
   25SOL     OW  973   1.598   1.177   4.552
   25SOL    HW1  974   1.517   1.231   4.573
   25SOL    HW2  975   1.606   1.165   4.454
   26SOL     OW  976   0.707   3.135   6.658
   26SOL    HW1  977   0.770   3.205   6.623
   26SOL    HW2  978   0.760   3.054   6.685
   27SOL     OW  979   5.953   0.935   1.097
   27SOL    HW1  980   5.914   0.990   1.171
   27SOL    HW2  981   5.948   0.838   1.121
   28SOL     OW  982   2.295   1.135   5.368
   28SOL    HW1  983   2.388   1.161   5.391
   28SOL    HW2  984   2.273   1.047   5.411
   29SOL     OW  985   0.509   0.123   1.220
   29SOL    HW1  986   0.508   0.126   1.320
   29SOL    HW2  987   0.487   0.214   1.183
   30SOL     OW  988   4.981   6.995   4.900
   30SOL    HW1  989   4.918   6.950   4.837
   30SOL    HW2  990   5.073   6.997   4.860
   31SOL     OW  991   1.154   3.068   5.337
   31SOL    HW1  992   1.180   2.987   5.284
   31SOL    HW2  993   1.058   3.091   5.316
   32SOL     OW  994   3.261   0.309   1.814
   32SOL    HW1  995   3.186   0.288   1.877
   32SOL    HW2  996   3.224   0.344   1.728
   33SOL     OW  997   1.535   5.748   6.066
   33SOL    HW1  998   1.592   5.794   5.998
   33SOL    HW2  999   1.445   5.727   6.027
   34SOL     OW 1000   2.240   5.132   5.495
   34SOL    HW1 1001   2.277   5.167   5.409
   34SOL    HW2 1002   2.314   5.116   5.560
   35SOL     OW 1003   2.459   3.276   6.958
   35SOL    HW1 1004   2.468   3.275   6.859
   35SOL    HW2 1005   2.390   3.209   6.987
   36SOL     OW 1006   3.837   0.866   4.410
   36SOL    HW1 1007   3.904   0.940   4.405
   36SOL    HW2 1008   3.794   0.867   4.501
   37SOL     OW 1009   2.989   0.858   4.054
   37SOL    HW1 1010   3.046   0.908   4.119
   37SOL    HW2 1011   2.892   0.873   4.076
   38SOL     OW 1012   0.750   4.215   2.623
   38SOL    HW1 1013   0.789   4.160   2.549
   38SOL    HW2 1014   0.729   4.155   2.701
   39SOL     OW 1015   6.588   5.209   6.894
   39SOL    HW1 1016   6.649   5.223   6.816
   39SOL    HW2 1017   6.636   5.232   6.978
   40SOL     OW 1018   4.223   1.538   0.404
   40SOL    HW1 1019   4.155   1.610   0.389
   40SOL    HW2 1020   4.210   1.466   0.336
   41SOL     OW 1021   5.215   4.121   1.401
   41SOL    HW1 1022   5.292   4.061   1.421
   41SOL    HW2 1023   5.150   4.073   1.342
   42SOL     OW 1024   2.643   5.112   6.406
   42SOL    HW1 1025   2.630   5.041   6.475
   42SOL    HW2 1026   2.740   5.131   6.394
   43SOL     OW 1027   3.769   6.638   5.113
   43SOL    HW1 1028   3.749   6.717   5.171
   43SOL    HW2 1029   3.690   6.619   5.055
   44SOL     OW 1030   0.100   1.227   5.647
   44SOL    HW1 1031   0.057   1.226   5.738
   44SOL    HW2 1032   0.168   1.154   5.642
   45SOL     OW 1033   2.134   5.015   6.504
   45SOL    HW1 1034   2.172   5.104   6.530
   45SOL    HW2 1035   2.151   4.949   6.577
   46SOL     OW 1036   0.420   3.176   4.317
   46SOL    HW1 1037   0.372   3.166   4.230
   46SOL    HW2 1038   0.519   3.177   4.301
   47SOL     OW 1039   6.272   3.034   0.911
   47SOL    HW1 1040   6.279   3.106   0.843
   47SOL    HW2 1041   6.311   2.949   0.874
   48SOL     OW 1042   6.052   3.625   1.240
   48SOL    HW1 1043   5.995   3.676   1.176
   48SOL    HW2 1044   6.142   3.668   1.247
   49SOL     OW 1045   3.434   3.926   7.012
   49SOL    HW1 1046   3.386   3.983   0.055
   49SOL    HW2 1047   3.450   3.836   0.027
   50SOL     OW 1048   6.257   2.687   0.235
   50SOL    HW1 1049   6.285   2.636   0.316
   50SOL    HW2 1050   6.175   2.741   0.256
   51SOL     OW 1051   2.191   5.567   3.044
   51SOL    HW1 1052   2.152   5.560   3.135
   51SOL    HW2 1053   2.289   5.548   3.049
   52SOL     OW 1054   6.434   2.974   1.940
   52SOL    HW1 1055   6.401   3.066   1.918
   52SOL    HW2 1056   6.356   2.916   1.967
   53SOL     OW 1057   4.107   0.526   1.806
   53SOL    HW1 1058   4.081   0.569   1.719
   53SOL    HW2 1059   4.194   0.565   1.837
   54SOL     OW 1060   5.487   0.104   6.412
   54SOL    HW1 1061   5.557   0.048   6.458
   54SOL    HW2 1062   5.489   0.196   6.450
   55SOL     OW 1063   0.936   3.039   6.412
   55SOL    HW1 1064   1.005   3.004   6.349
   55SOL    HW2 1065   0.922   2.973   6.486
   56SOL     OW 1066   0.562   2.699   6.685
   56SOL    HW1 1067   0.564   2.616   6.741
   56SOL    HW2 1068   0.469   2.718   6.655
   57SOL     OW 1069   4.325   6.305   0.206
   57SOL    HW1 1070   4.253   6.301   0.275
   57SOL    HW2 1071   4.293   6.356   0.126
   58SOL     OW 1072   0.567   0.575   0.012
   58SOL    HW1 1073   0.660   0.603   7.011
   58SOL    HW2 1074   0.505   0.592   6.958
   59SOL     OW 1075   5.232   3.223   5.568
   59SOL    HW1 1076   5.209   3.320   5.568
   59SOL    HW2 1077   5.297   3.204   5.642
   60SOL     OW 1078   5.309   1.508   2.549
   60SOL    HW1 1079   5.244   1.494   2.473
   60SOL    HW2 1080   5.320   1.606   2.565
   61SOL     OW 1081   0.154   5.780   4.458
   61SOL    HW1 1082   0.184   5.790   4.553
   61SOL    HW2 1083   0.117   5.867   4.425
   62SOL     OW 1084   6.168   2.855   2.436
   62SOL    HW1 1085   6.075   2.821   2.418
   62SOL    HW2 1086   6.199   2.821   2.524
   63SOL     OW 1087   4.226   6.642   5.874
   63SOL    HW1 1088   4.314   6.690   5.877
   63SOL    HW2 1089   4.153   6.708   5.890
   64SOL     OW 1090   0.920   4.229   5.284
   64SOL    HW1 1091   1.002   4.270   5.245
   64SOL    HW2 1092   0.891   4.152   5.227
   65SOL     OW 1093   0.445   6.173   4.687
   65SOL    HW1 1094   0.369   6.155   4.748
   65SOL    HW2 1095   0.514   6.228   4.735
   66SOL     OW 1096   3.678   1.146   2.042
   66SOL    HW1 1097   3.582   1.117   2.045
   66SOL    HW2 1098   3.683   1.235   1.996
   67SOL     OW 1099   0.185   3.019   1.887
   67SOL    HW1 1100   0.185   3.035   1.789
   67SOL    HW2 1101   0.279   3.016   1.922
   68SOL     OW 1102   6.895   2.083   5.885
   68SOL    HW1 1103   6.832   2.145   5.839
   68SOL    HW2 1104   6.907   2.000   5.829
   69SOL     OW 1105   1.043   6.178   6.700
   69SOL    HW1 1106   1.135   6.139   6.700
   69SOL    HW2 1107   0.986   6.129   6.634
   70SOL     OW 1108   5.220   3.437   4.163
   70SOL    HW1 1109   5.235   3.343   4.194
   70SOL    HW2 1110   5.125   3.463   4.176
   71SOL     OW 1111   5.241   2.023   4.740
   71SOL    HW1 1112   5.215   2.119   4.746
   71SOL    HW2 1113   5.212   1.986   4.652
   72SOL     OW 1114   0.413   0.470   3.302
   72SOL    HW1 1115   0.462   0.384   3.317
   72SOL    HW2 1116   0.421   0.497   3.206
   73SOL     OW 1117   3.210   1.035   0.625
   73SOL    HW1 1118   3.165   1.121   0.651
   73SOL    HW2 1119   3.306   1.053   0.604
   74SOL     OW 1120   2.830   2.154   1.015
   74SOL    HW1 1121   2.795   2.206   0.938
   74SOL    HW2 1122   2.927   2.173   1.027
   75SOL     OW 1123   3.061   3.368   0.911
   75SOL    HW1 1124   2.999   3.326   0.978
   75SOL    HW2 1125   3.090   3.458   0.945
   76SOL     OW 1126   3.840   4.883   5.372
   76SOL    HW1 1127   3.908   4.810   5.360
   76SOL    HW2 1128   3.887   4.968   5.395
   77SOL     OW 1129   0.234   5.358   4.257
   77SOL    HW1 1130   0.199   5.303   4.332
   77SOL    HW2 1131   0.211   5.454   4.271
   78SOL     OW 1132   5.136   1.631   1.320
   78SOL    HW1 1133   5.180   1.547   1.288
   78SOL    HW2 1134   5.085   1.673   1.245
   79SOL     OW 1135   0.853   4.604   3.174
   79SOL    HW1 1136   0.886   4.698   3.183
   79SOL    HW2 1137   0.925   4.540   3.202
   80SOL     OW 1138   3.579   1.027   5.258
   80SOL    HW1 1139   3.666   1.048   5.302
   80SOL    HW2 1140   3.585   1.044   5.160
   81SOL     OW 1141   4.814   5.633   1.687
   81SOL    HW1 1142   4.887   5.603   1.749
   81SOL    HW2 1143   4.738   5.670   1.739
   82SOL     OW 1144   3.010   6.280   2.188
   82SOL    HW1 1145   2.920   6.255   2.153
   82SOL    HW2 1146   3.080   6.226   2.141
   83SOL     OW 1147   5.534   1.139   4.620
   83SOL    HW1 1148   5.567   1.085   4.543
   83SOL    HW2 1149   5.442   1.173   4.601
   84SOL     OW 1150   5.150   2.525   2.192
   84SOL    HW1 1151   5.110   2.448   2.142
   84SOL    HW2 1152   5.182   2.593   2.127
   85SOL     OW 1153   2.364   6.758   4.226
   85SOL    HW1 1154   2.290   6.774   4.161
   85SOL    HW2 1155   2.327   6.719   4.310
   86SOL     OW 1156   5.920   0.093   0.462
   86SOL    HW1 1157   5.862   0.116   0.384
   86SOL    HW2 1158   5.905   0.159   0.536
   87SOL     OW 1159   2.419   4.127   6.185
   87SOL    HW1 1160   2.436   4.099   6.091
   87SOL    HW2 1161   2.500   4.107   6.241
   88SOL     OW 1162   2.995   3.587   1.121
   88SOL    HW1 1163   2.942   3.510   1.087
   88SOL    HW2 1164   2.932   3.661   1.148
   89SOL     OW 1165   3.424   3.894   3.950
   89SOL    HW1 1166   3.485   3.968   3.978
   89SOL    HW2 1167   3.477   3.820   3.908
   90SOL     OW 1168   4.907   3.715   1.918
   90SOL    HW1 1169   4.909   3.623   1.880
   90SOL    HW2 1170   4.822   3.760   1.891
   91SOL     OW 1171   4.145   5.209   5.648
   91SOL    HW1 1172   4.050   5.190   5.673
   91SOL    HW2 1173   4.164   5.306   5.666
   92SOL     OW 1174   5.187   3.301   6.383
   92SOL    HW1 1175   5.206   3.386   6.432
   92SOL    HW2 1176   5.187   3.318   6.285
   93SOL     OW 1177   3.240   3.445   2.443
   93SOL    HW1 1178   3.335   3.445   2.413
   93SOL    HW2 1179   3.180   3.436   2.363
   94SOL     OW 1180   3.270   1.994   4.661
   94SOL    HW1 1181   3.210   1.932   4.711
   94SOL    HW2 1182   3.226   2.084   4.652
   95SOL     OW 1183   0.441   0.395   3.912
   95SOL    HW1 1184   0.514   0.453   3.949
   95SOL    HW2 1185   0.474   0.301   3.903
   96SOL     OW 1186   6.233   4.696   6.897
   96SOL    HW1 1187   6.290   4.620   6.927
   96SOL    HW2 1188   6.285   4.781   6.903
   97SOL     OW 1189   2.321   4.562   5.483
   97SOL    HW1 1190   2.280   4.589   5.571
   97SOL    HW2 1191   2.372   4.477   5.495
   98SOL     OW 1192   2.106   1.993   3.210
   98SOL    HW1 1193   2.173   2.066   3.194
   98SOL    HW2 1194   2.104   1.970   3.308
   99SOL     OW 1195   3.431   3.940   5.262
   99SOL    HW1 1196   3.474   3.967   5.348
   99SOL    HW2 1197   3.333   3.928   5.276
  100SOL     OW 1198   6.686   1.063   5.109
  100SOL    HW1 1199   6.718   1.124   5.182
  100SOL    HW2 1200   6.699   0.968   5.136
  101SOL     OW 1201   6.329   3.909   2.287
  101SOL    HW1 1202   6.388   3.879   2.361
  101SOL    HW2 1203   6.238   3.867   2.297
  102SOL     OW 1204   4.731   6.916   0.427
  102SOL    HW1 1205   4.722   6.881   0.520
  102SOL    HW2 1206   4.694   7.009   0.424
  103SOL     OW 1207   3.064   0.922   2.154
  103SOL    HW1 1208   3.072   0.882   2.063
  103SOL    HW2 1209   3.149   0.908   2.204
  104SOL     OW 1210   6.690   4.860   2.129
  104SOL    HW1 1211   6.644   4.799   2.194
  104SOL    HW2 1212   6.735   4.805   2.058
  105SOL     OW 1213   6.355   0.836   5.716
  105SOL    HW1 1214   6.285   0.906   5.725
  105SOL    HW2 1215   6.399   0.844   5.627
  106SOL     OW 1216   5.022   4.533   1.317
  106SOL    HW1 1217   5.021   4.523   1.416
  106SOL    HW2 1218   5.091   4.471   1.278
  107SOL     OW 1219   5.807   0.259   1.392
  107SOL    HW1 1220   5.763   0.178   1.431
  107SOL    HW2 1221   5.850   0.311   1.465
  108SOL     OW 1222   2.757   1.311   4.298
  108SOL    HW1 1223   2.725   1.356   4.381
  108SOL    HW2 1224   2.800   1.224   4.322
  109SOL     OW 1225   1.658   1.138   4.250
  109SOL    HW1 1226   1.568   1.095   4.235
  109SOL    HW2 1227   1.657   1.231   4.214
  110SOL     OW 1228   3.626   4.402   6.025
  110SOL    HW1 1229   3.538   4.357   6.021
  110SOL    HW2 1230   3.697   4.342   5.989
  111SOL     OW 1231   6.101   2.979   1.436
  111SOL    HW1 1232   6.121   2.882   1.451
  111SOL    HW2 1233   6.128   3.004   1.343
  112SOL     OW 1234   5.124   6.424   6.550
  112SOL    HW1 1235   5.091   6.331   6.533
  112SOL    HW2 1236   5.175   6.456   6.469
  113SOL     OW 1237   0.620   5.606   2.453
  113SOL    HW1 1238   0.633   5.507   2.460
  113SOL    HW2 1239   0.709   5.651   2.453
  114SOL     OW 1240   6.983   2.604   2.317
  114SOL    HW1 1241   6.883   2.600   2.321
  114SOL    HW2 1242   7.012   2.633   2.225
  115SOL     OW 1243   5.352   0.431   3.133
  115SOL    HW1 1244   5.407   0.387   3.205
  115SOL    HW2 1245   5.330   0.524   3.160
  116SOL     OW 1246   0.312   5.068   7.018
  116SOL    HW1 1247   0.300   4.995   6.951
  116SOL    HW2 1248   0.284   5.035   0.084
  117SOL     OW 1249   2.254   2.036   0.258
  117SOL    HW1 1250   2.155   2.034   0.248
  117SOL    HW2 1251   2.280   2.108   0.323
  118SOL     OW 1252   0.183   1.932   2.921
  118SOL    HW1 1253   0.158   1.877   3.000
  118SOL    HW2 1254   0.279   1.961   2.930
  119SOL     OW 1255   6.040   6.766   6.131
  119SOL    HW1 1256   6.133   6.778   6.098
  119SOL    HW2 1257   6.042   6.741   6.228
  120SOL     OW 1258   5.390   2.737   4.867
  120SOL    HW1 1259   5.327   2.661   4.848
  120SOL    HW2 1260   5.484   2.708   4.846
  121SOL     OW 1261   1.181   4.985   0.030
  121SOL    HW1 1262   1.198   4.953   6.960
  121SOL    HW2 1263   1.114   4.926   0.074
  122SOL     OW 1264   6.761   4.893   6.296
  122SOL    HW1 1265   6.757   4.832   6.375
  122SOL    HW2 1266   6.825   4.857   6.229
  123SOL     OW 1267   0.950   2.203   2.009
  123SOL    HW1 1268   1.045   2.191   2.038
  123SOL    HW2 1269   0.920   2.296   2.030
  124SOL     OW 1270   1.931   2.909   7.018
  124SOL    HW1 1271   1.970   3.001   7.016
  124SOL    HW2 1272   1.925   2.874   6.924
  125SOL     OW 1273   4.514   3.071   0.470
  125SOL    HW1 1274   4.480   2.990   0.423
  125SOL    HW2 1275   4.457   3.150   0.446
  126SOL     OW 1276   4.006   3.507   4.562
  126SOL    HW1 1277   4.050   3.417   4.556
  126SOL    HW2 1278   4.009   3.552   4.473
  127SOL     OW 1279   0.358   5.721   6.058
  127SOL    HW1 1280   0.343   5.698   6.154
  127SOL    HW2 1281   0.306   5.657   6.001
  128SOL     OW 1282   4.660   3.009   6.883
  128SOL    HW1 1283   4.738   2.947   6.873
  128SOL    HW2 1284   4.591   2.987   6.815
  129SOL     OW 1285   1.406   5.579   1.740
  129SOL    HW1 1286   1.312   5.605   1.761
  129SOL    HW2 1287   1.468   5.631   1.799
  130SOL     OW 1288   6.583   2.894   3.977
  130SOL    HW1 1289   6.520   2.889   4.054
  130SOL    HW2 1290   6.676   2.911   4.010
  131SOL     OW 1291   0.248   2.444   3.368
  131SOL    HW1 1292   0.255   2.457   3.269
  131SOL    HW2 1293   0.323   2.490   3.414
  132SOL     OW 1294   3.582   2.838   2.317
  132SOL    HW1 1295   3.674   2.876   2.329
  132SOL    HW2 1296   3.570   2.809   2.222
  133SOL     OW 1297   5.633   6.297   6.307
  133SOL    HW1 1298   5.591   6.240   6.237
  133SOL    HW2 1299   5.605   6.392   6.295
  134SOL     OW 1300   5.767   1.629   1.568
  134SOL    HW1 1301   5.850   1.586   1.534
  134SOL    HW2 1302   5.732   1.578   1.646
  135SOL     OW 1303   4.882   3.107   3.779
  135SOL    HW1 1304   4.913   3.200   3.761
  135SOL    HW2 1305   4.952   3.042   3.749
  136SOL     OW 1306   3.049   0.379   6.280
  136SOL    HW1 1307   3.032   0.317   6.357
  136SOL    HW2 1308   3.148   0.383   6.263
  137SOL     OW 1309   3.258   3.517   6.015
  137SOL    HW1 1310   3.185   3.586   6.015
  137SOL    HW2 1311   3.341   3.557   5.977
  138SOL     OW 1312   0.991   5.282   6.119
  138SOL    HW1 1313   0.961   5.296   6.213
  138SOL    HW2 1314   1.077   5.331   6.104
  139SOL     OW 1315   1.904   6.476   1.118
  139SOL    HW1 1316   1.813   6.446   1.090
  139SOL    HW2 1317   1.902   6.503   1.214
  140SOL     OW 1318   3.478   0.461   1.288
  140SOL    HW1 1319   3.562   0.458   1.234
  140SOL    HW2 1320   3.414   0.527   1.248
  141SOL     OW 1321   6.951   2.994   0.465
  141SOL    HW1 1322   6.933   3.039   0.378
  141SOL    HW2 1323   6.987   3.060   0.530
  142SOL     OW 1324   1.635   4.217   1.685
  142SOL    HW1 1325   1.601   4.182   1.598
  142SOL    HW2 1326   1.567   4.280   1.724
  143SOL     OW 1327   4.585   6.049   2.302
  143SOL    HW1 1328   4.527   6.036   2.222
  143SOL    HW2 1329   4.610   5.960   2.341
  144SOL     OW 1330   3.274   5.086   3.881
  144SOL    HW1 1331   3.359   5.032   3.887
  144SOL    HW2 1332   3.240   5.104   3.973
  145SOL     OW 1333   6.699   4.256   3.087
  145SOL    HW1 1334   6.760   4.318   3.136
  145SOL    HW2 1335   6.609   4.258   3.129
  146SOL     OW 1336   5.296   0.752   6.403
  146SOL    HW1 1337   5.229   0.826   6.411
  146SOL    HW2 1338   5.292   0.713   6.311
  147SOL     OW 1339   5.029   1.036   4.890
  147SOL    HW1 1340   5.038   1.092   4.809
  147SOL    HW2 1341   5.101   0.967   4.891
  148SOL     OW 1342   1.356   5.808   1.342
  148SOL    HW1 1343   1.456   5.798   1.342
  148SOL    HW2 1344   1.330   5.880   1.279
  149SOL     OW 1345   2.175   2.253   4.878
  149SOL    HW1 1346   2.123   2.339   4.876
  149SOL    HW2 1347   2.195   2.229   4.973
  150SOL     OW 1348   4.417   1.512   5.128
  150SOL    HW1 1349   4.361   1.511   5.045
  150SOL    HW2 1350   4.514   1.513   5.103
  151SOL     OW 1351   4.030   2.818   1.372
  151SOL    HW1 1352   3.933   2.810   1.351
  151SOL    HW2 1353   4.049   2.909   1.409
  152SOL     OW 1354   0.247   2.451   0.393
  152SOL    HW1 1355   0.255   2.356   0.423
  152SOL    HW2 1356   0.334   2.481   0.354
  153SOL     OW 1357   2.592   1.421   3.260
  153SOL    HW1 1358   2.677   1.407   3.208
  153SOL    HW2 1359   2.514   1.401   3.201
  154SOL     OW 1360   6.491   1.609   2.673
  154SOL    HW1 1361   6.411   1.633   2.727
  154SOL    HW2 1362   6.483   1.650   2.582
  155SOL     OW 1363   0.915   6.721   2.103
  155SOL    HW1 1364   0.827   6.762   2.127
  155SOL    HW2 1365   0.985   6.793   2.101
  156SOL     OW 1366   5.464   2.750   0.637
  156SOL    HW1 1367   5.483   2.717   0.730
  156SOL    HW2 1368   5.548   2.745   0.583
  157SOL     OW 1369   4.111   5.724   0.522
  157SOL    HW1 1370   4.077   5.662   0.452
  157SOL    HW2 1371   4.208   5.741   0.509
  158SOL     OW 1372   6.915   2.714   3.703
  158SOL    HW1 1373   6.825   2.671   3.694
  158SOL    HW2 1374   6.968   2.699   3.620
  159SOL     OW 1375   6.233   5.255   0.602
  159SOL    HW1 1376   6.166   5.185   0.577
  159SOL    HW2 1377   6.188   5.344   0.608
  160SOL     OW 1378   6.513   6.978   2.112
  160SOL    HW1 1379   6.415   6.959   2.123
  160SOL    HW2 1380   6.565   6.894   2.127
  161SOL     OW 1381   0.688   6.104   0.917
  161SOL    HW1 1382   0.634   6.071   0.995
  161SOL    HW2 1383   0.773   6.052   0.911
  162SOL     OW 1384   4.648   6.651   6.875
  162SOL    HW1 1385   4.694   6.587   6.937
  162SOL    HW2 1386   4.706   6.730   6.860
  163SOL     OW 1387   0.319   4.105   2.484
  163SOL    HW1 1388   0.384   4.180   2.481
  163SOL    HW2 1389   0.227   4.139   2.463
  164SOL     OW 1390   3.031   2.036   3.764
  164SOL    HW1 1391   2.965   1.961   3.753
  164SOL    HW2 1392   3.096   2.014   3.837
  165SOL     OW 1393   0.515   5.885   3.614
  165SOL    HW1 1394   0.567   5.800   3.618
  165SOL    HW2 1395   0.429   5.874   3.665
  166SOL     OW 1396   6.275   3.907   3.255
  166SOL    HW1 1397   6.191   3.875   3.209
  166SOL    HW2 1398   6.273   4.006   3.263
  167SOL     OW 1399   2.584   1.879   6.946
  167SOL    HW1 1400   2.545   1.840   6.863
  167SOL    HW2 1401   2.650   1.950   6.922
  168SOL     OW 1402   4.387   3.986   1.510
  168SOL    HW1 1403   4.460   4.041   1.550
  168SOL    HW2 1404   4.375   4.011   1.414
  169SOL     OW 1405   4.679   2.439   1.199
  169SOL    HW1 1406   4.615   2.481   1.263
  169SOL    HW2 1407   4.763   2.414   1.247
  170SOL     OW 1408   0.056   6.027   2.111
  170SOL    HW1 1409   0.049   6.094   2.037
  170SOL    HW2 1410   0.135   5.968   2.096
  171SOL     OW 1411   3.600   3.464   0.801
  171SOL    HW1 1412   3.589   3.414   0.715
  171SOL    HW2 1413   3.576   3.560   0.787
  172SOL     OW 1414   0.367   2.355   6.594
  172SOL    HW1 1415   0.323   2.386   6.510
  172SOL    HW2 1416   0.466   2.350   6.580
  173SOL     OW 1417   6.745   1.496   4.299
  173SOL    HW1 1418   6.821   1.559   4.284
  173SOL    HW2 1419   6.691   1.527   4.377
  174SOL     OW 1420   5.687   5.404   4.929
  174SOL    HW1 1421   5.681   5.495   4.971
  174SOL    HW2 1422   5.628   5.340   4.979
  175SOL     OW 1423   0.545   6.745   1.599
  175SOL    HW1 1424   0.596   6.723   1.682
  175SOL    HW2 1425   0.476   6.815   1.619
  176SOL     OW 1426   6.113   4.111   1.176
  176SOL    HW1 1427   6.101   4.202   1.137
  176SOL    HW2 1428   6.050   4.100   1.253
  177SOL     OW 1429   5.852   2.908   4.090
  177SOL    HW1 1430   5.817   2.823   4.130
  177SOL    HW2 1431   5.931   2.888   4.032
  178SOL     OW 1432   2.135   6.061   5.722
  178SOL    HW1 1433   2.176   5.971   5.713
  178SOL    HW2 1434   2.117   6.099   5.631
  179SOL     OW 1435   3.357   4.747   1.014
  179SOL    HW1 1436   3.407   4.749   0.928
  179SOL    HW2 1437   3.298   4.827   1.021
  180SOL     OW 1438   3.996   1.102   0.515
  180SOL    HW1 1439   3.994   1.149   0.603
  180SOL    HW2 1440   3.910   1.053   0.501
  181SOL     OW 1441   3.445   2.187   5.592
  181SOL    HW1 1442   3.540   2.156   5.585
  181SOL    HW2 1443   3.406   2.199   5.500
  182SOL     OW 1444   3.817   2.788   6.443
  182SOL    HW1 1445   3.800   2.746   6.532
  182SOL    HW2 1446   3.808   2.887   6.450
  183SOL     OW 1447   3.824   1.476   3.305
  183SOL    HW1 1448   3.734   1.444   3.276
  183SOL    HW2 1449   3.813   1.551   3.371
  184SOL     OW 1450   4.891   5.762   3.493
  184SOL    HW1 1451   4.809   5.815   3.514
  184SOL    HW2 1452   4.905   5.760   3.394
  185SOL     OW 1453   6.849   0.160   4.451
  185SOL    HW1 1454   6.856   0.252   4.414
  185SOL    HW2 1455   6.925   0.142   4.513
  186SOL     OW 1456   4.367   6.547   4.345
  186SOL    HW1 1457   4.417   6.633   4.353
  186SOL    HW2 1458   4.408   6.490   4.274
  187SOL     OW 1459   4.255   6.290   1.806
  187SOL    HW1 1460   4.348   6.254   1.804
  187SOL    HW2 1461   4.245   6.361   1.736
  188SOL     OW 1462   1.428   3.046   3.328
  188SOL    HW1 1463   1.393   3.124   3.276
  188SOL    HW2 1464   1.455   3.075   3.419
  189SOL     OW 1465   5.786   4.632   5.673
  189SOL    HW1 1466   5.881   4.602   5.664
  189SOL    HW2 1467   5.760   4.684   5.592
  190SOL     OW 1468   6.279   0.698   7.014
  190SOL    HW1 1469   6.248   0.683   6.921
  190SOL    HW2 1470   6.218   0.652   0.054
  191SOL     OW 1471   0.142   0.830   5.374
  191SOL    HW1 1472   0.177   0.758   5.434
  191SOL    HW2 1473   0.054   0.802   5.336
  192SOL     OW 1474   0.561   5.365   0.860
  192SOL    HW1 1475   0.512   5.311   0.792
  192SOL    HW2 1476   0.642   5.406   0.817
  193SOL     OW 1477   2.876   6.459   0.293
  193SOL    HW1 1478   2.803   6.428   0.232
  193SOL    HW2 1479   2.943   6.386   0.305
  194SOL     OW 1480   3.940   6.461   2.326
  194SOL    HW1 1481   3.995   6.539   2.296
  194SOL    HW2 1482   3.843   6.483   2.314
  195SOL     OW 1483   3.814   1.121   0.914
  195SOL    HW1 1484   3.808   1.166   0.825
  195SOL    HW2 1485   3.722   1.110   0.952
  196SOL     OW 1486   2.967   2.208   0.219
  196SOL    HW1 1487   2.897   2.279   0.228
  196SOL    HW2 1488   3.035   2.237   0.151
  197SOL     OW 1489   2.379   6.075   0.333
  197SOL    HW1 1490   2.317   6.145   0.368
  197SOL    HW2 1491   2.430   6.112   0.255
  198SOL     OW 1492   4.007   0.828   6.756
  198SOL    HW1 1493   3.973   0.756   6.695
  198SOL    HW2 1494   3.937   0.898   6.766
  199SOL     OW 1495   0.434   0.520   2.743
  199SOL    HW1 1496   0.435   0.484   2.650
  199SOL    HW2 1497   0.425   0.620   2.740
  200SOL     OW 1498   0.234   3.939   3.268
  200SOL    HW1 1499   0.320   3.889   3.268
  200SOL    HW2 1500   0.188   3.927   3.180
  201SOL     OW 1501   4.223   1.585   6.560
  201SOL    HW1 1502   4.260   1.503   6.605
  201SOL    HW2 1503   4.252   1.666   6.611
  202SOL     OW 1504   3.337   0.361   2.783
  202SOL    HW1 1505   3.379   0.286   2.835
  202SOL    HW2 1506   3.319   0.331   2.689
  203SOL     OW 1507   5.655   2.610   6.971
  203SOL    HW1 1508   5.719   2.664   6.918
  203SOL    HW2 1509   5.666   2.630   0.044
  204SOL     OW 1510   2.883   6.136   1.100
  204SOL    HW1 1511   2.801   6.082   1.114
  204SOL    HW2 1512   2.877   6.221   1.151
  205SOL     OW 1513   6.498   0.687   0.149
  205SOL    HW1 1514   6.502   0.588   0.164
  205SOL    HW2 1515   6.410   0.712   0.110
  206SOL     OW 1516   0.992   4.305   1.080
  206SOL    HW1 1517   0.963   4.393   1.117
  206SOL    HW2 1518   0.935   4.233   1.120
  207SOL     OW 1519   4.879   0.786   5.703
  207SOL    HW1 1520   4.811   0.724   5.743
  207SOL    HW2 1521   4.842   0.825   5.619
  208SOL     OW 1522   3.469   4.879   6.382
  208SOL    HW1 1523   3.430   4.806   6.326
  208SOL    HW2 1524   3.548   4.844   6.432
  209SOL     OW 1525   6.723   5.603   5.724
  209SOL    HW1 1526   6.731   5.699   5.751
  209SOL    HW2 1527   6.637   5.565   5.759
  210SOL     OW 1528   4.200   2.308   1.989
  210SOL    HW1 1529   4.248   2.234   2.037
  210SOL    HW2 1530   4.128   2.345   2.048
  211SOL     OW 1531   1.447   2.046   1.970
  211SOL    HW1 1532   1.541   2.077   1.986
  211SOL    HW2 1533   1.437   2.014   1.876
  212SOL     OW 1534   0.913   5.091   3.878
  212SOL    HW1 1535   0.910   5.013   3.815
  212SOL    HW2 1536   0.900   5.059   3.972
  213SOL     OW 1537   4.639   2.734   0.049
  213SOL    HW1 1538   4.606   2.643   0.072
  213SOL    HW2 1539   4.562   2.798   0.048
  214SOL     OW 1540   1.610   0.165   2.526
  214SOL    HW1 1541   1.564   0.093   2.577
  214SOL    HW2 1542   1.664   0.125   2.453
  215SOL     OW 1543   2.938   3.240   2.661
  215SOL    HW1 1544   2.966   3.160   2.609
  215SOL    HW2 1545   2.940   3.220   2.759
  216SOL     OW 1546   0.339   6.305   6.265
  216SOL    HW1 1547   0.260   6.282   6.208
  216SOL    HW2 1548   0.384   6.385   6.228
  217SOL     OW 1549   0.411   2.788   3.634
  217SOL    HW1 1550   0.337   2.722   3.648
  217SOL    HW2 1551   0.435   2.792   3.537
  218SOL     OW 1552   1.120   3.730   5.765
  218SOL    HW1 1553   1.121   3.734   5.665
  218SOL    HW2 1554   1.080   3.643   5.795
  219SOL     OW 1555   4.459   4.715   0.373
  219SOL    HW1 1556   4.435   4.745   0.281
  219SOL    HW2 1557   4.527   4.778   0.411
  220SOL     OW 1558   3.197   5.311   0.422
  220SOL    HW1 1559   3.121   5.359   0.467
  220SOL    HW2 1560   3.274   5.373   0.411
  221SOL     OW 1561   6.189   2.234   4.180
  221SOL    HW1 1562   6.177   2.158   4.116
  221SOL    HW2 1563   6.258   2.297   4.144
  222SOL     OW 1564   1.331   6.323   5.103
  222SOL    HW1 1565   1.272   6.327   5.022
  222SOL    HW2 1566   1.405   6.258   5.087
  223SOL     OW 1567   6.706   3.764   1.717
  223SOL    HW1 1568   6.704   3.826   1.639
  223SOL    HW2 1569   6.785   3.703   1.709
  224SOL     OW 1570   3.202   2.236   1.705
  224SOL    HW1 1571   3.300   2.215   1.716
  224SOL    HW2 1572   3.150   2.185   1.773
  225SOL     OW 1573   6.662   0.270   0.111
  225SOL    HW1 1574   6.641   0.227   0.023
  225SOL    HW2 1575   6.673   0.199   0.181
  226SOL     OW 1576   6.563   5.606   1.032
  226SOL    HW1 1577   6.585   5.689   1.083
  226SOL    HW2 1578   6.615   5.603   0.947
  227SOL     OW 1579   1.467   2.620   4.123
  227SOL    HW1 1580   1.560   2.586   4.114
  227SOL    HW2 1581   1.448   2.640   4.220
  228SOL     OW 1582   3.877   0.064   3.251
  228SOL    HW1 1583   3.818   0.126   3.200
  228SOL    HW2 1584   3.968   0.106   3.261
  229SOL     OW 1585   6.058   5.206   2.367
  229SOL    HW1 1586   6.152   5.192   2.398
  229SOL    HW2 1587   6.042   5.152   2.284
  230SOL     OW 1588   1.328   4.164   5.838
  230SOL    HW1 1589   1.236   4.190   5.809
  230SOL    HW2 1590   1.394   4.191   5.769
  231SOL     OW 1591   0.659   1.884   6.765
  231SOL    HW1 1592   0.723   1.879   6.842
  231SOL    HW2 1593   0.664   1.975   6.725
  232SOL     OW 1594   1.960   5.111   6.700
  232SOL    HW1 1595   2.034   5.059   6.657
  232SOL    HW2 1596   1.877   5.102   6.644
  233SOL     OW 1597   2.724   1.016   5.839
  233SOL    HW1 1598   2.625   1.029   5.828
  233SOL    HW2 1599   2.773   1.087   5.788
  234SOL     OW 1600   2.758   5.641   6.969
  234SOL    HW1 1601   2.801   5.718   7.016
  234SOL    HW2 1602   2.817   5.609   6.894
  235SOL     OW 1603   3.384   3.162   4.854
  235SOL    HW1 1604   3.431   3.095   4.912
  235SOL    HW2 1605   3.352   3.117   4.770
  236SOL     OW 1606   6.971   2.825   5.703
  236SOL    HW1 1607   6.910   2.854   5.778
  236SOL    HW2 1608   6.934   2.858   5.616
  237SOL     OW 1609   0.643   6.961   1.994
  237SOL    HW1 1610   0.595   6.879   1.965
  237SOL    HW2 1611   0.721   6.977   1.934
  238SOL     OW 1612   5.634   2.348   2.258
  238SOL    HW1 1613   5.722   2.300   2.257
  238SOL    HW2 1614   5.608   2.372   2.165
  239SOL     OW 1615   0.680   5.872   0.700
  239SOL    HW1 1616   0.645   5.963   0.724
  239SOL    HW2 1617   0.714   5.827   0.783
  240SOL     OW 1618   6.667   4.107   5.606
  240SOL    HW1 1619   6.630   4.038   5.545
  240SOL    HW2 1620   6.634   4.091   5.699
  241SOL     OW 1621   0.235   0.964   3.025
  241SOL    HW1 1622   0.270   0.880   3.065
  241SOL    HW2 1623   0.262   1.042   3.081
  242SOL     OW 1624   2.166   3.379   3.789
  242SOL    HW1 1625   2.181   3.444   3.864
  242SOL    HW2 1626   2.251   3.329   3.772
  243SOL     OW 1627   4.860   0.361   4.943
  243SOL    HW1 1628   4.921   0.368   5.022
  243SOL    HW2 1629   4.859   0.448   4.894
  244SOL     OW 1630   6.660   1.476   5.681
  244SOL    HW1 1631   6.709   1.494   5.595
  244SOL    HW2 1632   6.628   1.381   5.681
  245SOL     OW 1633   6.303   1.435   3.630
  245SOL    HW1 1634   6.260   1.359   3.678
  245SOL    HW2 1635   6.269   1.521   3.667
  246SOL     OW 1636   4.875   3.245   3.098
  246SOL    HW1 1637   4.897   3.159   3.052
  246SOL    HW2 1638   4.785   3.238   3.139
  247SOL     OW 1639   3.270   1.561   3.404
  247SOL    HW1 1640   3.244   1.653   3.376
  247SOL    HW2 1641   3.276   1.502   3.323
  248SOL     OW 1642   5.954   1.234   2.776
  248SOL    HW1 1643   5.897   1.270   2.850
  248SOL    HW2 1644   5.923   1.142   2.751
  249SOL     OW 1645   3.276   0.267   3.421
  249SOL    HW1 1646   3.234   0.327   3.353
  249SOL    HW2 1647   3.328   0.195   3.375
  250SOL     OW 1648   4.575   3.292   6.092
  250SOL    HW1 1649   4.621   3.252   6.171
  250SOL    HW2 1650   4.480   3.260   6.089
  251SOL     OW 1651   2.304   2.384   0.747
  251SOL    HW1 1652   2.213   2.378   0.705
  251SOL    HW2 1653   2.344   2.292   0.751
  252SOL     OW 1654   0.433   1.247   6.242
  252SOL    HW1 1655   0.340   1.217   6.222
  252SOL    HW2 1656   0.443   1.264   6.340
  253SOL     OW 1657   2.506   3.676   5.975
  253SOL    HW1 1658   2.507   3.578   5.958
  253SOL    HW2 1659   2.601   3.709   5.984
  254SOL     OW 1660   5.768   3.754   5.449
  254SOL    HW1 1661   5.798   3.687   5.518
  254SOL    HW2 1662   5.845   3.813   5.425
  255SOL     OW 1663   3.462   2.127   3.326
  255SOL    HW1 1664   3.532   2.088   3.386
  255SOL    HW2 1665   3.414   2.201   3.374
  256SOL     OW 1666   6.561   5.730   0.059
  256SOL    HW1 1667   6.561   5.777   6.995
  256SOL    HW2 1668   6.641   5.758   0.112
  257SOL     OW 1669   2.716   5.549   5.858
  257SOL    HW1 1670   2.648   5.503   5.915
  257SOL    HW2 1671   2.800   5.564   5.911
  258SOL     OW 1672   4.875   3.905   4.079
  258SOL    HW1 1673   4.956   3.943   4.036
  258SOL    HW2 1674   4.857   3.814   4.040
  259SOL     OW 1675   1.419   2.255   2.892
  259SOL    HW1 1676   1.416   2.161   2.924
  259SOL    HW2 1677   1.369   2.314   2.955
  260SOL     OW 1678   6.115   6.965   6.415
  260SOL    HW1 1679   6.148   7.014   6.335
  260SOL    HW2 1680   6.076   0.006   6.480
  261SOL     OW 1681   1.094   1.843   2.983
  261SOL    HW1 1682   1.076   1.797   3.070
  261SOL    HW2 1683   1.115   1.939   3.000
  262SOL     OW 1684   1.385   5.338   1.893
  262SOL    HW1 1685   1.383   5.412   1.826
  262SOL    HW2 1686   1.361   5.374   1.983
  263SOL     OW 1687   0.613   1.869   4.227
  263SOL    HW1 1688   0.696   1.885   4.174
  263SOL    HW2 1689   0.637   1.850   4.322
  264SOL     OW 1690   2.796   4.353   6.155
  264SOL    HW1 1691   2.862   4.370   6.081
  264SOL    HW2 1692   2.734   4.431   6.162
  265SOL     OW 1693   5.192   5.015   5.517
  265SOL    HW1 1694   5.251   4.953   5.465
  265SOL    HW2 1695   5.245   5.093   5.550
  266SOL     OW 1696   4.240   2.819   0.385
  266SOL    HW1 1697   4.338   2.835   0.372
  266SOL    HW2 1698   4.225   2.780   0.476
  267SOL     OW 1699   1.315   1.476   5.686
  267SOL    HW1 1700   1.303   1.516   5.776
  267SOL    HW2 1701   1.315   1.548   5.616
  268SOL     OW 1702   3.465   5.320   4.463
  268SOL    HW1 1703   3.462   5.419   4.459
  268SOL    HW2 1704   3.421   5.289   4.547
  269SOL     OW 1705   1.054   1.121   5.932
  269SOL    HW1 1706   1.001   1.044   5.967
  269SOL    HW2 1707   1.104   1.093   5.850
  270SOL     OW 1708   4.835   0.605   3.627
  270SOL    HW1 1709   4.829   0.562   3.536
  270SOL    HW2 1710   4.883   0.544   3.690
  271SOL     OW 1711   1.604   1.231   6.871
  271SOL    HW1 1712   1.689   1.178   6.874
  271SOL    HW2 1713   1.546   1.206   6.948
  272SOL     OW 1714   3.945   5.773   2.887
  272SOL    HW1 1715   4.043   5.763   2.872
  272SOL    HW2 1716   3.900   5.683   2.879
  273SOL     OW 1717   2.732   0.386   4.981
  273SOL    HW1 1718   2.648   0.392   4.928
  273SOL    HW2 1719   2.808   0.358   4.922
  274SOL     OW 1720   6.129   2.170   1.384
  274SOL    HW1 1721   6.035   2.139   1.369
  274SOL    HW2 1722   6.152   2.241   1.317
  275SOL     OW 1723   5.863   5.719   5.129
  275SOL    HW1 1724   5.898   5.754   5.215
  275SOL    HW2 1725   5.939   5.688   5.072
  276SOL     OW 1726   6.270   6.298   3.978
  276SOL    HW1 1727   6.243   6.274   4.072
  276SOL    HW2 1728   6.194   6.343   3.932
  277SOL     OW 1729   4.924   1.219   5.465
  277SOL    HW1 1730   5.005   1.168   5.494
  277SOL    HW2 1731   4.892   1.276   5.540
  278SOL     OW 1732   5.822   2.851   3.273
  278SOL    HW1 1733   5.898   2.909   3.242
  278SOL    HW2 1734   5.806   2.779   3.206
  279SOL     OW 1735   6.944   3.549   4.939
  279SOL    HW1 1736   6.921   3.572   4.845
  279SOL    HW2 1737   6.953   3.633   4.993
  280SOL     OW 1738   3.348   0.893   3.109
  280SOL    HW1 1739   3.357   0.805   3.063
  280SOL    HW2 1740   3.414   0.898   3.185
  281SOL     OW 1741   5.591   6.223   3.472
  281SOL    HW1 1742   5.573   6.214   3.374
  281SOL    HW2 1743   5.521   6.175   3.524
  282SOL     OW 1744   2.338   1.753   0.499
  282SOL    HW1 1745   2.396   1.796   0.430
  282SOL    HW2 1746   2.393   1.691   0.554
  283SOL     OW 1747   0.148   1.869   4.638
  283SOL    HW1 1748   0.075   1.910   4.691
  283SOL    HW2 1749   0.196   1.801   4.693
  284SOL     OW 1750   4.963   6.356   3.296
  284SOL    HW1 1751   4.891   6.363   3.228
  284SOL    HW2 1752   4.948   6.275   3.353
  285SOL     OW 1753   4.231   0.429   6.356
  285SOL    HW1 1754   4.215   0.468   6.447
  285SOL    HW2 1755   4.202   0.334   6.354
  286SOL     OW 1756   2.202   4.932   5.268
  286SOL    HW1 1757   2.211   5.029   5.287
  286SOL    HW2 1758   2.289   4.885   5.285
  287SOL     OW 1759   2.926   6.844   6.316
  287SOL    HW1 1760   3.012   6.895   6.313
  287SOL    HW2 1761   2.850   6.904   6.291
  288SOL     OW 1762   4.219   0.528   1.251
  288SOL    HW1 1763   4.266   0.588   1.186
  288SOL    HW2 1764   4.206   0.438   1.211
  289SOL     OW 1765   6.146   6.005   3.231
  289SOL    HW1 1766   6.054   5.967   3.227
  289SOL    HW2 1767   6.160   6.067   3.153
  290SOL     OW 1768   3.465   0.515   6.127
  290SOL    HW1 1769   3.393   0.496   6.060
  290SOL    HW2 1770   3.446   0.463   6.211
  291SOL     OW 1771   2.949   6.949   5.046
  291SOL    HW1 1772   2.866   7.001   5.062
  291SOL    HW2 1773   2.934   6.853   5.070
  292SOL     OW 1774   4.391   0.146   4.457
  292SOL    HW1 1775   4.450   0.101   4.390
  292SOL    HW2 1776   4.345   0.224   4.414
  293SOL     OW 1777   5.779   7.000   2.171
  293SOL    HW1 1778   5.738   6.990   2.262
  293SOL    HW2 1779   5.784   0.073   2.147
  294SOL     OW 1780   6.274   0.753   6.070
  294SOL    HW1 1781   6.356   0.701   6.093
  294SOL    HW2 1782   6.219   0.769   6.152
  295SOL     OW 1783   1.159   1.587   4.804
  295SOL    HW1 1784   1.175   1.669   4.749
  295SOL    HW2 1785   1.109   1.520   4.750
  296SOL     OW 1786   6.970   2.075   0.806
  296SOL    HW1 1787   6.950   2.110   0.898
  296SOL    HW2 1788   6.948   1.978   0.802
  297SOL     OW 1789   5.143   2.946   3.624
  297SOL    HW1 1790   5.211   2.995   3.570
  297SOL    HW2 1791   5.189   2.879   3.682
  298SOL     OW 1792   4.067   0.236   6.041
  298SOL    HW1 1793   4.148   0.218   5.985
  298SOL    HW2 1794   4.075   0.325   6.085
  299SOL     OW 1795   1.107   0.984   6.981
  299SOL    HW1 1796   1.148   1.071   7.007
  299SOL    HW2 1797   1.173   0.930   6.928
  300SOL     OW 1798   4.548   0.268   3.629
  300SOL    HW1 1799   4.526   0.334   3.557
  300SOL    HW2 1800   4.620   0.305   3.687
  301SOL     OW 1801   6.624   5.886   1.108
  301SOL    HW1 1802   6.547   5.851   1.161
  301SOL    HW2 1803   6.593   5.962   1.051
  302SOL     OW 1804   0.622   5.322   1.703
  302SOL    HW1 1805   0.678   5.370   1.637
  302SOL    HW2 1806   0.658   5.230   1.718
  303SOL     OW 1807   5.668   5.987   3.210
  303SOL    HW1 1808   5.613   5.918   3.257
  303SOL    HW2 1809   5.613   6.069   3.195
  304SOL     OW 1810   2.182   5.535   4.877
  304SOL    HW1 1811   2.114   5.608   4.866
  304SOL    HW2 1812   2.199   5.492   4.789
  305SOL     OW 1813   1.115   2.975   2.164
  305SOL    HW1 1814   1.153   3.062   2.129
  305SOL    HW2 1815   1.180   2.901   2.145
  306SOL     OW 1816   0.333   6.394   2.949
  306SOL    HW1 1817   0.281   6.382   2.864
  306SOL    HW2 1818   0.286   6.459   3.008
  307SOL     OW 1819   3.783   2.960   3.797
  307SOL    HW1 1820   3.776   2.918   3.888
  307SOL    HW2 1821   3.691   2.987   3.766
  308SOL     OW 1822   5.259   2.689   3.350
  308SOL    HW1 1823   5.261   2.708   3.252
  308SOL    HW2 1824   5.233   2.593   3.364
  309SOL     OW 1825   1.315   6.710   7.006
  309SOL    HW1 1826   1.285   6.720   6.912
  309SOL    HW2 1827   1.328   6.613   0.004
  310SOL     OW 1828   5.177   0.355   4.907
  310SOL    HW1 1829   5.109   0.341   4.835
  310SOL    HW2 1830   5.132   0.396   4.987
  311SOL     OW 1831   2.170   5.622   2.486
  311SOL    HW1 1832   2.120   5.608   2.401
  311SOL    HW2 1833   2.187   5.534   2.530
  312SOL     OW 1834   4.070   1.088   3.241
  312SOL    HW1 1835   4.150   1.051   3.193
  312SOL    HW2 1836   4.005   1.014   3.259
  313SOL     OW 1837   4.043   3.865   2.521
  313SOL    HW1 1838   4.096   3.785   2.549
  313SOL    HW2 1839   4.079   3.901   2.435
  314SOL     OW 1840   2.284   5.661   5.955
  314SOL    HW1 1841   2.191   5.680   5.923
  314SOL    HW2 1842   2.333   5.747   5.969
  315SOL     OW 1843   5.966   1.176   3.447
  315SOL    HW1 1844   6.065   1.173   3.453
  315SOL    HW2 1845   5.928   1.191   3.538
  316SOL     OW 1846   3.864   1.236   6.239
  316SOL    HW1 1847   3.863   1.177   6.320
  316SOL    HW2 1848   3.789   1.302   6.246
  317SOL     OW 1849   1.309   1.542   2.001
  317SOL    HW1 1850   1.407   1.526   1.996
  317SOL    HW2 1851   1.269   1.484   2.072
  318SOL     OW 1852   1.135   0.282   4.792
  318SOL    HW1 1853   1.098   0.203   4.744
  318SOL    HW2 1854   1.235   0.275   4.796
  319SOL     OW 1855   1.261   1.606   2.443
  319SOL    HW1 1856   1.265   1.643   2.535
  319SOL    HW2 1857   1.198   1.659   2.387
  320SOL     OW 1858   6.005   2.229   6.172
  320SOL    HW1 1859   5.977   2.319   6.138
  320SOL    HW2 1860   6.016   2.233   6.271
  321SOL     OW 1861   4.597   3.253   0.871
  321SOL    HW1 1862   4.573   3.316   0.797
  321SOL    HW2 1863   4.545   3.168   0.862
  322SOL     OW 1864   3.202   3.224   6.001
  322SOL    HW1 1865   3.226   3.321   5.998
  322SOL    HW2 1866   3.283   3.169   5.979
  323SOL     OW 1867   0.899   3.920   2.151
  323SOL    HW1 1868   0.950   3.889   2.232
  323SOL    HW2 1869   0.823   3.857   2.134
  324SOL     OW 1870   0.198   0.158   3.223
  324SOL    HW1 1871   0.111   0.127   3.261
  324SOL    HW2 1872   0.182   0.231   3.157
  325SOL     OW 1873   0.116   3.785   1.814
  325SOL    HW1 1874   0.092   3.787   1.912
  325SOL    HW2 1875   0.034   3.803   1.760
  326SOL     OW 1876   0.716   6.593   6.255
  326SOL    HW1 1877   0.719   6.692   6.249
  326SOL    HW2 1878   0.807   6.558   6.280
  327SOL     OW 1879   5.105   5.514   3.925
  327SOL    HW1 1880   5.072   5.608   3.924
  327SOL    HW2 1881   5.028   5.452   3.941
  328SOL     OW 1882   1.851   3.877   2.644
  328SOL    HW1 1883   1.894   3.863   2.554
  328SOL    HW2 1884   1.868   3.798   2.702
  329SOL     OW 1885   2.866   3.411   1.895
  329SOL    HW1 1886   2.892   3.387   1.989
  329SOL    HW2 1887   2.852   3.510   1.888
  330SOL     OW 1888   2.850   6.084   0.509
  330SOL    HW1 1889   2.946   6.105   0.490
  330SOL    HW2 1890   2.832   5.988   0.491
  331SOL     OW 1891   5.721   5.117   6.650
  331SOL    HW1 1892   5.803   5.078   6.607
  331SOL    HW2 1893   5.710   5.080   6.742
  332SOL     OW 1894   5.885   1.984   3.200
  332SOL    HW1 1895   5.974   1.938   3.191
  332SOL    HW2 1896   5.813   1.916   3.211
  333SOL     OW 1897   3.010   1.008   5.537
  333SOL    HW1 1898   2.926   0.954   5.533
  333SOL    HW2 1899   3.045   1.022   5.444
  334SOL     OW 1900   4.101   3.634   3.575
  334SOL    HW1 1901   4.083   3.586   3.660
  334SOL    HW2 1902   4.129   3.568   3.505
  335SOL     OW 1903   3.704   0.744   0.030
  335SOL    HW1 1904   3.703   0.726   0.129
  335SOL    HW2 1905   3.738   0.663   7.006
  336SOL     OW 1906   2.883   1.416   3.579
  336SOL    HW1 1907   2.959   1.479   3.595
  336SOL    HW2 1908   2.817   1.423   3.653
  337SOL     OW 1909   1.611   0.384   6.177
  337SOL    HW1 1910   1.671   0.377   6.257
  337SOL    HW2 1911   1.666   0.406   6.097
  338SOL     OW 1912   3.959   1.696   1.212
  338SOL    HW1 1913   4.003   1.696   1.302
  338SOL    HW2 1914   3.976   1.784   1.167
  339SOL     OW 1915   3.880   5.411   4.901
  339SOL    HW1 1916   3.929   5.373   4.981
  339SOL    HW2 1917   3.918   5.371   4.818
  340SOL     OW 1918   4.989   2.109   4.099
  340SOL    HW1 1919   5.072   2.064   4.065
  340SOL    HW2 1920   4.942   2.153   4.023
  341SOL     OW 1921   6.204   6.266   2.698
  341SOL    HW1 1922   6.292   6.279   2.744
  341SOL    HW2 1923   6.183   6.168   2.695
  342SOL     OW 1924   4.636   1.901   2.373
  342SOL    HW1 1925   4.677   1.880   2.285
  342SOL    HW2 1926   4.644   1.998   2.392
  343SOL     OW 1927   6.915   5.668   2.768
  343SOL    HW1 1928   6.884   5.747   2.715
  343SOL    HW2 1929   6.996   5.628   2.725
  344SOL     OW 1930   2.055   2.403   1.331
  344SOL    HW1 1931   2.124   2.404   1.258
  344SOL    HW2 1932   2.100   2.416   1.419
  345SOL     OW 1933   6.722   3.776   3.883
  345SOL    HW1 1934   6.661   3.727   3.820
  345SOL    HW2 1935   6.763   3.854   3.836
  346SOL     OW 1936   2.206   6.555   3.297
  346SOL    HW1 1937   2.137   6.616   3.259
  346SOL    HW2 1938   2.268   6.525   3.225
  347SOL     OW 1939   2.584   4.969   0.775
  347SOL    HW1 1940   2.490   4.959   0.807
  347SOL    HW2 1941   2.586   5.033   0.698
  348SOL     OW 1942   4.622   5.282   1.313
  348SOL    HW1 1943   4.681   5.362   1.322
  348SOL    HW2 1944   4.595   5.271   1.218
  349SOL     OW 1945   6.338   4.306   1.410
  349SOL    HW1 1946   6.313   4.398   1.379
  349SOL    HW2 1947   6.264   4.270   1.468
  350SOL     OW 1948   3.538   2.821   0.280
  350SOL    HW1 1949   3.466   2.779   0.335
  350SOL    HW2 1950   3.611   2.855   0.339
  351SOL     OW 1951   3.123   4.633   1.242
  351SOL    HW1 1952   3.127   4.550   1.186
  351SOL    HW2 1953   3.115   4.607   1.338
  352SOL     OW 1954   4.111   0.278   3.185
  352SOL    HW1 1955   4.171   0.299   3.262
  352SOL    HW2 1956   4.036   0.345   3.183
  353SOL     OW 1957   2.236   6.788   6.762
  353SOL    HW1 1958   2.171   6.839   6.704
  353SOL    HW2 1959   2.185   6.728   6.823
  354SOL     OW 1960   0.319   2.828   0.230
  354SOL    HW1 1961   0.279   2.822   0.321
  354SOL    HW2 1962   0.383   2.904   0.226
  355SOL     OW 1963   1.895   2.094   2.518
  355SOL    HW1 1964   1.975   2.035   2.507
  355SOL    HW2 1965   1.849   2.072   2.604
  356SOL     OW 1966   0.689   6.841   6.196
  356SOL    HW1 1967   0.656   6.834   6.102
  356SOL    HW2 1968   0.767   6.904   6.200
  357SOL     OW 1969   5.282   6.732   5.113
  357SOL    HW1 1970   5.345   6.741   5.190
  357SOL    HW2 1971   5.292   6.641   5.072
  358SOL     OW 1972   4.008   5.602   0.267
  358SOL    HW1 1973   4.002   5.671   0.194
  358SOL    HW2 1974   4.069   5.529   0.237
  359SOL     OW 1975   2.457   2.021   2.753
  359SOL    HW1 1976   2.517   1.947   2.784
  359SOL    HW2 1977   2.503   2.109   2.764
  360SOL     OW 1978   1.042   4.578   4.159
  360SOL    HW1 1979   1.140   4.590   4.140
  360SOL    HW2 1980   1.007   4.501   4.106
  361SOL     OW 1981   6.394   0.606   2.961
  361SOL    HW1 1982   6.463   0.539   2.990
  361SOL    HW2 1983   6.405   0.624   2.863
  362SOL     OW 1984   4.147   4.971   0.924
  362SOL    HW1 1985   4.050   4.956   0.905
  362SOL    HW2 1986   4.182   4.898   0.983
  363SOL     OW 1987   5.759   5.113   2.086
  363SOL    HW1 1988   5.773   5.195   2.031
  363SOL    HW2 1989   5.704   5.047   2.034
  364SOL     OW 1990   0.902   6.117   6.441
  364SOL    HW1 1991   0.847   6.199   6.457
  364SOL    HW2 1992   0.876   6.046   6.506
  365SOL     OW 1993   4.871   2.054   3.199
  365SOL    HW1 1994   4.832   1.964   3.179
  365SOL    HW2 1995   4.805   2.109   3.248
  366SOL     OW 1996   5.733   2.058   7.013
  366SOL    HW1 1997   5.709   2.151   0.018
  366SOL    HW2 1998   5.796   2.017   0.056
  367SOL     OW 1999   5.018   1.917   5.608
  367SOL    HW1 2000   4.953   1.848   5.642
  367SOL    HW2 2001   5.022   1.993   5.673
  368SOL     OW 2002   6.099   2.495   6.366
  368SOL    HW1 2003   6.116   2.397   6.378
  368SOL    HW2 2004   6.164   2.548   6.420
  369SOL     OW 2005   6.247   2.821   2.692
  369SOL    HW1 2006   6.188   2.878   2.749
  369SOL    HW2 2007   6.339   2.818   2.733
  370SOL     OW 2008   1.902   3.500   3.535
  370SOL    HW1 2009   1.936   3.555   3.611
  370SOL    HW2 2010   1.815   3.457   3.560
  371SOL     OW 2011   1.466   4.967   6.716
  371SOL    HW1 2012   1.518   4.993   6.797
  371SOL    HW2 2013   1.379   4.926   6.743
  372SOL     OW 2014   3.280   6.087   6.479
  372SOL    HW1 2015   3.317   6.168   6.524
  372SOL    HW2 2016   3.180   6.090   6.482
  373SOL     OW 2017   5.822   5.773   4.026
  373SOL    HW1 2018   5.749   5.721   3.983
  373SOL    HW2 2019   5.873   5.823   3.955
  374SOL     OW 2020   2.672   1.845   2.804
  374SOL    HW1 2021   2.750   1.824   2.863
  374SOL    HW2 2022   2.703   1.850   2.709
  375SOL     OW 2023   1.505   5.102   4.769
  375SOL    HW1 2024   1.432   5.166   4.793
  375SOL    HW2 2025   1.577   5.106   4.838
  376SOL     OW 2026   2.889   1.075   4.368
  376SOL    HW1 2027   2.824   1.017   4.418
  376SOL    HW2 2028   2.971   1.022   4.347
  377SOL     OW 2029   0.863   2.281   6.581
  377SOL    HW1 2030   0.923   2.202   6.564
  377SOL    HW2 2031   0.917   2.356   6.620
  378SOL     OW 2032   3.653   0.831   1.668
  378SOL    HW1 2033   3.674   0.918   1.623
  378SOL    HW2 2034   3.607   0.770   1.604
  379SOL     OW 2035   6.465   1.979   6.304
  379SOL    HW1 2036   6.430   1.899   6.254
  379SOL    HW2 2037   6.523   1.947   6.379
  380SOL     OW 2038   3.998   1.918   1.008
  380SOL    HW1 2039   4.039   1.848   0.950
  380SOL    HW2 2040   4.019   2.009   0.971
  381SOL     OW 2041   1.862   3.564   3.159
  381SOL    HW1 2042   1.924   3.552   3.081
  381SOL    HW2 2043   1.916   3.578   3.242
  382SOL     OW 2044   5.486   0.401   0.106
  382SOL    HW1 2045   5.534   0.343   0.040
  382SOL    HW2 2046   5.523   0.494   0.101
  383SOL     OW 2047   3.993   2.943   0.613
  383SOL    HW1 2048   3.925   2.925   0.541
  383SOL    HW2 2049   3.956   3.009   0.678
  384SOL     OW 2050   5.788   4.185   4.914
  384SOL    HW1 2051   5.785   4.226   5.005
  384SOL    HW2 2052   5.696   4.176   4.878
  385SOL     OW 2053   4.352   4.462   0.529
  385SOL    HW1 2054   4.277   4.526   0.508
  385SOL    HW2 2055   4.428   4.478   0.466
  386SOL     OW 2056   3.303   6.913   3.921
  386SOL    HW1 2057   3.254   6.920   4.008
  386SOL    HW2 2058   3.257   6.968   3.852
  387SOL     OW 2059   2.128   5.679   3.594
  387SOL    HW1 2060   2.207   5.712   3.542
  387SOL    HW2 2061   2.057   5.749   3.594
  388SOL     OW 2062   2.318   3.101   6.523
  388SOL    HW1 2063   2.348   3.074   6.432
  388SOL    HW2 2064   2.343   3.031   6.590
  389SOL     OW 2065   2.927   3.713   3.177
  389SOL    HW1 2066   2.868   3.634   3.194
  389SOL    HW2 2067   2.910   3.749   3.086
  390SOL     OW 2068   2.026   0.942   4.359
  390SOL    HW1 2069   1.973   0.904   4.284
  390SOL    HW2 2070   2.123   0.941   4.335
  391SOL     OW 2071   0.700   3.387   0.035
  391SOL    HW1 2072   0.644   3.349   0.109
  391SOL    HW2 2073   0.642   3.409   6.981
  392SOL     OW 2074   2.528   4.836   2.545
  392SOL    HW1 2075   2.481   4.793   2.621
  392SOL    HW2 2076   2.485   4.808   2.459
  393SOL     OW 2077   5.844   4.727   4.794
  393SOL    HW1 2078   5.851   4.628   4.781
  393SOL    HW2 2079   5.886   4.774   4.716
  394SOL     OW 2080   1.528   0.482   0.856
  394SOL    HW1 2081   1.466   0.558   0.834
  394SOL    HW2 2082   1.572   0.450   0.772
  395SOL     OW 2083   5.026   4.041   1.212
  395SOL    HW1 2084   4.976   4.011   1.130
  395SOL    HW2 2085   4.963   4.086   1.275
  396SOL     OW 2086   3.466   4.117   3.671
  396SOL    HW1 2087   3.465   4.142   3.574
  396SOL    HW2 2088   3.373   4.093   3.700
  397SOL     OW 2089   4.560   1.718   5.686
  397SOL    HW1 2090   4.546   1.773   5.604
  397SOL    HW2 2091   4.493   1.745   5.756
  398SOL     OW 2092   1.063   5.191   2.532
  398SOL    HW1 2093   1.113   5.108   2.507
  398SOL    HW2 2094   0.985   5.203   2.470
  399SOL     OW 2095   4.953   5.135   1.320
  399SOL    HW1 2096   4.964   5.209   1.254
  399SOL    HW2 2097   4.874   5.080   1.295
  400SOL     OW 2098   0.417   5.959   5.224
  400SOL    HW1 2099   0.513   5.935   5.242
  400SOL    HW2 2100   0.392   6.039   5.278
  401SOL     OW 2101   5.028   2.442   6.914
  401SOL    HW1 2102   4.969   2.521   6.927
  401SOL    HW2 2103   5.011   2.401   6.824
  402SOL     OW 2104   6.180   6.061   1.236
  402SOL    HW1 2105   6.124   6.025   1.161
  402SOL    HW2 2106   6.248   6.124   1.200
  403SOL     OW 2107   4.611   2.154   5.827
  403SOL    HW1 2108   4.592   2.088   5.899
  403SOL    HW2 2109   4.530   2.211   5.812
  404SOL     OW 2110   0.807   6.699   4.396
  404SOL    HW1 2111   0.722   6.701   4.344
  404SOL    HW2 2112   0.880   6.663   4.338
  405SOL     OW 2113   1.069   2.726   0.859
  405SOL    HW1 2114   1.151   2.747   0.912
  405SOL    HW2 2115   1.061   2.790   0.783
  406SOL     OW 2116   1.728   2.550   4.164
  406SOL    HW1 2117   1.725   2.469   4.223
  406SOL    HW2 2118   1.769   2.626   4.214
  407SOL     OW 2119   2.548   0.500   5.378
  407SOL    HW1 2120   2.579   0.563   5.450
  407SOL    HW2 2121   2.456   0.467   5.400
  408SOL     OW 2122   1.885   0.389   3.651
  408SOL    HW1 2123   1.853   0.311   3.598
  408SOL    HW2 2124   1.871   0.372   3.749
  409SOL     OW 2125   5.636   3.290   3.424
  409SOL    HW1 2126   5.590   3.359   3.479
  409SOL    HW2 2127   5.580   3.269   3.343
  410SOL     OW 2128   2.492   0.829   6.372
  410SOL    HW1 2129   2.443   0.914   6.354
  410SOL    HW2 2130   2.591   0.845   6.369
  411SOL     OW 2131   6.456   4.626   4.981
  411SOL    HW1 2132   6.506   4.623   4.894
  411SOL    HW2 2133   6.412   4.538   4.997
  412SOL     OW 2134   3.849   0.314   2.452
  412SOL    HW1 2135   3.913   0.285   2.523
  412SOL    HW2 2136   3.808   0.402   2.477
  413SOL     OW 2137   3.357   6.403   0.378
  413SOL    HW1 2138   3.411   6.461   0.439
  413SOL    HW2 2139   3.304   6.338   0.432
  414SOL     OW 2140   4.097   4.233   0.633
  414SOL    HW1 2141   4.165   4.241   0.561
  414SOL    HW2 2142   4.011   4.200   0.594
  415SOL     OW 2143   2.083   6.722   1.643
  415SOL    HW1 2144   2.162   6.781   1.659
  415SOL    HW2 2145   2.113   6.632   1.614
  416SOL     OW 2146   4.200   6.119   4.990
  416SOL    HW1 2147   4.131   6.191   4.980
  416SOL    HW2 2148   4.290   6.160   5.001
  417SOL     OW 2149   4.240   6.089   2.211
  417SOL    HW1 2150   4.158   6.120   2.164
  417SOL    HW2 2151   4.291   6.168   2.247
  418SOL     OW 2152   4.858   5.643   0.331
  418SOL    HW1 2153   4.920   5.568   0.357
  418SOL    HW2 2154   4.847   5.704   0.409
  419SOL     OW 2155   0.378   6.686   1.399
  419SOL    HW1 2156   0.455   6.708   1.458
  419SOL    HW2 2157   0.292   6.694   1.451
  420SOL     OW 2158   5.241   4.226   0.013
  420SOL    HW1 2159   5.205   4.147   6.986
  420SOL    HW2 2160   5.272   4.295   6.972
  421SOL     OW 2161   2.336   6.116   6.439
  421SOL    HW1 2162   2.241   6.099   6.412
  421SOL    HW2 2163   2.364   6.050   6.508
  422SOL     OW 2164   5.915   4.138   6.297
  422SOL    HW1 2165   5.860   4.057   6.319
  422SOL    HW2 2166   5.886   4.214   6.355
  423SOL     OW 2167   5.879   3.079   0.099
  423SOL    HW1 2168   5.807   3.085   0.169
  423SOL    HW2 2169   5.875   3.159   0.039
  424SOL     OW 2170   2.794   4.100   0.681
  424SOL    HW1 2171   2.778   4.198   0.676
  424SOL    HW2 2172   2.710   4.050   0.660
  425SOL     OW 2173   3.638   1.619   1.287
  425SOL    HW1 2174   3.643   1.718   1.275
  425SOL    HW2 2175   3.641   1.574   1.198
  426SOL     OW 2176   5.001   3.072   5.708
  426SOL    HW1 2177   4.933   3.034   5.772
  426SOL    HW2 2178   5.090   3.030   5.725
  427SOL     OW 2179   5.530   4.098   1.166
  427SOL    HW1 2180   5.442   4.059   1.141
  427SOL    HW2 2181   5.516   4.173   1.231
  428SOL     OW 2182   4.111   0.174   5.625
  428SOL    HW1 2183   4.136   0.271   5.631
  428SOL    HW2 2184   4.070   0.156   5.536
  429SOL     OW 2185   1.657   4.691   6.917
  429SOL    HW1 2186   1.640   4.618   6.983
  429SOL    HW2 2187   1.739   4.741   6.943
  430SOL     OW 2188   1.371   6.872   4.830
  430SOL    HW1 2189   1.356   6.852   4.927
  430SOL    HW2 2190   1.465   6.904   4.818
  431SOL     OW 2191   3.668   1.686   0.122
  431SOL    HW1 2192   3.641   1.652   0.212
  431SOL    HW2 2193   3.664   1.612   0.055
  432SOL     OW 2194   6.751   1.709   0.285
  432SOL    HW1 2195   6.836   1.757   0.265
  432SOL    HW2 2196   6.683   1.729   0.214
  433SOL     OW 2197   2.856   6.695   5.097
  433SOL    HW1 2198   2.789   6.622   5.110
  433SOL    HW2 2199   2.948   6.656   5.102
  434SOL     OW 2200   5.630   3.417   1.291
  434SOL    HW1 2201   5.575   3.440   1.372
  434SOL    HW2 2202   5.727   3.423   1.314
  435SOL     OW 2203   3.278   3.905   6.380
  435SOL    HW1 2204   3.312   3.814   6.405
  435SOL    HW2 2205   3.238   3.948   6.461
  436SOL     OW 2206   1.400   0.737   0.831
  436SOL    HW1 2207   1.323   0.737   0.767
  436SOL    HW2 2208   1.381   0.800   0.906
  437SOL     OW 2209   6.990   0.310   6.218
  437SOL    HW1 2210   0.047   0.333   6.272
  437SOL    HW2 2211   7.004   0.222   6.172
  438SOL     OW 2212   1.766   3.291   1.825
  438SOL    HW1 2213   1.800   3.286   1.731
  438SOL    HW2 2214   1.685   3.350   1.828
  439SOL     OW 2215   6.251   4.649   2.136
  439SOL    HW1 2216   6.233   4.573   2.073
  439SOL    HW2 2217   6.197   4.728   2.109
  440SOL     OW 2218   0.895   2.443   3.627
  440SOL    HW1 2219   0.869   2.373   3.560
  440SOL    HW2 2220   0.859   2.417   3.717
  441SOL     OW 2221   1.712   1.511   3.049
  441SOL    HW1 2222   1.707   1.592   3.108
  441SOL    HW2 2223   1.697   1.538   2.954
  442SOL     OW 2224   6.646   3.973   6.985
  442SOL    HW1 2225   6.636   3.874   6.975
  442SOL    HW2 2226   6.601   4.003   0.045
  443SOL     OW 2227   1.375   3.787   5.283
  443SOL    HW1 2228   1.319   3.761   5.362
  443SOL    HW2 2229   1.442   3.856   5.311
  444SOL     OW 2230   4.537   2.553   6.191
  444SOL    HW1 2231   4.550   2.454   6.198
  444SOL    HW2 2232   4.606   2.592   6.131
  445SOL     OW 2233   2.215   4.450   3.676
  445SOL    HW1 2234   2.221   4.407   3.586
  445SOL    HW2 2235   2.248   4.387   3.746
  446SOL     OW 2236   3.912   5.107   3.720
  446SOL    HW1 2237   4.010   5.090   3.737
  446SOL    HW2 2238   3.885   5.062   3.635
  447SOL     OW 2239   7.003   5.151   7.021
  447SOL    HW1 2240   0.048   5.198   6.965
  447SOL    HW2 2241   0.000   5.054   0.002
  448SOL     OW 2242   4.248   0.818   5.258
  448SOL    HW1 2243   4.187   0.880   5.307
  448SOL    HW2 2244   4.194   0.754   5.204
  449SOL     OW 2245   6.266   1.132   4.693
  449SOL    HW1 2246   6.308   1.167   4.609
  449SOL    HW2 2247   6.193   1.194   4.722
  450SOL     OW 2248   0.145   5.817   3.639
  450SOL    HW1 2249   0.067   5.878   3.624
  450SOL    HW2 2250   0.212   5.862   3.696
  451SOL     OW 2251   0.557   1.461   2.280
  451SOL    HW1 2252   0.529   1.376   2.323
  451SOL    HW2 2253   0.591   1.525   2.350
  452SOL     OW 2254   0.269   4.221   0.694
  452SOL    HW1 2255   0.174   4.226   0.663
  452SOL    HW2 2256   0.323   4.287   0.643
  453SOL     OW 2257   3.068   1.555   6.486
  453SOL    HW1 2258   3.159   1.559   6.444
  453SOL    HW2 2259   3.044   1.645   6.521
  454SOL     OW 2260   0.463   6.427   6.804
  454SOL    HW1 2261   0.501   6.503   6.856
  454SOL    HW2 2262   0.513   6.343   6.826
  455SOL     OW 2263   6.198   0.531   3.962
  455SOL    HW1 2264   6.289   0.491   3.955
  455SOL    HW2 2265   6.132   0.459   3.986
  456SOL     OW 2266   4.512   5.623   6.558
  456SOL    HW1 2267   4.516   5.632   6.458
  456SOL    HW2 2268   4.423   5.656   6.590
  457SOL     OW 2269   2.281   4.252   3.112
  457SOL    HW1 2270   2.280   4.192   3.192
  457SOL    HW2 2271   2.187   4.279   3.089
  458SOL     OW 2272   5.833   5.843   5.568
  458SOL    HW1 2273   5.747   5.795   5.588
  458SOL    HW2 2274   5.873   5.876   5.654
  459SOL     OW 2275   1.184   0.525   2.812
  459SOL    HW1 2276   1.222   0.570   2.892
  459SOL    HW2 2277   1.128   0.447   2.841
  460SOL     OW 2278   6.461   1.452   2.404
  460SOL    HW1 2279   6.535   1.503   2.360
  460SOL    HW2 2280   6.476   1.449   2.502
  461SOL     OW 2281   4.557   6.893   5.101
  461SOL    HW1 2282   4.568   6.889   5.200
  461SOL    HW2 2283   4.617   6.827   5.057
  462SOL     OW 2284   3.166   2.859   6.257
  462SOL    HW1 2285   3.177   2.953   6.225
  462SOL    HW2 2286   3.229   2.800   6.208
  463SOL     OW 2287   6.267   5.204   3.286
  463SOL    HW1 2288   6.197   5.163   3.228
  463SOL    HW2 2289   6.292   5.294   3.250
  464SOL     OW 2290   1.875   1.372   6.912
  464SOL    HW1 2291   1.845   1.329   6.997
  464SOL    HW2 2292   1.799   1.421   6.871
  465SOL     OW 2293   0.334   1.881   3.862
  465SOL    HW1 2294   0.413   1.858   3.805
  465SOL    HW2 2295   0.308   1.801   3.916
  466SOL     OW 2296   0.662   6.844   3.631
  466SOL    HW1 2297   0.607   6.762   3.646
  466SOL    HW2 2298   0.602   6.924   3.629
  467SOL     OW 2299   1.132   0.389   5.372
  467SOL    HW1 2300   1.059   0.423   5.313
  467SOL    HW2 2301   1.122   0.290   5.385
  468SOL     OW 2302   4.064   5.680   1.157
  468SOL    HW1 2303   4.084   5.746   1.084
  468SOL    HW2 2304   4.142   5.674   1.219
  469SOL     OW 2305   2.228   5.616   0.388
  469SOL    HW1 2306   2.285   5.626   0.470
  469SOL    HW2 2307   2.163   5.541   0.401
  470SOL     OW 2308   4.464   0.438   2.029
  470SOL    HW1 2309   4.401   0.404   2.099
  470SOL    HW2 2310   4.515   0.362   1.990
  471SOL     OW 2311   1.865   2.610   4.830
  471SOL    HW1 2312   1.863   2.710   4.831
  471SOL    HW2 2313   1.877   2.578   4.736
  472SOL     OW 2314   5.105   4.922   6.374
  472SOL    HW1 2315   5.173   4.974   6.323
  472SOL    HW2 2316   5.018   4.973   6.375
  473SOL     OW 2317   0.585   2.785   2.081
  473SOL    HW1 2318   0.579   2.701   2.135
  473SOL    HW2 2319   0.678   2.795   2.045
  474SOL     OW 2320   4.110   5.372   4.051
  474SOL    HW1 2321   4.048   5.329   3.986
  474SOL    HW2 2322   4.177   5.428   4.002
  475SOL     OW 2323   6.954   6.748   6.555
  475SOL    HW1 2324   6.955   6.790   6.646
  475SOL    HW2 2325   0.020   6.708   6.537
  476SOL     OW 2326   6.218   4.401   2.471
  476SOL    HW1 2327   6.220   4.330   2.400
  476SOL    HW2 2328   6.311   4.432   2.491
  477SOL     OW 2329   2.118   5.104   4.495
  477SOL    HW1 2330   2.139   5.202   4.497
  477SOL    HW2 2331   2.125   5.070   4.402
  478SOL     OW 2332   3.626   5.388   3.142
  478SOL    HW1 2333   3.628   5.343   3.232
  478SOL    HW2 2334   3.642   5.486   3.154
  479SOL     OW 2335   2.609   2.477   0.465
  479SOL    HW1 2336   2.611   2.567   0.510
  479SOL    HW2 2337   2.674   2.416   0.509
  480SOL     OW 2338   1.720   0.103   2.076
  480SOL    HW1 2339   1.769   0.170   2.021
  480SOL    HW2 2340   1.718   0.133   2.172
  481SOL     OW 2341   2.946   0.422   1.733
  481SOL    HW1 2342   3.005   0.495   1.696
  481SOL    HW2 2343   2.878   0.462   1.794
  482SOL     OW 2344   5.459   4.580   2.603
  482SOL    HW1 2345   5.486   4.491   2.638
  482SOL    HW2 2346   5.361   4.594   2.619
  483SOL     OW 2347   5.659   1.774   2.243
  483SOL    HW1 2348   5.643   1.686   2.286
  483SOL    HW2 2349   5.696   1.761   2.151
  484SOL     OW 2350   0.336   2.865   4.124
  484SOL    HW1 2351   0.252   2.917   4.111
  484SOL    HW2 2352   0.376   2.843   4.034
  485SOL     OW 2353   3.613   4.913   2.338
  485SOL    HW1 2354   3.690   4.903   2.275
  485SOL    HW2 2355   3.529   4.925   2.286
  486SOL     OW 2356   1.055   1.512   0.554
  486SOL    HW1 2357   1.111   1.430   0.561
  486SOL    HW2 2358   1.074   1.573   0.631
  487SOL     OW 2359   0.569   2.293   0.130
  487SOL    HW1 2360   0.525   2.225   0.188
  487SOL    HW2 2361   0.652   2.254   0.090
  488SOL     OW 2362   0.513   1.861   1.573
  488SOL    HW1 2363   0.508   1.762   1.564
  488SOL    HW2 2364   0.599   1.886   1.617
  489SOL     OW 2365   3.878   6.139   0.063
  489SOL    HW1 2366   3.837   6.185   0.142
  489SOL    HW2 2367   3.857   6.190   7.003
  490SOL     OW 2368   6.121   6.475   3.812
  490SOL    HW1 2369   6.034   6.480   3.860
  490SOL    HW2 2370   6.121   6.394   3.752
  491SOL     OW 2371   0.403   2.602   2.499
  491SOL    HW1 2372   0.410   2.512   2.458
  491SOL    HW2 2373   0.307   2.622   2.520
  492SOL     OW 2374   3.209   0.819   5.707
  492SOL    HW1 2375   3.273   0.840   5.632
  492SOL    HW2 2376   3.125   0.873   5.694
  493SOL     OW 2377   6.600   4.667   6.078
  493SOL    HW1 2378   6.535   4.592   6.083
  493SOL    HW2 2379   6.692   4.629   6.061
  494SOL     OW 2380   0.613   6.114   0.056
  494SOL    HW1 2381   0.527   6.145   0.098
  494SOL    HW2 2382   0.624   6.157   6.990
  495SOL     OW 2383   5.139   4.981   2.837
  495SOL    HW1 2384   5.218   5.042   2.846
  495SOL    HW2 2385   5.100   4.990   2.745
  496SOL     OW 2386   5.671   3.218   3.129
  496SOL    HW1 2387   5.625   3.138   3.168
  496SOL    HW2 2388   5.697   3.198   3.035
  497SOL     OW 2389   3.317   0.943   5.046
  497SOL    HW1 2390   3.380   0.878   5.002
  497SOL    HW2 2391   3.367   1.025   5.072
  498SOL     OW 2392   0.971   2.928   2.580
  498SOL    HW1 2393   0.985   2.893   2.487
  498SOL    HW2 2394   0.928   3.018   2.575
  499SOL     OW 2395   3.340   0.405   4.420
  499SOL    HW1 2396   3.272   0.443   4.483
  499SOL    HW2 2397   3.298   0.392   4.330
  500SOL     OW 2398   0.564   4.213   3.277
  500SOL    HW1 2399   0.657   4.240   3.301
  500SOL    HW2 2400   0.519   4.288   3.228
  501SOL     OW 2401   2.569   2.533   6.998
  501SOL    HW1 2402   2.626   2.453   6.981
  501SOL    HW2 2403   2.584   2.566   0.067
  502SOL     OW 2404   4.766   4.167   5.724
  502SOL    HW1 2405   4.708   4.237   5.766
  502SOL    HW2 2406   4.730   4.076   5.748
  503SOL     OW 2407   6.238   4.279   6.019
  503SOL    HW1 2408   6.141   4.299   6.014
  503SOL    HW2 2409   6.254   4.183   5.993
  504SOL     OW 2410   2.185   6.038   4.420
  504SOL    HW1 2411   2.088   6.017   4.403
  504SOL    HW2 2412   2.224   5.968   4.480
  505SOL     OW 2413   3.928   0.120   6.242
  505SOL    HW1 2414   3.988   0.059   6.293
  505SOL    HW2 2415   3.977   0.159   6.164
  506SOL     OW 2416   1.753   4.465   4.968
  506SOL    HW1 2417   1.790   4.477   5.060
  506SOL    HW2 2418   1.722   4.370   4.957
  507SOL     OW 2419   2.984   0.344   4.501
  507SOL    HW1 2420   2.928   0.371   4.579
  507SOL    HW2 2421   3.011   0.248   4.511
  508SOL     OW 2422   5.870   3.365   2.783
  508SOL    HW1 2423   5.967   3.347   2.765
  508SOL    HW2 2424   5.862   3.441   2.847
  509SOL     OW 2425   4.187   1.222   1.778
  509SOL    HW1 2426   4.271   1.221   1.832
  509SOL    HW2 2427   4.205   1.264   1.689
  510SOL     OW 2428   6.549   4.677   5.718
  510SOL    HW1 2429   6.456   4.641   5.725
  510SOL    HW2 2430   6.575   4.683   5.621
  511SOL     OW 2431   0.446   6.237   0.489
  511SOL    HW1 2432   0.361   6.249   0.540
  511SOL    HW2 2433   0.519   6.291   0.532
  512SOL     OW 2434   1.362   3.500   6.971
  512SOL    HW1 2435   1.326   3.507   0.041
  512SOL    HW2 2436   1.442   3.441   6.970
  513SOL     OW 2437   6.525   5.915   3.029
  513SOL    HW1 2438   6.570   5.831   3.059
  513SOL    HW2 2439   6.531   5.984   3.101
  514SOL     OW 2440   0.081   2.219   4.294
  514SOL    HW1 2441   0.071   2.132   4.246
  514SOL    HW2 2442   7.021   2.273   4.284
  515SOL     OW 2443   2.390   6.913   5.788
  515SOL    HW1 2444   2.364   7.001   5.749
  515SOL    HW2 2445   2.475   6.882   5.746
  516SOL     OW 2446   2.875   4.974   1.579
  516SOL    HW1 2447   2.856   4.911   1.655
  516SOL    HW2 2448   2.906   5.062   1.616
  517SOL     OW 2449   4.989   6.763   1.727
  517SOL    HW1 2450   4.975   6.713   1.641
  517SOL    HW2 2451   5.061   6.718   1.779
  518SOL     OW 2452   2.291   2.433   1.897
  518SOL    HW1 2453   2.224   2.361   1.913
  518SOL    HW2 2454   2.286   2.500   1.971
  519SOL     OW 2455   0.154   0.377   4.854
  519SOL    HW1 2456   0.134   0.399   4.950
  519SOL    HW2 2457   0.231   0.433   4.823
  520SOL     OW 2458   5.436   4.619   6.024
  520SOL    HW1 2459   5.438   4.528   6.065
  520SOL    HW2 2460   5.445   4.610   5.925
  521SOL     OW 2461   0.051   1.834   6.190
  521SOL    HW1 2462   0.116   1.909   6.186
  521SOL    HW2 2463   6.985   1.869   6.216
  522SOL     OW 2464   3.876   2.886   5.400
  522SOL    HW1 2465   3.884   2.787   5.396
  522SOL    HW2 2466   3.928   2.927   5.324
  523SOL     OW 2467   6.764   6.761   4.009
  523SOL    HW1 2468   6.760   6.822   3.931
  523SOL    HW2 2469   6.672   6.728   4.031
  524SOL     OW 2470   2.684   0.779   6.805
  524SOL    HW1 2471   2.601   0.798   6.856
  524SOL    HW2 2472   2.705   0.857   6.745
  525SOL     OW 2473   2.874   3.469   6.227
  525SOL    HW1 2474   2.775   3.471   6.245
  525SOL    HW2 2475   2.921   3.528   6.292
  526SOL     OW 2476   3.003   5.084   4.686
  526SOL    HW1 2477   3.053   5.035   4.614
  526SOL    HW2 2478   2.928   5.027   4.719
  527SOL     OW 2479   6.755   1.334   5.914
  527SOL    HW1 2480   6.759   1.380   6.003
  527SOL    HW2 2481   6.741   1.402   5.842
  528SOL     OW 2482   1.415   1.323   4.905
  528SOL    HW1 2483   1.367   1.344   4.820
  528SOL    HW2 2484   1.483   1.252   4.889
  529SOL     OW 2485   0.961   5.134   4.917
  529SOL    HW1 2486   1.055   5.105   4.937
  529SOL    HW2 2487   0.952   5.232   4.937
  530SOL     OW 2488   2.511   3.214   5.378
  530SOL    HW1 2489   2.471   3.303   5.358
  530SOL    HW2 2490   2.485   3.148   5.308
  531SOL     OW 2491   0.274   0.276   1.157
  531SOL    HW1 2492   0.209   0.211   1.196
  531SOL    HW2 2493   0.234   0.368   1.160
  532SOL     OW 2494   1.340   1.727   5.557
  532SOL    HW1 2495   1.270   1.770   5.613
  532SOL    HW2 2496   1.351   1.779   5.472
  533SOL     OW 2497   5.230   6.513   4.892
  533SOL    HW1 2498   5.224   6.462   4.978
  533SOL    HW2 2499   5.230   6.450   4.815
  534SOL     OW 2500   4.602   5.702   3.110
  534SOL    HW1 2501   4.601   5.612   3.065
  534SOL    HW2 2502   4.604   5.690   3.209
  535SOL     OW 2503   0.351   3.882   3.666
  535SOL    HW1 2504   0.430   3.944   3.666
  535SOL    HW2 2505   0.383   3.787   3.663
  536SOL     OW 2506   0.919   5.536   1.261
  536SOL    HW1 2507   1.009   5.560   1.297
  536SOL    HW2 2508   0.861   5.501   1.334
  537SOL     OW 2509   2.721   6.461   3.066
  537SOL    HW1 2510   2.716   6.361   3.070
  537SOL    HW2 2511   2.634   6.497   3.033
  538SOL     OW 2512   1.492   5.445   3.528
  538SOL    HW1 2513   1.496   5.465   3.430
  538SOL    HW2 2514   1.423   5.374   3.545
  539SOL     OW 2515   1.095   5.513   1.497
  539SOL    HW1 2516   1.192   5.495   1.514
  539SOL    HW2 2517   1.040   5.455   1.557
  540SOL     OW 2518   0.649   1.895   2.663
  540SOL    HW1 2519   0.662   1.988   2.628
  540SOL    HW2 2520   0.720   1.874   2.730
  541SOL     OW 2521   2.963   6.178   4.963
  541SOL    HW1 2522   2.945   6.083   4.989
  541SOL    HW2 2523   2.932   6.193   4.869
  542SOL     OW 2524   5.757   6.043   0.005
  542SOL    HW1 2525   5.752   6.068   0.101
  542SOL    HW2 2526   5.824   5.969   7.017
  543SOL     OW 2527   1.232   4.896   6.789
  543SOL    HW1 2528   1.199   4.805   6.816
  543SOL    HW2 2529   1.192   4.921   6.701
  544SOL     OW 2530   0.722   5.412   0.600
  544SOL    HW1 2531   0.787   5.412   0.524
  544SOL    HW2 2532   0.642   5.468   0.576
  545SOL     OW 2533   3.930   1.431   2.826
  545SOL    HW1 2534   3.977   1.426   2.913
  545SOL    HW2 2535   3.833   1.453   2.841
  546SOL     OW 2536   1.099   3.446   1.483
  546SOL    HW1 2537   1.119   3.540   1.454
  546SOL    HW2 2538   1.046   3.399   1.411
  547SOL     OW 2539   2.787   2.785   0.849
  547SOL    HW1 2540   2.807   2.879   0.877
  547SOL    HW2 2541   2.861   2.752   0.790
  548SOL     OW 2542   3.961   3.089   3.996
  548SOL    HW1 2543   3.915   3.054   4.078
  548SOL    HW2 2544   3.923   3.044   3.915
  549SOL     OW 2545   5.063   3.780   1.524
  549SOL    HW1 2546   5.100   3.812   1.611
  549SOL    HW2 2547   5.017   3.692   1.537
  550SOL     OW 2548   6.868   2.919   2.190
  550SOL    HW1 2549   6.776   2.879   2.186
  550SOL    HW2 2550   6.903   2.931   2.097
  551SOL     OW 2551   6.895   1.367   0.788
  551SOL    HW1 2552   6.828   1.441   0.783
  551SOL    HW2 2553   6.974   1.397   0.842
  552SOL     OW 2554   3.846   5.132   0.776
  552SOL    HW1 2555   3.870   5.164   0.684
  552SOL    HW2 2556   3.844   5.032   0.777
  553SOL     OW 2557   2.032   1.021   1.862
  553SOL    HW1 2558   2.016   0.996   1.957
  553SOL    HW2 2559   2.054   1.119   1.857
  554SOL     OW 2560   5.411   7.012   5.812
  554SOL    HW1 2561   5.386   6.979   5.903
  554SOL    HW2 2562   5.510   7.009   5.801
  555SOL     OW 2563   1.791   4.768   4.629
  555SOL    HW1 2564   1.817   4.858   4.664
  555SOL    HW2 2565   1.853   4.699   4.666
  556SOL     OW 2566   6.179   2.195   3.553
  556SOL    HW1 2567   6.161   2.222   3.459
  556SOL    HW2 2568   6.265   2.235   3.584
  557SOL     OW 2569   6.705   5.827   6.393
  557SOL    HW1 2570   6.642   5.905   6.384
  557SOL    HW2 2571   6.799   5.858   6.377
  558SOL     OW 2572   4.375   3.615   5.240
  558SOL    HW1 2573   4.343   3.529   5.280
  558SOL    HW2 2574   4.469   3.604   5.207
  559SOL     OW 2575   0.167   5.749   6.547
  559SOL    HW1 2576   0.085   5.695   6.565
  559SOL    HW2 2577   0.181   5.813   6.622
  560SOL     OW 2578   4.773   6.478   0.042
  560SOL    HW1 2579   4.686   6.428   0.046
  560SOL    HW2 2580   4.838   6.435   0.104
  561SOL     OW 2581   5.929   6.858   0.510
  561SOL    HW1 2582   6.018   6.815   0.525
  561SOL    HW2 2583   5.941   6.956   0.497
  562SOL     OW 2584   5.333   1.103   6.158
  562SOL    HW1 2585   5.367   1.181   6.106
  562SOL    HW2 2586   5.316   1.026   6.096
  563SOL     OW 2587   2.481   6.162   3.923
  563SOL    HW1 2588   2.534   6.077   3.919
  563SOL    HW2 2589   2.543   6.239   3.930
  564SOL     OW 2590   1.004   1.596   6.687
  564SOL    HW1 2591   0.956   1.519   6.645
  564SOL    HW2 2592   1.098   1.600   6.652
  565SOL     OW 2593   4.512   3.680   5.693
  565SOL    HW1 2594   4.423   3.681   5.737
  565SOL    HW2 2595   4.582   3.710   5.758
  566SOL     OW 2596   4.404   5.352   3.428
  566SOL    HW1 2597   4.413   5.332   3.525
  566SOL    HW2 2598   4.489   5.328   3.381
  567SOL     OW 2599   3.157   2.957   4.831
  567SOL    HW1 2600   3.079   2.903   4.798
  567SOL    HW2 2601   3.230   2.953   4.763
  568SOL     OW 2602   3.252   2.571   0.170
  568SOL    HW1 2603   3.155   2.575   0.195
  568SOL    HW2 2604   3.271   2.641   0.101
  569SOL     OW 2605   1.569   2.763   0.728
  569SOL    HW1 2606   1.607   2.677   0.761
  569SOL    HW2 2607   1.580   2.768   0.628
  570SOL     OW 2608   1.137   6.538   0.656
  570SOL    HW1 2609   1.228   6.524   0.695
  570SOL    HW2 2610   1.142   6.604   0.582
  571SOL     OW 2611   3.701   5.173   2.640
  571SOL    HW1 2612   3.610   5.170   2.597
  571SOL    HW2 2613   3.691   5.195   2.737
  572SOL     OW 2614   1.949   3.875   5.591
  572SOL    HW1 2615   1.971   3.935   5.668
  572SOL    HW2 2616   1.853   3.888   5.566
  573SOL     OW 2617   4.507   1.287   5.408
  573SOL    HW1 2618   4.460   1.204   5.377
  573SOL    HW2 2619   4.444   1.343   5.460
  574SOL     OW 2620   2.482   2.079   3.846
  574SOL    HW1 2621   2.423   2.109   3.920
  574SOL    HW2 2622   2.550   2.015   3.881
  575SOL     OW 2623   6.472   2.943   0.307
  575SOL    HW1 2624   6.408   2.866   0.312
  575SOL    HW2 2625   6.557   2.918   0.353
  576SOL     OW 2626   1.080   2.032   2.646
  576SOL    HW1 2627   1.173   2.018   2.680
  576SOL    HW2 2628   1.017   1.973   2.695
  577SOL     OW 2629   2.685   1.757   3.713
  577SOL    HW1 2630   2.692   1.667   3.669
  577SOL    HW2 2631   2.645   1.822   3.649
  578SOL     OW 2632   0.257   3.208   3.586
  578SOL    HW1 2633   0.333   3.213   3.521
  578SOL    HW2 2634   0.220   3.115   3.588
  579SOL     OW 2635   4.627   2.017   0.338
  579SOL    HW1 2636   4.644   1.999   0.435
  579SOL    HW2 2637   4.576   2.103   0.328
  580SOL     OW 2638   1.460   5.271   6.597
  580SOL    HW1 2639   1.521   5.271   6.676
  580SOL    HW2 2640   1.366   5.259   6.628
  581SOL     OW 2641   4.148   3.346   2.906
  581SOL    HW1 2642   4.168   3.415   2.975
  581SOL    HW2 2643   4.104   3.388   2.827
  582SOL     OW 2644   5.024   4.037   2.823
  582SOL    HW1 2645   5.096   4.049   2.891
  582SOL    HW2 2646   4.951   4.103   2.839
  583SOL     OW 2647   2.277   4.324   0.230
  583SOL    HW1 2648   2.224   4.300   0.310
  583SOL    HW2 2649   2.234   4.285   0.148
  584SOL     OW 2650   0.362   4.770   4.909
  584SOL    HW1 2651   0.363   4.750   4.811
  584SOL    HW2 2652   0.284   4.829   4.929
  585SOL     OW 2653   6.811   2.191   6.132
  585SOL    HW1 2654   6.829   2.137   6.050
  585SOL    HW2 2655   6.720   2.232   6.126
  586SOL     OW 2656   2.615   6.584   0.798
  586SOL    HW1 2657   2.532   6.556   0.846
  586SOL    HW2 2658   2.693   6.577   0.861
  587SOL     OW 2659   0.910   3.388   5.905
  587SOL    HW1 2660   0.930   3.318   5.974
  587SOL    HW2 2661   0.844   3.453   5.943
  588SOL     OW 2662   3.378   6.070   1.480
  588SOL    HW1 2663   3.465   6.118   1.480
  588SOL    HW2 2664   3.321   6.104   1.404
  589SOL     OW 2665   3.855   5.309   2.453
  589SOL    HW1 2666   3.930   5.355   2.502
  589SOL    HW2 2667   3.798   5.259   2.519
  590SOL     OW 2668   0.020   2.411   1.829
  590SOL    HW1 2669   6.992   2.482   1.783
  590SOL    HW2 2670   0.118   2.430   1.819
  591SOL     OW 2671   3.626   0.291   3.537
  591SOL    HW1 2672   3.711   0.279   3.589
  591SOL    HW2 2673   3.564   0.351   3.587
  592SOL     OW 2674   4.861   0.534   0.238
  592SOL    HW1 2675   4.778   0.590   0.235
  592SOL    HW2 2676   4.893   0.525   0.332
  593SOL     OW 2677   4.933   2.470   4.094
  593SOL    HW1 2678   4.945   2.425   4.006
  593SOL    HW2 2679   4.843   2.446   4.132
  594SOL     OW 2680   3.980   4.214   1.468
  594SOL    HW1 2681   3.958   4.199   1.372
  594SOL    HW2 2682   4.038   4.139   1.501
  595SOL     OW 2683   3.792   6.143   4.003
  595SOL    HW1 2684   3.742   6.218   3.961
  595SOL    HW2 2685   3.753   6.123   4.093
  596SOL     OW 2686   0.781   4.714   2.875
  596SOL    HW1 2687   0.842   4.789   2.850
  596SOL    HW2 2688   0.835   4.632   2.893
  597SOL     OW 2689   4.434   0.200   6.028
  597SOL    HW1 2690   4.380   0.191   5.944
  597SOL    HW2 2691   4.381   0.250   6.097
  598SOL     OW 2692   3.923   4.347   0.377
  598SOL    HW1 2693   3.893   4.255   0.403
  598SOL    HW2 2694   3.897   4.411   0.449
  599SOL     OW 2695   6.738   0.196   2.493
  599SOL    HW1 2696   6.694   0.206   2.582
  599SOL    HW2 2697   6.836   0.182   2.505
  600SOL     OW 2698   1.650   0.217   0.159
  600SOL    HW1 2699   1.623   0.312   0.176
  600SOL    HW2 2700   1.638   0.196   0.062
  601SOL     OW 2701   2.975   5.768   4.117
  601SOL    HW1 2702   2.980   5.867   4.126
  601SOL    HW2 2703   2.899   5.744   4.057
  602SOL     OW 2704   2.177   0.495   1.442
  602SOL    HW1 2705   2.267   0.505   1.484
  602SOL    HW2 2706   2.187   0.482   1.343
  603SOL     OW 2707   3.965   2.153   3.161
  603SOL    HW1 2708   3.909   2.086   3.111
  603SOL    HW2 2709   4.009   2.214   3.095
  604SOL     OW 2710   1.054   3.426   6.274
  604SOL    HW1 2711   1.146   3.413   6.236
  604SOL    HW2 2712   0.990   3.363   6.229
  605SOL     OW 2713   5.881   6.791   3.396
  605SOL    HW1 2714   5.838   6.850   3.328
  605SOL    HW2 2715   5.853   6.820   3.488
  606SOL     OW 2716   3.954   0.761   3.458
  606SOL    HW1 2717   3.942   0.680   3.515
  606SOL    HW2 2718   3.999   0.833   3.511
  607SOL     OW 2719   5.228   1.367   4.031
  607SOL    HW1 2720   5.210   1.272   4.004
  607SOL    HW2 2721   5.186   1.429   3.965
  608SOL     OW 2722   3.955   0.785   0.642
  608SOL    HW1 2723   4.051   0.812   0.634
  608SOL    HW2 2724   3.896   0.861   0.615
  609SOL     OW 2725   3.380   2.930   4.094
  609SOL    HW1 2726   3.334   2.997   4.036
  609SOL    HW2 2727   3.312   2.869   4.135
  610SOL     OW 2728   5.513   2.608   4.331
  610SOL    HW1 2729   5.504   2.602   4.431
  610SOL    HW2 2730   5.426   2.640   4.292
  611SOL     OW 2731   0.356   0.279   0.539
  611SOL    HW1 2732   0.442   0.309   0.579
  611SOL    HW2 2733   0.279   0.318   0.591
  612SOL     OW 2734   2.662   5.120   6.105
  612SOL    HW1 2735   2.630   5.089   6.194
  612SOL    HW2 2736   2.601   5.192   6.071
  613SOL     OW 2737   3.703   1.517   6.677
  613SOL    HW1 2738   3.800   1.501   6.657
  613SOL    HW2 2739   3.688   1.506   6.775
  614SOL     OW 2740   5.686   4.537   1.279
  614SOL    HW1 2741   5.587   4.551   1.276
  614SOL    HW2 2742   5.705   4.439   1.272
  615SOL     OW 2743   0.293   6.617   0.999
  615SOL    HW1 2744   0.245   6.653   0.919
  615SOL    HW2 2745   0.383   6.660   1.006
  616SOL     OW 2746   5.573   1.118   4.169
  616SOL    HW1 2747   5.625   1.090   4.088
  616SOL    HW2 2748   5.534   1.209   4.154
  617SOL     OW 2749   0.672   4.823   5.808
  617SOL    HW1 2750   0.711   4.877   5.733
  617SOL    HW2 2751   0.573   4.815   5.794
  618SOL     OW 2752   5.988   3.422   0.659
  618SOL    HW1 2753   5.911   3.413   0.596
  618SOL    HW2 2754   6.013   3.518   0.667
  619SOL     OW 2755   2.827   0.208   0.887
  619SOL    HW1 2756   2.815   0.294   0.838
  619SOL    HW2 2757   2.778   0.135   0.839
  620SOL     OW 2758   5.753   1.693   1.986
  620SOL    HW1 2759   5.742   1.595   1.971
  620SOL    HW2 2760   5.749   1.741   1.898
  621SOL     OW 2761   3.491   0.768   6.276
  621SOL    HW1 2762   3.573   0.822   6.258
  621SOL    HW2 2763   3.487   0.693   6.210
  622SOL     OW 2764   1.183   1.716   5.044
  622SOL    HW1 2765   1.162   1.651   4.971
  622SOL    HW2 2766   1.219   1.800   5.004
  623SOL     OW 2767   5.920   6.575   3.990
  623SOL    HW1 2768   5.833   6.622   3.978
  623SOL    HW2 2769   5.995   6.642   3.989
  624SOL     OW 2770   6.482   0.644   6.619
  624SOL    HW1 2771   6.518   0.711   6.555
  624SOL    HW2 2772   6.548   0.628   6.692
  625SOL     OW 2773   2.727   0.804   0.404
  625SOL    HW1 2774   2.793   0.747   0.452
  625SOL    HW2 2775   2.640   0.803   0.452
  626SOL     OW 2776   0.587   4.727   3.802
  626SOL    HW1 2777   0.610   4.820   3.831
  626SOL    HW2 2778   0.622   4.711   3.710
  627SOL     OW 2779   6.779   0.473   6.990
  627SOL    HW1 2780   6.746   0.385   7.023
  627SOL    HW2 2781   6.816   0.526   0.043
  628SOL     OW 2782   4.954   4.982   5.388
  628SOL    HW1 2783   4.890   5.027   5.450
  628SOL    HW2 2784   5.044   4.977   5.431
  629SOL     OW 2785   0.040   0.026   6.195
  629SOL    HW1 2786   7.023   0.039   6.285
  629SOL    HW2 2787   0.081   6.958   6.189
  630SOL     OW 2788   6.497   1.271   0.948
  630SOL    HW1 2789   6.405   1.237   0.930
  630SOL    HW2 2790   6.562   1.228   0.885
  631SOL     OW 2791   2.021   2.456   4.984
  631SOL    HW1 2792   1.977   2.527   4.929
  631SOL    HW2 2793   1.952   2.391   5.016
  632SOL     OW 2794   2.825   3.141   0.043
  632SOL    HW1 2795   2.861   3.139   0.137
  632SOL    HW2 2796   2.880   3.081   7.009
  633SOL     OW 2797   2.011   5.591   1.749
  633SOL    HW1 2798   1.943   5.520   1.731
  633SOL    HW2 2799   2.029   5.641   1.664
  634SOL     OW 2800   2.985   3.305   4.120
  634SOL    HW1 2801   2.941   3.370   4.182
  634SOL    HW2 2802   2.956   3.323   4.026
  635SOL     OW 2803   5.897   0.818   6.339
  635SOL    HW1 2804   5.837   0.796   6.416
  635SOL    HW2 2805   5.878   0.911   6.308
  636SOL     OW 2806   2.497   0.652   6.605
  636SOL    HW1 2807   2.522   0.702   6.688
  636SOL    HW2 2808   2.475   0.716   6.532
  637SOL     OW 2809   6.541   1.195   1.427
  637SOL    HW1 2810   6.489   1.120   1.386
  637SOL    HW2 2811   6.553   1.269   1.361
  638SOL     OW 2812   6.495   3.504   3.966
  638SOL    HW1 2813   6.463   3.598   3.964
  638SOL    HW2 2814   6.516   3.478   4.061
  639SOL     OW 2815   5.062   4.832   3.237
  639SOL    HW1 2816   5.137   4.837   3.171
  639SOL    HW2 2817   4.992   4.769   3.202
  640SOL     OW 2818   0.922   2.225   2.318
  640SOL    HW1 2819   0.951   2.148   2.261
  640SOL    HW2 2820   0.906   2.304   2.259
  641SOL     OW 2821   1.871   5.037   4.645
  641SOL    HW1 2822   1.942   5.054   4.577
  641SOL    HW2 2823   1.796   5.101   4.632
  642SOL     OW 2824   0.840   4.014   5.139
  642SOL    HW1 2825   0.777   3.939   5.161
  642SOL    HW2 2826   0.932   3.978   5.127
  643SOL     OW 2827   4.785   4.750   6.686
  643SOL    HW1 2828   4.762   4.730   6.591
  643SOL    HW2 2829   4.702   4.774   6.737
  644SOL     OW 2830   6.603   6.868   4.759
  644SOL    HW1 2831   6.618   6.882   4.857
  644SOL    HW2 2832   6.689   6.885   4.710
  645SOL     OW 2833   4.284   4.681   2.310
  645SOL    HW1 2834   4.303   4.706   2.405
  645SOL    HW2 2835   4.190   4.648   2.303
  646SOL     OW 2836   4.213   0.423   5.623
  646SOL    HW1 2837   4.299   0.403   5.575
  646SOL    HW2 2838   4.167   0.500   5.579
  647SOL     OW 2839   4.719   2.380   5.122
  647SOL    HW1 2840   4.620   2.379   5.139
  647SOL    HW2 2841   4.767   2.406   5.205
  648SOL     OW 2842   5.842   2.236   3.279
  648SOL    HW1 2843   5.753   2.227   3.234
  648SOL    HW2 2844   5.898   2.156   3.257
  649SOL     OW 2845   2.100   5.125   0.764
  649SOL    HW1 2846   2.008   5.145   0.798
  649SOL    HW2 2847   2.135   5.205   0.716
  650SOL     OW 2848   6.750   5.212   1.096
  650SOL    HW1 2849   6.695   5.201   1.180
  650SOL    HW2 2850   6.830   5.268   1.116
  651SOL     OW 2851   1.682   6.917   4.856
  651SOL    HW1 2852   1.727   6.989   4.909
  651SOL    HW2 2853   1.673   6.835   4.913
  652SOL     OW 2854   3.656   6.664   1.583
  652SOL    HW1 2855   3.716   6.683   1.660
  652SOL    HW2 2856   3.566   6.705   1.600
  653SOL     OW 2857   1.074   6.178   1.856
  653SOL    HW1 2858   1.109   6.268   1.881
  653SOL    HW2 2859   1.059   6.174   1.757
  654SOL     OW 2860   0.101   6.762   4.934
  654SOL    HW1 2861   0.142   6.675   4.962
  654SOL    HW2 2862   0.033   6.745   4.862
  655SOL     OW 2863   0.043   4.906   2.023
  655SOL    HW1 2864   0.131   4.861   2.039
  655SOL    HW2 2865   0.048   4.961   1.940
  656SOL     OW 2866   3.537   6.508   0.187
  656SOL    HW1 2867   3.599   6.561   0.245
  656SOL    HW2 2868   3.482   6.447   0.244
  657SOL     OW 2869   3.716   3.003   1.965
  657SOL    HW1 2870   3.707   3.070   2.039
  657SOL    HW2 2871   3.677   2.915   1.995
  658SOL     OW 2872   2.184   3.980   4.034
  658SOL    HW1 2873   2.092   3.945   4.014
  658SOL    HW2 2874   2.218   4.031   3.955
  659SOL     OW 2875   2.266   6.544   5.832
  659SOL    HW1 2876   2.265   6.555   5.931
  659SOL    HW2 2877   2.249   6.448   5.808
  660SOL     OW 2878   4.853   4.072   2.328
  660SOL    HW1 2879   4.842   4.096   2.232
  660SOL    HW2 2880   4.950   4.074   2.352
  661SOL     OW 2881   4.581   4.507   4.452
  661SOL    HW1 2882   4.512   4.549   4.393
  661SOL    HW2 2883   4.553   4.515   4.547
  662SOL     OW 2884   4.773   3.188   0.412
  662SOL    HW1 2885   4.768   3.287   0.393
  662SOL    HW2 2886   4.682   3.155   0.435
  663SOL     OW 2887   0.423   4.408   0.562
  663SOL    HW1 2888   0.495   4.407   0.631
  663SOL    HW2 2889   0.463   4.434   0.474
  664SOL     OW 2890   1.583   6.863   6.880
  664SOL    HW1 2891   1.498   6.899   6.919
  664SOL    HW2 2892   1.588   6.889   6.783
  665SOL     OW 2893   4.457   5.636   0.759
  665SOL    HW1 2894   4.434   5.553   0.810
  665SOL    HW2 2895   4.413   5.715   0.802
  666SOL     OW 2896   3.880   1.990   0.028
  666SOL    HW1 2897   3.802   1.974   0.089
  666SOL    HW2 2898   3.965   1.983   0.081
  667SOL     OW 2899   0.868   3.210   2.888
  667SOL    HW1 2900   0.851   3.299   2.930
  667SOL    HW2 2901   0.941   3.164   2.938
  668SOL     OW 2902   4.891   6.889   0.846
  668SOL    HW1 2903   4.864   6.985   0.849
  668SOL    HW2 2904   4.846   6.844   0.769
  669SOL     OW 2905   1.802   5.681   3.425
  669SOL    HW1 2906   1.837   5.757   3.479
  669SOL    HW2 2907   1.766   5.715   3.339
  670SOL     OW 2908   3.300   3.682   3.806
  670SOL    HW1 2909   3.383   3.628   3.807
  670SOL    HW2 2910   3.317   3.771   3.850
  671SOL     OW 2911   2.021   0.009   5.722
  671SOL    HW1 2912   2.047   0.077   5.790
  671SOL    HW2 2913   2.045   6.941   5.755
  672SOL     OW 2914   2.158   3.529   4.031
  672SOL    HW1 2915   2.173   3.446   4.085
  672SOL    HW2 2916   2.129   3.603   4.091
  673SOL     OW 2917   5.305   0.596   0.615
  673SOL    HW1 2918   5.242   0.636   0.549
  673SOL    HW2 2919   5.309   0.497   0.602
  674SOL     OW 2920   0.435   1.444   3.737
  674SOL    HW1 2921   0.535   1.442   3.735
  674SOL    HW2 2922   0.401   1.492   3.657
  675SOL     OW 2923   6.934   2.637   4.710
  675SOL    HW1 2924   6.982   2.558   4.671
  675SOL    HW2 2925   6.975   2.660   4.798
  676SOL     OW 2926   1.661   4.725   4.413
  676SOL    HW1 2927   1.729   4.693   4.347
  676SOL    HW2 2928   1.704   4.735   4.503
  677SOL     OW 2929   6.244   0.408   0.811
  677SOL    HW1 2930   6.222   0.357   0.894
  677SOL    HW2 2931   6.243   0.506   0.831
  678SOL     OW 2932   2.727   1.100   6.113
  678SOL    HW1 2933   2.642   1.080   6.163
  678SOL    HW2 2934   2.716   1.074   6.017
  679SOL     OW 2935   4.507   0.369   2.407
  679SOL    HW1 2936   4.446   0.447   2.390
  679SOL    HW2 2937   4.594   0.384   2.362
  680SOL     OW 2938   4.557   4.599   6.141
  680SOL    HW1 2939   4.597   4.548   6.217
  680SOL    HW2 2940   4.487   4.544   6.096
  681SOL     OW 2941   0.728   6.837   1.369
  681SOL    HW1 2942   0.741   6.756   1.425
  681SOL    HW2 2943   0.647   6.887   1.400
  682SOL     OW 2944   1.796   5.761   6.798
  682SOL    HW1 2945   1.812   5.802   6.709
  682SOL    HW2 2946   1.805   5.662   6.791
  683SOL     OW 2947   4.515   1.747   0.243
  683SOL    HW1 2948   4.482   1.786   0.157
  683SOL    HW2 2949   4.553   1.820   0.300
  684SOL     OW 2950   0.316   5.631   6.326
  684SOL    HW1 2951   0.275   5.546   6.292
  684SOL    HW2 2952   0.246   5.683   6.376
  685SOL     OW 2953   5.514   0.327   5.619
  685SOL    HW1 2954   5.533   0.417   5.579
  685SOL    HW2 2955   5.597   0.292   5.664
  686SOL     OW 2956   5.188   4.494   2.906
  686SOL    HW1 2957   5.099   4.454   2.927
  686SOL    HW2 2958   5.260   4.426   2.922
  687SOL     OW 2959   7.006   3.702   6.001
  687SOL    HW1 2960   6.926   3.725   6.057
  687SOL    HW2 2961   0.036   3.785   5.983
  688SOL     OW 2962   0.282   4.165   5.956
  688SOL    HW1 2963   0.281   4.264   5.940
  688SOL    HW2 2964   0.225   4.143   6.035
  689SOL     OW 2965   6.392   3.827   6.008
  689SOL    HW1 2966   6.473   3.807   5.954
  689SOL    HW2 2967   6.367   3.747   6.063
  690SOL     OW 2968   1.501   2.218   3.405
  690SOL    HW1 2969   1.475   2.129   3.442
  690SOL    HW2 2970   1.428   2.251   3.345
  691SOL     OW 2971   0.814   2.633   6.588
  691SOL    HW1 2972   0.817   2.608   6.491
  691SOL    HW2 2973   0.719   2.635   6.619
  692SOL     OW 2974   2.636   0.205   2.687
  692SOL    HW1 2975   2.604   0.291   2.729
  692SOL    HW2 2976   2.664   0.142   2.759
  693SOL     OW 2977   0.035   2.337   2.480
  693SOL    HW1 2978   6.977   2.384   2.448
  693SOL    HW2 2979   0.009   2.256   2.533
  694SOL     OW 2980   2.037   6.699   1.084
  694SOL    HW1 2981   2.009   6.764   1.013
  694SOL    HW2 2982   1.983   6.615   1.076
  695SOL     OW 2983   5.097   5.965   5.392
  695SOL    HW1 2984   5.159   6.024   5.341
  695SOL    HW2 2985   5.095   5.993   5.488
  696SOL     OW 2986   4.446   4.707   2.562
  696SOL    HW1 2987   4.371   4.723   2.627
  696SOL    HW2 2988   4.533   4.726   2.607
  697SOL     OW 2989   1.032   4.050   4.280
  697SOL    HW1 2990   1.067   4.054   4.186
  697SOL    HW2 2991   0.957   3.984   4.285
  698SOL     OW 2992   4.664   0.242   3.224
  698SOL    HW1 2993   4.663   0.298   3.141
  698SOL    HW2 2994   4.598   0.167   3.214
  699SOL     OW 2995   1.615   3.936   1.022
  699SOL    HW1 2996   1.657   4.013   1.071
  699SOL    HW2 2997   1.647   3.935   0.928
  700SOL     OW 2998   2.792   2.226   4.381
  700SOL    HW1 2999   2.828   2.174   4.458
  700SOL    HW2 3000   2.863   2.237   4.312
  701SOL     OW 3001   0.404   3.704   6.227
  701SOL    HW1 3002   0.363   3.779   6.280
  701SOL    HW2 3003   0.405   3.728   6.130
  702SOL     OW 3004   5.198   6.409   4.306
  702SOL    HW1 3005   5.155   6.445   4.223
  702SOL    HW2 3006   5.142   6.336   4.344
  703SOL     OW 3007   3.768   3.895   6.834
  703SOL    HW1 3008   3.754   3.920   6.739
  703SOL    HW2 3009   3.765   3.977   6.891
  704SOL     OW 3010   1.669   0.209   6.886
  704SOL    HW1 3011   1.681   0.307   6.870
  704SOL    HW2 3012   1.758   0.163   6.884
  705SOL     OW 3013   6.003   1.733   2.081
  705SOL    HW1 3014   5.918   1.738   2.030
  705SOL    HW2 3015   6.075   1.781   2.031
  706SOL     OW 3016   3.949   1.803   3.772
  706SOL    HW1 3017   4.027   1.759   3.815
  706SOL    HW2 3018   3.974   1.895   3.742
  707SOL     OW 3019   4.826   0.513   1.366
  707SOL    HW1 3020   4.778   0.478   1.285
  707SOL    HW2 3021   4.921   0.481   1.365
  708SOL     OW 3022   4.020   0.832   1.465
  708SOL    HW1 3023   4.036   0.858   1.560
  708SOL    HW2 3024   4.085   0.881   1.406
  709SOL     OW 3025   0.997   4.767   0.549
  709SOL    HW1 3026   0.959   4.677   0.574
  709SOL    HW2 3027   1.048   4.758   0.464
  710SOL     OW 3028   3.082   3.765   2.692
  710SOL    HW1 3029   3.120   3.676   2.668
  710SOL    HW2 3030   3.093   3.828   2.616
  711SOL     OW 3031   6.758   1.201   4.374
  711SOL    HW1 3032   6.823   1.266   4.334
  711SOL    HW2 3033   6.758   1.211   4.474
  712SOL     OW 3034   1.322   3.950   1.320
  712SOL    HW1 3035   1.342   3.962   1.223
  712SOL    HW2 3036   1.325   3.853   1.344
  713SOL     OW 3037   3.985   3.461   2.730
  713SOL    HW1 3038   3.987   3.372   2.684
  713SOL    HW2 3039   3.901   3.509   2.706
  714SOL     OW 3040   5.207   4.799   5.007
  714SOL    HW1 3041   5.201   4.807   4.908
  714SOL    HW2 3042   5.148   4.866   5.050
  715SOL     OW 3043   4.236   0.139   6.334
  715SOL    HW1 3044   4.332   0.140   6.361
  715SOL    HW2 3045   4.180   0.117   6.414
  716SOL     OW 3046   0.277   4.673   1.340
  716SOL    HW1 3047   0.231   4.642   1.423
  716SOL    HW2 3048   0.375   4.656   1.347
  717SOL     OW 3049   5.980   2.924   0.587
  717SOL    HW1 3050   5.990   3.008   0.533
  717SOL    HW2 3051   6.065   2.872   0.584
  718SOL     OW 3052   3.492   3.598   5.941
  718SOL    HW1 3053   3.555   3.633   6.010
  718SOL    HW2 3054   3.519   3.505   5.915
  719SOL     OW 3055   6.168   4.355   0.843
  719SOL    HW1 3056   6.093   4.352   0.909
  719SOL    HW2 3057   6.172   4.268   0.794
  720SOL     OW 3058   2.307   1.655   6.442
  720SOL    HW1 3059   2.314   1.736   6.383
  720SOL    HW2 3060   2.336   1.574   6.391
  721SOL     OW 3061   1.593   6.990   6.041
  721SOL    HW1 3062   1.657   7.024   5.972
  721SOL    HW2 3063   1.534   0.041   6.072
  722SOL     OW 3064   3.935   0.202   4.944
  722SOL    HW1 3065   4.028   0.166   4.936
  722SOL    HW2 3066   3.885   0.184   4.860
  723SOL     OW 3067   1.268   2.764   2.111
  723SOL    HW1 3068   1.356   2.755   2.160
  723SOL    HW2 3069   1.284   2.754   2.013
  724SOL     OW 3070   0.082   0.702   4.554
  724SOL    HW1 3071   0.167   0.720   4.603
  724SOL    HW2 3072   0.012   0.767   4.583
  725SOL     OW 3073   1.921   4.899   2.410
  725SOL    HW1 3074   1.881   4.923   2.322
  725SOL    HW2 3075   2.020   4.918   2.408
  726SOL     OW 3076   3.701   0.138   6.824
  726SOL    HW1 3077   3.784   0.191   6.804
  726SOL    HW2 3078   3.722   0.041   6.821
  727SOL     OW 3079   2.977   5.082   3.954
  727SOL    HW1 3080   3.035   5.015   4.001
  727SOL    HW2 3081   3.007   5.091   3.859
  728SOL     OW 3082   6.827   4.235   4.842
  728SOL    HW1 3083   6.885   4.160   4.874
  728SOL    HW2 3084   6.884   4.310   4.810
  729SOL     OW 3085   2.496   0.500   1.276
  729SOL    HW1 3086   2.451   0.580   1.237
  729SOL    HW2 3087   2.466   0.488   1.371
  730SOL     OW 3088   6.456   0.558   3.394
  730SOL    HW1 3089   6.503   0.578   3.481
  730SOL    HW2 3090   6.448   0.642   3.341
  731SOL     OW 3091   5.780   3.856   4.656
  731SOL    HW1 3092   5.758   3.860   4.753
  731SOL    HW2 3093   5.814   3.945   4.625
  732SOL     OW 3094   6.685   2.948   0.950
  732SOL    HW1 3095   6.668   2.869   1.009
  732SOL    HW2 3096   6.696   2.917   0.856
  733SOL     OW 3097   4.752   4.201   3.814
  733SOL    HW1 3098   4.697   4.285   3.809
  733SOL    HW2 3099   4.712   4.140   3.883
  734SOL     OW 3100   6.614   4.443   1.152
  734SOL    HW1 3101   6.604   4.493   1.066
  734SOL    HW2 3102   6.688   4.483   1.206
  735SOL     OW 3103   2.068   4.275   6.502
  735SOL    HW1 3104   1.978   4.232   6.499
  735SOL    HW2 3105   2.124   4.242   6.426
  736SOL     OW 3106   6.950   0.409   3.418
  736SOL    HW1 3107   7.020   0.468   3.379
  736SOL    HW2 3108   6.990   0.350   3.488
  737SOL     OW 3109   5.227   3.637   0.745
  737SOL    HW1 3110   5.137   3.601   0.770
  737SOL    HW2 3111   5.221   3.680   0.655
  738SOL     OW 3112   0.181   3.902   3.899
  738SOL    HW1 3113   0.188   3.807   3.928
  738SOL    HW2 3114   0.222   3.912   3.808
  739SOL     OW 3115   4.155   6.073   5.970
  739SOL    HW1 3116   4.239   6.123   5.990
  739SOL    HW2 3117   4.082   6.138   5.946
  740SOL     OW 3118   6.630   6.701   1.584
  740SOL    HW1 3119   6.537   6.719   1.618
  740SOL    HW2 3120   6.632   6.715   1.485
  741SOL     OW 3121   2.017   6.239   3.128
  741SOL    HW1 3122   2.021   6.157   3.071
  741SOL    HW2 3123   2.059   6.315   3.080
  742SOL     OW 3124   1.390   6.649   3.352
  742SOL    HW1 3125   1.404   6.551   3.335
  742SOL    HW2 3126   1.384   6.665   3.450
  743SOL     OW 3127   1.846   3.944   3.899
  743SOL    HW1 3128   1.833   3.952   3.800
  743SOL    HW2 3129   1.844   3.847   3.925
  744SOL     OW 3130   0.262   5.719   0.243
  744SOL    HW1 3131   0.244   5.622   0.233
  744SOL    HW2 3132   0.354   5.740   0.209
  745SOL     OW 3133   1.892   5.736   2.677
  745SOL    HW1 3134   1.941   5.784   2.605
  745SOL    HW2 3135   1.951   5.727   2.757
  746SOL     OW 3136   1.428   0.302   4.767
  746SOL    HW1 3137   1.461   0.217   4.808
  746SOL    HW2 3138   1.478   0.379   4.806
  747SOL     OW 3139   4.527   5.021   3.595
  747SOL    HW1 3140   4.495   5.110   3.629
  747SOL    HW2 3141   4.626   5.025   3.579
  748SOL     OW 3142   4.251   3.762   1.060
  748SOL    HW1 3143   4.153   3.744   1.072
  748SOL    HW2 3144   4.273   3.761   0.963
  749SOL     OW 3145   0.475   2.363   5.163
  749SOL    HW1 3146   0.379   2.337   5.169
  749SOL    HW2 3147   0.520   2.348   5.251
  750SOL     OW 3148   2.063   3.573   6.927
  750SOL    HW1 3149   2.090   3.477   6.918
  750SOL    HW2 3150   1.972   3.578   6.967
  751SOL     OW 3151   4.600   1.081   0.191
  751SOL    HW1 3152   4.501   1.086   0.205
  751SOL    HW2 3153   4.621   1.105   0.096
  752SOL     OW 3154   4.337   2.115   2.128
  752SOL    HW1 3155   4.345   2.016   2.115
  752SOL    HW2 3156   4.402   2.161   2.068
  753SOL     OW 3157   2.113   2.968   4.638
  753SOL    HW1 3158   2.114   2.897   4.568
  753SOL    HW2 3159   2.112   3.058   4.595
  754SOL     OW 3160   4.201   4.815   6.716
  754SOL    HW1 3161   4.227   4.746   6.649
  754SOL    HW2 3162   4.104   4.805   6.738
  755SOL     OW 3163   0.787   6.074   0.277
  755SOL    HW1 3164   0.731   6.078   0.194
  755SOL    HW2 3165   0.775   5.984   0.321
  756SOL     OW 3166   4.838   0.795   1.543
  756SOL    HW1 3167   4.887   0.777   1.458
  756SOL    HW2 3168   4.869   0.732   1.614
  757SOL     OW 3169   0.278   6.670   3.370
  757SOL    HW1 3170   0.264   6.596   3.436
  757SOL    HW2 3171   0.202   6.734   3.374
  758SOL     OW 3172   3.632   2.142   1.135
  758SOL    HW1 3173   3.655   2.239   1.146
  758SOL    HW2 3174   3.688   2.087   1.197
  759SOL     OW 3175   0.832   1.987   0.242
  759SOL    HW1 3176   0.915   2.043   0.248
  759SOL    HW2 3177   0.807   1.956   0.334
  760SOL     OW 3178   5.440   1.230   0.019
  760SOL    HW1 3179   5.437   1.329   0.033
  760SOL    HW2 3180   5.353   1.189   0.049
  761SOL     OW 3181   6.198   2.452   0.050
  761SOL    HW1 3182   6.189   2.469   6.976
  761SOL    HW2 3183   6.134   2.511   0.100
  762SOL     OW 3184   2.284   5.959   3.618
  762SOL    HW1 3185   2.321   5.877   3.573
  762SOL    HW2 3186   2.312   5.960   3.714
  763SOL     OW 3187   4.261   5.721   6.617
  763SOL    HW1 3188   4.242   5.818   6.603
  763SOL    HW2 3189   4.204   5.686   6.691
  764SOL     OW 3190   3.468   1.712   1.827
  764SOL    HW1 3191   3.563   1.696   1.799
  764SOL    HW2 3192   3.457   1.807   1.855
  765SOL     OW 3193   0.216   6.734   2.710
  765SOL    HW1 3194   0.275   6.742   2.790
  765SOL    HW2 3195   0.127   6.775   2.731
  766SOL     OW 3196   6.972   6.588   6.888
  766SOL    HW1 3197   6.934   6.502   6.855
  766SOL    HW2 3198   0.045   6.576   6.911
  767SOL     OW 3199   6.531   6.340   2.360
  767SOL    HW1 3200   6.480   6.426   2.357
  767SOL    HW2 3201   6.510   6.285   2.279
  768SOL     OW 3202   2.915   6.833   2.947
  768SOL    HW1 3203   2.867   6.811   3.032
  768SOL    HW2 3204   3.012   6.845   2.966
  769SOL     OW 3205   4.664   0.202   5.096
  769SOL    HW1 3206   4.597   0.166   5.031
  769SOL    HW2 3207   4.746   0.230   5.047
  770SOL     OW 3208   3.225   5.053   3.582
  770SOL    HW1 3209   3.288   5.119   3.543
  770SOL    HW2 3210   3.210   5.074   3.679
  771SOL     OW 3211   1.361   5.207   3.285
  771SOL    HW1 3212   1.458   5.182   3.282
  771SOL    HW2 3213   1.322   5.204   3.193
  772SOL     OW 3214   6.584   4.242   6.763
  772SOL    HW1 3215   6.498   4.192   6.757
  772SOL    HW2 3216   6.660   4.178   6.769
  773SOL     OW 3217   6.771   4.393   2.881
  773SOL    HW1 3218   6.750   4.327   2.953
  773SOL    HW2 3219   6.867   4.386   2.856
  774SOL     OW 3220   1.634   1.436   1.663
  774SOL    HW1 3221   1.574   1.375   1.612
  774SOL    HW2 3222   1.582   1.515   1.695
  775SOL     OW 3223   1.409   2.022   4.461
  775SOL    HW1 3224   1.399   2.094   4.530
  775SOL    HW2 3225   1.319   2.002   4.421
  776SOL     OW 3226   1.977   0.631   6.287
  776SOL    HW1 3227   1.906   0.699   6.273
  776SOL    HW2 3228   1.958   0.579   6.370
  777SOL     OW 3229   4.423   0.993   1.084
  777SOL    HW1 3230   4.506   0.970   1.134
  777SOL    HW2 3231   4.442   0.991   0.985
  778SOL     OW 3232   4.295   0.661   3.738
  778SOL    HW1 3233   4.265   0.724   3.667
  778SOL    HW2 3234   4.219   0.602   3.765
  779SOL     OW 3235   0.866   2.427   2.142
  779SOL    HW1 3236   0.833   2.460   2.054
  779SOL    HW2 3237   0.835   2.488   2.214
  780SOL     OW 3238   6.069   3.019   4.371
  780SOL    HW1 3239   6.113   3.083   4.433
  780SOL    HW2 3240   6.006   3.068   4.311
  781SOL     OW 3241   6.727   1.048   6.101
  781SOL    HW1 3242   6.813   0.998   6.095
  781SOL    HW2 3243   6.724   1.117   6.028
  782SOL     OW 3244   0.630   3.103   0.925
  782SOL    HW1 3245   0.656   3.177   0.864
  782SOL    HW2 3246   0.582   3.032   0.873
  783SOL     OW 3247   3.419   5.442   0.612
  783SOL    HW1 3248   3.389   5.487   0.527
  783SOL    HW2 3249   3.338   5.413   0.664
  784SOL     OW 3250   3.945   1.128   5.006
  784SOL    HW1 3251   3.946   1.174   5.095
  784SOL    HW2 3252   3.943   1.196   4.933
  785SOL     OW 3253   6.285   1.406   3.166
  785SOL    HW1 3254   6.291   1.371   3.072
  785SOL    HW2 3255   6.194   1.389   3.203
  786SOL     OW 3256   0.102   6.704   0.144
  786SOL    HW1 3257   0.128   6.623   0.091
  786SOL    HW2 3258   0.179   6.733   0.200
  787SOL     OW 3259   2.826   1.923   6.385
  787SOL    HW1 3260   2.879   1.951   6.304
  787SOL    HW2 3261   2.739   1.885   6.355
  788SOL     OW 3262   2.004   3.589   4.480
  788SOL    HW1 3263   2.058   3.563   4.560
  788SOL    HW2 3264   1.908   3.569   4.497
  789SOL     OW 3265   5.391   3.958   1.486
  789SOL    HW1 3266   5.470   3.918   1.534
  789SOL    HW2 3267   5.361   3.895   1.414
  790SOL     OW 3268   2.826   1.146   3.543
  790SOL    HW1 3269   2.753   1.090   3.581
  790SOL    HW2 3270   2.825   1.236   3.587
  791SOL     OW 3271   3.466   1.340   4.975
  791SOL    HW1 3272   3.394   1.356   4.907
  791SOL    HW2 3273   3.548   1.391   4.949
  792SOL     OW 3274   5.855   0.446   2.378
  792SOL    HW1 3275   5.762   0.418   2.400
  792SOL    HW2 3276   5.856   0.543   2.357
  793SOL     OW 3277   5.323   0.295   0.684
  793SOL    HW1 3278   5.264   0.248   0.750
  793SOL    HW2 3279   5.418   0.269   0.699
  794SOL     OW 3280   2.700   4.637   5.822
  794SOL    HW1 3281   2.701   4.725   5.774
  794SOL    HW2 3282   2.610   4.594   5.810
  795SOL     OW 3283   4.044   4.987   6.067
  795SOL    HW1 3284   3.958   5.022   6.103
  795SOL    HW2 3285   4.091   4.934   6.137
  796SOL     OW 3286   6.806   2.907   5.981
  796SOL    HW1 3287   6.747   2.973   5.934
  796SOL    HW2 3288   6.857   2.954   6.052
  797SOL     OW 3289   5.751   2.736   3.786
  797SOL    HW1 3290   5.849   2.757   3.781
  797SOL    HW2 3291   5.735   2.670   3.860
  798SOL     OW 3292   5.315   0.690   0.213
  798SOL    HW1 3293   5.279   0.597   0.218
  798SOL    HW2 3294   5.356   0.715   0.301
  799SOL     OW 3295   6.570   1.853   3.156
  799SOL    HW1 3296   6.654   1.837   3.208
  799SOL    HW2 3297   6.514   1.921   3.204
  800SOL     OW 3298   5.080   1.211   2.226
  800SOL    HW1 3299   5.037   1.121   2.216
  800SOL    HW2 3300   5.064   1.245   2.318
  801SOL     OW 3301   0.373   2.160   3.142
  801SOL    HW1 3302   0.323   2.144   3.227
  801SOL    HW2 3303   0.337   2.241   3.096
  802SOL     OW 3304   5.380   1.426   0.380
  802SOL    HW1 3305   5.436   1.443   0.299
  802SOL    HW2 3306   5.362   1.512   0.428
  803SOL     OW 3307   6.279   5.384   4.210
  803SOL    HW1 3308   6.245   5.432   4.130
  803SOL    HW2 3309   6.202   5.354   4.266
  804SOL     OW 3310   0.556   6.809   0.163
  804SOL    HW1 3311   0.474   6.776   0.210
  804SOL    HW2 3312   0.637   6.784   0.216
  805SOL     OW 3313   3.226   2.891   5.950
  805SOL    HW1 3314   3.284   2.823   5.996
  805SOL    HW2 3315   3.283   2.949   5.892
  806SOL     OW 3316   4.928   2.260   6.724
  806SOL    HW1 3317   4.944   2.239   6.628
  806SOL    HW2 3318   4.829   2.268   6.740
  807SOL     OW 3319   1.038   0.835   2.986
  807SOL    HW1 3320   1.118   0.774   2.987
  807SOL    HW2 3321   1.067   0.926   2.955
  808SOL     OW 3322   5.215   2.925   5.773
  808SOL    HW1 3323   5.252   2.841   5.733
  808SOL    HW2 3324   5.290   2.987   5.795
  809SOL     OW 3325   0.744   4.551   0.393
  809SOL    HW1 3326   0.729   4.621   0.463
  809SOL    HW2 3327   0.837   4.516   0.400
  810SOL     OW 3328   5.437   3.821   0.145
  810SOL    HW1 3329   5.354   3.815   0.201
  810SOL    HW2 3330   5.460   3.917   0.130
  811SOL     OW 3331   5.214   4.974   3.935
  811SOL    HW1 3332   5.181   5.047   3.995
  811SOL    HW2 3333   5.175   4.887   3.966
  812SOL     OW 3334   0.104   0.103   1.291
  812SOL    HW1 3335   0.107   0.165   1.370
  812SOL    HW2 3336   0.084   0.010   1.323
  813SOL     OW 3337   4.474   5.449   2.771
  813SOL    HW1 3338   4.463   5.493   2.682
  813SOL    HW2 3339   4.479   5.350   2.758
  814SOL     OW 3340   5.608   6.580   1.810
  814SOL    HW1 3341   5.646   6.585   1.717
  814SOL    HW2 3342   5.604   6.484   1.839
  815SOL     OW 3343   6.587   2.505   0.755
  815SOL    HW1 3344   6.665   2.491   0.693
  815SOL    HW2 3345   6.530   2.423   0.755
  816SOL     OW 3346   6.850   6.417   0.659
  816SOL    HW1 3347   6.848   6.493   0.723
  816SOL    HW2 3348   6.860   6.452   0.566
  817SOL     OW 3349   1.808   3.461   2.123
  817SOL    HW1 3350   1.709   3.452   2.129
  817SOL    HW2 3351   1.836   3.455   2.027
  818SOL     OW 3352   6.248   1.943   0.833
  818SOL    HW1 3353   6.258   1.964   0.735
  818SOL    HW2 3354   6.171   1.880   0.846
  819SOL     OW 3355   6.729   2.292   3.257
  819SOL    HW1 3356   6.821   2.322   3.230
  819SOL    HW2 3357   6.695   2.351   3.330
  820SOL     OW 3358   0.728   2.629   4.277
  820SOL    HW1 3359   0.641   2.643   4.325
  820SOL    HW2 3360   0.802   2.674   4.328
  821SOL     OW 3361   1.255   3.746   0.300
  821SOL    HW1 3362   1.274   3.813   0.228
  821SOL    HW2 3363   1.249   3.793   0.388
  822SOL     OW 3364   0.770   4.362   4.546
  822SOL    HW1 3365   0.731   4.284   4.498
  822SOL    HW2 3366   0.853   4.335   4.593
  823SOL     OW 3367   4.453   3.901   6.797
  823SOL    HW1 3368   4.472   3.941   6.708
  823SOL    HW2 3369   4.469   3.802   6.793
  824SOL     OW 3370   4.752   2.798   5.526
  824SOL    HW1 3371   4.731   2.884   5.479
  824SOL    HW2 3372   4.696   2.792   5.610
  825SOL     OW 3373   2.101   3.372   2.414
  825SOL    HW1 3374   2.167   3.300   2.393
  825SOL    HW2 3375   2.101   3.439   2.339
  826SOL     OW 3376   5.820   3.072   6.748
  826SOL    HW1 3377   5.842   3.164   6.782
  826SOL    HW2 3378   5.760   3.079   6.669
  827SOL     OW 3379   3.656   5.786   0.312
  827SOL    HW1 3380   3.668   5.699   0.264
  827SOL    HW2 3381   3.725   5.793   0.385
  828SOL     OW 3382   5.677   0.887   5.207
  828SOL    HW1 3383   5.589   0.930   5.189
  828SOL    HW2 3384   5.722   0.933   5.284
  829SOL     OW 3385   3.067   3.072   4.176
  829SOL    HW1 3386   3.109   3.074   4.267
  829SOL    HW2 3387   3.031   3.162   4.154
  830SOL     OW 3388   4.675   3.946   5.293
  830SOL    HW1 3389   4.621   3.906   5.367
  830SOL    HW2 3390   4.665   4.045   5.294
  831SOL     OW 3391   6.027   0.791   4.985
  831SOL    HW1 3392   6.056   0.885   5.005
  831SOL    HW2 3393   6.091   0.750   4.920
  832SOL     OW 3394   2.037   2.376   0.174
  832SOL    HW1 3395   1.963   2.356   0.109
  832SOL    HW2 3396   2.124   2.380   0.125
  833SOL     OW 3397   6.260   7.013   6.815
  833SOL    HW1 3398   6.285   6.950   6.742
  833SOL    HW2 3399   6.301   0.079   6.798
  834SOL     OW 3400   2.898   3.740   4.259
  834SOL    HW1 3401   2.909   3.793   4.343
  834SOL    HW2 3402   2.960   3.774   4.189
  835SOL     OW 3403   3.025   6.618   4.177
  835SOL    HW1 3404   2.945   6.676   4.192
  835SOL    HW2 3405   3.014   6.567   4.092
  836SOL     OW 3406   3.148   0.350   0.271
  836SOL    HW1 3407   3.166   0.355   0.173
  836SOL    HW2 3408   3.234   0.363   0.321
  837SOL     OW 3409   5.253   0.633   6.145
  837SOL    HW1 3410   5.297   0.703   6.090
  837SOL    HW2 3411   5.156   0.653   6.155
  838SOL     OW 3412   2.181   5.719   4.276
  838SOL    HW1 3413   2.133   5.754   4.196
  838SOL    HW2 3414   2.257   5.661   4.248
  839SOL     OW 3415   2.898   1.526   3.325
  839SOL    HW1 3416   2.884   1.625   3.335
  839SOL    HW2 3417   2.889   1.482   3.413
  840SOL     OW 3418   1.439   1.070   0.025
  840SOL    HW1 3419   1.349   1.084   7.007
  840SOL    HW2 3420   1.479   0.984   7.016
  841SOL     OW 3421   6.813   3.790   0.279
  841SOL    HW1 3422   6.791   3.888   0.271
  841SOL    HW2 3423   6.906   3.774   0.246
  842SOL     OW 3424   3.603   4.989   3.352
  842SOL    HW1 3425   3.594   5.087   3.373
  842SOL    HW2 3426   3.700   4.966   3.342
  843SOL     OW 3427   6.362   2.265   1.962
  843SOL    HW1 3428   6.353   2.294   2.058
  843SOL    HW2 3429   6.375   2.166   1.959
  844SOL     OW 3430   5.038   5.897   0.413
  844SOL    HW1 3431   5.100   5.964   0.455
  844SOL    HW2 3432   4.974   5.863   0.482
  845SOL     OW 3433   6.885   4.437   4.388
  845SOL    HW1 3434   6.869   4.340   4.373
  845SOL    HW2 3435   6.865   4.488   4.305
  846SOL     OW 3436   6.302   1.356   6.859
  846SOL    HW1 3437   6.402   1.364   6.857
  846SOL    HW2 3438   6.272   1.300   6.782
  847SOL     OW 3439   5.217   3.410   1.808
  847SOL    HW1 3440   5.238   3.324   1.854
  847SOL    HW2 3441   5.289   3.476   1.827
  848SOL     OW 3442   6.158   0.242   5.969
  848SOL    HW1 3443   6.136   0.337   5.989
  848SOL    HW2 3444   6.221   0.238   5.892
  849SOL     OW 3445   0.343   5.176   4.854
  849SOL    HW1 3446   0.279   5.099   4.857
  849SOL    HW2 3447   0.391   5.175   4.766
  850SOL     OW 3448   4.205   1.193   2.978
  850SOL    HW1 3449   4.174   1.288   2.963
  850SOL    HW2 3450   4.265   1.165   2.904
  851SOL     OW 3451   0.842   1.158   6.842
  851SOL    HW1 3452   0.789   1.232   6.884
  851SOL    HW2 3453   0.938   1.183   6.839
  852SOL     OW 3454   2.476   3.241   6.703
  852SOL    HW1 3455   2.429   3.189   6.632
  852SOL    HW2 3456   2.559   3.193   6.731
  853SOL     OW 3457   1.125   2.980   1.647
  853SOL    HW1 3458   1.073   3.054   1.603
  853SOL    HW2 3459   1.131   2.902   1.585
  854SOL     OW 3460   5.410   5.433   2.598
  854SOL    HW1 3461   5.410   5.516   2.653
  854SOL    HW2 3462   5.460   5.361   2.647
  855SOL     OW 3463   5.687   0.121   1.817
  855SOL    HW1 3464   5.634   0.096   1.898
  855SOL    HW2 3465   5.722   0.038   1.773
  856SOL     OW 3466   2.084   6.069   5.164
  856SOL    HW1 3467   2.025   6.150   5.162
  856SOL    HW2 3468   2.033   5.989   5.133
  857SOL     OW 3469   5.902   3.332   1.295
  857SOL    HW1 3470   5.943   3.415   1.259
  857SOL    HW2 3471   5.845   3.289   1.224
  858SOL     OW 3472   3.264   5.186   1.595
  858SOL    HW1 3473   3.309   5.202   1.683
  858SOL    HW2 3474   3.322   5.126   1.539
  859SOL     OW 3475   0.003   4.854   6.949
  859SOL    HW1 3476   6.995   4.805   0.006
  859SOL    HW2 3477   0.094   4.821   6.923
  860SOL     OW 3478   2.792   4.782   1.172
  860SOL    HW1 3479   2.727   4.739   1.233
  860SOL    HW2 3480   2.868   4.820   1.225
  861SOL     OW 3481   3.204   5.857   5.679
  861SOL    HW1 3482   3.109   5.866   5.708
  861SOL    HW2 3483   3.262   5.847   5.760
  862SOL     OW 3484   5.191   4.191   4.633
  862SOL    HW1 3485   5.162   4.133   4.558
  862SOL    HW2 3486   5.224   4.135   4.709
  863SOL     OW 3487   0.076   0.974   1.075
  863SOL    HW1 3488   0.116   0.886   1.050
  863SOL    HW2 3489   0.027   0.965   1.162
  864SOL     OW 3490   6.071   4.049   2.583
  864SOL    HW1 3491   6.003   4.073   2.513
  864SOL    HW2 3492   6.093   4.131   2.637
  865SOL     OW 3493   1.785   6.530   4.321
  865SOL    HW1 3494   1.840   6.464   4.270
  865SOL    HW2 3495   1.751   6.600   4.258
  866SOL     OW 3496   3.338   1.967   1.886
  866SOL    HW1 3497   3.245   2.003   1.874
  866SOL    HW2 3498   3.371   1.990   1.977
  867SOL     OW 3499   2.793   2.745   6.917
  867SOL    HW1 3500   2.749   2.703   6.837
  867SOL    HW2 3501   2.723   2.785   6.976
  868SOL     OW 3502   5.623   1.365   3.124
  868SOL    HW1 3503   5.648   1.305   3.201
  868SOL    HW2 3504   5.699   1.369   3.059
  869SOL     OW 3505   6.177   5.935   1.760
  869SOL    HW1 3506   6.161   5.946   1.662
  869SOL    HW2 3507   6.114   5.993   1.811
  870SOL     OW 3508   6.621   1.686   1.156
  870SOL    HW1 3509   6.598   1.679   1.253
  870SOL    HW2 3510   6.600   1.778   1.123
  871SOL     OW 3511   6.100   2.454   1.271
  871SOL    HW1 3512   6.013   2.471   1.318
  871SOL    HW2 3513   6.174   2.454   1.338
  872SOL     OW 3514   6.417   2.298   3.632
  872SOL    HW1 3515   6.475   2.354   3.573
  872SOL    HW2 3516   6.468   2.270   3.713
  873SOL     OW 3517   3.249   6.840   4.454
  873SOL    HW1 3518   3.177   6.794   4.506
  873SOL    HW2 3519   3.334   6.787   4.461
  874SOL     OW 3520   1.234   3.972   5.632
  874SOL    HW1 3521   1.304   4.026   5.584
  874SOL    HW2 3522   1.145   3.988   5.590
  875SOL     OW 3523   5.774   3.638   0.319
  875SOL    HW1 3524   5.857   3.582   0.322
  875SOL    HW2 3525   5.729   3.636   0.409
  876SOL     OW 3526   0.284   3.292   1.755
  876SOL    HW1 3527   0.277   3.392   1.755
  876SOL    HW2 3528   0.203   3.253   1.711
  877SOL     OW 3529   4.787   5.888   0.042
  877SOL    HW1 3530   4.817   5.801   0.003
  877SOL    HW2 3531   4.689   5.884   0.059
  878SOL     OW 3532   2.867   5.042   0.578
  878SOL    HW1 3533   2.897   5.062   0.672
  878SOL    HW2 3534   2.829   4.950   0.573
  879SOL     OW 3535   4.305   2.369   2.773
  879SOL    HW1 3536   4.390   2.366   2.720
  879SOL    HW2 3537   4.246   2.292   2.746
  880SOL     OW 3538   3.741   5.514   0.578
  880SOL    HW1 3539   3.704   5.607   0.574
  880SOL    HW2 3540   3.763   5.483   0.485
  881SOL     OW 3541   3.784   4.963   4.716
  881SOL    HW1 3542   3.842   4.979   4.636
  881SOL    HW2 3543   3.692   4.996   4.698
  882SOL     OW 3544   1.328   0.700   3.964
  882SOL    HW1 3545   1.240   0.741   3.943
  882SOL    HW2 3546   1.323   0.651   4.051
  883SOL     OW 3547   3.167   5.563   6.008
  883SOL    HW1 3548   3.091   5.502   6.031
  883SOL    HW2 3549   3.191   5.551   5.912
  884SOL     OW 3550   5.408   3.174   1.977
  884SOL    HW1 3551   5.477   3.102   1.971
  884SOL    HW2 3552   5.359   3.166   2.064
  885SOL     OW 3553   5.532   6.176   0.698
  885SOL    HW1 3554   5.442   6.190   0.739
  885SOL    HW2 3555   5.577   6.265   0.688
  886SOL     OW 3556   4.672   1.855   6.569
  886SOL    HW1 3557   4.745   1.922   6.582
  886SOL    HW2 3558   4.706   1.779   6.514
  887SOL     OW 3559   3.875   6.632   5.727
  887SOL    HW1 3560   3.941   6.694   5.770
  887SOL    HW2 3561   3.833   6.574   5.797
  888SOL     OW 3562   6.334   5.705   3.078
  888SOL    HW1 3563   6.381   5.663   3.156
  888SOL    HW2 3564   6.372   5.796   3.061
  889SOL     OW 3565   0.529   6.342   5.195
  889SOL    HW1 3566   0.559   6.322   5.102
  889SOL    HW2 3567   0.574   6.280   5.259
  890SOL     OW 3568   2.682   4.790   2.121
  890SOL    HW1 3569   2.728   4.732   2.054
  890SOL    HW2 3570   2.709   4.886   2.105
  891SOL     OW 3571   5.314   3.037   6.842
  891SOL    HW1 3572   5.276   3.001   6.756
  891SOL    HW2 3573   5.410   3.011   6.849
  892SOL     OW 3574   2.785   4.979   0.968
  892SOL    HW1 3575   2.769   4.915   1.044
  892SOL    HW2 3576   2.714   4.967   0.898
  893SOL     OW 3577   1.128   0.376   6.898
  893SOL    HW1 3578   1.127   0.278   6.919
  893SOL    HW2 3579   1.113   0.389   6.800
  894SOL     OW 3580   1.054   5.546   4.102
  894SOL    HW1 3581   1.018   5.603   4.176
  894SOL    HW2 3582   1.094   5.605   4.032
  895SOL     OW 3583   2.348   6.477   4.820
  895SOL    HW1 3584   2.295   6.459   4.903
  895SOL    HW2 3585   2.311   6.558   4.774
  896SOL     OW 3586   5.692   6.999   2.691
  896SOL    HW1 3587   5.788   6.987   2.715
  896SOL    HW2 3588   5.635   6.939   2.747
  897SOL     OW 3589   5.294   1.993   6.334
  897SOL    HW1 3590   5.242   1.910   6.317
  897SOL    HW2 3591   5.389   1.970   6.355
  898SOL     OW 3592   5.858   6.231   3.208
  898SOL    HW1 3593   5.789   6.303   3.206
  898SOL    HW2 3594   5.813   6.141   3.211
  899SOL     OW 3595   0.359   4.493   5.691
  899SOL    HW1 3596   0.374   4.592   5.693
  899SOL    HW2 3597   0.267   4.473   5.725
  900SOL     OW 3598   0.839   5.534   3.175
  900SOL    HW1 3599   0.890   5.603   3.123
  900SOL    HW2 3600   0.741   5.544   3.156
  901SOL     OW 3601   6.130   1.386   4.281
  901SOL    HW1 3602   6.228   1.409   4.281
  901SOL    HW2 3603   6.094   1.394   4.188
  902SOL     OW 3604   0.231   6.444   0.452
  902SOL    HW1 3605   0.193   6.405   0.536
  902SOL    HW2 3606   0.276   6.531   0.473
  903SOL     OW 3607   1.499   5.061   0.545
  903SOL    HW1 3608   1.567   5.115   0.495
  903SOL    HW2 3609   1.408   5.101   0.531
  904SOL     OW 3610   1.754   1.798   3.680
  904SOL    HW1 3611   1.656   1.810   3.696
  904SOL    HW2 3612   1.803   1.880   3.710
  905SOL     OW 3613   5.827   2.211   5.224
  905SOL    HW1 3614   5.830   2.153   5.305
  905SOL    HW2 3615   5.809   2.155   5.143
  906SOL     OW 3616   6.394   3.213   5.901
  906SOL    HW1 3617   6.297   3.234   5.908
  906SOL    HW2 3618   6.444   3.262   5.972
  907SOL     OW 3619   5.952   2.249   2.428
  907SOL    HW1 3620   6.011   2.289   2.498
  907SOL    HW2 3621   5.950   2.309   2.348
  908SOL     OW 3622   1.783   0.876   4.274
  908SOL    HW1 3623   1.735   0.963   4.278
  908SOL    HW2 3624   1.773   0.836   4.183
  909SOL     OW 3625   3.943   1.505   1.981
  909SOL    HW1 3626   3.996   1.539   1.902
  909SOL    HW2 3627   3.851   1.481   1.951
  910SOL     OW 3628   2.220   1.955   0.660
  910SOL    HW1 3629   2.141   1.989   0.609
  910SOL    HW2 3630   2.278   1.900   0.599
  911SOL     OW 3631   0.077   4.688   1.138
  911SOL    HW1 3632   0.004   4.756   1.147
  911SOL    HW2 3633   0.141   4.698   1.214
  912SOL     OW 3634   0.808   6.649   5.880
  912SOL    HW1 3635   0.845   6.575   5.935
  912SOL    HW2 3636   0.880   6.686   5.820
  913SOL     OW 3637   3.072   0.765   2.439
  913SOL    HW1 3638   2.995   0.801   2.387
  913SOL    HW2 3639   3.137   0.838   2.458
  914SOL     OW 3640   2.865   6.275   2.688
  914SOL    HW1 3641   2.872   6.360   2.739
  914SOL    HW2 3642   2.849   6.199   2.751
  915SOL     OW 3643   0.489   2.840   0.527
  915SOL    HW1 3644   0.521   2.861   0.435
  915SOL    HW2 3645   0.488   2.741   0.540
  916SOL     OW 3646   2.178   3.035   2.560
  916SOL    HW1 3647   2.198   2.937   2.562
  916SOL    HW2 3648   2.193   3.071   2.468
  917SOL     OW 3649   4.036   1.680   0.278
  917SOL    HW1 3650   4.084   1.733   0.208
  917SOL    HW2 3651   3.960   1.734   0.315
  918SOL     OW 3652   1.739   0.335   6.413
  918SOL    HW1 3653   1.789   0.407   6.460
  918SOL    HW2 3654   1.793   0.250   6.414
  919SOL     OW 3655   2.736   6.087   2.529
  919SOL    HW1 3656   2.784   6.001   2.516
  919SOL    HW2 3657   2.758   6.125   2.618
  920SOL     OW 3658   2.089   0.922   3.804
  920SOL    HW1 3659   2.052   0.977   3.729
  920SOL    HW2 3660   2.037   0.837   3.812
  921SOL     OW 3661   5.637   5.543   4.699
  921SOL    HW1 3662   5.624   5.473   4.770
  921SOL    HW2 3663   5.721   5.524   4.649
  922SOL     OW 3664   2.776   3.323   6.603
  922SOL    HW1 3665   2.805   3.305   6.697
  922SOL    HW2 3666   2.714   3.402   6.601
  923SOL     OW 3667   3.209   0.307   6.684
  923SOL    HW1 3668   3.112   0.312   6.710
  923SOL    HW2 3669   3.261   0.264   6.758
  924SOL     OW 3670   5.598   2.992   3.244
  924SOL    HW1 3671   5.534   2.963   3.315
  924SOL    HW2 3672   5.690   2.963   3.267
  925SOL     OW 3673   7.003   1.792   3.573
  925SOL    HW1 3674   6.971   1.874   3.621
  925SOL    HW2 3675   6.951   1.713   3.605
  926SOL     OW 3676   5.012   6.185   0.736
  926SOL    HW1 3677   5.047   6.132   0.813
  926SOL    HW2 3678   4.912   6.191   0.742
  927SOL     OW 3679   3.884   5.006   4.951
  927SOL    HW1 3680   3.847   4.955   4.874
  927SOL    HW2 3681   3.815   5.012   5.023
  928SOL     OW 3682   1.824   1.680   1.034
  928SOL    HW1 3683   1.914   1.661   1.074
  928SOL    HW2 3684   1.757   1.616   1.069
  929SOL     OW 3685   0.069   2.084   2.213
  929SOL    HW1 3686   0.055   2.183   2.213
  929SOL    HW2 3687   0.009   2.042   2.144
  930SOL     OW 3688   5.320   5.800   4.289
  930SOL    HW1 3689   5.256   5.779   4.363
  930SOL    HW2 3690   5.269   5.836   4.210
  931SOL     OW 3691   1.768   2.731   2.602
  931SOL    HW1 3692   1.675   2.766   2.610
  931SOL    HW2 3693   1.832   2.802   2.632
  932SOL     OW 3694   4.654   6.485   1.037
  932SOL    HW1 3695   4.700   6.574   1.037
  932SOL    HW2 3696   4.582   6.484   0.968
  933SOL     OW 3697   2.036   5.731   2.900
  933SOL    HW1 3698   2.101   5.666   2.940
  933SOL    HW2 3699   1.953   5.734   2.957
  934SOL     OW 3700   2.919   1.129   5.073
  934SOL    HW1 3701   2.987   1.082   5.130
  934SOL    HW2 3702   2.956   1.142   4.981
  935SOL     OW 3703   3.727   3.394   6.478
  935SOL    HW1 3704   3.629   3.388   6.458
  935SOL    HW2 3705   3.741   3.395   6.577
  936SOL     OW 3706   1.130   1.549   1.227
  936SOL    HW1 3707   1.049   1.571   1.173
  936SOL    HW2 3708   1.106   1.481   1.296
  937SOL     OW 3709   4.959   1.832   4.827
  937SOL    HW1 3710   4.970   1.926   4.859
  937SOL    HW2 3711   5.040   1.803   4.777
  938SOL     OW 3712   0.285   2.740   6.686
  938SOL    HW1 3713   0.270   2.773   6.779
  938SOL    HW2 3714   0.210   2.680   6.659
  939SOL     OW 3715   6.072   1.133   5.686
  939SOL    HW1 3716   6.048   1.190   5.764
  939SOL    HW2 3717   5.996   1.072   5.664
  940SOL     OW 3718   6.767   0.976   3.987
  940SOL    HW1 3719   6.674   0.960   4.022
  940SOL    HW2 3720   6.827   0.902   4.018
  941SOL     OW 3721   5.840   2.562   4.532
  941SOL    HW1 3722   5.845   2.475   4.580
  941SOL    HW2 3723   5.799   2.548   4.442
  942SOL     OW 3724   5.748   6.642   5.342
  942SOL    HW1 3725   5.836   6.689   5.335
  942SOL    HW2 3726   5.761   6.544   5.331
  943SOL     OW 3727   5.443   2.226   1.490
  943SOL    HW1 3728   5.344   2.214   1.488
  943SOL    HW2 3729   5.477   2.216   1.583
  944SOL     OW 3730   5.381   4.478   4.146
  944SOL    HW1 3731   5.437   4.413   4.198
  944SOL    HW2 3732   5.315   4.522   4.207
  945SOL     OW 3733   5.499   4.167   4.887
  945SOL    HW1 3734   5.486   4.076   4.927
  945SOL    HW2 3735   5.442   4.233   4.936
  946SOL     OW 3736   5.569   2.384   5.134
  946SOL    HW1 3737   5.654   2.332   5.123
  946SOL    HW2 3738   5.585   2.479   5.108
  947SOL     OW 3739   2.068   2.532   6.114
  947SOL    HW1 3740   2.011   2.529   6.196
  947SOL    HW2 3741   2.084   2.627   6.087
  948SOL     OW 3742   3.943   2.285   0.169
  948SOL    HW1 3743   3.932   2.374   0.124
  948SOL    HW2 3744   4.014   2.293   0.239
  949SOL     OW 3745   6.058   5.860   6.501
  949SOL    HW1 3746   6.100   5.872   6.411
  949SOL    HW2 3747   5.974   5.807   6.492
  950SOL     OW 3748   4.574   5.009   1.339
  950SOL    HW1 3749   4.562   5.109   1.340
  950SOL    HW2 3750   4.637   4.984   1.266
  951SOL     OW 3751   0.679   1.540   2.975
  951SOL    HW1 3752   0.672   1.467   3.043
  951SOL    HW2 3753   0.625   1.618   3.004
  952SOL     OW 3754   5.332   1.772   2.646
  952SOL    HW1 3755   5.335   1.738   2.740
  952SOL    HW2 3756   5.237   1.775   2.614
  953SOL     OW 3757   4.537   6.644   6.609
  953SOL    HW1 3758   4.587   6.647   6.695
  953SOL    HW2 3759   4.531   6.549   6.578
  954SOL     OW 3760   6.474   6.680   0.429
  954SOL    HW1 3761   6.533   6.599   0.419
  954SOL    HW2 3762   6.392   6.669   0.373
  955SOL     OW 3763   0.416   6.705   2.889
  955SOL    HW1 3764   0.351   6.654   2.944
  955SOL    HW2 3765   0.484   6.642   2.851
  956SOL     OW 3766   1.392   2.677   1.223
  956SOL    HW1 3767   1.453   2.655   1.147
  956SOL    HW2 3768   1.418   2.766   1.262
  957SOL     OW 3769   2.078   5.598   4.498
  957SOL    HW1 3770   2.061   5.661   4.423
  957SOL    HW2 3771   2.038   5.635   4.582
  958SOL     OW 3772   4.730   2.676   1.036
  958SOL    HW1 3773   4.715   2.751   1.101
  958SOL    HW2 3774   4.722   2.589   1.083
  959SOL     OW 3775   1.994   4.568   3.048
  959SOL    HW1 3776   1.900   4.584   3.078
  959SOL    HW2 3777   2.024   4.645   2.991
  960SOL     OW 3778   1.510   5.504   4.203
  960SOL    HW1 3779   1.449   5.575   4.170
  960SOL    HW2 3780   1.476   5.414   4.175
  961SOL     OW 3781   4.107   0.361   2.035
  961SOL    HW1 3782   4.018   0.356   2.080
  961SOL    HW2 3783   4.102   0.423   1.957
  962SOL     OW 3784   1.767   0.754   4.034
  962SOL    HW1 3785   1.715   0.816   3.976
  962SOL    HW2 3786   1.725   0.663   4.030
  963SOL     OW 3787   6.627   0.299   0.685
  963SOL    HW1 3788   6.573   0.226   0.726
  963SOL    HW2 3789   6.714   0.262   0.653
  964SOL     OW 3790   5.775   3.226   1.902
  964SOL    HW1 3791   5.778   3.247   1.804
  964SOL    HW2 3792   5.712   3.150   1.918
  965SOL     OW 3793   0.441   2.130   0.293
  965SOL    HW1 3794   0.360   2.115   0.350
  965SOL    HW2 3795   0.476   2.042   0.261
  966SOL     OW 3796   6.742   2.450   2.689
  966SOL    HW1 3797   6.806   2.439   2.765
  966SOL    HW2 3798   6.659   2.397   2.708
  967SOL     OW 3799   1.782   5.903   1.655
  967SOL    HW1 3800   1.693   5.865   1.681
  967SOL    HW2 3801   1.840   5.831   1.618
  968SOL     OW 3802   5.023   3.209   2.680
  968SOL    HW1 3803   4.957   3.136   2.660
  968SOL    HW2 3804   5.005   3.287   2.621
  969SOL     OW 3805   4.795   5.630   5.769
  969SOL    HW1 3806   4.749   5.619   5.857
  969SOL    HW2 3807   4.730   5.662   5.701
  970SOL     OW 3808   4.441   2.347   5.168
  970SOL    HW1 3809   4.418   2.366   5.264
  970SOL    HW2 3810   4.367   2.379   5.109
  971SOL     OW 3811   6.243   1.425   1.634
  971SOL    HW1 3812   6.206   1.406   1.725
  971SOL    HW2 3813   6.293   1.512   1.636
  972SOL     OW 3814   6.397   5.193   0.848
  972SOL    HW1 3815   6.365   5.266   0.908
  972SOL    HW2 3816   6.331   5.179   0.775
  973SOL     OW 3817   5.594   4.051   5.544
  973SOL    HW1 3818   5.567   4.145   5.561
  973SOL    HW2 3819   5.687   4.049   5.508
  974SOL     OW 3820   2.337   1.185   3.675
  974SOL    HW1 3821   2.347   1.134   3.761
  974SOL    HW2 3822   2.412   1.250   3.665
  975SOL     OW 3823   3.192   6.533   5.334
  975SOL    HW1 3824   3.133   6.613   5.331
  975SOL    HW2 3825   3.145   6.459   5.382
  976SOL     OW 3826   0.087   4.808   3.394
  976SOL    HW1 3827   0.081   4.723   3.447
  976SOL    HW2 3828   0.039   4.881   3.442
  977SOL     OW 3829   2.091   0.796   3.396
  977SOL    HW1 3830   2.074   0.878   3.450
  977SOL    HW2 3831   2.091   0.716   3.456
  978SOL     OW 3832   5.542   3.351   4.257
  978SOL    HW1 3833   5.505   3.321   4.169
  978SOL    HW2 3834   5.504   3.441   4.279
  979SOL     OW 3835   6.111   0.812   3.056
  979SOL    HW1 3836   6.118   0.775   3.149
  979SOL    HW2 3837   6.108   0.912   3.059
  980SOL     OW 3838   5.877   1.849   4.544
  980SOL    HW1 3839   5.922   1.934   4.517
  980SOL    HW2 3840   5.795   1.835   4.489
  981SOL     OW 3841   0.492   1.951   5.072
  981SOL    HW1 3842   0.404   1.972   5.030
  981SOL    HW2 3843   0.564   1.957   5.002
  982SOL     OW 3844   1.094   3.431   1.804
  982SOL    HW1 3845   1.038   3.482   1.739
  982SOL    HW2 3846   1.089   3.475   1.893
  983SOL     OW 3847   6.215   2.200   2.758
  983SOL    HW1 3848   6.294   2.140   2.766
  983SOL    HW2 3849   6.201   2.249   2.844
  984SOL     OW 3850   4.256   2.007   4.326
  984SOL    HW1 3851   4.286   1.948   4.251
  984SOL    HW2 3852   4.256   2.102   4.295
  985SOL     OW 3853   3.661   5.818   0.876
  985SOL    HW1 3854   3.680   5.786   0.783
  985SOL    HW2 3855   3.707   5.758   0.942
  986SOL     OW 3856   4.133   5.031   6.431
  986SOL    HW1 3857   4.146   4.948   6.376
  986SOL    HW2 3858   4.081   5.098   6.379
  987SOL     OW 3859   4.267   6.571   2.621
  987SOL    HW1 3860   4.187   6.547   2.676
  987SOL    HW2 3861   4.237   6.620   2.539
  988SOL     OW 3862   3.530   3.665   1.343
  988SOL    HW1 3863   3.603   3.724   1.309
  988SOL    HW2 3864   3.568   3.575   1.366
  989SOL     OW 3865   0.565   0.421   5.744
  989SOL    HW1 3866   0.630   0.442   5.670
  989SOL    HW2 3867   0.514   0.504   5.767
  990SOL     OW 3868   4.383   0.451   3.970
  990SOL    HW1 3869   4.456   0.389   3.944
  990SOL    HW2 3870   4.296   0.416   3.936
  991SOL     OW 3871   0.317   1.639   5.166
  991SOL    HW1 3872   0.359   1.616   5.254
  991SOL    HW2 3873   0.255   1.565   5.140
  992SOL     OW 3874   0.501   3.670   6.990
  992SOL    HW1 3875   0.435   3.606   0.006
  992SOL    HW2 3876   0.531   3.635   6.901
  993SOL     OW 3877   2.868   4.845   2.944
  993SOL    HW1 3878   2.867   4.780   3.020
  993SOL    HW2 3879   2.850   4.796   2.859
  994SOL     OW 3880   3.009   3.161   2.923
  994SOL    HW1 3881   3.077   3.095   2.892
  994SOL    HW2 3882   3.036   3.198   3.011
  995SOL     OW 3883   1.883   1.774   5.253
  995SOL    HW1 3884   1.901   1.872   5.245
  995SOL    HW2 3885   1.941   1.724   5.188
  996SOL     OW 3886   2.159   3.969   2.555
  996SOL    HW1 3887   2.151   3.873   2.528
  996SOL    HW2 3888   2.112   3.984   2.641
  997SOL     OW 3889   0.256   0.822   1.676
  997SOL    HW1 3890   0.315   0.889   1.632
  997SOL    HW2 3891   0.186   0.869   1.730
  998SOL     OW 3892   4.206   6.827   2.475
  998SOL    HW1 3893   4.294   6.862   2.443
  998SOL    HW2 3894   4.152   6.901   2.513
  999SOL     OW 3895   6.890   5.501   1.352
  999SOL    HW1 3896   6.841   5.436   1.410
  999SOL    HW2 3897   6.846   5.591   1.359
 1000SOL     OW 3898   3.225   2.066   3.978
 1000SOL    HW1 3899   3.267   2.116   3.903
 1000SOL    HW2 3900   3.278   1.984   3.999
 1001SOL     OW 3901   5.068   0.323   5.629
 1001SOL    HW1 3902   5.156   0.285   5.657
 1001SOL    HW2 3903   5.051   0.407   5.680
 1002SOL     OW 3904   6.001   1.186   0.378
 1002SOL    HW1 3905   5.948   1.256   0.330
 1002SOL    HW2 3906   5.981   1.096   0.338
 1003SOL     OW 3907   3.855   5.984   2.738
 1003SOL    HW1 3908   3.876   5.917   2.810
 1003SOL    HW2 3909   3.819   5.937   2.658
 1004SOL     OW 3910   6.652   6.821   0.230
 1004SOL    HW1 3911   6.554   6.835   0.240
 1004SOL    HW2 3912   6.687   6.770   0.309
 1005SOL     OW 3913   0.716   0.042   3.232
 1005SOL    HW1 3914   0.636   0.090   3.269
 1005SOL    HW2 3915   0.726   6.978   3.277
 1006SOL     OW 3916   2.464   5.139   1.020
 1006SOL    HW1 3917   2.387   5.200   1.002
 1006SOL    HW2 3918   2.464   5.114   1.117
 1007SOL     OW 3919   0.289   1.073   3.296
 1007SOL    HW1 3920   0.216   1.034   3.352
 1007SOL    HW2 3921   0.306   1.168   3.324
 1008SOL     OW 3922   1.480   3.398   3.964
 1008SOL    HW1 3923   1.478   3.454   3.881
 1008SOL    HW2 3924   1.420   3.439   4.033
 1009SOL     OW 3925   0.877   6.315   4.963
 1009SOL    HW1 3926   0.876   6.256   5.043
 1009SOL    HW2 3927   0.840   6.405   4.987
 1010SOL     OW 3928   4.696   2.653   0.617
 1010SOL    HW1 3929   4.714   2.748   0.593
 1010SOL    HW2 3930   4.688   2.598   0.534
 1011SOL     OW 3931   2.516   5.695   3.662
 1011SOL    HW1 3932   2.537   5.793   3.664
 1011SOL    HW2 3933   2.458   5.671   3.739
 1012SOL     OW 3934   5.156   5.358   0.004
 1012SOL    HW1 3935   5.236   5.405   6.991
 1012SOL    HW2 3936   5.121   5.294   6.960
 1013SOL     OW 3937   0.860   0.873   0.635
 1013SOL    HW1 3938   0.814   0.921   0.561
 1013SOL    HW2 3939   0.891   0.783   0.602
 1014SOL     OW 3940   5.068   6.450   5.956
 1014SOL    HW1 3941   5.082   6.380   6.027
 1014SOL    HW2 3942   5.150   6.507   5.950
 1015SOL     OW 3943   3.662   5.962   4.542
 1015SOL    HW1 3944   3.576   5.913   4.559
 1015SOL    HW2 3945   3.734   5.924   4.599
 1016SOL     OW 3946   3.764   2.918   1.111
 1016SOL    HW1 3947   3.747   2.900   1.208
 1016SOL    HW2 3948   3.835   2.856   1.078
 1017SOL     OW 3949   4.464   2.633   0.313
 1017SOL    HW1 3950   4.403   2.592   0.245
 1017SOL    HW2 3951   4.479   2.729   0.290
 1018SOL     OW 3952   1.054   2.487   3.245
 1018SOL    HW1 3953   1.027   2.395   3.219
 1018SOL    HW2 3954   1.105   2.485   3.331
 1019SOL     OW 3955   0.372   1.510   6.582
 1019SOL    HW1 3956   0.309   1.444   6.541
 1019SOL    HW2 3957   0.409   1.570   6.511
 1020SOL     OW 3958   2.391   1.346   1.672
 1020SOL    HW1 3959   2.320   1.415   1.667
 1020SOL    HW2 3960   2.473   1.379   1.625
 1021SOL     OW 3961   6.815   1.033   0.961
 1021SOL    HW1 3962   6.741   1.056   0.898
 1021SOL    HW2 3963   6.898   1.013   0.910
 1022SOL     OW 3964   4.095   3.631   6.116
 1022SOL    HW1 3965   4.037   3.628   6.035
 1022SOL    HW2 3966   4.098   3.724   6.153
 1023SOL     OW 3967   5.519   0.613   2.437
 1023SOL    HW1 3968   5.579   0.635   2.514
 1023SOL    HW2 3969   5.524   0.687   2.370
 1024SOL     OW 3970   6.784   1.692   3.878
 1024SOL    HW1 3971   6.821   1.676   3.786
 1024SOL    HW2 3972   6.728   1.614   3.905
 1025SOL     OW 3973   3.546   5.336   1.135
 1025SOL    HW1 3974   3.487   5.338   1.054
 1025SOL    HW2 3975   3.520   5.410   1.197
 1026SOL     OW 3976   1.994   1.863   0.105
 1026SOL    HW1 3977   2.059   1.787   0.103
 1026SOL    HW2 3978   1.916   1.837   0.163
 1027SOL     OW 3979   2.953   4.875   2.393
 1027SOL    HW1 3980   3.044   4.915   2.390
 1027SOL    HW2 3981   2.934   4.827   2.308
 1028SOL     OW 3982   1.446   5.979   0.713
 1028SOL    HW1 3983   1.535   5.977   0.669
 1028SOL    HW2 3984   1.405   6.069   0.701
 1029SOL     OW 3985   2.290   0.151   6.461
 1029SOL    HW1 3986   2.322   0.232   6.412
 1029SOL    HW2 3987   2.355   0.129   6.534
 1030SOL     OW 3988   4.007   3.633   5.213
 1030SOL    HW1 3989   3.925   3.683   5.185
 1030SOL    HW2 3990   4.050   3.680   5.291
 1031SOL     OW 3991   2.641   5.353   2.122
 1031SOL    HW1 3992   2.659   5.324   2.215
 1031SOL    HW2 3993   2.572   5.426   2.123
 1032SOL     OW 3994   1.367   1.285   4.536
 1032SOL    HW1 3995   1.392   1.330   4.450
 1032SOL    HW2 3996   1.268   1.273   4.540
 1033SOL     OW 3997   2.793   5.635   2.005
 1033SOL    HW1 3998   2.809   5.541   1.977
 1033SOL    HW2 3999   2.730   5.636   2.083
 1034SOL     OW 4000   1.984   4.829   3.797
 1034SOL    HW1 4001   1.951   4.882   3.875
 1034SOL    HW2 4002   1.919   4.837   3.721
 1035SOL     OW 4003   3.042   0.913   4.624
 1035SOL    HW1 4004   3.115   0.936   4.560
 1035SOL    HW2 4005   3.071   0.938   4.717
 1036SOL     OW 4006   4.406   3.050   0.847
 1036SOL    HW1 4007   4.468   2.971   0.853
 1036SOL    HW2 4008   4.367   3.054   0.755
 1037SOL     OW 4009   2.379   1.301   0.224
 1037SOL    HW1 4010   2.375   1.212   0.269
 1037SOL    HW2 4011   2.426   1.366   0.284
 1038SOL     OW 4012   1.925   1.315   5.231
 1038SOL    HW1 4013   1.828   1.296   5.246
 1038SOL    HW2 4014   1.945   1.409   5.259
 1039SOL     OW 4015   3.938   2.091   4.092
 1039SOL    HW1 4016   3.887   2.128   4.014
 1039SOL    HW2 4017   3.894   2.007   4.124
 1040SOL     OW 4018   6.224   4.466   2.934
 1040SOL    HW1 4019   6.310   4.486   2.981
 1040SOL    HW2 4020   6.169   4.404   2.990
 1041SOL     OW 4021   0.419   0.910   4.478
 1041SOL    HW1 4022   0.434   0.812   4.463
 1041SOL    HW2 4023   0.322   0.927   4.494
 1042SOL     OW 4024   5.568   5.120   0.710
 1042SOL    HW1 4025   5.607   5.156   0.795
 1042SOL    HW2 4026   5.615   5.036   0.684
 1043SOL     OW 4027   3.305   1.950   6.185
 1043SOL    HW1 4028   3.366   1.947   6.264
 1043SOL    HW2 4029   3.312   1.864   6.134
 1044SOL     OW 4030   4.003   3.284   1.812
 1044SOL    HW1 4031   4.026   3.188   1.829
 1044SOL    HW2 4032   4.007   3.335   1.898
 1045SOL     OW 4033   2.929   1.178   3.010
 1045SOL    HW1 4034   2.888   1.177   3.102
 1045SOL    HW2 4035   2.967   1.088   2.989
 1046SOL     OW 4036   4.151   0.299   1.117
 1046SOL    HW1 4037   4.177   0.205   1.094
 1046SOL    HW2 4038   4.066   0.299   1.170
 1047SOL     OW 4039   0.955   4.918   2.781
 1047SOL    HW1 4040   0.961   5.016   2.801
 1047SOL    HW2 4041   0.965   4.903   2.682
 1048SOL     OW 4042   4.629   4.434   5.311
 1048SOL    HW1 4043   4.625   4.336   5.288
 1048SOL    HW2 4044   4.591   4.487   5.235
 1049SOL     OW 4045   0.178   3.642   4.690
 1049SOL    HW1 4046   0.258   3.653   4.631
 1049SOL    HW2 4047   0.099   3.687   4.648
 1050SOL     OW 4048   3.451   0.476   0.185
 1050SOL    HW1 4049   3.427   0.466   0.281
 1050SOL    HW2 4050   3.549   0.458   0.173
 1051SOL     OW 4051   4.485   4.405   0.094
 1051SOL    HW1 4052   4.516   4.392   0.189
 1051SOL    HW2 4053   4.549   4.466   0.047
 1052SOL     OW 4054   3.612   0.475   4.903
 1052SOL    HW1 4055   3.595   0.403   4.835
 1052SOL    HW2 4056   3.709   0.496   4.907
 1053SOL     OW 4057   4.707   4.681   4.163
 1053SOL    HW1 4058   4.770   4.704   4.237
 1053SOL    HW2 4059   4.758   4.641   4.087
 1054SOL     OW 4060   3.419   5.553   4.666
 1054SOL    HW1 4061   3.501   5.506   4.699
 1054SOL    HW2 4062   3.338   5.499   4.690
 1055SOL     OW 4063   4.606   6.391   5.252
 1055SOL    HW1 4064   4.550   6.457   5.302
 1055SOL    HW2 4065   4.549   6.343   5.185
 1056SOL     OW 4066   1.798   6.444   5.375
 1056SOL    HW1 4067   1.701   6.424   5.359
 1056SOL    HW2 4068   1.814   6.453   5.473
 1057SOL     OW 4069   3.116   3.507   2.654
 1057SOL    HW1 4070   3.018   3.490   2.666
 1057SOL    HW2 4071   3.142   3.483   2.561
 1058SOL     OW 4072   3.434   1.459   1.692
 1058SOL    HW1 4073   3.423   1.539   1.751
 1058SOL    HW2 4074   3.355   1.451   1.632
 1059SOL     OW 4075   4.303   1.697   1.529
 1059SOL    HW1 4076   4.208   1.713   1.500
 1059SOL    HW2 4077   4.354   1.783   1.524
 1060SOL     OW 4078   1.554   1.856   5.794
 1060SOL    HW1 4079   1.609   1.939   5.800
 1060SOL    HW2 4080   1.500   1.857   5.709
 1061SOL     OW 4081   3.709   5.347   1.742
 1061SOL    HW1 4082   3.792   5.295   1.721
 1061SOL    HW2 4083   3.729   5.413   1.815
 1062SOL     OW 4084   5.993   5.804   5.373
 1062SOL    HW1 4085   6.050   5.729   5.407
 1062SOL    HW2 4086   5.943   5.845   5.449
 1063SOL     OW 4087   1.578   2.718   0.206
 1063SOL    HW1 4088   1.482   2.693   0.193
 1063SOL    HW2 4089   1.634   2.675   0.134
 1064SOL     OW 4090   6.816   2.792   1.864
 1064SOL    HW1 4091   6.862   2.880   1.877
 1064SOL    HW2 4092   6.772   2.763   1.949
 1065SOL     OW 4093   6.175   6.784   4.567
 1065SOL    HW1 4094   6.089   6.795   4.616
 1065SOL    HW2 4095   6.245   6.844   4.606
 1066SOL     OW 4096   4.666   0.844   3.431
 1066SOL    HW1 4097   4.610   0.927   3.431
 1066SOL    HW2 4098   4.639   0.786   3.509
 1067SOL     OW 4099   1.837   3.156   2.077
 1067SOL    HW1 4100   1.800   3.165   1.984
 1067SOL    HW2 4101   1.882   3.241   2.103
 1068SOL     OW 4102   0.551   3.970   2.435
 1068SOL    HW1 4103   0.453   3.989   2.431
 1068SOL    HW2 4104   0.570   3.911   2.514
 1069SOL     OW 4105   3.924   4.207   1.184
 1069SOL    HW1 4106   3.959   4.281   1.126
 1069SOL    HW2 4107   3.888   4.134   1.126
 1070SOL     OW 4108   2.206   0.689   0.597
 1070SOL    HW1 4109   2.144   0.710   0.521
 1070SOL    HW2 4110   2.159   0.705   0.684
 1071SOL     OW 4111   3.608   6.681   3.341
 1071SOL    HW1 4112   3.595   6.760   3.282
 1071SOL    HW2 4113   3.702   6.680   3.375
 1072SOL     OW 4114   3.713   6.146   2.901
 1072SOL    HW1 4115   3.634   6.099   2.941
 1072SOL    HW2 4116   3.771   6.079   2.854
 1073SOL     OW 4117   2.387   4.510   2.634
 1073SOL    HW1 4118   2.344   4.441   2.576
 1073SOL    HW2 4119   2.417   4.467   2.720
 1074SOL     OW 4120   1.108   4.878   1.508
 1074SOL    HW1 4121   1.027   4.868   1.451
 1074SOL    HW2 4122   1.162   4.955   1.476
 1075SOL     OW 4123   5.758   4.570   4.047
 1075SOL    HW1 4124   5.748   4.666   4.020
 1075SOL    HW2 4125   5.855   4.545   4.043
 1076SOL     OW 4126   0.508   4.324   3.629
 1076SOL    HW1 4127   0.503   4.224   3.632
 1076SOL    HW2 4128   0.422   4.360   3.592
 1077SOL     OW 4129   4.355   0.304   0.860
 1077SOL    HW1 4130   4.271   0.357   0.854
 1077SOL    HW2 4131   4.382   0.294   0.956
 1078SOL     OW 4132   1.078   2.233   1.455
 1078SOL    HW1 4133   1.055   2.243   1.551
 1078SOL    HW2 4134   0.994   2.221   1.401
 1079SOL     OW 4135   2.956   5.436   3.688
 1079SOL    HW1 4136   2.861   5.458   3.711
 1079SOL    HW2 4137   3.001   5.394   3.767
 1080SOL     OW 4138   1.638   5.198   4.530
 1080SOL    HW1 4139   1.568   5.267   4.516
 1080SOL    HW2 4140   1.619   5.147   4.614
 1081SOL     OW 4141   1.768   0.755   0.452
 1081SOL    HW1 4142   1.762   0.658   0.429
 1081SOL    HW2 4143   1.726   0.771   0.541
 1082SOL     OW 4144   1.648   6.630   6.404
 1082SOL    HW1 4145   1.614   6.581   6.485
 1082SOL    HW2 4146   1.577   6.634   6.335
 1083SOL     OW 4147   3.090   3.417   1.331
 1083SOL    HW1 4148   3.146   3.484   1.381
 1083SOL    HW2 4149   3.048   3.462   1.252
 1084SOL     OW 4150   5.956   3.914   0.979
 1084SOL    HW1 4151   5.896   3.838   1.004
 1084SOL    HW2 4152   5.993   3.956   1.063
 1085SOL     OW 4153   1.864   4.175   4.051
 1085SOL    HW1 4154   1.902   4.256   4.006
 1085SOL    HW2 4155   1.849   4.103   3.983
 1086SOL     OW 4156   4.343   4.594   2.049
 1086SOL    HW1 4157   4.323   4.520   2.113
 1086SOL    HW2 4158   4.336   4.682   2.096
 1087SOL     OW 4159   4.494   2.847   5.279
 1087SOL    HW1 4160   4.532   2.940   5.280
 1087SOL    HW2 4161   4.541   2.793   5.210
 1088SOL     OW 4162   5.073   4.188   4.156
 1088SOL    HW1 4163   4.992   4.154   4.204
 1088SOL    HW2 4164   5.155   4.163   4.206
 1089SOL     OW 4165   0.219   0.135   3.660
 1089SOL    HW1 4166   0.247   0.228   3.637
 1089SOL    HW2 4167   0.275   0.101   3.735
 1090SOL     OW 4168   1.729   1.274   6.507
 1090SOL    HW1 4169   1.793   1.226   6.566
 1090SOL    HW2 4170   1.770   1.287   6.417
 1091SOL     OW 4171   1.638   1.840   4.930
 1091SOL    HW1 4172   1.663   1.882   4.843
 1091SOL    HW2 4173   1.697   1.875   5.002
 1092SOL     OW 4174   2.246   4.226   1.352
 1092SOL    HW1 4175   2.305   4.306   1.365
 1092SOL    HW2 4176   2.181   4.221   1.428
 1093SOL     OW 4177   0.489   1.708   2.572
 1093SOL    HW1 4178   0.559   1.767   2.614
 1093SOL    HW2 4179   0.398   1.737   2.603
 1094SOL     OW 4180   0.346   6.448   1.228
 1094SOL    HW1 4181   0.338   6.482   1.321
 1094SOL    HW2 4182   0.327   6.522   1.164
 1095SOL     OW 4183   5.679   3.499   6.120
 1095SOL    HW1 4184   5.580   3.493   6.114
 1095SOL    HW2 4185   5.704   3.567   6.189
 1096SOL     OW 4186   3.500   4.419   1.676
 1096SOL    HW1 4187   3.428   4.359   1.712
 1096SOL    HW2 4188   3.519   4.492   1.741
 1097SOL     OW 4189   0.851   5.284   5.260
 1097SOL    HW1 4190   0.872   5.340   5.340
 1097SOL    HW2 4191   0.912   5.205   5.257
 1098SOL     OW 4192   4.325   1.995   2.536
 1098SOL    HW1 4193   4.367   1.986   2.626
 1098SOL    HW2 4194   4.279   2.084   2.529
 1099SOL     OW 4195   4.442   1.970   3.806
 1099SOL    HW1 4196   4.430   1.933   3.714
 1099SOL    HW2 4197   4.353   2.000   3.841
 1100SOL     OW 4198   0.690   0.936   6.807
 1100SOL    HW1 4199   0.740   1.022   6.795
 1100SOL    HW2 4200   0.593   0.952   6.792
 1101SOL     OW 4201   5.420   2.921   1.280
 1101SOL    HW1 4202   5.515   2.891   1.279
 1101SOL    HW2 4203   5.380   2.899   1.370
 1102SOL     OW 4204   0.689   4.533   3.621
 1102SOL    HW1 4205   0.667   4.579   3.535
 1102SOL    HW2 4206   0.645   4.443   3.622
 1103SOL     OW 4207   1.177   2.535   1.682
 1103SOL    HW1 4208   1.255   2.504   1.736
 1103SOL    HW2 4209   1.116   2.457   1.665
 1104SOL     OW 4210   3.542   5.072   6.203
 1104SOL    HW1 4211   3.497   5.004   6.261
 1104SOL    HW2 4212   3.522   5.052   6.107
 1105SOL     OW 4213   4.340   4.213   6.663
 1105SOL    HW1 4214   4.257   4.267   6.656
 1105SOL    HW2 4215   4.379   4.223   6.754
 1106SOL     OW 4216   0.302   2.540   6.086
 1106SOL    HW1 4217   0.385   2.526   6.031
 1106SOL    HW2 4218   0.225   2.495   6.042
 1107SOL     OW 4219   0.671   0.236   0.921
 1107SOL    HW1 4220   0.718   0.174   0.985
 1107SOL    HW2 4221   0.580   0.200   0.901
 1108SOL     OW 4222   1.255   1.138   5.372
 1108SOL    HW1 4223   1.164   1.136   5.414
 1108SOL    HW2 4224   1.249   1.177   5.280
 1109SOL     OW 4225   4.613   0.299   4.088
 1109SOL    HW1 4226   4.649   0.208   4.108
 1109SOL    HW2 4227   4.543   0.322   4.156
 1110SOL     OW 4228   2.894   3.338   2.178
 1110SOL    HW1 4229   2.801   3.303   2.182
 1110SOL    HW2 4230   2.913   3.394   2.260
 1111SOL     OW 4231   5.790   0.166   0.247
 1111SOL    HW1 4232   5.698   0.152   0.284
 1111SOL    HW2 4233   5.804   0.103   0.170
 1112SOL     OW 4234   6.746   1.022   2.442
 1112SOL    HW1 4235   6.743   1.012   2.343
 1112SOL    HW2 4236   6.833   0.986   2.477
 1113SOL     OW 4237   6.780   3.731   2.325
 1113SOL    HW1 4238   6.697   3.754   2.376
 1113SOL    HW2 4239   6.819   3.814   2.285
 1114SOL     OW 4240   4.681   1.585   5.099
 1114SOL    HW1 4241   4.680   1.647   5.020
 1114SOL    HW2 4242   4.672   1.638   5.183
 1115SOL     OW 4243   2.882   3.758   0.803
 1115SOL    HW1 4244   2.841   3.757   0.712
 1115SOL    HW2 4245   2.810   3.754   0.872
 1116SOL     OW 4246   4.009   0.238   4.194
 1116SOL    HW1 4247   4.009   0.149   4.240
 1116SOL    HW2 4248   4.099   0.281   4.205
 1117SOL     OW 4249   2.716   2.856   1.435
 1117SOL    HW1 4250   2.722   2.782   1.368
 1117SOL    HW2 4251   2.686   2.939   1.389
 1118SOL     OW 4252   1.992   3.868   3.569
 1118SOL    HW1 4253   1.997   3.788   3.629
 1118SOL    HW2 4254   2.034   3.847   3.481
 1119SOL     OW 4255   4.256   4.029   1.741
 1119SOL    HW1 4256   4.315   4.095   1.788
 1119SOL    HW2 4257   4.293   4.009   1.650
 1120SOL     OW 4258   4.081   0.594   5.452
 1120SOL    HW1 4259   4.133   0.577   5.368
 1120SOL    HW2 4260   3.984   0.578   5.434
 1121SOL     OW 4261   5.619   3.000   1.996
 1121SOL    HW1 4262   5.703   2.964   1.957
 1121SOL    HW2 4263   5.629   3.006   2.096
 1122SOL     OW 4264   4.705   3.472   6.425
 1122SOL    HW1 4265   4.650   3.413   6.366
 1122SOL    HW2 4266   4.689   3.447   6.521
 1123SOL     OW 4267   3.804   0.731   2.621
 1123SOL    HW1 4268   3.730   0.747   2.686
 1123SOL    HW2 4269   3.841   0.819   2.590
 1124SOL     OW 4270   0.418   4.040   4.926
 1124SOL    HW1 4271   0.498   4.099   4.921
 1124SOL    HW2 4272   0.397   4.020   5.022
 1125SOL     OW 4273   3.459   3.430   5.069
 1125SOL    HW1 4274   3.453   3.523   5.104
 1125SOL    HW2 4275   3.468   3.366   5.145
 1126SOL     OW 4276   5.277   6.138   1.699
 1126SOL    HW1 4277   5.192   6.091   1.721
 1126SOL    HW2 4278   5.339   6.076   1.651
 1127SOL     OW 4279   1.855   4.830   6.721
 1127SOL    HW1 4280   1.775   4.771   6.709
 1127SOL    HW2 4281   1.850   4.876   6.810
 1128SOL     OW 4282   2.964   1.550   4.535
 1128SOL    HW1 4283   3.015   1.560   4.450
 1128SOL    HW2 4284   2.917   1.635   4.557
 1129SOL     OW 4285   5.469   0.667   7.003
 1129SOL    HW1 4286   5.404   0.685   0.053
 1129SOL    HW2 4287   5.438   0.588   6.950
 1130SOL     OW 4288   1.081   4.673   6.865
 1130SOL    HW1 4289   1.058   4.608   6.793
 1130SOL    HW2 4290   1.153   4.634   6.923
 1131SOL     OW 4291   0.412   6.121   5.712
 1131SOL    HW1 4292   0.434   6.024   5.726
 1131SOL    HW2 4293   0.492   6.176   5.732
 1132SOL     OW 4294   5.397   6.934   5.531
 1132SOL    HW1 4295   5.324   6.867   5.516
 1132SOL    HW2 4296   5.389   6.970   5.625
 1133SOL     OW 4297   0.431   3.435   1.297
 1133SOL    HW1 4298   0.362   3.462   1.230
 1133SOL    HW2 4299   0.415   3.340   1.324
 1134SOL     OW 4300   5.272   2.508   6.307
 1134SOL    HW1 4301   5.371   2.520   6.296
 1134SOL    HW2 4302   5.246   2.530   6.401
 1135SOL     OW 4303   3.033   2.180   2.962
 1135SOL    HW1 4304   3.035   2.163   2.863
 1135SOL    HW2 4305   3.125   2.207   2.993
 1136SOL     OW 4306   3.439   5.238   3.662
 1136SOL    HW1 4307   3.411   5.293   3.583
 1136SOL    HW2 4308   3.455   5.144   3.633
 1137SOL     OW 4309   1.347   1.541   6.003
 1137SOL    HW1 4310   1.277   1.474   5.979
 1137SOL    HW2 4311   1.308   1.633   6.000
 1138SOL     OW 4312   0.715   3.562   5.952
 1138SOL    HW1 4313   0.741   3.655   5.927
 1138SOL    HW2 4314   0.680   3.561   6.045
 1139SOL     OW 4315   1.408   6.280   2.209
 1139SOL    HW1 4316   1.460   6.365   2.216
 1139SOL    HW2 4317   1.453   6.220   2.143
 1140SOL     OW 4318   3.626   1.692   4.024
 1140SOL    HW1 4319   3.531   1.664   4.036
 1140SOL    HW2 4320   3.633   1.754   3.946
 1141SOL     OW 4321   6.413   5.691   5.297
 1141SOL    HW1 4322   6.473   5.619   5.262
 1141SOL    HW2 4323   6.428   5.703   5.395
 1142SOL     OW 4324   5.906   0.528   4.065
 1142SOL    HW1 4325   5.984   0.583   4.094
 1142SOL    HW2 4326   5.835   0.532   4.136
 1143SOL     OW 4327   4.186   1.995   2.892
 1143SOL    HW1 4328   4.273   2.013   2.847
 1143SOL    HW2 4329   4.148   2.080   2.928
 1144SOL     OW 4330   0.229   5.647   4.213
 1144SOL    HW1 4331   0.199   5.700   4.292
 1144SOL    HW2 4332   0.329   5.645   4.210
 1145SOL     OW 4333   0.472   5.619   4.984
 1145SOL    HW1 4334   0.465   5.719   4.980
 1145SOL    HW2 4335   0.481   5.591   5.080
 1146SOL     OW 4336   5.591   2.126   1.042
 1146SOL    HW1 4337   5.687   2.101   1.054
 1146SOL    HW2 4338   5.557   2.086   0.957
 1147SOL     OW 4339   0.133   2.820   2.206
 1147SOL    HW1 4340   0.150   2.884   2.131
 1147SOL    HW2 4341   0.092   2.869   2.283
 1148SOL     OW 4342   3.412   6.730   0.472
 1148SOL    HW1 4343   3.469   6.812   0.472
 1148SOL    HW2 4344   3.358   6.727   0.388
 1149SOL     OW 4345   6.418   3.229   2.383
 1149SOL    HW1 4346   6.512   3.195   2.385
 1149SOL    HW2 4347   6.419   3.328   2.396
 1150SOL     OW 4348   1.747   4.658   0.370
 1150SOL    HW1 4349   1.746   4.648   0.470
 1150SOL    HW2 4350   1.822   4.719   0.344
 1151SOL     OW 4351   5.468   5.119   6.487
 1151SOL    HW1 4352   5.525   5.186   6.536
 1151SOL    HW2 4353   5.372   5.140   6.502
 1152SOL     OW 4354   1.413   0.089   5.127
 1152SOL    HW1 4355   1.435   0.184   5.147
 1152SOL    HW2 4356   1.314   0.078   5.120
 1153SOL     OW 4357   2.516   5.536   2.800
 1153SOL    HW1 4358   2.492   5.439   2.792
 1153SOL    HW2 4359   2.477   5.586   2.723
 1154SOL     OW 4360   0.649   3.837   1.792
 1154SOL    HW1 4361   0.568   3.853   1.736
 1154SOL    HW2 4362   0.689   3.925   1.818
 1155SOL     OW 4363   4.032   5.857   2.137
 1155SOL    HW1 4364   4.078   5.770   2.151
 1155SOL    HW2 4365   3.933   5.842   2.130
 1156SOL     OW 4366   2.425   0.297   4.479
 1156SOL    HW1 4367   2.365   0.372   4.505
 1156SOL    HW2 4368   2.380   0.209   4.497
 1157SOL     OW 4369   0.460   2.852   3.884
 1157SOL    HW1 4370   0.526   2.777   3.879
 1157SOL    HW2 4371   0.406   2.854   3.800
 1158SOL     OW 4372   4.945   5.235   5.641
 1158SOL    HW1 4373   4.957   5.330   5.612
 1158SOL    HW2 4374   4.851   5.206   5.623
 1159SOL     OW 4375   4.160   5.332   3.723
 1159SOL    HW1 4376   4.135   5.353   3.628
 1159SOL    HW2 4377   4.130   5.239   3.745
 1160SOL     OW 4378   3.327   3.989   1.351
 1160SOL    HW1 4379   3.414   4.022   1.313
 1160SOL    HW2 4380   3.300   3.905   1.303
 1161SOL     OW 4381   5.247   1.299   3.315
 1161SOL    HW1 4382   5.275   1.359   3.390
 1161SOL    HW2 4383   5.148   1.291   3.313
 1162SOL     OW 4384   3.521   4.170   2.197
 1162SOL    HW1 4385   3.548   4.153   2.102
 1162SOL    HW2 4386   3.507   4.268   2.211
 1163SOL     OW 4387   5.364   1.803   2.921
 1163SOL    HW1 4388   5.315   1.813   3.008
 1163SOL    HW2 4389   5.425   1.724   2.926
 1164SOL     OW 4390   5.911   3.227   3.315
 1164SOL    HW1 4391   5.811   3.224   3.316
 1164SOL    HW2 4392   5.945   3.171   3.239
 1165SOL     OW 4393   1.172   4.839   3.072
 1165SOL    HW1 4394   1.091   4.850   3.130
 1165SOL    HW2 4395   1.191   4.925   3.025
 1166SOL     OW 4396   4.232   2.765   6.088
 1166SOL    HW1 4397   4.234   2.763   6.188
 1166SOL    HW2 4398   4.169   2.836   6.058
 1167SOL     OW 4399   4.782   1.119   4.996
 1167SOL    HW1 4400   4.841   1.046   4.961
 1167SOL    HW2 4401   4.767   1.107   5.094
 1168SOL     OW 4402   6.072   6.764   3.114
 1168SOL    HW1 4403   5.991   6.771   3.173
 1168SOL    HW2 4404   6.155   6.772   3.170
 1169SOL     OW 4405   0.903   3.719   1.883
 1169SOL    HW1 4406   0.817   3.737   1.834
 1169SOL    HW2 4407   0.883   3.672   1.969
 1170SOL     OW 4408   3.067   0.822   1.213
 1170SOL    HW1 4409   3.070   0.880   1.295
 1170SOL    HW2 4410   3.033   0.732   1.238
 1171SOL     OW 4411   2.836   5.767   0.550
 1171SOL    HW1 4412   2.926   5.738   0.518
 1171SOL    HW2 4413   2.766   5.725   0.493
 1172SOL     OW 4414   2.940   3.489   4.746
 1172SOL    HW1 4415   2.851   3.515   4.782
 1172SOL    HW2 4416   2.979   3.417   4.804
 1173SOL     OW 4417   3.567   1.102   6.712
 1173SOL    HW1 4418   3.562   1.005   6.737
 1173SOL    HW2 4419   3.494   1.152   6.759
 1174SOL     OW 4420   2.692   6.205   0.695
 1174SOL    HW1 4421   2.744   6.151   0.627
 1174SOL    HW2 4422   2.645   6.280   0.649
 1175SOL     OW 4423   6.047   4.508   5.615
 1175SOL    HW1 4424   6.048   4.426   5.558
 1175SOL    HW2 4425   6.096   4.581   5.569
 1176SOL     OW 4426   5.617   4.784   0.858
 1176SOL    HW1 4427   5.651   4.691   0.847
 1176SOL    HW2 4428   5.672   4.847   0.805
 1177SOL     OW 4429   6.191   2.571   6.102
 1177SOL    HW1 4430   6.208   2.606   6.194
 1177SOL    HW2 4431   6.248   2.490   6.086
 1178SOL     OW 4432   6.243   3.500   1.873
 1178SOL    HW1 4433   6.150   3.485   1.840
 1178SOL    HW2 4434   6.251   3.593   1.909
 1179SOL     OW 4435   2.157   5.216   6.148
 1179SOL    HW1 4436   2.132   5.312   6.134
 1179SOL    HW2 4437   2.224   5.209   6.222
 1180SOL     OW 4438   2.672   1.357   4.027
 1180SOL    HW1 4439   2.705   1.352   4.122
 1180SOL    HW2 4440   2.639   1.268   3.998
 1181SOL     OW 4441   2.032   4.315   2.962
 1181SOL    HW1 4442   2.047   4.334   2.865
 1181SOL    HW2 4443   2.026   4.402   3.012
 1182SOL     OW 4444   1.978   4.177   3.450
 1182SOL    HW1 4445   1.908   4.108   3.431
 1182SOL    HW2 4446   1.970   4.207   3.546
 1183SOL     OW 4447   4.688   5.878   0.968
 1183SOL    HW1 4448   4.702   5.782   0.991
 1183SOL    HW2 4449   4.710   5.892   0.872
 1184SOL     OW 4450   2.998   2.778   5.834
 1184SOL    HW1 4451   3.013   2.803   5.738
 1184SOL    HW2 4452   3.069   2.818   5.891
 1185SOL     OW 4453   1.925   0.905   0.074
 1185SOL    HW1 4454   1.850   0.845   0.103
 1185SOL    HW2 4455   1.943   0.972   0.146
 1186SOL     OW 4456   5.030   1.156   4.634
 1186SOL    HW1 4457   5.099   1.167   4.562
 1186SOL    HW2 4458   4.939   1.168   4.595
 1187SOL     OW 4459   5.908   0.603   5.161
 1187SOL    HW1 4460   5.990   0.550   5.139
 1187SOL    HW2 4461   5.915   0.694   5.119
 1188SOL     OW 4462   1.833   0.408   5.672
 1188SOL    HW1 4463   1.827   0.335   5.604
 1188SOL    HW2 4464   1.875   0.489   5.631
 1189SOL     OW 4465   5.274   0.710   1.899
 1189SOL    HW1 4466   5.223   0.632   1.863
 1189SOL    HW2 4467   5.372   0.692   1.891
 1190SOL     OW 4468   4.346   4.891   2.871
 1190SOL    HW1 4469   4.432   4.842   2.883
 1190SOL    HW2 4470   4.361   4.974   2.819
 1191SOL     OW 4471   3.127   5.534   6.601
 1191SOL    HW1 4472   3.157   5.559   6.693
 1191SOL    HW2 4473   3.164   5.598   6.535
 1192SOL     OW 4474   5.359   5.169   2.857
 1192SOL    HW1 4475   5.392   5.102   2.923
 1192SOL    HW2 4476   5.438   5.215   2.814
 1193SOL     OW 4477   4.956   0.448   3.900
 1193SOL    HW1 4478   4.957   0.495   3.988
 1193SOL    HW2 4479   5.046   0.410   3.882
 1194SOL     OW 4480   6.029   0.154   0.875
 1194SOL    HW1 4481   5.938   0.171   0.913
 1194SOL    HW2 4482   6.028   0.177   0.777
 1195SOL     OW 4483   4.987   0.633   6.439
 1195SOL    HW1 4484   5.056   0.585   6.491
 1195SOL    HW2 4485   4.985   0.729   6.466
 1196SOL     OW 4486   0.420   5.358   2.386
 1196SOL    HW1 4487   0.501   5.302   2.403
 1196SOL    HW2 4488   0.437   5.417   2.307
 1197SOL     OW 4489   3.996   5.440   6.104
 1197SOL    HW1 4490   3.902   5.419   6.131
 1197SOL    HW2 4491   4.055   5.441   6.184
 1198SOL     OW 4492   2.762   2.089   2.486
 1198SOL    HW1 4493   2.795   1.995   2.496
 1198SOL    HW2 4494   2.778   2.139   2.571
 1199SOL     OW 4495   4.143   3.552   2.304
 1199SOL    HW1 4496   4.103   3.488   2.239
 1199SOL    HW2 4497   4.178   3.632   2.255
 1200SOL     OW 4498   4.147   3.756   0.034
 1200SOL    HW1 4499   4.154   3.676   6.997
 1200SOL    HW2 4500   4.186   3.835   7.011
 1201SOL     OW 4501   1.046   1.002   5.107
 1201SOL    HW1 4502   1.090   0.971   5.023
 1201SOL    HW2 4503   1.068   1.098   5.124
 1202SOL     OW 4504   5.872   0.080   4.755
 1202SOL    HW1 4505   5.896   0.107   4.848
 1202SOL    HW2 4506   5.774   0.060   4.750
 1203SOL     OW 4507   5.776   0.006   1.498
 1203SOL    HW1 4508   5.867   0.005   1.539
 1203SOL    HW2 4509   5.726   6.947   1.524
 1204SOL     OW 4510   3.163   0.758   0.652
 1204SOL    HW1 4511   3.208   0.847   0.651
 1204SOL    HW2 4512   3.146   0.728   0.558
 1205SOL     OW 4513   6.683   2.663   5.054
 1205SOL    HW1 4514   6.635   2.660   4.966
 1205SOL    HW2 4515   6.744   2.742   5.055
 1206SOL     OW 4516   2.274   1.921   4.797
 1206SOL    HW1 4517   2.288   2.008   4.749
 1206SOL    HW2 4518   2.274   1.936   4.895
 1207SOL     OW 4519   5.777   0.082   6.543
 1207SOL    HW1 4520   5.796   0.083   6.445
 1207SOL    HW2 4521   5.801   7.015   6.580
 1208SOL     OW 4522   3.619   4.108   3.286
 1208SOL    HW1 4523   3.708   4.085   3.324
 1208SOL    HW2 4524   3.572   4.025   3.257
 1209SOL     OW 4525   5.706   5.243   4.266
 1209SOL    HW1 4526   5.628   5.211   4.212
 1209SOL    HW2 4527   5.708   5.343   4.265
 1210SOL     OW 4528   3.576   6.987   2.204
 1210SOL    HW1 4529   3.545   6.893   2.210
 1210SOL    HW2 4530   3.633   7.010   2.283
 1211SOL     OW 4531   0.324   4.702   4.632
 1211SOL    HW1 4532   0.400   4.652   4.592
 1211SOL    HW2 4533   0.242   4.688   4.577
 1212SOL     OW 4534   1.888   3.902   5.087
 1212SOL    HW1 4535   1.896   3.821   5.029
 1212SOL    HW2 4536   1.955   3.971   5.058
 1213SOL     OW 4537   5.883   1.997   5.464
 1213SOL    HW1 4538   5.921   1.936   5.394
 1213SOL    HW2 4539   5.791   1.965   5.489
 1214SOL     OW 4540   2.010   3.619   3.743
 1214SOL    HW1 4541   2.072   3.541   3.748
 1214SOL    HW2 4542   1.966   3.633   3.832
 1215SOL     OW 4543   1.223   4.912   1.769
 1215SOL    HW1 4544   1.296   4.980   1.767
 1215SOL    HW2 4545   1.178   4.908   1.680
 1216SOL     OW 4546   2.143   0.457   2.223
 1216SOL    HW1 4547   2.175   0.363   2.235
 1216SOL    HW2 4548   2.180   0.514   2.297
 1217SOL     OW 4549   1.493   6.475   1.951
 1217SOL    HW1 4550   1.520   6.536   1.876
 1217SOL    HW2 4551   1.515   6.517   2.038
 1218SOL     OW 4552   0.542   3.679   3.631
 1218SOL    HW1 4553   0.596   3.696   3.548
 1218SOL    HW2 4554   0.587   3.722   3.709
 1219SOL     OW 4555   3.873   6.386   2.033
 1219SOL    HW1 4556   3.783   6.427   2.014
 1219SOL    HW2 4557   3.901   6.411   2.126
 1220SOL     OW 4558   6.026   3.646   3.594
 1220SOL    HW1 4559   6.057   3.569   3.538
 1220SOL    HW2 4560   6.044   3.732   3.547
 1221SOL     OW 4561   4.656   3.856   0.001
 1221SOL    HW1 4562   4.746   3.891   0.028
 1221SOL    HW2 4563   4.584   3.914   0.039
 1222SOL     OW 4564   0.082   6.454   1.619
 1222SOL    HW1 4565   7.020   6.474   1.667
 1222SOL    HW2 4566   0.066   6.453   1.521
 1223SOL     OW 4567   5.893   6.796   6.407
 1223SOL    HW1 4568   5.972   6.858   6.411
 1223SOL    HW2 4569   5.829   6.829   6.338
 1224SOL     OW 4570   4.678   4.895   2.120
 1224SOL    HW1 4571   4.699   4.835   2.197
 1224SOL    HW2 4572   4.742   4.877   2.045
 1225SOL     OW 4573   4.961   2.488   0.302
 1225SOL    HW1 4574   4.986   2.536   0.386
 1225SOL    HW2 4575   5.004   2.398   0.300
 1226SOL     OW 4576   6.027   5.617   1.151
 1226SOL    HW1 4577   6.081   5.541   1.185
 1226SOL    HW2 4578   6.002   5.601   1.055
 1227SOL     OW 4579   5.490   3.813   5.633
 1227SOL    HW1 4580   5.531   3.899   5.602
 1227SOL    HW2 4581   5.501   3.743   5.563
 1228SOL     OW 4582   4.069   3.156   3.234
 1228SOL    HW1 4583   4.010   3.237   3.222
 1228SOL    HW2 4584   4.049   3.090   3.162
 1229SOL     OW 4585   2.466   5.516   3.058
 1229SOL    HW1 4586   2.489   5.536   2.963
 1229SOL    HW2 4587   2.547   5.523   3.115
 1230SOL     OW 4588   5.155   4.798   1.159
 1230SOL    HW1 4589   5.185   4.874   1.217
 1230SOL    HW2 4590   5.107   4.730   1.215
 1231SOL     OW 4591   1.466   2.245   6.612
 1231SOL    HW1 4592   1.430   2.337   6.596
 1231SOL    HW2 4593   1.495   2.205   6.525
 1232SOL     OW 4594   3.272   0.556   5.644
 1232SOL    HW1 4595   3.372   0.561   5.632
 1232SOL    HW2 4596   3.245   0.612   5.721
 1233SOL     OW 4597   0.151   5.839   5.285
 1233SOL    HW1 4598   0.235   5.890   5.266
 1233SOL    HW2 4599   0.175   5.747   5.316
 1234SOL     OW 4600   6.641   3.327   0.217
 1234SOL    HW1 4601   6.644   3.420   0.253
 1234SOL    HW2 4602   6.709   3.317   0.144
 1235SOL     OW 4603   6.460   5.306   0.432
 1235SOL    HW1 4604   6.382   5.296   0.494
 1235SOL    HW2 4605   6.428   5.304   0.337
 1236SOL     OW 4606   1.431   1.812   2.126
 1236SOL    HW1 4607   1.460   1.888   2.068
 1236SOL    HW2 4608   1.468   1.727   2.090
 1237SOL     OW 4609   0.839   0.236   4.384
 1237SOL    HW1 4610   0.880   0.151   4.351
 1237SOL    HW2 4611   0.810   0.224   4.479
 1238SOL     OW 4612   6.852   0.432   4.311
 1238SOL    HW1 4613   6.814   0.521   4.286
 1238SOL    HW2 4614   6.941   0.446   4.355
 1239SOL     OW 4615   6.431   4.692   4.638
 1239SOL    HW1 4616   6.431   4.693   4.538
 1239SOL    HW2 4617   6.380   4.613   4.672
 1240SOL     OW 4618   6.281   4.484   3.326
 1240SOL    HW1 4619   6.296   4.554   3.396
 1240SOL    HW2 4620   6.184   4.479   3.303
 1241SOL     OW 4621   4.878   5.180   4.815
 1241SOL    HW1 4622   4.852   5.153   4.722
 1241SOL    HW2 4623   4.970   5.147   4.835
 1242SOL     OW 4624   1.268   4.567   0.003
 1242SOL    HW1 4625   1.281   4.546   0.100
 1242SOL    HW2 4626   1.336   4.517   6.973
 1243SOL     OW 4627   0.733   4.706   4.833
 1243SOL    HW1 4628   0.779   4.687   4.747
 1243SOL    HW2 4629   0.667   4.780   4.820
 1244SOL     OW 4630   5.009   0.291   4.696
 1244SOL    HW1 4631   5.088   0.261   4.642
 1244SOL    HW2 4632   4.999   0.233   4.777
 1245SOL     OW 4633   4.992   6.820   1.311
 1245SOL    HW1 4634   5.047   6.877   1.372
 1245SOL    HW2 4635   4.954   6.877   1.238
 1246SOL     OW 4636   4.796   1.791   0.392
 1246SOL    HW1 4637   4.833   1.763   0.480
 1246SOL    HW2 4638   4.790   1.891   0.388
 1247SOL     OW 4639   6.873   6.840   3.631
 1247SOL    HW1 4640   6.951   6.796   3.676
 1247SOL    HW2 4641   6.857   6.929   3.673
 1248SOL     OW 4642   1.221   0.003   4.394
 1248SOL    HW1 4643   1.276   7.016   4.311
 1248SOL    HW2 4644   1.128   6.994   4.377
 1249SOL     OW 4645   5.565   4.595   6.819
 1249SOL    HW1 4646   5.581   4.567   6.725
 1249SOL    HW2 4647   5.530   4.689   6.821
 1250SOL     OW 4648   6.690   3.075   4.931
 1250SOL    HW1 4649   6.747   3.155   4.910
 1250SOL    HW2 4650   6.738   3.016   4.995
 1251SOL     OW 4651   3.066   0.461   3.277
 1251SOL    HW1 4652   3.112   0.495   3.194
 1251SOL    HW2 4653   3.029   0.539   3.329
 1252SOL     OW 4654   1.407   5.570   0.019
 1252SOL    HW1 4655   1.344   5.498   7.011
 1252SOL    HW2 4656   1.421   5.637   6.970
 1253SOL     OW 4657   3.309   1.167   0.933
 1253SOL    HW1 4658   3.369   1.150   0.855
 1253SOL    HW2 4659   3.217   1.188   0.901
 1254SOL     OW 4660   6.735   0.906   1.500
 1254SOL    HW1 4661   6.767   0.999   1.485
 1254SOL    HW2 4662   6.662   0.885   1.434
 1255SOL     OW 4663   5.445   1.605   5.682
 1255SOL    HW1 4664   5.507   1.598   5.604
 1255SOL    HW2 4665   5.361   1.651   5.653
 1256SOL     OW 4666   1.001   5.714   4.302
 1256SOL    HW1 4667   1.094   5.729   4.336
 1256SOL    HW2 4668   0.937   5.770   4.356
 1257SOL     OW 4669   0.172   5.576   3.939
 1257SOL    HW1 4670   0.078   5.597   3.913
 1257SOL    HW2 4671   0.187   5.602   4.034
 1258SOL     OW 4672   4.371   6.510   4.693
 1258SOL    HW1 4673   4.463   6.538   4.719
 1258SOL    HW2 4674   4.373   6.420   4.650
 1259SOL     OW 4675   5.808   0.438   3.781
 1259SOL    HW1 4676   5.895   0.477   3.749
 1259SOL    HW2 4677   5.795   0.462   3.877
 1260SOL     OW 4678   1.690   0.782   2.414
 1260SOL    HW1 4679   1.645   0.740   2.493
 1260SOL    HW2 4680   1.676   0.724   2.333
 1261SOL     OW 4681   6.208   4.599   6.233
 1261SOL    HW1 4682   6.282   4.543   6.194
 1261SOL    HW2 4683   6.125   4.586   6.179
 1262SOL     OW 4684   4.709   5.260   0.327
 1262SOL    HW1 4685   4.713   5.186   0.394
 1262SOL    HW2 4686   4.716   5.348   0.374
 1263SOL     OW 4687   0.138   2.132   1.464
 1263SOL    HW1 4688   0.121   2.206   1.399
 1263SOL    HW2 4689   0.233   2.138   1.496
 1264SOL     OW 4690   0.153   3.356   3.866
 1264SOL    HW1 4691   0.167   3.406   3.780
 1264SOL    HW2 4692   0.241   3.325   3.901
 1265SOL     OW 4693   6.508   4.388   5.545
 1265SOL    HW1 4694   6.451   4.366   5.625
 1265SOL    HW2 4695   6.551   4.304   5.511
 1266SOL     OW 4696   2.789   1.497   4.878
 1266SOL    HW1 4697   2.755   1.517   4.970
 1266SOL    HW2 4698   2.805   1.583   4.829
 1267SOL     OW 4699   6.806   5.009   2.733
 1267SOL    HW1 4700   6.784   5.028   2.828
 1267SOL    HW2 4701   6.889   5.058   2.707
 1268SOL     OW 4702   5.727   2.832   0.510
 1268SOL    HW1 4703   5.727   2.752   0.450
 1268SOL    HW2 4704   5.819   2.869   0.515
 1269SOL     OW 4705   6.731   5.290   5.366
 1269SOL    HW1 4706   6.735   5.362   5.436
 1269SOL    HW2 4707   6.822   5.280   5.324
 1270SOL     OW 4708   1.845   3.028   5.033
 1270SOL    HW1 4709   1.915   3.093   5.063
 1270SOL    HW2 4710   1.757   3.052   5.074
 1271SOL     OW 4711   3.662   1.444   2.810
 1271SOL    HW1 4712   3.589   1.492   2.859
 1271SOL    HW2 4713   3.647   1.453   2.711
 1272SOL     OW 4714   0.371   5.440   1.371
 1272SOL    HW1 4715   0.461   5.464   1.336
 1272SOL    HW2 4716   0.341   5.354   1.330
 1273SOL     OW 4717   2.801   5.815   6.639
 1273SOL    HW1 4718   2.776   5.896   6.691
 1273SOL    HW2 4719   2.719   5.765   6.611
 1274SOL     OW 4720   6.800   2.419   1.982
 1274SOL    HW1 4721   6.758   2.333   2.011
 1274SOL    HW2 4722   6.878   2.400   1.923
 1275SOL     OW 4723   3.495   1.678   4.353
 1275SOL    HW1 4724   3.413   1.721   4.391
 1275SOL    HW2 4725   3.576   1.727   4.385
 1276SOL     OW 4726   6.999   0.254   2.854
 1276SOL    HW1 4727   6.956   0.258   2.764
 1276SOL    HW2 4728   6.938   0.207   2.918
 1277SOL     OW 4729   0.037   0.173   4.625
 1277SOL    HW1 4730   0.103   0.106   4.593
 1277SOL    HW2 4731   0.078   0.227   4.699
 1278SOL     OW 4732   2.252   1.768   5.818
 1278SOL    HW1 4733   2.323   1.797   5.754
 1278SOL    HW2 4734   2.250   1.830   5.896
 1279SOL     OW 4735   2.585   5.621   0.366
 1279SOL    HW1 4736   2.569   5.720   0.361
 1279SOL    HW2 4737   2.648   5.594   0.293
 1280SOL     OW 4738   2.909   6.806   3.891
 1280SOL    HW1 4739   2.936   6.756   3.809
 1280SOL    HW2 4740   2.827   6.765   3.930
 1281SOL     OW 4741   1.406   5.855   3.086
 1281SOL    HW1 4742   1.411   5.950   3.054
 1281SOL    HW2 4743   1.480   5.803   3.046
 1282SOL     OW 4744   1.037   1.129   1.209
 1282SOL    HW1 4745   0.962   1.097   1.267
 1282SOL    HW2 4746   1.007   1.211   1.159
 1283SOL     OW 4747   5.458   5.026   5.196
 1283SOL    HW1 4748   5.360   5.027   5.214
 1283SOL    HW2 4749   5.488   4.932   5.178
 1284SOL     OW 4750   2.805   2.568   1.743
 1284SOL    HW1 4751   2.716   2.559   1.787
 1284SOL    HW2 4752   2.873   2.514   1.793
 1285SOL     OW 4753   4.757   2.982   4.865
 1285SOL    HW1 4754   4.805   3.070   4.869
 1285SOL    HW2 4755   4.666   2.991   4.904
 1286SOL     OW 4756   5.551   4.255   1.535
 1286SOL    HW1 4757   5.570   4.157   1.521
 1286SOL    HW2 4758   5.491   4.287   1.461
 1287SOL     OW 4759   6.813   6.255   6.430
 1287SOL    HW1 4760   6.793   6.351   6.450
 1287SOL    HW2 4761   6.902   6.231   6.469
 1288SOL     OW 4762   0.176   3.162   0.895
 1288SOL    HW1 4763   0.118   3.202   0.966
 1288SOL    HW2 4764   0.252   3.225   0.875
 1289SOL     OW 4765   0.246   5.930   2.610
 1289SOL    HW1 4766   0.303   5.923   2.528
 1289SOL    HW2 4767   0.150   5.925   2.584
 1290SOL     OW 4768   0.709   6.517   0.407
 1290SOL    HW1 4769   0.699   6.471   0.319
 1290SOL    HW2 4770   0.755   6.605   0.393
 1291SOL     OW 4771   1.523   5.801   6.826
 1291SOL    HW1 4772   1.454   5.772   6.759
 1291SOL    HW2 4773   1.614   5.795   6.784
 1292SOL     OW 4774   0.688   5.136   0.608
 1292SOL    HW1 4775   0.589   5.130   0.623
 1292SOL    HW2 4776   0.717   5.231   0.619
 1293SOL     OW 4777   0.622   2.331   6.452
 1293SOL    HW1 4778   0.710   2.309   6.494
 1293SOL    HW2 4779   0.630   2.416   6.401
 1294SOL     OW 4780   0.139   2.379   2.202
 1294SOL    HW1 4781   0.075   2.428   2.261
 1294SOL    HW2 4782   0.195   2.445   2.152
 1295SOL     OW 4783   5.592   2.456   1.960
 1295SOL    HW1 4784   5.506   2.408   1.947
 1295SOL    HW2 4785   5.596   2.535   1.899
 1296SOL     OW 4786   3.350   1.812   6.563
 1296SOL    HW1 4787   3.409   1.757   6.622
 1296SOL    HW2 4788   3.300   1.752   6.501
 1297SOL     OW 4789   6.772   1.239   5.293
 1297SOL    HW1 4790   6.730   1.311   5.239
 1297SOL    HW2 4791   6.782   1.270   5.388
 1298SOL     OW 4792   6.415   2.714   3.054
 1298SOL    HW1 4793   6.437   2.801   3.098
 1298SOL    HW2 4794   6.450   2.714   2.960
 1299SOL     OW 4795   1.453   4.144   4.329
 1299SOL    HW1 4796   1.545   4.147   4.290
 1299SOL    HW2 4797   1.436   4.054   4.367
 1300SOL     OW 4798   3.534   2.791   2.027
 1300SOL    HW1 4799   3.512   2.725   1.956
 1300SOL    HW2 4800   3.450   2.826   2.068
 1301SOL     OW 4801   1.103   6.636   3.971
 1301SOL    HW1 4802   1.071   6.612   3.880
 1301SOL    HW2 4803   1.157   6.720   3.967
 1302SOL     OW 4804   2.764   6.469   4.933
 1302SOL    HW1 4805   2.849   6.427   4.901
 1302SOL    HW2 4806   2.700   6.397   4.962
 1303SOL     OW 4807   3.363   1.679   1.013
 1303SOL    HW1 4808   3.366   1.622   0.931
 1303SOL    HW2 4809   3.432   1.751   1.007
 1304SOL     OW 4810   2.322   0.388   6.349
 1304SOL    HW1 4811   2.387   0.453   6.309
 1304SOL    HW2 4812   2.306   0.412   6.445
 1305SOL     OW 4813   4.502   0.430   5.143
 1305SOL    HW1 4814   4.570   0.361   5.117
 1305SOL    HW2 4815   4.520   0.515   5.094
 1306SOL     OW 4816   0.607   4.457   4.132
 1306SOL    HW1 4817   0.559   4.453   4.045
 1306SOL    HW2 4818   0.544   4.435   4.206
 1307SOL     OW 4819   1.166   2.299   4.313
 1307SOL    HW1 4820   1.235   2.287   4.385
 1307SOL    HW2 4821   1.098   2.366   4.343
 1308SOL     OW 4822   4.891   6.181   4.164
 1308SOL    HW1 4823   4.820   6.157   4.231
 1308SOL    HW2 4824   4.981   6.162   4.203
 1309SOL     OW 4825   6.324   2.428   4.494
 1309SOL    HW1 4826   6.228   2.414   4.468
 1309SOL    HW2 4827   6.361   2.506   4.443
 1310SOL     OW 4828   5.705   3.753   4.428
 1310SOL    HW1 4829   5.734   3.783   4.518
 1310SOL    HW2 4830   5.766   3.682   4.395
 1311SOL     OW 4831   5.810   6.316   5.029
 1311SOL    HW1 4832   5.724   6.283   4.990
 1311SOL    HW2 4833   5.840   6.255   5.102
 1312SOL     OW 4834   0.676   0.432   0.403
 1312SOL    HW1 4835   0.578   0.452   0.397
 1312SOL    HW2 4836   0.727   0.501   0.350
 1313SOL     OW 4837   3.223   5.342   4.729
 1313SOL    HW1 4838   3.163   5.341   4.810
 1313SOL    HW2 4839   3.167   5.345   4.647
 1314SOL     OW 4840   0.995   1.408   5.509
 1314SOL    HW1 4841   0.941   1.338   5.462
 1314SOL    HW2 4842   0.996   1.389   5.607
 1315SOL     OW 4843   2.371   1.506   2.058
 1315SOL    HW1 4844   2.343   1.414   2.033
 1315SOL    HW2 4845   2.300   1.571   2.031
 1316SOL     OW 4846   2.577   6.791   4.022
 1316SOL    HW1 4847   2.601   6.886   4.004
 1316SOL    HW2 4848   2.507   6.788   4.094
 1317SOL     OW 4849   6.705   5.275   4.379
 1317SOL    HW1 4850   6.650   5.317   4.306
 1317SOL    HW2 4851   6.798   5.261   4.346
 1318SOL     OW 4852   0.263   0.029   0.415
 1318SOL    HW1 4853   0.265   0.126   0.442
 1318SOL    HW2 4854   0.168   7.021   0.414
 1319SOL     OW 4855   6.219   1.151   0.024
 1319SOL    HW1 4856   6.234   1.244   7.014
 1319SOL    HW2 4857   6.303   1.098   0.014
 1320SOL     OW 4858   5.643   5.068   5.702
 1320SOL    HW1 4859   5.597   5.050   5.615
 1320SOL    HW2 4860   5.726   5.121   5.685
 1321SOL     OW 4861   3.712   2.644   0.001
 1321SOL    HW1 4862   3.759   2.564   6.987
 1321SOL    HW2 4863   3.648   2.614   0.072
 1322SOL     OW 4864   6.370   1.642   3.927
 1322SOL    HW1 4865   6.392   1.618   4.021
 1322SOL    HW2 4866   6.375   1.741   3.915
 1323SOL     OW 4867   0.239   1.835   5.009
 1323SOL    HW1 4868   0.279   1.772   5.075
 1323SOL    HW2 4869   0.142   1.812   4.995
 1324SOL     OW 4870   1.535   3.439   1.803
 1324SOL    HW1 4871   1.488   3.411   1.720
 1324SOL    HW2 4872   1.468   3.467   1.872
 1325SOL     OW 4873   2.883   6.382   3.348
 1325SOL    HW1 4874   2.916   6.374   3.254
 1325SOL    HW2 4875   2.783   6.373   3.349
 1326SOL     OW 4876   5.364   2.932   4.279
 1326SOL    HW1 4877   5.458   2.966   4.278
 1326SOL    HW2 4878   5.363   2.835   4.258
 1327SOL     OW 4879   4.133   4.753   3.131
 1327SOL    HW1 4880   4.074   4.674   3.148
 1327SOL    HW2 4881   4.091   4.811   3.062
 1328SOL     OW 4882   1.492   1.910   7.013
 1328SOL    HW1 4883   1.397   1.940   7.014
 1328SOL    HW2 4884   1.528   1.915   6.920
 1329SOL     OW 4885   1.220   1.279   0.609
 1329SOL    HW1 4886   1.246   1.313   0.700
 1329SOL    HW2 4887   1.171   1.192   0.620
 1330SOL     OW 4888   0.009   0.246   0.868
 1330SOL    HW1 4889   0.095   0.200   0.892
 1330SOL    HW2 4890   6.981   0.189   0.805
 1331SOL     OW 4891   5.707   0.396   1.808
 1331SOL    HW1 4892   5.686   0.446   1.892
 1331SOL    HW2 4893   5.723   0.299   1.830
 1332SOL     OW 4894   4.142   1.204   1.386
 1332SOL    HW1 4895   4.182   1.115   1.368
 1332SOL    HW2 4896   4.213   1.274   1.382
 1333SOL     OW 4897   3.761   3.706   5.105
 1333SOL    HW1 4898   3.799   3.766   5.036
 1333SOL    HW2 4899   3.662   3.698   5.092
 1334SOL     OW 4900   0.598   3.822   4.934
 1334SOL    HW1 4901   0.540   3.897   4.903
 1334SOL    HW2 4902   0.593   3.816   5.034
 1335SOL     OW 4903   2.395   5.232   3.085
 1335SOL    HW1 4904   2.427   5.327   3.092
 1335SOL    HW2 4905   2.368   5.199   3.175
 1336SOL     OW 4906   0.915   0.455   5.252
 1336SOL    HW1 4907   0.861   0.478   5.333
 1336SOL    HW2 4908   0.875   0.497   5.171
 1337SOL     OW 4909   1.995   2.177   6.255
 1337SOL    HW1 4910   2.025   2.176   6.159
 1337SOL    HW2 4911   1.951   2.265   6.274
 1338SOL     OW 4912   4.538   5.406   6.732
 1338SOL    HW1 4913   4.531   5.491   6.679
 1338SOL    HW2 4914   4.578   5.335   6.675
 1339SOL     OW 4915   6.833   4.277   5.703
 1339SOL    HW1 4916   6.787   4.341   5.765
 1339SOL    HW2 4917   6.766   4.214   5.665
 1340SOL     OW 4918   1.305   2.282   0.514
 1340SOL    HW1 4919   1.207   2.292   0.532
 1340SOL    HW2 4920   1.339   2.201   0.562
 1341SOL     OW 4921   3.259   1.253   3.801
 1341SOL    HW1 4922   3.266   1.343   3.758
 1341SOL    HW2 4923   3.170   1.213   3.780
 1342SOL     OW 4924   0.632   6.363   0.634
 1342SOL    HW1 4925   0.687   6.414   0.568
 1342SOL    HW2 4926   0.689   6.339   0.713
 1343SOL     OW 4927   3.680   5.938   3.449
 1343SOL    HW1 4928   3.704   5.843   3.470
 1343SOL    HW2 4929   3.670   5.989   3.534
 1344SOL     OW 4930   6.541   0.852   2.534
 1344SOL    HW1 4931   6.576   0.767   2.573
 1344SOL    HW2 4932   6.617   0.911   2.507
 1345SOL     OW 4933   0.391   0.452   2.472
 1345SOL    HW1 4934   0.388   0.375   2.409
 1345SOL    HW2 4935   0.388   0.538   2.419
 1346SOL     OW 4936   6.863   0.017   3.831
 1346SOL    HW1 4937   6.925   0.021   3.909
 1346SOL    HW2 4938   6.768   0.015   3.863
 1347SOL     OW 4939   6.387   6.524   3.500
 1347SOL    HW1 4940   6.478   6.518   3.459
 1347SOL    HW2 4941   6.322   6.556   3.431
 1348SOL     OW 4942   5.956   4.255   4.252
 1348SOL    HW1 4943   5.919   4.238   4.161
 1348SOL    HW2 4944   5.983   4.169   4.294
 1349SOL     OW 4945   3.681   2.855   6.848
 1349SOL    HW1 4946   3.665   2.785   6.919
 1349SOL    HW2 4947   3.732   2.931   6.888
 1350SOL     OW 4948   2.854   0.298   6.786
 1350SOL    HW1 4949   2.792   0.368   6.823
 1350SOL    HW2 4950   2.811   0.208   6.793
 1351SOL     OW 4951   0.273   1.348   3.353
 1351SOL    HW1 4952   0.264   1.307   3.444
 1351SOL    HW2 4953   0.199   1.413   3.337
 1352SOL     OW 4954   0.189   1.216   2.906
 1352SOL    HW1 4955   0.198   1.118   2.925
 1352SOL    HW2 4956   0.124   1.229   2.832
 1353SOL     OW 4957   0.684   4.144   4.402
 1353SOL    HW1 4958   0.654   4.174   4.312
 1353SOL    HW2 4959   0.620   4.076   4.438
 1354SOL     OW 4960   0.370   6.924   2.289
 1354SOL    HW1 4961   0.389   7.010   2.338
 1354SOL    HW2 4962   0.451   6.898   2.237
 1355SOL     OW 4963   5.061   3.217   6.639
 1355SOL    HW1 4964   5.083   3.251   6.731
 1355SOL    HW2 4965   5.137   3.239   6.577
 1356SOL     OW 4966   3.709   3.459   2.687
 1356SOL    HW1 4967   3.665   3.388   2.742
 1356SOL    HW2 4968   3.712   3.544   2.740
 1357SOL     OW 4969   2.637   2.925   5.741
 1357SOL    HW1 4970   2.580   2.845   5.757
 1357SOL    HW2 4971   2.700   2.936   5.819
 1358SOL     OW 4972   2.211   2.466   6.416
 1358SOL    HW1 4973   2.265   2.429   6.492
 1358SOL    HW2 4974   2.241   2.424   6.330
 1359SOL     OW 4975   6.495   2.625   0.020
 1359SOL    HW1 4976   6.406   2.671   0.021
 1359SOL    HW2 4977   6.543   2.649   6.959
 1360SOL     OW 4978   3.742   3.828   3.740
 1360SOL    HW1 4979   3.664   3.821   3.679
 1360SOL    HW2 4980   3.710   3.827   3.835
 1361SOL     OW 4981   0.973   6.075   0.062
 1361SOL    HW1 4982   0.907   6.078   0.137
 1361SOL    HW2 4983   1.006   6.167   0.042
 1362SOL     OW 4984   2.894   3.321   6.008
 1362SOL    HW1 4985   2.981   3.288   5.971
 1362SOL    HW2 4986   2.911   3.377   6.089
 1363SOL     OW 4987   6.546   5.738   2.045
 1363SOL    HW1 4988   6.582   5.800   1.975
 1363SOL    HW2 4989   6.448   5.724   2.030
 1364SOL     OW 4990   0.147   3.236   1.378
 1364SOL    HW1 4991   0.085   3.238   1.300
 1364SOL    HW2 4992   0.238   3.207   1.347
 1365SOL     OW 4993   0.163   3.696   6.944
 1365SOL    HW1 4994   0.189   3.791   6.960
 1365SOL    HW2 4995   0.162   3.678   6.846
 1366SOL     OW 4996   7.004   1.522   0.453
 1366SOL    HW1 4997   6.969   1.612   0.426
 1366SOL    HW2 4998   7.018   1.466   0.372
 1367SOL     OW 4999   0.027   6.014   4.395
 1367SOL    HW1 5000   7.005   5.983   4.312
 1367SOL    HW2 5001   0.036   6.113   4.393
 1368SOL     OW 5002   0.118   6.923   4.341
 1368SOL    HW1 5003   0.194   6.982   4.314
 1368SOL    HW2 5004   0.049   6.923   4.269
 1369SOL     OW 5005   2.883   6.491   2.829
 1369SOL    HW1 5006   2.820   6.524   2.900
 1369SOL    HW2 5007   2.907   6.566   2.769
 1370SOL     OW 5008   7.019   2.348   3.200
 1370SOL    HW1 5009   0.070   2.371   3.261
 1370SOL    HW2 5010   0.007   2.397   3.113
 1371SOL     OW 5011   5.699   1.787   5.248
 1371SOL    HW1 5012   5.639   1.865   5.260
 1371SOL    HW2 5013   5.725   1.779   5.152
 1372SOL     OW 5014   6.232   2.373   6.783
 1372SOL    HW1 5015   6.325   2.356   6.752
 1372SOL    HW2 5016   6.168   2.323   6.725
 1373SOL     OW 5017   4.731   2.766   2.036
 1373SOL    HW1 5018   4.731   2.862   2.007
 1373SOL    HW2 5019   4.686   2.710   1.966
 1374SOL     OW 5020   5.123   4.822   0.352
 1374SOL    HW1 5021   5.183   4.798   0.276
 1374SOL    HW2 5022   5.103   4.740   0.405
 1375SOL     OW 5023   5.685   6.093   4.680
 1375SOL    HW1 5024   5.701   5.996   4.699
 1375SOL    HW2 5025   5.764   6.131   4.633
 1376SOL     OW 5026   2.147   4.820   6.702
 1376SOL    HW1 5027   2.050   4.798   6.701
 1376SOL    HW2 5028   2.173   4.851   6.793
 1377SOL     OW 5029   1.725   2.100   2.735
 1377SOL    HW1 5030   1.669   2.183   2.736
 1377SOL    HW2 5031   1.748   2.074   2.829
 1378SOL     OW 5032   5.051   2.255   4.311
 1378SOL    HW1 5033   4.979   2.321   4.331
 1378SOL    HW2 5034   5.025   2.200   4.232
 1379SOL     OW 5035   5.519   5.316   1.079
 1379SOL    HW1 5036   5.467   5.397   1.052
 1379SOL    HW2 5037   5.456   5.240   1.095
 1380SOL     OW 5038   6.864   5.618   0.884
 1380SOL    HW1 5039   6.890   5.714   0.874
 1380SOL    HW2 5040   6.798   5.593   0.812
 1381SOL     OW 5041   5.913   2.347   5.575
 1381SOL    HW1 5042   5.822   2.370   5.541
 1381SOL    HW2 5043   5.947   2.423   5.631
 1382SOL     OW 5044   4.285   2.805   1.259
 1382SOL    HW1 5045   4.328   2.887   1.221
 1382SOL    HW2 5046   4.190   2.824   1.282
 1383SOL     OW 5047   0.672   0.701   1.799
 1383SOL    HW1 5048   0.760   0.697   1.752
 1383SOL    HW2 5049   0.600   0.667   1.738
 1384SOL     OW 5050   5.116   0.806   1.319
 1384SOL    HW1 5051   5.214   0.784   1.317
 1384SOL    HW2 5052   5.088   0.825   1.413
 1385SOL     OW 5053   1.740   5.510   2.202
 1385SOL    HW1 5054   1.739   5.497   2.103
 1385SOL    HW2 5055   1.656   5.556   2.231
 1386SOL     OW 5056   2.719   5.950   3.954
 1386SOL    HW1 5057   2.700   5.890   4.032
 1386SOL    HW2 5058   2.817   5.969   3.949
 1387SOL     OW 5059   4.203   5.862   1.878
 1387SOL    HW1 5060   4.139   5.849   1.954
 1387SOL    HW2 5061   4.196   5.955   1.844
 1388SOL     OW 5062   6.942   0.304   1.237
 1388SOL    HW1 5063   7.021   0.243   1.243
 1388SOL    HW2 5064   6.867   0.267   1.293
 1389SOL     OW 5065   6.770   0.863   3.028
 1389SOL    HW1 5066   6.848   0.919   3.054
 1389SOL    HW2 5067   6.768   0.852   2.929
 1390SOL     OW 5068   0.229   2.878   5.829
 1390SOL    HW1 5069   0.242   2.822   5.746
 1390SOL    HW2 5070   0.195   2.820   5.903
 1391SOL     OW 5071   6.565   1.737   3.497
 1391SOL    HW1 5072   6.498   1.679   3.450
 1391SOL    HW2 5073   6.626   1.779   3.430
 1392SOL     OW 5074   4.801   5.371   5.370
 1392SOL    HW1 5075   4.762   5.282   5.395
 1392SOL    HW2 5076   4.727   5.437   5.358
 1393SOL     OW 5077   4.595   6.580   5.595
 1393SOL    HW1 5078   4.682   6.627   5.606
 1393SOL    HW2 5079   4.601   6.488   5.635
 1394SOL     OW 5080   2.874   5.818   5.651
 1394SOL    HW1 5081   2.805   5.890   5.653
 1394SOL    HW2 5082   2.831   5.731   5.626
 1395SOL     OW 5083   3.233   4.673   5.731
 1395SOL    HW1 5084   3.245   4.708   5.638
 1395SOL    HW2 5085   3.224   4.574   5.729
 1396SOL     OW 5086   6.730   6.608   4.651
 1396SOL    HW1 5087   6.677   6.644   4.575
 1396SOL    HW2 5088   6.669   6.557   4.713
 1397SOL     OW 5089   5.770   0.408   4.499
 1397SOL    HW1 5090   5.818   0.321   4.490
 1397SOL    HW2 5091   5.775   0.439   4.594
 1398SOL     OW 5092   1.228   1.246   5.124
 1398SOL    HW1 5093   1.178   1.332   5.136
 1398SOL    HW2 5094   1.287   1.253   5.043
 1399SOL     OW 5095   3.381   5.665   0.877
 1399SOL    HW1 5096   3.457   5.602   0.865
 1399SOL    HW2 5097   3.374   5.691   0.973
 1400SOL     OW 5098   6.669   0.946   1.795
 1400SOL    HW1 5099   6.745   0.904   1.845
 1400SOL    HW2 5100   6.701   1.028   1.749
 1401SOL     OW 5101   0.561   2.270   5.538
 1401SOL    HW1 5102   0.589   2.185   5.582
 1401SOL    HW2 5103   0.601   2.275   5.446
 1402SOL     OW 5104   6.951   3.467   0.267
 1402SOL    HW1 5105   6.887   3.538   0.297
 1402SOL    HW2 5106   6.964   3.473   0.168
 1403SOL     OW 5107   2.772   6.792   1.890
 1403SOL    HW1 5108   2.745   6.888   1.901
 1403SOL    HW2 5109   2.725   6.737   1.959
 1404SOL     OW 5110   5.489   0.737   0.462
 1404SOL    HW1 5111   5.425   0.688   0.521
 1404SOL    HW2 5112   5.525   0.817   0.509
 1405SOL     OW 5113   1.987   3.990   1.217
 1405SOL    HW1 5114   2.069   4.039   1.189
 1405SOL    HW2 5115   1.981   3.903   1.167
 1406SOL     OW 5116   0.928   4.456   1.666
 1406SOL    HW1 5117   0.849   4.408   1.704
 1406SOL    HW2 5118   0.955   4.530   1.728
 1407SOL     OW 5119   6.471   1.271   2.023
 1407SOL    HW1 5120   6.456   1.190   1.966
 1407SOL    HW2 5121   6.500   1.243   2.114
 1408SOL     OW 5122   5.527   0.820   6.177
 1408SOL    HW1 5123   5.500   0.837   6.272
 1408SOL    HW2 5124   5.606   0.877   6.155
 1409SOL     OW 5125   0.049   0.456   4.461
 1409SOL    HW1 5126   0.106   0.391   4.511
 1409SOL    HW2 5127   0.045   0.543   4.511
 1410SOL     OW 5128   1.177   3.200   6.762
 1410SOL    HW1 5129   1.154   3.245   6.849
 1410SOL    HW2 5130   1.147   3.257   6.686
 1411SOL     OW 5131   2.238   6.491   2.627
 1411SOL    HW1 5132   2.266   6.575   2.582
 1411SOL    HW2 5133   2.226   6.419   2.559
 1412SOL     OW 5134   2.022   2.788   0.604
 1412SOL    HW1 5135   2.080   2.863   0.570
 1412SOL    HW2 5136   1.989   2.811   0.696
 1413SOL     OW 5137   2.487   1.078   4.403
 1413SOL    HW1 5138   2.445   1.110   4.488
 1413SOL    HW2 5139   2.568   1.023   4.425
 1414SOL     OW 5140   2.602   1.651   1.864
 1414SOL    HW1 5141   2.542   1.725   1.895
 1414SOL    HW2 5142   2.570   1.564   1.901
 1415SOL     OW 5143   3.363   6.243   4.735
 1415SOL    HW1 5144   3.318   6.175   4.793
 1415SOL    HW2 5145   3.300   6.272   4.663
 1416SOL     OW 5146   4.561   4.445   2.846
 1416SOL    HW1 5147   4.509   4.527   2.869
 1416SOL    HW2 5148   4.586   4.448   2.749
 1417SOL     OW 5149   2.896   2.362   6.281
 1417SOL    HW1 5150   2.874   2.272   6.242
 1417SOL    HW2 5151   2.976   2.399   6.235
 1418SOL     OW 5152   3.051   3.936   2.929
 1418SOL    HW1 5153   3.086   3.855   2.883
 1418SOL    HW2 5154   2.979   3.978   2.874
 1419SOL     OW 5155   2.815   6.609   4.512
 1419SOL    HW1 5156   2.801   6.593   4.609
 1419SOL    HW2 5157   2.745   6.672   4.478
 1420SOL     OW 5158   1.388   6.230   2.628
 1420SOL    HW1 5159   1.386   6.131   2.637
 1420SOL    HW2 5160   1.329   6.258   2.552
 1421SOL     OW 5161   2.174   2.693   3.105
 1421SOL    HW1 5162   2.210   2.607   3.142
 1421SOL    HW2 5163   2.106   2.731   3.168
 1422SOL     OW 5164   2.453   4.553   2.118
 1422SOL    HW1 5165   2.525   4.532   2.052
 1422SOL    HW2 5166   2.492   4.554   2.210
 1423SOL     OW 5167   5.778   6.375   2.109
 1423SOL    HW1 5168   5.836   6.456   2.109
 1423SOL    HW2 5169   5.682   6.401   2.107
 1424SOL     OW 5170   5.710   5.124   4.863
 1424SOL    HW1 5171   5.676   5.102   4.771
 1424SOL    HW2 5172   5.693   5.221   4.881
 1425SOL     OW 5173   1.587   6.128   3.958
 1425SOL    HW1 5174   1.584   6.227   3.966
 1425SOL    HW2 5175   1.636   6.089   4.036
 1426SOL     OW 5176   0.872   1.876   5.631
 1426SOL    HW1 5177   0.921   1.839   5.552
 1426SOL    HW2 5178   0.840   1.800   5.689
 1427SOL     OW 5179   6.772   0.194   3.012
 1427SOL    HW1 5180   6.727   0.129   3.073
 1427SOL    HW2 5181   6.816   0.266   3.066
 1428SOL     OW 5182   6.271   2.485   0.521
 1428SOL    HW1 5183   6.217   2.402   0.538
 1428SOL    HW2 5184   6.334   2.468   0.445
 1429SOL     OW 5185   6.143   1.433   0.338
 1429SOL    HW1 5186   6.202   1.430   0.258
 1429SOL    HW2 5187   6.106   1.341   0.356
 1430SOL     OW 5188   1.293   4.088   3.878
 1430SOL    HW1 5189   1.371   4.135   3.919
 1430SOL    HW2 5190   1.327   4.016   3.816
 1431SOL     OW 5191   2.245   1.578   1.678
 1431SOL    HW1 5192   2.227   1.649   1.609
 1431SOL    HW2 5193   2.221   1.614   1.769
 1432SOL     OW 5194   2.511   1.426   3.539
 1432SOL    HW1 5195   2.435   1.489   3.544
 1432SOL    HW2 5196   2.551   1.428   3.448
 1433SOL     OW 5197   4.093   0.950   4.152
 1433SOL    HW1 5198   4.123   0.870   4.203
 1433SOL    HW2 5199   4.106   0.934   4.054
 1434SOL     OW 5200   0.575   0.815   5.360
 1434SOL    HW1 5201   0.495   0.862   5.400
 1434SOL    HW2 5202   0.598   0.858   5.272
 1435SOL     OW 5203   5.843   1.006   2.648
 1435SOL    HW1 5204   5.814   1.002   2.552
 1435SOL    HW2 5205   5.858   0.913   2.682
 1436SOL     OW 5206   3.896   4.184   6.745
 1436SOL    HW1 5207   3.827   4.162   6.814
 1436SOL    HW2 5208   3.981   4.134   6.766
 1437SOL     OW 5209   3.085   1.578   3.648
 1437SOL    HW1 5210   3.089   1.576   3.548
 1437SOL    HW2 5211   3.177   1.564   3.685
 1438SOL     OW 5212   3.859   6.305   1.583
 1438SOL    HW1 5213   3.952   6.340   1.574
 1438SOL    HW2 5214   3.860   6.205   1.585
 1439SOL     OW 5215   0.252   5.929   1.927
 1439SOL    HW1 5216   0.268   6.020   1.889
 1439SOL    HW2 5217   0.242   5.863   1.853
 1440SOL     OW 5218   2.606   4.362   1.199
 1440SOL    HW1 5219   2.577   4.304   1.123
 1440SOL    HW2 5220   2.580   4.319   1.285
 1441SOL     OW 5221   6.761   0.207   1.422
 1441SOL    HW1 5222   6.681   0.149   1.409
 1441SOL    HW2 5223   6.788   0.206   1.518
 1442SOL     OW 5224   6.095   6.173   6.720
 1442SOL    HW1 5225   6.108   6.076   6.738
 1442SOL    HW2 5226   6.180   6.222   6.738
 1443SOL     OW 5227   0.620   2.510   2.681
 1443SOL    HW1 5228   0.544   2.536   2.620
 1443SOL    HW2 5229   0.625   2.410   2.687
 1444SOL     OW 5230   5.418   0.062   0.938
 1444SOL    HW1 5231   5.342   0.117   0.973
 1444SOL    HW2 5232   5.385   6.994   0.917
 1445SOL     OW 5233   0.754   3.437   2.984
 1445SOL    HW1 5234   0.688   3.453   2.911
 1445SOL    HW2 5235   0.753   3.514   3.047
 1446SOL     OW 5236   6.024   0.130   6.632
 1446SOL    HW1 5237   6.025   0.163   6.727
 1446SOL    HW2 5238   5.930   0.124   6.601
 1447SOL     OW 5239   5.294   5.393   3.489
 1447SOL    HW1 5240   5.210   5.446   3.497
 1447SOL    HW2 5241   5.342   5.392   3.577
 1448SOL     OW 5242   0.286   3.063   4.868
 1448SOL    HW1 5243   0.221   3.107   4.806
 1448SOL    HW2 5244   0.242   2.985   4.912
 1449SOL     OW 5245   1.434   4.002   4.868
 1449SOL    HW1 5246   1.459   3.911   4.834
 1449SOL    HW2 5247   1.506   4.067   4.847
 1450SOL     OW 5248   1.015   1.677   5.500
 1450SOL    HW1 5249   0.986   1.583   5.483
 1450SOL    HW2 5250   1.076   1.680   5.579
 1451SOL     OW 5251   2.118   6.457   1.985
 1451SOL    HW1 5252   2.133   6.384   1.918
 1451SOL    HW2 5253   2.190   6.526   1.975
 1452SOL     OW 5254   4.271   3.204   6.165
 1452SOL    HW1 5255   4.250   3.170   6.074
 1452SOL    HW2 5256   4.298   3.128   6.224
 1453SOL     OW 5257   0.712   4.675   5.420
 1453SOL    HW1 5258   0.802   4.697   5.383
 1453SOL    HW2 5259   0.721   4.631   5.509
 1454SOL     OW 5260   2.878   1.779   3.408
 1454SOL    HW1 5261   2.875   1.790   3.309
 1454SOL    HW2 5262   2.787   1.793   3.446
 1455SOL     OW 5263   1.701   6.041   3.053
 1455SOL    HW1 5264   1.624   6.097   3.083
 1455SOL    HW2 5265   1.713   6.050   2.954
 1456SOL     OW 5266   6.592   5.723   6.125
 1456SOL    HW1 5267   6.621   5.729   6.221
 1456SOL    HW2 5268   6.530   5.798   6.104
 1457SOL     OW 5269   0.425   4.196   0.213
 1457SOL    HW1 5270   0.498   4.148   0.262
 1457SOL    HW2 5271   0.454   4.289   0.193
 1458SOL     OW 5272   5.600   5.364   5.455
 1458SOL    HW1 5273   5.671   5.426   5.488
 1458SOL    HW2 5274   5.632   5.318   5.372
 1459SOL     OW 5275   5.247   6.716   5.512
 1459SOL    HW1 5276   5.284   6.624   5.498
 1459SOL    HW2 5277   5.151   6.718   5.481
 1460SOL     OW 5278   1.399   6.721   5.508
 1460SOL    HW1 5279   1.368   6.665   5.585
 1460SOL    HW2 5280   1.392   6.668   5.423
 1461SOL     OW 5281   0.218   3.466   2.573
 1461SOL    HW1 5282   0.306   3.426   2.546
 1461SOL    HW2 5283   0.233   3.530   2.649
 1462SOL     OW 5284   0.857   0.884   0.011
 1462SOL    HW1 5285   0.953   0.904   7.013
 1462SOL    HW2 5286   0.798   0.917   6.961
 1463SOL     OW 5287   1.825   5.823   6.262
 1463SOL    HW1 5288   1.902   5.862   6.213
 1463SOL    HW2 5289   1.756   5.790   6.197
 1464SOL     OW 5290   5.791   3.913   3.592
 1464SOL    HW1 5291   5.814   3.955   3.505
 1464SOL    HW2 5292   5.769   3.816   3.578
 1465SOL     OW 5293   1.826   1.467   3.526
 1465SOL    HW1 5294   1.757   1.495   3.459
 1465SOL    HW2 5295   1.891   1.542   3.540
 1466SOL     OW 5296   3.664   2.499   1.722
 1466SOL    HW1 5297   3.607   2.574   1.756
 1466SOL    HW2 5298   3.671   2.429   1.792
 1467SOL     OW 5299   0.859   1.076   3.968
 1467SOL    HW1 5300   0.882   1.068   3.871
 1467SOL    HW2 5301   0.781   1.018   3.989
 1468SOL     OW 5302   3.311   5.837   1.962
 1468SOL    HW1 5303   3.243   5.764   1.962
 1468SOL    HW2 5304   3.309   5.884   1.874
 1469SOL     OW 5305   6.142   6.078   3.668
 1469SOL    HW1 5306   6.160   6.175   3.649
 1469SOL    HW2 5307   6.225   6.025   3.649
 1470SOL     OW 5308   7.013   2.621   0.955
 1470SOL    HW1 5309   0.016   2.537   0.908
 1470SOL    HW2 5310   6.948   2.672   0.898
 1471SOL     OW 5311   6.872   7.017   1.204
 1471SOL    HW1 5312   6.915   6.938   1.249
 1471SOL    HW2 5313   6.941   0.065   1.192
 1472SOL     OW 5314   2.975   6.900   5.986
 1472SOL    HW1 5315   2.877   6.917   5.972
 1472SOL    HW2 5316   2.988   6.804   6.011
 1473SOL     OW 5317   3.472   4.985   4.524
 1473SOL    HW1 5318   3.537   4.916   4.492
 1473SOL    HW2 5319   3.389   4.980   4.469
 1474SOL     OW 5320   4.648   4.972   1.583
 1474SOL    HW1 5321   4.724   4.908   1.578
 1474SOL    HW2 5322   4.626   5.005   1.491
 1475SOL     OW 5323   5.089   0.770   0.502
 1475SOL    HW1 5324   5.027   0.708   0.550
 1475SOL    HW2 5325   5.041   0.855   0.481
 1476SOL     OW 5326   2.839   1.252   1.320
 1476SOL    HW1 5327   2.811   1.220   1.410
 1476SOL    HW2 5328   2.846   1.352   1.320
 1477SOL     OW 5329   4.255   6.258   0.896
 1477SOL    HW1 5330   4.301   6.251   0.984
 1477SOL    HW2 5331   4.292   6.189   0.834
 1478SOL     OW 5332   5.292   6.154   5.220
 1478SOL    HW1 5333   5.332   6.074   5.176
 1478SOL    HW2 5334   5.365   6.219   5.242
 1479SOL     OW 5335   3.821   3.665   1.652
 1479SOL    HW1 5336   3.725   3.692   1.642
 1479SOL    HW2 5337   3.875   3.745   1.681
 1480SOL     OW 5338   2.524   0.482   5.687
 1480SOL    HW1 5339   2.557   0.564   5.733
 1480SOL    HW2 5340   2.568   0.402   5.727
 1481SOL     OW 5341   5.643   2.636   5.088
 1481SOL    HW1 5342   5.742   2.637   5.103
 1481SOL    HW2 5343   5.605   2.726   5.110
 1482SOL     OW 5344   4.540   0.442   0.693
 1482SOL    HW1 5345   4.505   0.373   0.756
 1482SOL    HW2 5346   4.466   0.504   0.667
 1483SOL     OW 5347   4.397   1.368   6.096
 1483SOL    HW1 5348   4.319   1.403   6.045
 1483SOL    HW2 5349   4.390   1.396   6.192
 1484SOL     OW 5350   3.082   4.941   4.160
 1484SOL    HW1 5351   3.042   5.031   4.180
 1484SOL    HW2 5352   3.013   4.870   4.177
 1485SOL     OW 5353   5.184   1.509   3.016
 1485SOL    HW1 5354   5.142   1.432   2.968
 1485SOL    HW2 5355   5.274   1.528   2.976
 1486SOL     OW 5356   5.338   6.969   3.385
 1486SOL    HW1 5357   5.265   6.992   3.320
 1486SOL    HW2 5358   5.340   0.013   3.458
 1487SOL     OW 5359   0.142   0.693   0.141
 1487SOL    HW1 5360   0.223   0.747   0.119
 1487SOL    HW2 5361   0.069   0.714   0.076
 1488SOL     OW 5362   6.406   0.590   2.692
 1488SOL    HW1 5363   6.496   0.568   2.655
 1488SOL    HW2 5364   6.344   0.615   2.618
 1489SOL     OW 5365   4.263   4.851   6.976
 1489SOL    HW1 5366   4.173   4.849   7.019
 1489SOL    HW2 5367   4.254   4.857   6.877
 1490SOL     OW 5368   0.291   2.507   1.865
 1490SOL    HW1 5369   0.309   2.594   1.818
 1490SOL    HW2 5370   0.280   2.524   1.963
 1491SOL     OW 5371   0.077   3.161   1.620
 1491SOL    HW1 5372   0.040   3.068   1.623
 1491SOL    HW2 5373   0.108   3.181   1.527
 1492SOL     OW 5374   6.197   0.672   2.461
 1492SOL    HW1 5375   6.146   0.756   2.444
 1492SOL    HW2 5376   6.257   0.654   2.383
 1493SOL     OW 5377   4.438   1.408   5.774
 1493SOL    HW1 5378   4.444   1.309   5.771
 1493SOL    HW2 5379   4.353   1.435   5.819
 1494SOL     OW 5380   5.757   2.466   5.963
 1494SOL    HW1 5381   5.808   2.491   6.045
 1494SOL    HW2 5382   5.789   2.521   5.886
 1495SOL     OW 5383   5.670   3.396   3.882
 1495SOL    HW1 5384   5.647   3.491   3.904
 1495SOL    HW2 5385   5.761   3.393   3.841
 1496SOL     OW 5386   6.994   6.252   6.651
 1496SOL    HW1 5387   6.956   6.344   6.660
 1496SOL    HW2 5388   0.051   6.243   6.710
 1497SOL     OW 5389   5.196   2.396   2.761
 1497SOL    HW1 5390   5.199   2.297   2.747
 1497SOL    HW2 5391   5.101   2.426   2.765
 1498SOL     OW 5392   2.954   4.986   1.312
 1498SOL    HW1 5393   2.930   4.977   1.409
 1498SOL    HW2 5394   3.041   4.939   1.295
 1499SOL     OW 5395   0.134   3.909   5.916
 1499SOL    HW1 5396   0.123   3.955   5.828
 1499SOL    HW2 5397   0.137   3.976   5.990
 1500SOL     OW 5398   1.200   5.793   0.512
 1500SOL    HW1 5399   1.104   5.791   0.540
 1500SOL    HW2 5400   1.211   5.856   0.435
 1501SOL     OW 5401   5.875   1.395   6.309
 1501SOL    HW1 5402   5.784   1.437   6.297
 1501SOL    HW2 5403   5.935   1.461   6.355
 1502SOL     OW 5404   0.044   1.301   6.122
 1502SOL    HW1 5405   0.004   1.376   6.175
 1502SOL    HW2 5406   0.071   1.228   6.184
 1503SOL     OW 5407   0.765   4.067   1.827
 1503SOL    HW1 5408   0.865   4.065   1.820
 1503SOL    HW2 5409   0.732   4.156   1.796
 1504SOL     OW 5410   0.466   6.855   3.263
 1504SOL    HW1 5411   0.404   6.788   3.304
 1504SOL    HW2 5412   0.554   6.812   3.243
 1505SOL     OW 5413   5.791   6.862   4.901
 1505SOL    HW1 5414   5.868   6.905   4.948
 1505SOL    HW2 5415   5.706   6.883   4.948
 1506SOL     OW 5416   1.613   0.924   1.048
 1506SOL    HW1 5417   1.519   0.948   1.024
 1506SOL    HW2 5418   1.656   1.002   1.096
 1507SOL     OW 5419   1.040   1.951   4.526
 1507SOL    HW1 5420   0.961   1.993   4.483
 1507SOL    HW2 5421   1.080   2.014   4.593
 1508SOL     OW 5422   0.467   1.072   0.504
 1508SOL    HW1 5423   0.437   0.998   0.564
 1508SOL    HW2 5424   0.553   1.110   0.538
 1509SOL     OW 5425   5.322   1.473   5.115
 1509SOL    HW1 5426   5.285   1.505   5.028
 1509SOL    HW2 5427   5.248   1.443   5.175
 1510SOL     OW 5428   3.521   6.923   3.662
 1510SOL    HW1 5429   3.589   6.946   3.732
 1510SOL    HW2 5430   3.520   6.823   3.649
 1511SOL     OW 5431   3.692   3.840   4.001
 1511SOL    HW1 5432   3.755   3.911   3.969
 1511SOL    HW2 5433   3.718   3.811   4.093
 1512SOL     OW 5434   6.812   6.124   1.369
 1512SOL    HW1 5435   6.755   6.204   1.347
 1512SOL    HW2 5436   6.819   6.066   1.288
 1513SOL     OW 5437   3.264   6.728   5.864
 1513SOL    HW1 5438   3.204   6.733   5.784
 1513SOL    HW2 5439   3.336   6.798   5.857
 1514SOL     OW 5440   3.481   2.430   5.692
 1514SOL    HW1 5441   3.467   2.336   5.660
 1514SOL    HW2 5442   3.396   2.482   5.678
 1515SOL     OW 5443   6.658   1.844   2.410
 1515SOL    HW1 5444   6.656   1.894   2.324
 1515SOL    HW2 5445   6.566   1.845   2.451
 1516SOL     OW 5446   6.491   6.608   4.867
 1516SOL    HW1 5447   6.493   6.707   4.850
 1516SOL    HW2 5448   6.480   6.560   4.780
 1517SOL     OW 5449   3.673   6.444   3.728
 1517SOL    HW1 5450   3.663   6.441   3.827
 1517SOL    HW2 5451   3.636   6.529   3.692
 1518SOL     OW 5452   6.904   2.704   0.023
 1518SOL    HW1 5453   6.959   2.749   0.093
 1518SOL    HW2 5454   6.964   2.662   6.979
 1519SOL     OW 5455   0.024   4.241   0.586
 1519SOL    HW1 5456   0.051   4.282   0.498
 1519SOL    HW2 5457   6.993   4.307   0.637
 1520SOL     OW 5458   0.989   4.863   1.249
 1520SOL    HW1 5459   1.062   4.897   1.191
 1520SOL    HW2 5460   0.915   4.931   1.252
 1521SOL     OW 5461   2.545   4.614   6.851
 1521SOL    HW1 5462   2.479   4.645   6.920
 1521SOL    HW2 5463   2.615   4.684   6.839
 1522SOL     OW 5464   5.188   5.667   5.003
 1522SOL    HW1 5465   5.250   5.707   4.936
 1522SOL    HW2 5466   5.099   5.713   4.998
 1523SOL     OW 5467   4.056   0.006   6.861
 1523SOL    HW1 5468   4.117   6.973   6.807
 1523SOL    HW2 5469   4.077   7.020   6.958
 1524SOL     OW 5470   2.808   2.268   2.691
 1524SOL    HW1 5471   2.889   2.304   2.738
 1524SOL    HW2 5472   2.725   2.299   2.739
 1525SOL     OW 5473   6.282   2.509   0.819
 1525SOL    HW1 5474   6.330   2.421   0.815
 1525SOL    HW2 5475   6.259   2.538   0.726
 1526SOL     OW 5476   0.429   1.720   6.852
 1526SOL    HW1 5477   0.346   1.775   6.842
 1526SOL    HW2 5478   0.508   1.776   6.829
 1527SOL     OW 5479   3.545   1.589   4.829
 1527SOL    HW1 5480   3.469   1.565   4.768
 1527SOL    HW2 5481   3.511   1.645   4.904
 1528SOL     OW 5482   4.628   3.837   0.676
 1528SOL    HW1 5483   4.625   3.803   0.770
 1528SOL    HW2 5484   4.541   3.881   0.654
 1529SOL     OW 5485   5.389   0.731   6.650
 1529SOL    HW1 5486   5.373   0.725   6.551
 1529SOL    HW2 5487   5.369   0.642   6.692
 1530SOL     OW 5488   3.151   0.085   1.349
 1530SOL    HW1 5489   3.147   7.020   1.395
 1530SOL    HW2 5490   3.234   0.133   1.375
 1531SOL     OW 5491   4.172   0.651   4.191
 1531SOL    HW1 5492   4.244   0.675   4.126
 1531SOL    HW2 5493   4.091   0.620   4.142
 1532SOL     OW 5494   3.232   5.059   5.993
 1532SOL    HW1 5495   3.166   4.991   5.961
 1532SOL    HW2 5496   3.201   5.099   6.079
 1533SOL     OW 5497   5.177   5.629   1.064
 1533SOL    HW1 5498   5.132   5.717   1.048
 1533SOL    HW2 5499   5.142   5.589   1.149
 1534SOL     OW 5500   4.170   6.664   0.067
 1534SOL    HW1 5501   4.191   6.652   0.164
 1534SOL    HW2 5502   4.237   6.726   0.026
 1535SOL     OW 5503   6.098   6.950   4.867
 1535SOL    HW1 5504   6.061   0.019   4.870
 1535SOL    HW2 5505   6.035   6.891   4.816
 1536SOL     OW 5506   3.965   4.270   0.104
 1536SOL    HW1 5507   3.948   4.322   0.188
 1536SOL    HW2 5508   4.063   4.249   0.098
 1537SOL     OW 5509   3.588   5.004   3.896
 1537SOL    HW1 5510   3.616   5.099   3.882
 1537SOL    HW2 5511   3.554   4.966   3.810
 1538SOL     OW 5512   3.595   1.514   0.366
 1538SOL    HW1 5513   3.672   1.452   0.350
 1538SOL    HW2 5514   3.511   1.461   0.374
 1539SOL     OW 5515   4.903   3.554   1.496
 1539SOL    HW1 5516   4.812   3.596   1.495
 1539SOL    HW2 5517   4.926   3.529   1.590
 1540SOL     OW 5518   2.152   0.217   4.627
 1540SOL    HW1 5519   2.088   0.206   4.703
 1540SOL    HW2 5520   2.148   0.312   4.594
 1541SOL     OW 5521   3.758   2.955   4.548
 1541SOL    HW1 5522   3.662   2.950   4.522
 1541SOL    HW2 5523   3.765   2.966   4.647
 1542SOL     OW 5524   6.618   6.758   2.253
 1542SOL    HW1 5525   6.656   6.702   2.180
 1542SOL    HW2 5526   6.692   6.800   2.305
 1543SOL     OW 5527   2.877   5.912   6.373
 1543SOL    HW1 5528   2.925   5.850   6.312
 1543SOL    HW2 5529   2.872   5.872   6.465
 1544SOL     OW 5530   4.018   3.670   4.036
 1544SOL    HW1 5531   4.023   3.690   3.938
 1544SOL    HW2 5532   3.995   3.753   4.086
 1545SOL     OW 5533   6.298   0.131   1.814
 1545SOL    HW1 5534   6.284   0.161   1.720
 1545SOL    HW2 5535   6.212   0.132   1.864
 1546SOL     OW 5536   5.293   0.221   5.743
 1546SOL    HW1 5537   5.320   0.130   5.774
 1546SOL    HW2 5538   5.372   0.268   5.704
 1547SOL     OW 5539   1.274   4.079   0.540
 1547SOL    HW1 5540   1.319   4.117   0.460
 1547SOL    HW2 5541   1.186   4.039   0.513
 1548SOL     OW 5542   6.425   3.196   0.353
 1548SOL    HW1 5543   6.516   3.237   0.339
 1548SOL    HW2 5544   6.427   3.100   0.326
 1549SOL     OW 5545   3.825   1.483   4.579
 1549SOL    HW1 5546   3.802   1.415   4.510
 1549SOL    HW2 5547   3.858   1.567   4.534
 1550SOL     OW 5548   4.051   3.243   2.388
 1550SOL    HW1 5549   4.134   3.287   2.354
 1550SOL    HW2 5550   4.053   3.240   2.488
 1551SOL     OW 5551   1.027   5.232   0.074
 1551SOL    HW1 5552   1.040   5.228   0.173
 1551SOL    HW2 5553   1.035   5.141   0.035
 1552SOL     OW 5554   2.818   4.581   0.911
 1552SOL    HW1 5555   2.794   4.653   0.977
 1552SOL    HW2 5556   2.895   4.528   0.946
 1553SOL     OW 5557   0.650   1.902   5.976
 1553SOL    HW1 5558   0.587   1.908   6.054
 1553SOL    HW2 5559   0.740   1.934   6.004
 1554SOL     OW 5560   3.315   1.989   3.543
 1554SOL    HW1 5561   3.324   1.937   3.459
 1554SOL    HW2 5562   3.232   2.044   3.541
 1555SOL     OW 5563   5.828   2.846   5.895
 1555SOL    HW1 5564   5.916   2.807   5.921
 1555SOL    HW2 5565   5.791   2.795   5.817
 1556SOL     OW 5566   1.957   1.227   6.682
 1556SOL    HW1 5567   2.042   1.200   6.636
 1556SOL    HW2 5568   1.980   1.287   6.760
 1557SOL     OW 5569   1.567   3.397   6.307
 1557SOL    HW1 5570   1.538   3.369   6.399
 1557SOL    HW2 5571   1.635   3.469   6.313
 1558SOL     OW 5572   6.664   0.775   4.779
 1558SOL    HW1 5573   6.705   0.837   4.713
 1558SOL    HW2 5574   6.633   0.692   4.733
 1559SOL     OW 5575   0.499   2.795   6.411
 1559SOL    HW1 5576   0.530   2.887   6.435
 1559SOL    HW2 5577   0.439   2.761   6.483
 1560SOL     OW 5578   7.019   0.900   6.259
 1560SOL    HW1 5579   0.065   0.836   6.290
 1560SOL    HW2 5580   6.973   0.940   6.338
 1561SOL     OW 5581   4.453   6.197   2.798
 1561SOL    HW1 5582   4.360   6.195   2.762
 1561SOL    HW2 5583   4.453   6.166   2.893
 1562SOL     OW 5584   4.449   6.910   2.370
 1562SOL    HW1 5585   4.510   6.880   2.444
 1562SOL    HW2 5586   4.499   6.967   2.306
 1563SOL     OW 5587   3.368   0.833   6.529
 1563SOL    HW1 5588   3.411   0.824   6.439
 1563SOL    HW2 5589   3.280   0.786   6.529
 1564SOL     OW 5590   1.576   1.181   1.869
 1564SOL    HW1 5591   1.658   1.199   1.816
 1564SOL    HW2 5592   1.519   1.264   1.873
 1565SOL     OW 5593   4.916   3.830   2.197
 1565SOL    HW1 5594   4.858   3.911   2.193
 1565SOL    HW2 5595   4.920   3.788   2.106
 1566SOL     OW 5596   5.111   3.958   3.421
 1566SOL    HW1 5597   5.085   3.874   3.373
 1566SOL    HW2 5598   5.067   4.037   3.377
 1567SOL     OW 5599   5.872   5.893   6.203
 1567SOL    HW1 5600   5.881   5.844   6.116
 1567SOL    HW2 5601   5.776   5.899   6.228
 1568SOL     OW 5602   1.279   0.543   0.456
 1568SOL    HW1 5603   1.245   0.589   0.538
 1568SOL    HW2 5604   1.286   0.608   0.381
 1569SOL     OW 5605   3.736   6.675   4.811
 1569SOL    HW1 5606   3.817   6.720   4.848
 1569SOL    HW2 5607   3.760   6.628   4.726
 1570SOL     OW 5608   3.098   1.987   1.597
 1570SOL    HW1 5609   3.141   2.069   1.636
 1570SOL    HW2 5610   3.022   2.013   1.539
 1571SOL     OW 5611   6.227   3.236   1.879
 1571SOL    HW1 5612   6.256   3.330   1.897
 1571SOL    HW2 5613   6.205   3.225   1.782
 1572SOL     OW 5614   0.595   0.174   2.164
 1572SOL    HW1 5615   0.655   0.244   2.126
 1572SOL    HW2 5616   0.599   0.092   2.107
 1573SOL     OW 5617   5.393   6.776   1.686
 1573SOL    HW1 5618   5.370   6.712   1.613
 1573SOL    HW2 5619   5.410   6.867   1.648
 1574SOL     OW 5620   0.383   2.180   1.563
 1574SOL    HW1 5621   0.477   2.186   1.529
 1574SOL    HW2 5622   0.384   2.165   1.662
 1575SOL     OW 5623   2.171   2.298   0.394
 1575SOL    HW1 5624   2.111   2.314   0.315
 1575SOL    HW2 5625   2.155   2.369   0.463
 1576SOL     OW 5626   5.815   6.246   3.640
 1576SOL    HW1 5627   5.869   6.308   3.584
 1576SOL    HW2 5628   5.741   6.207   3.586
 1577SOL     OW 5629   2.514   0.746   5.511
 1577SOL    HW1 5630   2.446   0.699   5.455
 1577SOL    HW2 5631   2.503   0.845   5.500
 1578SOL     OW 5632   6.145   3.887   5.499
 1578SOL    HW1 5633   6.139   3.797   5.541
 1578SOL    HW2 5634   6.091   3.889   5.415
 1579SOL     OW 5635   0.412   1.345   3.064
 1579SOL    HW1 5636   0.337   1.287   3.034
 1579SOL    HW2 5637   0.474   1.293   3.122
 1580SOL     OW 5638   2.676   4.591   5.303
 1580SOL    HW1 5639   2.593   4.566   5.253
 1580SOL    HW2 5640   2.756   4.575   5.245
 1581SOL     OW 5641   6.235   4.258   4.429
 1581SOL    HW1 5642   6.184   4.172   4.425
 1581SOL    HW2 5643   6.286   4.270   4.344
 1582SOL     OW 5644   0.178   5.178   4.472
 1582SOL    HW1 5645   0.257   5.199   4.530
 1582SOL    HW2 5646   0.192   5.090   4.427
 1583SOL     OW 5647   1.842   3.117   4.050
 1583SOL    HW1 5648   1.876   3.133   4.143
 1583SOL    HW2 5649   1.743   3.105   4.052
 1584SOL     OW 5650   2.513   6.434   5.594
 1584SOL    HW1 5651   2.443   6.503   5.574
 1584SOL    HW2 5652   2.470   6.354   5.635
 1585SOL     OW 5653   5.538   1.977   3.110
 1585SOL    HW1 5654   5.487   2.059   3.133
 1585SOL    HW2 5655   5.521   1.953   3.014
 1586SOL     OW 5656   3.816   3.892   2.212
 1586SOL    HW1 5657   3.768   3.948   2.280
 1586SOL    HW2 5658   3.830   3.800   2.248
 1587SOL     OW 5659   3.697   6.669   0.022
 1587SOL    HW1 5660   3.620   6.630   0.072
 1587SOL    HW2 5661   3.770   6.691   0.086
 1588SOL     OW 5662   5.597   1.542   2.356
 1588SOL    HW1 5663   5.571   1.515   2.449
 1588SOL    HW2 5664   5.564   1.473   2.291
 1589SOL     OW 5665   5.881   4.846   3.692
 1589SOL    HW1 5666   5.820   4.804   3.759
 1589SOL    HW2 5667   5.910   4.778   3.625
 1590SOL     OW 5668   2.083   6.843   0.329
 1590SOL    HW1 5669   2.065   6.776   0.401
 1590SOL    HW2 5670   2.036   6.928   0.350
 1591SOL     OW 5671   1.146   4.895   2.485
 1591SOL    HW1 5672   1.106   4.807   2.458
 1591SOL    HW2 5673   1.227   4.913   2.428
 1592SOL     OW 5674   3.153   3.164   2.471
 1592SOL    HW1 5675   3.162   3.258   2.504
 1592SOL    HW2 5676   3.128   3.166   2.374
 1593SOL     OW 5677   0.522   6.220   4.426
 1593SOL    HW1 5678   0.513   6.229   4.525
 1593SOL    HW2 5679   0.450   6.160   4.391
 1594SOL     OW 5680   6.694   5.306   2.442
 1594SOL    HW1 5681   6.741   5.254   2.514
 1594SOL    HW2 5682   6.624   5.364   2.484
 1595SOL     OW 5683   0.208   4.572   6.231
 1595SOL    HW1 5684   0.139   4.499   6.239
 1595SOL    HW2 5685   0.289   4.536   6.185
 1596SOL     OW 5686   1.811   5.536   5.962
 1596SOL    HW1 5687   1.770   5.501   6.046
 1596SOL    HW2 5688   1.785   5.632   5.949
 1597SOL     OW 5689   2.179   6.255   1.815
 1597SOL    HW1 5690   2.177   6.239   1.716
 1597SOL    HW2 5691   2.234   6.184   1.858
 1598SOL     OW 5692   0.223   4.249   1.339
 1598SOL    HW1 5693   0.248   4.174   1.400
 1598SOL    HW2 5694   0.303   4.281   1.289
 1599SOL     OW 5695   3.693   4.872   6.943
 1599SOL    HW1 5696   3.612   4.930   6.942
 1599SOL    HW2 5697   3.671   4.784   6.987
 1600SOL     OW 5698   4.992   1.645   5.075
 1600SOL    HW1 5699   5.049   1.645   4.993
 1600SOL    HW2 5700   4.953   1.554   5.088
 1601SOL     OW 5701   1.228   4.521   5.264
 1601SOL    HW1 5702   1.185   4.457   5.200
 1601SOL    HW2 5703   1.327   4.519   5.252
 1602SOL     OW 5704   1.637   5.634   3.664
 1602SOL    HW1 5705   1.595   5.549   3.632
 1602SOL    HW2 5706   1.690   5.675   3.590
 1603SOL     OW 5707   0.623   6.562   2.233
 1603SOL    HW1 5708   0.679   6.490   2.192
 1603SOL    HW2 5709   0.529   6.530   2.245
 1604SOL     OW 5710   7.016   5.321   6.710
 1604SOL    HW1 5711   0.013   5.299   6.615
 1604SOL    HW2 5712   0.077   5.318   6.764
 1605SOL     OW 5713   6.489   6.853   2.798
 1605SOL    HW1 5714   6.392   6.867   2.779
 1605SOL    HW2 5715   6.512   6.893   2.887
 1606SOL     OW 5716   4.808   6.720   5.686
 1606SOL    HW1 5717   4.803   6.810   5.644
 1606SOL    HW2 5718   4.903   6.691   5.692
 1607SOL     OW 5719   4.245   2.715   0.942
 1607SOL    HW1 5720   4.332   2.764   0.943
 1607SOL    HW2 5721   4.250   2.637   1.005
 1608SOL     OW 5722   2.228   6.531   0.224
 1608SOL    HW1 5723   2.194   6.524   0.130
 1608SOL    HW2 5724   2.184   6.608   0.270
 1609SOL     OW 5725   5.120   2.121   5.758
 1609SOL    HW1 5726   5.162   2.195   5.704
 1609SOL    HW2 5727   5.071   2.161   5.836
 1610SOL     OW 5728   6.491   6.395   4.671
 1610SOL    HW1 5729   6.497   6.304   4.712
 1610SOL    HW2 5730   6.433   6.390   4.589
 1611SOL     OW 5731   3.752   3.549   2.000
 1611SOL    HW1 5732   3.718   3.626   1.946
 1611SOL    HW2 5733   3.735   3.463   1.951
 1612SOL     OW 5734   2.274   1.513   5.006
 1612SOL    HW1 5735   2.264   1.440   5.073
 1612SOL    HW2 5736   2.349   1.573   5.032
 1613SOL     OW 5737   2.142   5.587   0.752
 1613SOL    HW1 5738   2.143   5.571   0.850
 1613SOL    HW2 5739   2.142   5.685   0.734
 1614SOL     OW 5740   6.289   2.190   0.033
 1614SOL    HW1 5741   6.239   2.146   6.982
 1614SOL    HW2 5742   6.274   2.289   0.030
 1615SOL     OW 5743   6.748   4.395   6.385
 1615SOL    HW1 5744   6.716   4.476   6.336
 1615SOL    HW2 5745   6.688   4.378   6.464
 1616SOL     OW 5746   3.661   1.867   6.174
 1616SOL    HW1 5747   3.632   1.900   6.084
 1616SOL    HW2 5748   3.592   1.892   6.243
 1617SOL     OW 5749   5.675   0.683   2.663
 1617SOL    HW1 5750   5.610   0.753   2.692
 1617SOL    HW2 5751   5.765   0.704   2.701
 1618SOL     OW 5752   6.500   3.259   1.443
 1618SOL    HW1 5753   6.421   3.321   1.442
 1618SOL    HW2 5754   6.477   3.176   1.494
 1619SOL     OW 5755   1.430   3.410   4.294
 1619SOL    HW1 5756   1.377   3.351   4.233
 1619SOL    HW2 5757   1.522   3.422   4.256
 1620SOL     OW 5758   2.999   5.931   1.823
 1620SOL    HW1 5759   2.959   5.890   1.741
 1620SOL    HW2 5760   3.081   5.983   1.797
 1621SOL     OW 5761   1.100   0.563   0.858
 1621SOL    HW1 5762   1.144   0.475   0.877
 1621SOL    HW2 5763   1.120   0.627   0.932
 1622SOL     OW 5764   1.678   1.915   4.678
 1622SOL    HW1 5765   1.759   1.958   4.638
 1622SOL    HW2 5766   1.676   1.818   4.654
 1623SOL     OW 5767   2.569   1.992   6.266
 1623SOL    HW1 5768   2.519   2.078   6.277
 1623SOL    HW2 5769   2.504   1.916   6.262
 1624SOL     OW 5770   3.344   1.444   0.113
 1624SOL    HW1 5771   3.409   1.391   0.058
 1624SOL    HW2 5772   3.325   1.531   0.066
 1625SOL     OW 5773   0.966   5.028   1.828
 1625SOL    HW1 5774   1.032   5.065   1.893
 1625SOL    HW2 5775   1.010   4.959   1.770
 1626SOL     OW 5776   1.902   2.812   6.488
 1626SOL    HW1 5777   1.990   2.857   6.469
 1626SOL    HW2 5778   1.844   2.817   6.407
 1627SOL     OW 5779   6.327   2.454   3.168
 1627SOL    HW1 5780   6.403   2.475   3.108
 1627SOL    HW2 5781   6.285   2.539   3.201
 1628SOL     OW 5782   3.161   4.574   0.922
 1628SOL    HW1 5783   3.232   4.601   0.986
 1628SOL    HW2 5784   3.196   4.582   0.828
 1629SOL     OW 5785   3.423   2.059   4.386
 1629SOL    HW1 5786   3.392   1.965   4.367
 1629SOL    HW2 5787   3.480   2.059   4.468
 1630SOL     OW 5788   0.918   4.823   5.916
 1630SOL    HW1 5789   0.823   4.812   5.887
 1630SOL    HW2 5790   0.978   4.815   5.835
 1631SOL     OW 5791   0.023   0.017   5.347
 1631SOL    HW1 5792   0.043   0.017   5.249
 1631SOL    HW2 5793   0.055   6.955   5.387
 1632SOL     OW 5794   7.011   0.755   0.367
 1632SOL    HW1 5795   0.043   0.736   0.286
 1632SOL    HW2 5796   0.045   0.796   0.437
 1633SOL     OW 5797   6.133   1.788   3.207
 1633SOL    HW1 5798   6.119   1.761   3.302
 1633SOL    HW2 5799   6.226   1.762   3.179
 1634SOL     OW 5800   2.813   6.613   6.178
 1634SOL    HW1 5801   2.878   6.539   6.158
 1634SOL    HW2 5802   2.863   6.698   6.195
 1635SOL     OW 5803   6.952   5.599   5.052
 1635SOL    HW1 5804   6.990   5.691   5.047
 1635SOL    HW2 5805   0.001   5.534   5.071
 1636SOL     OW 5806   2.663   5.699   1.779
 1636SOL    HW1 5807   2.708   5.681   1.867
 1636SOL    HW2 5808   2.729   5.739   1.715
 1637SOL     OW 5809   0.247   3.626   2.293
 1637SOL    HW1 5810   0.226   3.611   2.390
 1637SOL    HW2 5811   0.167   3.601   2.238
 1638SOL     OW 5812   0.039   3.227   4.349
 1638SOL    HW1 5813   0.028   3.278   4.264
 1638SOL    HW2 5814   0.110   3.270   4.405
 1639SOL     OW 5815   4.850   5.523   2.709
 1639SOL    HW1 5816   4.823   5.603   2.763
 1639SOL    HW2 5817   4.833   5.440   2.761
 1640SOL     OW 5818   6.454   0.693   0.842
 1640SOL    HW1 5819   6.385   0.715   0.910
 1640SOL    HW2 5820   6.461   0.769   0.776
 1641SOL     OW 5821   5.765   3.494   4.879
 1641SOL    HW1 5822   5.793   3.470   4.786
 1641SOL    HW2 5823   5.665   3.500   4.883
 1642SOL     OW 5824   6.698   2.698   0.209
 1642SOL    HW1 5825   6.777   2.700   0.148
 1642SOL    HW2 5826   6.615   2.681   0.156
 1643SOL     OW 5827   3.499   6.411   5.179
 1643SOL    HW1 5828   3.509   6.325   5.129
 1643SOL    HW2 5829   3.512   6.488   5.115
 1644SOL     OW 5830   2.677   1.570   1.505
 1644SOL    HW1 5831   2.762   1.622   1.518
 1644SOL    HW2 5832   2.686   1.480   1.549
 1645SOL     OW 5833   3.069   6.632   6.653
 1645SOL    HW1 5834   2.988   6.684   6.681
 1645SOL    HW2 5835   3.082   6.642   6.554
 1646SOL     OW 5836   1.392   4.036   0.768
 1646SOL    HW1 5837   1.491   4.047   0.760
 1646SOL    HW2 5838   1.349   4.050   0.679
 1647SOL     OW 5839   5.703   3.141   3.626
 1647SOL    HW1 5840   5.711   3.204   3.549
 1647SOL    HW2 5841   5.753   3.057   3.606
 1648SOL     OW 5842   4.826   0.033   1.765
 1648SOL    HW1 5843   4.729   0.035   1.743
 1648SOL    HW2 5844   4.859   6.962   1.757
 1649SOL     OW 5845   3.029   0.917   3.219
 1649SOL    HW1 5846   2.980   1.004   3.216
 1649SOL    HW2 5847   3.124   0.932   3.243
 1650SOL     OW 5848   2.908   0.459   3.730
 1650SOL    HW1 5849   2.887   0.365   3.755
 1650SOL    HW2 5850   2.826   0.516   3.743
 1651SOL     OW 5851   0.865   0.556   0.194
 1651SOL    HW1 5852   0.951   0.540   0.145
 1651SOL    HW2 5853   0.791   0.568   0.129
 1652SOL     OW 5854   2.819   2.520   1.478
 1652SOL    HW1 5855   2.826   2.522   1.578
 1652SOL    HW2 5856   2.844   2.429   1.446
 1653SOL     OW 5857   0.024   5.585   0.488
 1653SOL    HW1 5858   0.044   5.682   0.476
 1653SOL    HW2 5859   0.055   5.555   0.578
 1654SOL     OW 5860   6.747   3.427   3.053
 1654SOL    HW1 5861   6.824   3.489   3.069
 1654SOL    HW2 5862   6.723   3.428   2.956
 1655SOL     OW 5863   5.167   3.967   6.379
 1655SOL    HW1 5864   5.214   3.971   6.290
 1655SOL    HW2 5865   5.068   3.962   6.364
 1656SOL     OW 5866   1.213   5.218   3.923
 1656SOL    HW1 5867   1.130   5.209   3.866
 1656SOL    HW2 5868   1.245   5.127   3.949
 1657SOL     OW 5869   1.156   0.709   5.010
 1657SOL    HW1 5870   1.101   0.784   4.972
 1657SOL    HW2 5871   1.253   0.727   4.993
 1658SOL     OW 5872   5.897   5.788   2.907
 1658SOL    HW1 5873   5.876   5.703   2.955
 1658SOL    HW2 5874   5.847   5.791   2.820
 1659SOL     OW 5875   3.478   2.199   6.685
 1659SOL    HW1 5876   3.393   2.171   6.642
 1659SOL    HW2 5877   3.464   2.211   6.783
 1660SOL     OW 5878   1.404   5.957   3.861
 1660SOL    HW1 5879   1.478   6.000   3.914
 1660SOL    HW2 5880   1.411   5.857   3.869
 1661SOL     OW 5881   2.905   1.317   2.139
 1661SOL    HW1 5882   3.001   1.324   2.111
 1661SOL    HW2 5883   2.900   1.270   2.227
 1662SOL     OW 5884   0.253   1.573   2.995
 1662SOL    HW1 5885   0.317   1.504   3.029
 1662SOL    HW2 5886   0.250   1.569   2.895
 1663SOL     OW 5887   3.432   0.143   2.905
 1663SOL    HW1 5888   3.487   0.075   2.858
 1663SOL    HW2 5889   3.466   0.155   2.999
 1664SOL     OW 5890   1.828   6.149   4.573
 1664SOL    HW1 5891   1.873   6.159   4.662
 1664SOL    HW2 5892   1.798   6.239   4.541
 1665SOL     OW 5893   0.568   1.029   2.678
 1665SOL    HW1 5894   0.608   1.024   2.769
 1665SOL    HW2 5895   0.512   1.111   2.670
 1666SOL     OW 5896   5.479   2.736   5.606
 1666SOL    HW1 5897   5.470   2.824   5.559
 1666SOL    HW2 5898   5.487   2.663   5.538
 1667SOL     OW 5899   6.351   0.004   6.244
 1667SOL    HW1 5900   6.404   6.945   6.262
 1667SOL    HW2 5901   6.307   7.021   6.154
 1668SOL     OW 5902   4.198   0.476   4.775
 1668SOL    HW1 5903   4.179   0.515   4.866
 1668SOL    HW2 5904   4.288   0.434   4.776
 1669SOL     OW 5905   5.560   0.147   6.147
 1669SOL    HW1 5906   5.541   0.131   6.244
 1669SOL    HW2 5907   5.598   0.238   6.135
 1670SOL     OW 5908   5.730   4.745   5.457
 1670SOL    HW1 5909   5.734   4.656   5.412
 1670SOL    HW2 5910   5.651   4.796   5.424
 1671SOL     OW 5911   5.040   3.141   0.450
 1671SOL    HW1 5912   5.046   3.095   0.539
 1671SOL    HW2 5913   4.945   3.164   0.431
 1672SOL     OW 5914   2.150   4.555   2.422
 1672SOL    HW1 5915   2.175   4.469   2.378
 1672SOL    HW2 5916   2.053   4.553   2.449
 1673SOL     OW 5917   6.763   3.812   4.173
 1673SOL    HW1 5918   6.780   3.807   4.074
 1673SOL    HW2 5919   6.804   3.896   4.209
 1674SOL     OW 5920   0.626   3.822   0.410
 1674SOL    HW1 5921   0.631   3.808   0.509
 1674SOL    HW2 5922   0.539   3.786   0.376
 1675SOL     OW 5923   4.848   1.605   6.676
 1675SOL    HW1 5924   4.865   1.607   6.577
 1675SOL    HW2 5925   4.751   1.625   6.694
 1676SOL     OW 5926   1.799   1.082   2.655
 1676SOL    HW1 5927   1.772   1.010   2.719
 1676SOL    HW2 5928   1.894   1.108   2.671
 1677SOL     OW 5929   5.836   1.651   5.441
 1677SOL    HW1 5930   5.768   1.583   5.413
 1677SOL    HW2 5931   5.855   1.713   5.364
 1678SOL     OW 5932   5.311   6.427   2.109
 1678SOL    HW1 5933   5.323   6.403   2.205
 1678SOL    HW2 5934   5.215   6.452   2.093
 1679SOL     OW 5935   0.524   2.975   5.890
 1679SOL    HW1 5936   0.425   2.962   5.887
 1679SOL    HW2 5937   0.567   2.896   5.933
 1680SOL     OW 5938   0.515   1.082   3.940
 1680SOL    HW1 5939   0.424   1.042   3.948
 1680SOL    HW2 5940   0.541   1.088   3.844
 1681SOL     OW 5941   6.653   5.577   0.717
 1681SOL    HW1 5942   6.644   5.482   0.746
 1681SOL    HW2 5943   6.563   5.620   0.714
 1682SOL     OW 5944   6.850   3.428   5.264
 1682SOL    HW1 5945   6.846   3.439   5.165
 1682SOL    HW2 5946   6.827   3.514   5.308
 1683SOL     OW 5947   5.319   6.682   1.434
 1683SOL    HW1 5948   5.246   6.730   1.481
 1683SOL    HW2 5949   5.283   6.598   1.393
 1684SOL     OW 5950   0.229   6.806   5.344
 1684SOL    HW1 5951   0.252   6.712   5.319
 1684SOL    HW2 5952   0.312   6.854   5.371
 1685SOL     OW 5953   1.772   1.210   0.293
 1685SOL    HW1 5954   1.860   1.236   0.254
 1685SOL    HW2 5955   1.699   1.261   0.249
 1686SOL     OW 5956   1.131   6.044   5.796
 1686SOL    HW1 5957   1.211   6.021   5.741
 1686SOL    HW2 5958   1.048   6.032   5.742
 1687SOL     OW 5959   1.627   4.893   2.139
 1687SOL    HW1 5960   1.572   4.816   2.108
 1687SOL    HW2 5961   1.567   4.972   2.156
 1688SOL     OW 5962   1.752   1.975   3.026
 1688SOL    HW1 5963   1.751   2.053   3.089
 1688SOL    HW2 5964   1.845   1.961   2.992
 1689SOL     OW 5965   2.609   1.346   2.504
 1689SOL    HW1 5966   2.565   1.268   2.547
 1689SOL    HW2 5967   2.706   1.348   2.531
 1690SOL     OW 5968   1.772   1.926   1.957
 1690SOL    HW1 5969   1.814   1.904   1.869
 1690SOL    HW2 5970   1.822   1.880   2.030
 1691SOL     OW 5971   4.907   3.450   2.835
 1691SOL    HW1 5972   4.864   3.533   2.871
 1691SOL    HW2 5973   4.873   3.370   2.884
 1692SOL     OW 5974   0.885   0.019   1.884
 1692SOL    HW1 5975   0.963   0.013   1.946
 1692SOL    HW2 5976   0.860   0.114   1.870
 1693SOL     OW 5977   2.676   2.398   3.621
 1693SOL    HW1 5978   2.692   2.421   3.717
 1693SOL    HW2 5979   2.624   2.313   3.616
 1694SOL     OW 5980   4.226   6.123   5.329
 1694SOL    HW1 5981   4.253   6.214   5.298
 1694SOL    HW2 5982   4.281   6.054   5.281
 1695SOL     OW 5983   2.940   2.635   5.323
 1695SOL    HW1 5984   2.954   2.732   5.305
 1695SOL    HW2 5985   3.027   2.593   5.350
 1696SOL     OW 5986   5.022   5.442   0.413
 1696SOL    HW1 5987   5.068   5.414   0.497
 1696SOL    HW2 5988   5.082   5.425   0.335
 1697SOL     OW 5989   1.338   0.966   1.000
 1697SOL    HW1 5990   1.376   1.035   0.938
 1697SOL    HW2 5991   1.238   0.974   1.002
 1698SOL     OW 5992   4.789   2.154   1.737
 1698SOL    HW1 5993   4.722   2.218   1.699
 1698SOL    HW2 5994   4.800   2.076   1.676
 1699SOL     OW 5995   2.306   3.500   1.441
 1699SOL    HW1 5996   2.344   3.417   1.484
 1699SOL    HW2 5997   2.267   3.476   1.352
 1700SOL     OW 5998   0.013   2.874   2.682
 1700SOL    HW1 5999   6.942   2.897   2.659
 1700SOL    HW2 6000   0.062   2.957   2.707
 1701SOL     OW 6001   6.259   3.354   3.891
 1701SOL    HW1 6002   6.181   3.388   3.942
 1701SOL    HW2 6003   6.341   3.406   3.917
 1702SOL     OW 6004   5.608   3.732   1.463
 1702SOL    HW1 6005   5.543   3.660   1.482
 1702SOL    HW2 6006   5.698   3.692   1.444
 1703SOL     OW 6007   1.889   3.692   0.621
 1703SOL    HW1 6008   1.970   3.737   0.657
 1703SOL    HW2 6009   1.917   3.616   0.562
 1704SOL     OW 6010   0.157   0.265   1.493
 1704SOL    HW1 6011   0.152   0.208   1.574
 1704SOL    HW2 6012   0.107   0.350   1.509
 1705SOL     OW 6013   4.000   2.773   1.739
 1705SOL    HW1 6014   3.968   2.683   1.769
 1705SOL    HW2 6015   4.088   2.764   1.693
 1706SOL     OW 6016   3.494   0.845   0.655
 1706SOL    HW1 6017   3.464   0.772   0.594
 1706SOL    HW2 6018   3.529   0.806   0.740
 1707SOL     OW 6019   6.042   1.985   2.772
 1707SOL    HW1 6020   5.957   1.996   2.822
 1707SOL    HW2 6021   6.092   2.072   2.769
 1708SOL     OW 6022   6.439   6.319   2.835
 1708SOL    HW1 6023   6.506   6.311   2.761
 1708SOL    HW2 6024   6.482   6.366   2.913
 1709SOL     OW 6025   3.496   6.351   2.734
 1709SOL    HW1 6026   3.573   6.343   2.798
 1709SOL    HW2 6027   3.466   6.259   2.707
 1710SOL     OW 6028   0.200   4.937   4.080
 1710SOL    HW1 6029   0.254   4.994   4.018
 1710SOL    HW2 6030   0.250   4.922   4.165
 1711SOL     OW 6031   1.050   4.344   5.700
 1711SOL    HW1 6032   0.968   4.341   5.758
 1711SOL    HW2 6033   1.050   4.265   5.639
 1712SOL     OW 6034   6.888   4.063   0.295
 1712SOL    HW1 6035   6.926   4.127   0.228
 1712SOL    HW2 6036   6.962   4.008   0.333
 1713SOL     OW 6037   1.540   2.604   1.515
 1713SOL    HW1 6038   1.613   2.585   1.449
 1713SOL    HW2 6039   1.455   2.621   1.466
 1714SOL     OW 6040   3.628   1.943   0.222
 1714SOL    HW1 6041   3.634   1.859   0.167
 1714SOL    HW2 6042   3.558   2.003   0.184
 1715SOL     OW 6043   0.795   3.164   2.596
 1715SOL    HW1 6044   0.826   3.160   2.691
 1715SOL    HW2 6045   0.718   3.101   2.584
 1716SOL     OW 6046   0.216   6.467   0.004
 1716SOL    HW1 6047   0.264   6.440   0.088
 1716SOL    HW2 6048   0.266   6.435   6.948
 1717SOL     OW 6049   2.864   6.834   6.838
 1717SOL    HW1 6050   2.797   6.848   6.911
 1717SOL    HW2 6051   2.824   6.777   6.766
 1718SOL     OW 6052   1.978   4.128   0.612
 1718SOL    HW1 6053   1.957   4.065   0.538
 1718SOL    HW2 6054   1.950   4.221   0.587
 1719SOL     OW 6055   2.046   3.508   1.535
 1719SOL    HW1 6056   2.124   3.550   1.489
 1719SOL    HW2 6057   2.079   3.439   1.599
 1720SOL     OW 6058   6.611   1.483   0.354
 1720SOL    HW1 6059   6.680   1.554   0.337
 1720SOL    HW2 6060   6.540   1.520   0.414
 1721SOL     OW 6061   1.775   6.377   3.146
 1721SOL    HW1 6062   1.804   6.459   3.097
 1721SOL    HW2 6063   1.853   6.317   3.161
 1722SOL     OW 6064   5.823   0.231   2.103
 1722SOL    HW1 6065   5.894   0.253   2.170
 1722SOL    HW2 6066   5.758   0.306   2.096
 1723SOL     OW 6067   6.921   1.735   2.919
 1723SOL    HW1 6068   6.998   1.774   2.970
 1723SOL    HW2 6069   6.956   1.681   2.842
 1724SOL     OW 6070   4.667   1.175   6.969
 1724SOL    HW1 6071   4.763   1.205   6.972
 1724SOL    HW2 6072   4.617   1.232   6.904
 1725SOL     OW 6073   3.408   4.606   1.391
 1725SOL    HW1 6074   3.475   4.653   1.448
 1725SOL    HW2 6075   3.319   4.605   1.436
 1726SOL     OW 6076   0.015   4.427   4.774
 1726SOL    HW1 6077   0.009   4.525   4.792
 1726SOL    HW2 6078   0.096   4.390   4.819
 1727SOL     OW 6079   4.042   3.298   5.137
 1727SOL    HW1 6080   4.106   3.367   5.105
 1727SOL    HW2 6081   4.035   3.302   5.237
 1728SOL     OW 6082   4.440   4.584   4.175
 1728SOL    HW1 6083   4.533   4.621   4.181
 1728SOL    HW2 6084   4.443   4.490   4.142
 1729SOL     OW 6085   1.173   3.595   2.881
 1729SOL    HW1 6086   1.250   3.634   2.932
 1729SOL    HW2 6087   1.180   3.623   2.785
 1730SOL     OW 6088   6.702   1.994   4.833
 1730SOL    HW1 6089   6.606   2.021   4.840
 1730SOL    HW2 6090   6.752   2.031   4.912
 1731SOL     OW 6091   2.028   4.881   0.894
 1731SOL    HW1 6092   2.079   4.941   0.833
 1731SOL    HW2 6093   2.057   4.897   0.988
 1732SOL     OW 6094   1.657   4.556   0.115
 1732SOL    HW1 6095   1.631   4.460   0.104
 1732SOL    HW2 6096   1.681   4.573   0.211
 1733SOL     OW 6097   1.296   3.918   1.825
 1733SOL    HW1 6098   1.358   3.941   1.900
 1733SOL    HW2 6099   1.202   3.921   1.859
 1734SOL     OW 6100   4.016   2.870   0.957
 1734SOL    HW1 6101   4.069   2.949   0.924
 1734SOL    HW2 6102   4.076   2.791   0.967
 1735SOL     OW 6103   5.823   5.157   1.393
 1735SOL    HW1 6104   5.795   5.061   1.385
 1735SOL    HW2 6105   5.845   5.178   1.488
 1736SOL     OW 6106   3.373   3.216   0.309
 1736SOL    HW1 6107   3.357   3.207   0.211
 1736SOL    HW2 6108   3.350   3.129   0.354
 1737SOL     OW 6109   2.296   0.059   4.068
 1737SOL    HW1 6110   2.249   6.996   4.083
 1737SOL    HW2 6111   2.395   0.046   4.080
 1738SOL     OW 6112   2.197   3.105   2.305
 1738SOL    HW1 6113   2.228   3.017   2.270
 1738SOL    HW2 6114   2.144   3.152   2.235
 1739SOL     OW 6115   4.514   2.281   4.759
 1739SOL    HW1 6116   4.478   2.212   4.821
 1739SOL    HW2 6117   4.613   2.291   4.774
 1740SOL     OW 6118   6.960   0.851   6.011
 1740SOL    HW1 6119   6.989   0.866   6.105
 1740SOL    HW2 6120   6.933   0.755   5.999
 1741SOL     OW 6121   1.508   0.422   2.733
 1741SOL    HW1 6122   1.449   0.354   2.689
 1741SOL    HW2 6123   1.595   0.427   2.683
 1742SOL     OW 6124   5.785   0.470   4.775
 1742SOL    HW1 6125   5.741   0.560   4.773
 1742SOL    HW2 6126   5.784   0.435   4.868
 1743SOL     OW 6127   3.366   1.170   1.391
 1743SOL    HW1 6128   3.426   1.249   1.406
 1743SOL    HW2 6129   3.308   1.187   1.311
 1744SOL     OW 6130   2.475   0.792   1.805
 1744SOL    HW1 6131   2.408   0.797   1.879
 1744SOL    HW2 6132   2.527   0.707   1.813
 1745SOL     OW 6133   6.670   1.877   2.893
 1745SOL    HW1 6134   6.625   1.861   2.981
 1745SOL    HW2 6135   6.769   1.868   2.903
 1746SOL     OW 6136   2.663   0.485   6.446
 1746SOL    HW1 6137   2.758   0.500   6.472
 1746SOL    HW2 6138   2.603   0.541   6.504
 1747SOL     OW 6139   3.914   0.325   1.241
 1747SOL    HW1 6140   3.851   0.260   1.197
 1747SOL    HW2 6141   3.905   0.316   1.340
 1748SOL     OW 6142   6.053   1.644   3.971
 1748SOL    HW1 6143   6.064   1.711   4.044
 1748SOL    HW2 6144   5.989   1.679   3.903
 1749SOL     OW 6145   4.426   0.131   6.665
 1749SOL    HW1 6146   4.503   0.146   6.726
 1749SOL    HW2 6147   4.457   0.135   6.570
 1750SOL     OW 6148   4.903   1.442   2.380
 1750SOL    HW1 6149   4.867   1.520   2.430
 1750SOL    HW2 6150   4.836   1.368   2.380
 1751SOL     OW 6151   1.475   5.437   4.507
 1751SOL    HW1 6152   1.493   5.468   4.414
 1751SOL    HW2 6153   1.406   5.365   4.506
 1752SOL     OW 6154   6.762   1.604   0.798
 1752SOL    HW1 6155   6.678   1.642   0.838
 1752SOL    HW2 6156   6.789   1.659   0.719
 1753SOL     OW 6157   0.497   6.713   0.803
 1753SOL    HW1 6158   0.471   6.809   0.816
 1753SOL    HW2 6159   0.593   6.701   0.828
 1754SOL     OW 6160   3.362   3.360   1.148
 1754SOL    HW1 6161   3.358   3.319   1.239
 1754SOL    HW2 6162   3.292   3.320   1.090
 1755SOL     OW 6163   5.341   4.897   1.704
 1755SOL    HW1 6164   5.425   4.912   1.653
 1755SOL    HW2 6165   5.363   4.880   1.800
 1756SOL     OW 6166   6.622   5.198   3.969
 1756SOL    HW1 6167   6.604   5.265   4.041
 1756SOL    HW2 6168   6.536   5.170   3.927
 1757SOL     OW 6169   2.439   6.536   4.480
 1757SOL    HW1 6170   2.497   6.516   4.558
 1757SOL    HW2 6171   2.487   6.513   4.395
 1758SOL     OW 6172   2.344   0.622   3.693
 1758SOL    HW1 6173   2.270   0.582   3.639
 1758SOL    HW2 6174   2.333   0.721   3.697
 1759SOL     OW 6175   0.031   5.392   5.690
 1759SOL    HW1 6176   0.115   5.366   5.739
 1759SOL    HW2 6177   6.976   5.356   5.740
 1760SOL     OW 6178   6.253   1.266   1.295
 1760SOL    HW1 6179   6.310   1.210   1.356
 1760SOL    HW2 6180   6.236   1.216   1.210
 1761SOL     OW 6181   5.761   0.982   0.913
 1761SOL    HW1 6182   5.848   0.998   0.958
 1761SOL    HW2 6183   5.775   0.929   0.830
 1762SOL     OW 6184   6.228   2.273   6.024
 1762SOL    HW1 6185   6.148   2.267   6.083
 1762SOL    HW2 6186   6.304   2.221   6.064
 1763SOL     OW 6187   1.703   3.875   4.672
 1763SOL    HW1 6188   1.616   3.827   4.684
 1763SOL    HW2 6189   1.777   3.819   4.709
 1764SOL     OW 6190   0.863   2.904   3.338
 1764SOL    HW1 6191   0.895   2.961   3.262
 1764SOL    HW2 6192   0.860   2.808   3.310
 1765SOL     OW 6193   2.540   1.509   6.848
 1765SOL    HW1 6194   2.452   1.460   6.848
 1765SOL    HW2 6195   2.573   1.518   6.942
 1766SOL     OW 6196   5.592   3.211   4.942
 1766SOL    HW1 6197   5.689   3.185   4.934
 1766SOL    HW2 6198   5.539   3.162   4.873
 1767SOL     OW 6199   5.518   3.893   2.273
 1767SOL    HW1 6200   5.454   3.897   2.197
 1767SOL    HW2 6201   5.538   3.985   2.305
 1768SOL     OW 6202   4.206   0.121   3.557
 1768SOL    HW1 6203   4.265   0.041   3.563
 1768SOL    HW2 6204   4.219   0.165   3.468
 1769SOL     OW 6205   3.823   1.629   3.579
 1769SOL    HW1 6206   3.842   1.684   3.660
 1769SOL    HW2 6207   3.725   1.630   3.560
 1770SOL     OW 6208   1.931   5.807   5.548
 1770SOL    HW1 6209   1.925   5.711   5.521
 1770SOL    HW2 6210   2.005   5.851   5.496
 1771SOL     OW 6211   3.465   6.276   6.844
 1771SOL    HW1 6212   3.557   6.313   6.856
 1771SOL    HW2 6213   3.468   6.176   6.856
 1772SOL     OW 6214   3.255   6.745   3.228
 1772SOL    HW1 6215   3.159   6.761   3.251
 1772SOL    HW2 6216   3.276   6.648   3.240
 1773SOL     OW 6217   2.095   4.967   6.241
 1773SOL    HW1 6218   2.114   4.992   6.336
 1773SOL    HW2 6219   2.116   5.044   6.181
 1774SOL     OW 6220   4.481   5.318   1.537
 1774SOL    HW1 6221   4.537   5.284   1.612
 1774SOL    HW2 6222   4.511   5.275   1.451
 1775SOL     OW 6223   1.196   3.908   2.250
 1775SOL    HW1 6224   1.157   3.997   2.230
 1775SOL    HW2 6225   1.294   3.909   2.229
 1776SOL     OW 6226   4.209   6.199   3.944
 1776SOL    HW1 6227   4.160   6.154   4.019
 1776SOL    HW2 6228   4.158   6.186   3.859
 1777SOL     OW 6229   3.923   6.508   0.013
 1777SOL    HW1 6230   3.873   6.587   7.001
 1777SOL    HW2 6231   4.019   6.532   0.022
 1778SOL     OW 6232   4.333   3.383   5.810
 1778SOL    HW1 6233   4.374   3.331   5.886
 1778SOL    HW2 6234   4.315   3.321   5.734
 1779SOL     OW 6235   3.808   0.774   5.243
 1779SOL    HW1 6236   3.887   0.769   5.304
 1779SOL    HW2 6237   3.836   0.810   5.154
 1780SOL     OW 6238   3.462   3.069   5.924
 1780SOL    HW1 6239   3.489   3.039   6.016
 1780SOL    HW2 6240   3.506   3.012   5.856
 1781SOL     OW 6241   4.075   6.212   3.197
 1781SOL    HW1 6242   4.114   6.245   3.283
 1781SOL    HW2 6243   3.983   6.251   3.185
 1782SOL     OW 6244   3.180   1.287   2.913
 1782SOL    HW1 6245   3.259   1.246   2.959
 1782SOL    HW2 6246   3.099   1.274   2.970
 1783SOL     OW 6247   2.348   4.616   6.059
 1783SOL    HW1 6248   2.269   4.655   6.106
 1783SOL    HW2 6249   2.354   4.655   5.967
 1784SOL     OW 6250   3.949   0.672   5.875
 1784SOL    HW1 6251   3.885   0.671   5.951
 1784SOL    HW2 6252   3.917   0.611   5.803
 1785SOL     OW 6253   6.815   4.006   2.504
 1785SOL    HW1 6254   6.819   4.106   2.503
 1785SOL    HW2 6255   6.892   3.969   2.451
 1786SOL     OW 6256   2.267   2.435   0.034
 1786SOL    HW1 6257   2.344   2.371   0.026
 1786SOL    HW2 6258   2.287   2.501   0.106
 1787SOL     OW 6259   3.212   1.555   5.613
 1787SOL    HW1 6260   3.160   1.491   5.670
 1787SOL    HW2 6261   3.215   1.520   5.519
 1788SOL     OW 6262   1.874   4.662   6.204
 1788SOL    HW1 6263   1.875   4.678   6.302
 1788SOL    HW2 6264   1.819   4.733   6.159
 1789SOL     OW 6265   5.327   2.192   1.087
 1789SOL    HW1 6266   5.425   2.215   1.081
 1789SOL    HW2 6267   5.289   2.185   0.995
 1790SOL     OW 6268   3.867   6.588   3.490
 1790SOL    HW1 6269   3.955   6.620   3.456
 1790SOL    HW2 6270   3.867   6.488   3.494
 1791SOL     OW 6271   6.861   0.474   2.367
 1791SOL    HW1 6272   6.939   0.528   2.334
 1791SOL    HW2 6273   6.882   0.377   2.358
 1792SOL     OW 6274   6.912   3.751   5.150
 1792SOL    HW1 6275   6.910   3.706   5.239
 1792SOL    HW2 6276   6.829   3.729   5.099
 1793SOL     OW 6277   6.645   0.413   4.111
 1793SOL    HW1 6278   6.702   0.334   4.130
 1793SOL    HW2 6279   6.697   0.497   4.126
 1794SOL     OW 6280   5.302   6.002   5.978
 1794SOL    HW1 6281   5.225   5.939   5.971
 1794SOL    HW2 6282   5.305   6.059   5.896
 1795SOL     OW 6283   0.460   2.873   0.816
 1795SOL    HW1 6284   0.371   2.842   0.851
 1795SOL    HW2 6285   0.462   2.862   0.716
 1796SOL     OW 6286   2.938   0.857   5.879
 1796SOL    HW1 6287   2.944   0.781   5.814
 1796SOL    HW2 6288   2.852   0.905   5.866
 1797SOL     OW 6289   1.328   0.287   0.497
 1797SOL    HW1 6290   1.291   0.379   0.483
 1797SOL    HW2 6291   1.273   0.240   0.566
 1798SOL     OW 6292   4.558   2.590   4.156
 1798SOL    HW1 6293   4.554   2.627   4.249
 1798SOL    HW2 6294   4.612   2.505   4.157
 1799SOL     OW 6295   6.969   2.745   4.443
 1799SOL    HW1 6296   6.892   2.706   4.493
 1799SOL    HW2 6297   0.029   2.696   4.468
 1800SOL     OW 6298   4.555   4.189   1.604
 1800SOL    HW1 6299   4.493   4.219   1.677
 1800SOL    HW2 6300   4.639   4.242   1.608
 1801SOL     OW 6301   0.113   0.889   2.140
 1801SOL    HW1 6302   0.206   0.927   2.143
 1801SOL    HW2 6303   0.118   0.790   2.133
 1802SOL     OW 6304   5.977   6.181   3.875
 1802SOL    HW1 6305   5.888   6.201   3.917
 1802SOL    HW2 6306   5.966   6.177   3.776
 1803SOL     OW 6307   0.801   5.184   6.572
 1803SOL    HW1 6308   0.844   5.172   6.661
 1803SOL    HW2 6309   0.790   5.095   6.528
 1804SOL     OW 6310   2.276   4.071   5.387
 1804SOL    HW1 6311   2.352   4.127   5.420
 1804SOL    HW2 6312   2.300   4.029   5.299
 1805SOL     OW 6313   4.519   3.687   6.536
 1805SOL    HW1 6314   4.580   3.629   6.483
 1805SOL    HW2 6315   4.425   3.653   6.528
 1806SOL     OW 6316   0.431   0.547   0.275
 1806SOL    HW1 6317   0.412   0.642   0.249
 1806SOL    HW2 6318   0.488   0.504   0.205
 1807SOL     OW 6319   5.686   2.659   4.794
 1807SOL    HW1 6320   5.742   2.633   4.714
 1807SOL    HW2 6321   5.743   2.657   4.876
 1808SOL     OW 6322   6.937   5.165   5.227
 1808SOL    HW1 6323   6.891   5.085   5.187
 1808SOL    HW2 6324   6.969   5.225   5.154
 1809SOL     OW 6325   2.783   1.895   5.636
 1809SOL    HW1 6326   2.786   1.987   5.674
 1809SOL    HW2 6327   2.863   1.843   5.666
 1810SOL     OW 6328   3.097   7.012   3.722
 1810SOL    HW1 6329   3.076   6.923   3.681
 1810SOL    HW2 6330   3.057   0.061   3.668
 1811SOL     OW 6331   5.821   5.650   3.364
 1811SOL    HW1 6332   5.791   5.555   3.354
 1811SOL    HW2 6333   5.803   5.681   3.458
 1812SOL     OW 6334   4.020   5.954   5.343
 1812SOL    HW1 6335   4.097   6.015   5.327
 1812SOL    HW2 6336   3.940   5.987   5.294
 1813SOL     OW 6337   5.287   4.048   0.590
 1813SOL    HW1 6338   5.286   4.146   0.608
 1813SOL    HW2 6339   5.372   4.023   0.543
 1814SOL     OW 6340   4.599   6.649   2.090
 1814SOL    HW1 6341   4.668   6.590   2.131
 1814SOL    HW2 6342   4.627   6.676   1.998
 1815SOL     OW 6343   0.407   1.425   2.562
 1815SOL    HW1 6344   0.438   1.514   2.529
 1815SOL    HW2 6345   0.414   1.357   2.488
 1816SOL     OW 6346   2.330   2.831   1.024
 1816SOL    HW1 6347   2.367   2.911   0.976
 1816SOL    HW2 6348   2.245   2.801   0.979
 1817SOL     OW 6349   2.052   6.773   2.237
 1817SOL    HW1 6350   2.124   6.802   2.300
 1817SOL    HW2 6351   2.029   6.677   2.254
 1818SOL     OW 6352   1.332   0.079   3.387
 1818SOL    HW1 6353   1.246   0.123   3.411
 1818SOL    HW2 6354   1.394   0.146   3.346
 1819SOL     OW 6355   1.042   4.680   1.836
 1819SOL    HW1 6356   1.114   4.750   1.845
 1819SOL    HW2 6357   0.982   4.684   1.915
 1820SOL     OW 6358   4.534   1.416   2.527
 1820SOL    HW1 6359   4.551   1.482   2.453
 1820SOL    HW2 6360   4.524   1.324   2.488
 1821SOL     OW 6361   1.890   1.371   2.845
 1821SOL    HW1 6362   1.837   1.404   2.923
 1821SOL    HW2 6363   1.848   1.287   2.809
 1822SOL     OW 6364   3.442   2.673   1.740
 1822SOL    HW1 6365   3.376   2.603   1.711
 1822SOL    HW2 6366   3.403   2.764   1.726
 1823SOL     OW 6367   3.955   6.252   2.494
 1823SOL    HW1 6368   3.965   6.324   2.426
 1823SOL    HW2 6369   3.977   6.163   2.452
 1824SOL     OW 6370   4.269   2.387   1.382
 1824SOL    HW1 6371   4.228   2.445   1.453
 1824SOL    HW2 6372   4.365   2.411   1.370
 1825SOL     OW 6373   1.574   0.559   1.578
 1825SOL    HW1 6374   1.627   0.627   1.528
 1825SOL    HW2 6375   1.532   0.495   1.513
 1826SOL     OW 6376   2.902   1.686   1.441
 1826SOL    HW1 6377   2.902   1.640   1.352
 1826SOL    HW2 6378   2.920   1.784   1.429
 1827SOL     OW 6379   0.094   5.364   1.765
 1827SOL    HW1 6380   0.193   5.352   1.761
 1827SOL    HW2 6381   0.068   5.398   1.856
 1828SOL     OW 6382   1.071   3.012   0.152
 1828SOL    HW1 6383   0.996   3.000   0.216
 1828SOL    HW2 6384   1.035   3.028   0.060
 1829SOL     OW 6385   5.151   6.346   3.053
 1829SOL    HW1 6386   5.097   6.344   2.969
 1829SOL    HW2 6387   5.092   6.363   3.131
 1830SOL     OW 6388   4.506   0.046   3.828
 1830SOL    HW1 6389   4.497   6.976   3.795
 1830SOL    HW2 6390   4.506   0.109   3.750
 1831SOL     OW 6391   5.828   6.733   2.587
 1831SOL    HW1 6392   5.883   6.777   2.516
 1831SOL    HW2 6393   5.852   6.771   2.676
 1832SOL     OW 6394   4.497   2.540   1.590
 1832SOL    HW1 6395   4.589   2.502   1.586
 1832SOL    HW2 6396   4.445   2.494   1.662
 1833SOL     OW 6397   4.984   0.536   4.636
 1833SOL    HW1 6398   4.888   0.550   4.612
 1833SOL    HW2 6399   4.999   0.439   4.657
 1834SOL     OW 6400   3.138   3.818   0.674
 1834SOL    HW1 6401   3.127   3.913   0.647
 1834SOL    HW2 6402   3.049   3.778   0.695
 1835SOL     OW 6403   2.079   4.943   1.195
 1835SOL    HW1 6404   2.169   4.936   1.237
 1835SOL    HW2 6405   2.026   4.861   1.217
 1836SOL     OW 6406   6.911   1.100   0.360
 1836SOL    HW1 6407   6.945   1.047   0.437
 1836SOL    HW2 6408   6.943   1.195   0.368
 1837SOL     OW 6409   0.859   2.006   4.105
 1837SOL    HW1 6410   0.862   1.906   4.098
 1837SOL    HW2 6411   0.928   2.045   4.044
 1838SOL     OW 6412   0.193   2.407   3.957
 1838SOL    HW1 6413   0.122   2.476   3.970
 1838SOL    HW2 6414   0.161   2.319   3.992
 1839SOL     OW 6415   6.092   3.396   4.742
 1839SOL    HW1 6416   6.137   3.482   4.764
 1839SOL    HW2 6417   6.012   3.413   4.685
 1840SOL     OW 6418   2.808   5.892   0.789
 1840SOL    HW1 6419   2.799   5.851   0.698
 1840SOL    HW2 6420   2.720   5.888   0.836
 1841SOL     OW 6421   2.106   3.713   4.234
 1841SOL    HW1 6422   2.162   3.794   4.247
 1841SOL    HW2 6423   2.094   3.666   4.322
 1842SOL     OW 6424   0.320   4.872   0.651
 1842SOL    HW1 6425   0.362   4.961   0.633
 1842SOL    HW2 6426   0.248   4.881   0.720
 1843SOL     OW 6427   1.968   2.090   5.297
 1843SOL    HW1 6428   2.024   2.151   5.241
 1843SOL    HW2 6429   2.013   2.074   5.385
 1844SOL     OW 6430   4.005   2.046   5.039
 1844SOL    HW1 6431   3.954   2.017   4.958
 1844SOL    HW2 6432   3.948   2.034   5.120
 1845SOL     OW 6433   3.047   6.985   6.706
 1845SOL    HW1 6434   3.088   0.004   6.786
 1845SOL    HW2 6435   2.986   6.912   6.734
 1846SOL     OW 6436   3.954   2.147   6.821
 1846SOL    HW1 6437   3.912   2.082   6.885
 1846SOL    HW2 6438   4.039   2.182   6.861
 1847SOL     OW 6439   0.876   0.221   0.645
 1847SOL    HW1 6440   0.961   0.170   0.662
 1847SOL    HW2 6441   0.863   0.289   0.717
 1848SOL     OW 6442   2.768   6.040   2.841
 1848SOL    HW1 6443   2.670   6.040   2.823
 1848SOL    HW2 6444   2.804   5.947   2.835
 1849SOL     OW 6445   3.602   0.729   0.325
 1849SOL    HW1 6446   3.687   0.704   0.370
 1849SOL    HW2 6447   3.532   0.659   0.343
 1850SOL     OW 6448   6.299   1.696   2.836
 1850SOL    HW1 6449   6.201   1.714   2.822
 1850SOL    HW2 6450   6.320   1.695   2.933
 1851SOL     OW 6451   7.023   1.242   1.877
 1851SOL    HW1 6452   7.011   1.336   1.848
 1851SOL    HW2 6453   6.980   1.229   1.967
 1852SOL     OW 6454   4.013   3.472   0.138
 1852SOL    HW1 6455   3.930   3.527   0.134
 1852SOL    HW2 6456   4.075   3.499   0.064
 1853SOL     OW 6457   1.075   4.056   1.401
 1853SOL    HW1 6458   1.171   4.029   1.387
 1853SOL    HW2 6459   1.063   4.091   1.494
 1854SOL     OW 6460   2.964   6.098   4.235
 1854SOL    HW1 6461   2.967   6.169   4.165
 1854SOL    HW2 6462   3.047   6.103   4.291
 1855SOL     OW 6463   4.800   5.160   0.599
 1855SOL    HW1 6464   4.858   5.224   0.549
 1855SOL    HW2 6465   4.845   5.071   0.604
 1856SOL     OW 6466   5.211   2.651   5.291
 1856SOL    HW1 6467   5.228   2.556   5.263
 1856SOL    HW2 6468   5.112   2.668   5.294
 1857SOL     OW 6469   4.064   0.807   4.673
 1857SOL    HW1 6470   4.093   0.771   4.585
 1857SOL    HW2 6471   3.964   0.808   4.679
 1858SOL     OW 6472   5.473   3.259   4.004
 1858SOL    HW1 6473   5.495   3.162   4.000
 1858SOL    HW2 6474   5.549   3.313   3.968
 1859SOL     OW 6475   4.492   2.247   3.793
 1859SOL    HW1 6476   4.462   2.289   3.878
 1859SOL    HW2 6477   4.491   2.147   3.802
 1860SOL     OW 6478   6.415   1.154   4.174
 1860SOL    HW1 6479   6.387   1.236   4.124
 1860SOL    HW2 6480   6.438   1.082   4.109
 1861SOL     OW 6481   4.866   6.158   2.531
 1861SOL    HW1 6482   4.798   6.089   2.554
 1861SOL    HW2 6483   4.956   6.130   2.565
 1862SOL     OW 6484   2.109   0.528   6.784
 1862SOL    HW1 6485   2.097   0.627   6.776
 1862SOL    HW2 6486   2.104   0.501   6.881
 1863SOL     OW 6487   3.054   2.372   0.898
 1863SOL    HW1 6488   3.114   2.298   0.866
 1863SOL    HW2 6489   3.089   2.459   0.865
 1864SOL     OW 6490   0.605   6.743   4.830
 1864SOL    HW1 6491   0.653   6.659   4.803
 1864SOL    HW2 6492   0.550   6.776   4.754
 1865SOL     OW 6493   3.725   1.637   5.895
 1865SOL    HW1 6494   3.727   1.632   5.795
 1865SOL    HW2 6495   3.659   1.706   5.924
 1866SOL     OW 6496   4.649   4.514   2.084
 1866SOL    HW1 6497   4.595   4.430   2.093
 1866SOL    HW2 6498   4.621   4.564   2.003
 1867SOL     OW 6499   0.370   4.093   7.000
 1867SOL    HW1 6500   0.278   4.055   6.997
 1867SOL    HW2 6501   0.387   4.134   0.065
 1868SOL     OW 6502   5.596   4.621   6.363
 1868SOL    HW1 6503   5.529   4.685   6.326
 1868SOL    HW2 6504   5.676   4.672   6.394
 1869SOL     OW 6505   6.662   1.957   5.250
 1869SOL    HW1 6506   6.713   1.883   5.296
 1869SOL    HW2 6507   6.629   2.021   5.319
 1870SOL     OW 6508   1.611   4.535   5.760
 1870SOL    HW1 6509   1.705   4.520   5.730
 1870SOL    HW2 6510   1.549   4.536   5.682
 1871SOL     OW 6511   2.334   6.903   0.433
 1871SOL    HW1 6512   2.372   6.994   0.414
 1871SOL    HW2 6513   2.247   6.893   0.383
 1872SOL     OW 6514   2.945   4.618   0.458
 1872SOL    HW1 6515   2.939   4.522   0.484
 1872SOL    HW2 6516   2.890   4.673   0.521
 1873SOL     OW 6517   3.800   1.034   5.744
 1873SOL    HW1 6518   3.724   0.977   5.712
 1873SOL    HW2 6519   3.783   1.129   5.718
 1874SOL     OW 6520   2.086   1.918   1.752
 1874SOL    HW1 6521   2.068   2.014   1.774
 1874SOL    HW2 6522   2.139   1.912   1.667
 1875SOL     OW 6523   0.491   0.252   6.277
 1875SOL    HW1 6524   0.465   0.206   6.362
 1875SOL    HW2 6525   0.495   0.184   6.203
 1876SOL     OW 6526   2.864   0.012   4.586
 1876SOL    HW1 6527   2.881   0.029   4.489
 1876SOL    HW2 6528   2.771   0.040   4.609
 1877SOL     OW 6529   0.867   0.082   3.914
 1877SOL    HW1 6530   0.776   0.117   3.892
 1877SOL    HW2 6531   0.893   0.013   3.846
 1878SOL     OW 6532   6.694   1.939   3.974
 1878SOL    HW1 6533   6.667   1.945   4.070
 1878SOL    HW2 6534   6.730   1.847   3.955
 1879SOL     OW 6535   1.148   3.129   4.864
 1879SOL    HW1 6536   1.164   3.197   4.792
 1879SOL    HW2 6537   1.073   3.160   4.923
 1880SOL     OW 6538   6.853   1.622   5.118
 1880SOL    HW1 6539   6.860   1.658   5.211
 1880SOL    HW2 6540   6.899   1.684   5.055
 1881SOL     OW 6541   6.496   1.620   0.892
 1881SOL    HW1 6542   6.531   1.614   0.986
 1881SOL    HW2 6543   6.421   1.556   0.880
 1882SOL     OW 6544   1.576   4.000   6.509
 1882SOL    HW1 6545   1.540   3.908   6.520
 1882SOL    HW2 6546   1.549   4.036   6.420
 1883SOL     OW 6547   6.761   2.383   2.411
 1883SOL    HW1 6548   6.769   2.378   2.510
 1883SOL    HW2 6549   6.726   2.473   2.385
 1884SOL     OW 6550   0.853   1.866   1.257
 1884SOL    HW1 6551   0.877   1.808   1.335
 1884SOL    HW2 6552   0.770   1.918   1.278
 1885SOL     OW 6553   1.862   1.588   5.598
 1885SOL    HW1 6554   1.764   1.607   5.601
 1885SOL    HW2 6555   1.896   1.606   5.506
 1886SOL     OW 6556   2.302   0.327   2.582
 1886SOL    HW1 6557   2.265   0.301   2.493
 1886SOL    HW2 6558   2.278   0.258   2.651
 1887SOL     OW 6559   1.235   5.566   5.808
 1887SOL    HW1 6560   1.292   5.496   5.765
 1887SOL    HW2 6561   1.205   5.534   5.898
 1888SOL     OW 6562   3.134   2.227   0.487
 1888SOL    HW1 6563   3.075   2.148   0.470
 1888SOL    HW2 6564   3.171   2.260   0.401
 1889SOL     OW 6565   0.944   3.497   4.546
 1889SOL    HW1 6566   0.985   3.478   4.636
 1889SOL    HW2 6567   0.860   3.445   4.536
 1890SOL     OW 6568   0.512   5.735   4.164
 1890SOL    HW1 6569   0.498   5.784   4.249
 1890SOL    HW2 6570   0.562   5.650   4.182
 1891SOL     OW 6571   3.678   3.181   2.158
 1891SOL    HW1 6572   3.588   3.208   2.126
 1891SOL    HW2 6573   3.704   3.238   2.236
 1892SOL     OW 6574   0.088   0.311   2.141
 1892SOL    HW1 6575   0.137   0.242   2.087
 1892SOL    HW2 6576   0.010   0.345   2.088
 1893SOL     OW 6577   3.691   2.894   2.842
 1893SOL    HW1 6578   3.599   2.854   2.839
 1893SOL    HW2 6579   3.741   2.856   2.920
 1894SOL     OW 6580   3.440   3.574   4.121
 1894SOL    HW1 6581   3.356   3.627   4.132
 1894SOL    HW2 6582   3.419   3.476   4.123
 1895SOL     OW 6583   4.488   0.413   1.087
 1895SOL    HW1 6584   4.422   0.487   1.077
 1895SOL    HW2 6585   4.580   0.447   1.069
 1896SOL     OW 6586   5.804   1.768   0.848
 1896SOL    HW1 6587   5.722   1.782   0.904
 1896SOL    HW2 6588   5.784   1.701   0.776
 1897SOL     OW 6589   1.540   5.002   2.609
 1897SOL    HW1 6590   1.452   5.014   2.654
 1897SOL    HW2 6591   1.612   5.044   2.664
 1898SOL     OW 6592   1.795   5.391   2.950
 1898SOL    HW1 6593   1.831   5.393   2.857
 1898SOL    HW2 6594   1.695   5.393   2.946
 1899SOL     OW 6595   0.451   0.328   1.876
 1899SOL    HW1 6596   0.389   0.268   1.927
 1899SOL    HW2 6597   0.507   0.380   1.940
 1900SOL     OW 6598   2.920   7.015   0.091
 1900SOL    HW1 6599   2.920   0.052   0.171
 1900SOL    HW2 6600   2.888   6.924   0.118
 1901SOL     OW 6601   2.299   3.033   1.252
 1901SOL    HW1 6602   2.258   3.117   1.215
 1901SOL    HW2 6603   2.288   2.959   1.187
 1902SOL     OW 6604   2.609   0.066   4.634
 1902SOL    HW1 6605   2.569   7.006   4.670
 1902SOL    HW2 6606   2.563   0.091   4.549
 1903SOL     OW 6607   0.631   2.675   4.009
 1903SOL    HW1 6608   0.661   2.684   4.104
 1903SOL    HW2 6609   0.563   2.602   4.002
 1904SOL     OW 6610   5.594   5.250   2.747
 1904SOL    HW1 6611   5.685   5.281   2.775
 1904SOL    HW2 6612   5.603   5.166   2.692
 1905SOL     OW 6613   0.905   0.763   3.594
 1905SOL    HW1 6614   0.976   0.711   3.641
 1905SOL    HW2 6615   0.927   0.770   3.497
 1906SOL     OW 6616   2.712   0.531   5.953
 1906SOL    HW1 6617   2.679   0.446   5.913
 1906SOL    HW2 6618   2.640   0.600   5.952
 1907SOL     OW 6619   5.304   2.395   0.529
 1907SOL    HW1 6620   5.358   2.375   0.611
 1907SOL    HW2 6621   5.258   2.484   0.540
 1908SOL     OW 6622   3.968   0.224   0.363
 1908SOL    HW1 6623   3.907   0.159   0.317
 1908SOL    HW2 6624   4.032   0.262   0.296
 1909SOL     OW 6625   7.019   4.006   4.670
 1909SOL    HW1 6626   0.005   4.101   4.642
 1909SOL    HW2 6627   0.035   3.993   4.761
 1910SOL     OW 6628   6.421   5.605   5.947
 1910SOL    HW1 6629   6.494   5.634   6.009
 1910SOL    HW2 6630   6.335   5.649   5.974
 1911SOL     OW 6631   0.071   4.704   4.043
 1911SOL    HW1 6632   0.137   4.646   4.091
 1911SOL    HW2 6633   0.111   4.794   4.026
 1912SOL     OW 6634   2.519   4.806   2.884
 1912SOL    HW1 6635   2.429   4.846   2.870
 1912SOL    HW2 6636   2.589   4.877   2.876
 1913SOL     OW 6637   2.476   5.267   4.626
 1913SOL    HW1 6638   2.524   5.218   4.699
 1913SOL    HW2 6639   2.470   5.208   4.545
 1914SOL     OW 6640   3.254   4.058   6.166
 1914SOL    HW1 6641   3.218   4.005   6.089
 1914SOL    HW2 6642   3.293   3.996   6.234
 1915SOL     OW 6643   4.674   2.915   6.126
 1915SOL    HW1 6644   4.688   2.826   6.169
 1915SOL    HW2 6645   4.760   2.966   6.127
 1916SOL     OW 6646   3.837   6.999   1.829
 1916SOL    HW1 6647   3.780   6.976   1.750
 1916SOL    HW2 6648   3.915   0.030   1.799
 1917SOL     OW 6649   2.732   4.395   0.731
 1917SOL    HW1 6650   2.751   4.456   0.807
 1917SOL    HW2 6651   2.807   4.397   0.666
 1918SOL     OW 6652   0.811   0.986   4.690
 1918SOL    HW1 6653   0.843   0.893   4.673
 1918SOL    HW2 6654   0.854   1.049   4.625
 1919SOL     OW 6655   1.379   2.439   1.810
 1919SOL    HW1 6656   1.395   2.366   1.743
 1919SOL    HW2 6657   1.411   2.408   1.900
 1920SOL     OW 6658   5.041   2.333   2.031
 1920SOL    HW1 6659   4.946   2.337   2.001
 1920SOL    HW2 6660   5.081   2.246   2.004
 1921SOL     OW 6661   1.293   2.838   0.087
 1921SOL    HW1 6662   1.377   2.881   0.117
 1921SOL    HW2 6663   1.218   2.904   0.092
 1922SOL     OW 6664   3.487   3.397   2.366
 1922SOL    HW1 6665   3.528   3.317   2.411
 1922SOL    HW2 6666   3.469   3.375   2.270
 1923SOL     OW 6667   4.632   0.383   6.297
 1923SOL    HW1 6668   4.680   0.378   6.210
 1923SOL    HW2 6669   4.558   0.450   6.290
 1924SOL     OW 6670   4.504   6.889   1.358
 1924SOL    HW1 6671   4.494   6.980   1.319
 1924SOL    HW2 6672   4.424   6.867   1.414
 1925SOL     OW 6673   1.260   4.332   0.661
 1925SOL    HW1 6674   1.280   4.237   0.638
 1925SOL    HW2 6675   1.196   4.335   0.738
 1926SOL     OW 6676   4.293   0.375   1.618
 1926SOL    HW1 6677   4.367   0.402   1.556
 1926SOL    HW2 6678   4.227   0.450   1.625
 1927SOL     OW 6679   2.344   4.849   1.257
 1927SOL    HW1 6680   2.314   4.776   1.318
 1927SOL    HW2 6681   2.406   4.911   1.306
 1928SOL     OW 6682   4.516   4.682   3.833
 1928SOL    HW1 6683   4.429   4.652   3.872
 1928SOL    HW2 6684   4.547   4.765   3.881
 1929SOL     OW 6685   3.055   0.942   2.937
 1929SOL    HW1 6686   3.101   0.929   2.849
 1929SOL    HW2 6687   3.045   0.853   2.983
 1930SOL     OW 6688   4.833   3.051   6.595
 1930SOL    HW1 6689   4.922   3.097   6.591
 1930SOL    HW2 6690   4.761   3.118   6.611
 1931SOL     OW 6691   0.827   1.339   5.790
 1931SOL    HW1 6692   0.884   1.270   5.836
 1931SOL    HW2 6693   0.774   1.389   5.858
 1932SOL     OW 6694   4.464   2.104   3.148
 1932SOL    HW1 6695   4.422   2.195   3.140
 1932SOL    HW2 6696   4.394   2.036   3.167
 1933SOL     OW 6697   0.613   1.575   0.307
 1933SOL    HW1 6698   0.620   1.592   0.209
 1933SOL    HW2 6699   0.543   1.506   0.324
 1934SOL     OW 6700   0.077   0.414   5.215
 1934SOL    HW1 6701   0.139   0.416   5.294
 1934SOL    HW2 6702   7.017   0.366   5.240
 1935SOL     OW 6703   5.337   4.776   3.592
 1935SOL    HW1 6704   5.247   4.758   3.551
 1935SOL    HW2 6705   5.389   4.691   3.596
 1936SOL     OW 6706   5.374   3.302   4.539
 1936SOL    HW1 6707   5.341   3.393   4.565
 1936SOL    HW2 6708   5.343   3.281   4.446
 1937SOL     OW 6709   4.945   4.915   6.810
 1937SOL    HW1 6710   4.901   4.841   6.759
 1937SOL    HW2 6711   4.879   4.988   6.827
 1938SOL     OW 6712   0.836   2.625   6.976
 1938SOL    HW1 6713   0.934   2.645   6.975
 1938SOL    HW2 6714   0.788   2.701   7.019
 1939SOL     OW 6715   1.179   6.178   5.322
 1939SOL    HW1 6716   1.249   6.221   5.265
 1939SOL    HW2 6717   1.101   6.152   5.264
 1940SOL     OW 6718   6.014   4.838   1.526
 1940SOL    HW1 6719   6.019   4.796   1.617
 1940SOL    HW2 6720   6.106   4.857   1.493
 1941SOL     OW 6721   0.629   2.938   4.191
 1941SOL    HW1 6722   0.574   2.885   4.255
 1941SOL    HW2 6723   0.585   2.938   4.101
 1942SOL     OW 6724   5.535   3.350   2.252
 1942SOL    HW1 6725   5.462   3.345   2.320
 1942SOL    HW2 6726   5.600   3.276   2.266
 1943SOL     OW 6727   1.395   1.074   2.043
 1943SOL    HW1 6728   1.474   1.102   1.988
 1943SOL    HW2 6729   1.314   1.124   2.012
 1944SOL     OW 6730   0.210   2.829   1.062
 1944SOL    HW1 6731   0.129   2.771   1.052
 1944SOL    HW2 6732   0.191   2.919   1.024
 1945SOL     OW 6733   4.253   6.787   1.442
 1945SOL    HW1 6734   4.208   6.787   1.531
 1945SOL    HW2 6735   4.242   6.697   1.399
 1946SOL     OW 6736   6.825   6.537   1.698
 1946SOL    HW1 6737   6.772   6.475   1.756
 1946SOL    HW2 6738   6.762   6.593   1.643
 1947SOL     OW 6739   5.703   4.089   2.703
 1947SOL    HW1 6740   5.634   4.082   2.776
 1947SOL    HW2 6741   5.747   4.001   2.690
 1948SOL     OW 6742   5.191   3.148   3.128
 1948SOL    HW1 6743   5.140   3.069   3.095
 1948SOL    HW2 6744   5.165   3.229   3.076
 1949SOL     OW 6745   3.621   5.213   0.157
 1949SOL    HW1 6746   3.601   5.116   0.164
 1949SOL    HW2 6747   3.559   5.256   0.092
 1950SOL     OW 6748   3.791   4.105   4.165
 1950SOL    HW1 6749   3.828   4.077   4.076
 1950SOL    HW2 6750   3.834   4.050   4.236
 1951SOL     OW 6751   6.426   5.026   5.620
 1951SOL    HW1 6752   6.361   5.062   5.552
 1951SOL    HW2 6753   6.379   5.015   5.708
 1952SOL     OW 6754   5.541   4.065   6.849
 1952SOL    HW1 6755   5.464   4.080   6.787
 1952SOL    HW2 6756   5.614   4.130   6.827
 1953SOL     OW 6757   1.039   1.372   6.274
 1953SOL    HW1 6758   0.954   1.388   6.225
 1953SOL    HW2 6759   1.075   1.281   6.250
 1954SOL     OW 6760   3.606   0.188   1.564
 1954SOL    HW1 6761   3.599   0.096   1.603
 1954SOL    HW2 6762   3.603   0.256   1.638
 1955SOL     OW 6763   0.918   1.699   1.858
 1955SOL    HW1 6764   0.976   1.627   1.821
 1955SOL    HW2 6765   0.967   1.747   1.931
 1956SOL     OW 6766   6.129   0.700   2.136
 1956SOL    HW1 6767   6.081   0.747   2.061
 1956SOL    HW2 6768   6.131   0.759   2.216
 1957SOL     OW 6769   5.570   2.173   3.810
 1957SOL    HW1 6770   5.535   2.150   3.719
 1957SOL    HW2 6771   5.619   2.260   3.806
 1958SOL     OW 6772   4.674   1.749   1.013
 1958SOL    HW1 6773   4.635   1.840   0.996
 1958SOL    HW2 6774   4.693   1.705   0.925
 1959SOL     OW 6775   7.022   0.060   4.050
 1959SOL    HW1 6776   0.035   6.991   4.061
 1959SOL    HW2 6777   0.074   0.125   4.041
 1960SOL     OW 6778   5.551   3.745   3.114
 1960SOL    HW1 6779   5.563   3.802   3.196
 1960SOL    HW2 6780   5.457   3.755   3.081
 1961SOL     OW 6781   6.668   4.175   5.106
 1961SOL    HW1 6782   6.750   4.120   5.122
 1961SOL    HW2 6783   6.682   4.235   5.028
 1962SOL     OW 6784   1.011   6.874   3.003
 1962SOL    HW1 6785   1.018   6.904   2.908
 1962SOL    HW2 6786   0.920   6.837   3.020
 1963SOL     OW 6787   0.664   2.014   2.020
 1963SOL    HW1 6788   0.591   2.016   2.088
 1963SOL    HW2 6789   0.752   2.006   2.066
 1964SOL     OW 6790   5.396   4.286   2.112
 1964SOL    HW1 6791   5.446   4.244   2.036
 1964SOL    HW2 6792   5.388   4.385   2.096
 1965SOL     OW 6793   0.475   4.163   4.130
 1965SOL    HW1 6794   0.422   4.236   4.174
 1965SOL    HW2 6795   0.562   4.201   4.097
 1966SOL     OW 6796   1.693   4.319   0.551
 1966SOL    HW1 6797   1.631   4.396   0.572
 1966SOL    HW2 6798   1.783   4.355   0.527
 1967SOL     OW 6799   6.099   2.602   3.355
 1967SOL    HW1 6800   6.041   2.546   3.295
 1967SOL    HW2 6801   6.084   2.575   3.450
 1968SOL     OW 6802   2.048   1.540   5.325
 1968SOL    HW1 6803   2.070   1.630   5.286
 1968SOL    HW2 6804   2.114   1.519   5.397
 1969SOL     OW 6805   2.682   6.237   0.356
 1969SOL    HW1 6806   2.734   6.164   0.399
 1969SOL    HW2 6807   2.671   6.312   0.421
 1970SOL     OW 6808   6.678   5.832   5.172
 1970SOL    HW1 6809   6.600   5.894   5.162
 1970SOL    HW2 6810   6.726   5.825   5.084
 1971SOL     OW 6811   1.019   6.313   5.546
 1971SOL    HW1 6812   0.998   6.217   5.565
 1971SOL    HW2 6813   1.090   6.318   5.476
 1972SOL     OW 6814   6.015   2.677   1.932
 1972SOL    HW1 6815   5.924   2.664   1.972
 1972SOL    HW2 6816   6.070   2.595   1.947
 1973SOL     OW 6817   1.877   4.097   0.878
 1973SOL    HW1 6818   1.923   4.144   0.802
 1973SOL    HW2 6819   1.878   4.155   0.959
 1974SOL     OW 6820   3.682   6.256   4.778
 1974SOL    HW1 6821   3.587   6.252   4.749
 1974SOL    HW2 6822   3.720   6.345   4.754
 1975SOL     OW 6823   1.352   3.006   3.053
 1975SOL    HW1 6824   1.379   3.023   3.147
 1975SOL    HW2 6825   1.405   2.929   3.016
 1976SOL     OW 6826   0.189   0.130   5.972
 1976SOL    HW1 6827   0.278   0.115   6.015
 1976SOL    HW2 6828   0.117   0.097   6.033
 1977SOL     OW 6829   1.986   3.769   5.927
 1977SOL    HW1 6830   1.941   3.693   5.972
 1977SOL    HW2 6831   2.079   3.742   5.900
 1978SOL     OW 6832   2.628   0.349   2.147
 1978SOL    HW1 6833   2.567   0.275   2.119
 1978SOL    HW2 6834   2.576   0.434   2.155
 1979SOL     OW 6835   6.325   5.652   6.712
 1979SOL    HW1 6836   6.408   5.707   6.713
 1979SOL    HW2 6837   6.322   5.595   6.794
 1980SOL     OW 6838   3.098   1.706   1.657
 1980SOL    HW1 6839   3.105   1.803   1.634
 1980SOL    HW2 6840   3.010   1.687   1.700
 1981SOL     OW 6841   4.388   2.376   3.204
 1981SOL    HW1 6842   4.380   2.409   3.299
 1981SOL    HW2 6843   4.458   2.429   3.156
 1982SOL     OW 6844   6.562   2.451   4.226
 1982SOL    HW1 6845   6.486   2.434   4.163
 1982SOL    HW2 6846   6.531   2.510   4.301
 1983SOL     OW 6847   0.345   0.212   0.898
 1983SOL    HW1 6848   0.308   0.219   0.991
 1983SOL    HW2 6849   0.361   0.303   0.861
 1984SOL     OW 6850   5.610   3.136   5.593
 1984SOL    HW1 6851   5.706   3.128   5.565
 1984SOL    HW2 6852   5.592   3.229   5.624
 1985SOL     OW 6853   6.307   4.234   1.895
 1985SOL    HW1 6854   6.313   4.136   1.911
 1985SOL    HW2 6855   6.271   4.251   1.803
 1986SOL     OW 6856   3.332   1.787   0.562
 1986SOL    HW1 6857   3.407   1.853   0.559
 1986SOL    HW2 6858   3.352   1.717   0.630
 1987SOL     OW 6859   2.115   0.377   3.109
 1987SOL    HW1 6860   2.077   0.461   3.145
 1987SOL    HW2 6861   2.208   0.394   3.076
 1988SOL     OW 6862   0.032   1.617   1.510
 1988SOL    HW1 6863   6.972   1.610   1.564
 1988SOL    HW2 6864   0.055   1.527   1.473
 1989SOL     OW 6865   3.114   4.971   4.934
 1989SOL    HW1 6866   3.033   4.975   4.874
 1989SOL    HW2 6867   3.197   4.974   4.878
 1990SOL     OW 6868   3.903   0.525   0.725
 1990SOL    HW1 6869   3.923   0.622   0.739
 1990SOL    HW2 6870   3.844   0.492   0.799
 1991SOL     OW 6871   3.326   5.519   0.357
 1991SOL    HW1 6872   3.333   5.452   0.283
 1991SOL    HW2 6873   3.300   5.607   0.319
 1992SOL     OW 6874   0.589   5.987   1.137
 1992SOL    HW1 6875   0.660   5.943   1.193
 1992SOL    HW2 6876   0.516   6.022   1.197
 1993SOL     OW 6877   2.098   3.227   4.534
 1993SOL    HW1 6878   2.034   3.268   4.469
 1993SOL    HW2 6879   2.139   3.299   4.589
 1994SOL     OW 6880   3.260   3.702   0.473
 1994SOL    HW1 6881   3.236   3.756   0.553
 1994SOL    HW2 6882   3.354   3.669   0.482
 1995SOL     OW 6883   5.329   2.670   4.549
 1995SOL    HW1 6884   5.257   2.739   4.556
 1995SOL    HW2 6885   5.288   2.579   4.545
 1996SOL     OW 6886   3.885   1.485   0.527
 1996SOL    HW1 6887   3.982   1.508   0.526
 1996SOL    HW2 6888   3.833   1.559   0.569
 1997SOL     OW 6889   3.949   1.410   3.677
 1997SOL    HW1 6890   3.919   1.492   3.630
 1997SOL    HW2 6891   3.976   1.433   3.771
 1998SOL     OW 6892   1.398   3.685   1.273
 1998SOL    HW1 6893   1.346   3.600   1.277
 1998SOL    HW2 6894   1.470   3.676   1.204
 1999SOL     OW 6895   1.317   6.809   5.101
 1999SOL    HW1 6896   1.262   6.737   5.142
 1999SOL    HW2 6897   1.413   6.797   5.126
 2000SOL     OW 6898   3.209   3.612   6.531
 2000SOL    HW1 6899   3.213   3.550   6.453
 2000SOL    HW2 6900   3.297   3.658   6.542
 2001SOL     OW 6901   2.783   1.442   6.352
 2001SOL    HW1 6902   2.775   1.442   6.253
 2001SOL    HW2 6903   2.869   1.486   6.379
 2002SOL     OW 6904   6.762   4.721   0.808
 2002SOL    HW1 6905   6.770   4.813   0.847
 2002SOL    HW2 6906   6.848   4.671   0.821
 2003SOL     OW 6907   6.603   5.504   2.195
 2003SOL    HW1 6908   6.590   5.575   2.125
 2003SOL    HW2 6909   6.563   5.535   2.281
 2004SOL     OW 6910   3.487   0.851   3.345
 2004SOL    HW1 6911   3.562   0.917   3.350
 2004SOL    HW2 6912   3.409   0.885   3.397
 2005SOL     OW 6913   1.027   6.376   1.030
 2005SOL    HW1 6914   0.979   6.321   1.098
 2005SOL    HW2 6915   1.004   6.342   0.938
 2006SOL     OW 6916   5.235   6.822   3.064
 2006SOL    HW1 6917   5.137   6.834   3.082
 2006SOL    HW2 6918   5.265   6.891   2.999
 2007SOL     OW 6919   5.405   4.795   0.480
 2007SOL    HW1 6920   5.360   4.873   0.437
 2007SOL    HW2 6921   5.345   4.758   0.552
 2008SOL     OW 6922   1.730   3.959   3.553
 2008SOL    HW1 6923   1.687   3.914   3.475
 2008SOL    HW2 6924   1.827   3.935   3.556
 2009SOL     OW 6925   6.636   6.431   1.910
 2009SOL    HW1 6926   6.697   6.365   1.954
 2009SOL    HW2 6927   6.562   6.382   1.864
 2010SOL     OW 6928   1.731   2.309   1.700
 2010SOL    HW1 6929   1.638   2.287   1.669
 2010SOL    HW2 6930   1.740   2.408   1.710
 2011SOL     OW 6931   0.403   5.853   5.736
 2011SOL    HW1 6932   0.384   5.776   5.675
 2011SOL    HW2 6933   0.321   5.876   5.787
 2012SOL     OW 6934   1.424   3.108   2.521
 2012SOL    HW1 6935   1.333   3.098   2.480
 2012SOL    HW2 6936   1.422   3.184   2.587
 2013SOL     OW 6937   0.603   3.147   2.859
 2013SOL    HW1 6938   0.690   3.197   2.858
 2013SOL    HW2 6939   0.609   3.071   2.924
 2014SOL     OW 6940   3.334   0.498   3.981
 2014SOL    HW1 6941   3.275   0.526   3.905
 2014SOL    HW2 6942   3.317   0.402   4.004
 2015SOL     OW 6943   4.033   0.803   1.934
 2015SOL    HW1 6944   4.058   0.859   1.856
 2015SOL    HW2 6945   4.115   0.772   1.982
 2016SOL     OW 6946   1.946   0.176   5.521
 2016SOL    HW1 6947   1.876   0.135   5.463
 2016SOL    HW2 6948   1.964   0.116   5.599
 2017SOL     OW 6949   3.575   7.003   2.744
 2017SOL    HW1 6950   3.642   6.938   2.779
 2017SOL    HW2 6951   3.568   6.993   2.645
 2018SOL     OW 6952   0.532   1.024   3.077
 2018SOL    HW1 6953   0.621   1.014   3.033
 2018SOL    HW2 6954   0.511   0.941   3.130
 2019SOL     OW 6955   6.133   4.892   6.476
 2019SOL    HW1 6956   6.217   4.863   6.431
 2019SOL    HW2 6957   6.069   4.925   6.406
 2020SOL     OW 6958   1.900   6.396   6.262
 2020SOL    HW1 6959   1.944   6.484   6.244
 2020SOL    HW2 6960   1.810   6.411   6.304
 2021SOL     OW 6961   5.992   5.839   3.565
 2021SOL    HW1 6962   6.002   5.787   3.480
 2021SOL    HW2 6963   6.072   5.898   3.577
 2022SOL     OW 6964   2.091   4.093   5.175
 2022SOL    HW1 6965   2.166   4.088   5.108
 2022SOL    HW2 6966   2.129   4.086   5.267
 2023SOL     OW 6967   0.343   6.874   6.910
 2023SOL    HW1 6968   0.293   6.911   6.989
 2023SOL    HW2 6969   0.439   6.900   6.917
 2024SOL     OW 6970   0.736   5.825   5.000
 2024SOL    HW1 6971   0.803   5.881   4.951
 2024SOL    HW2 6972   0.644   5.851   4.970
 2025SOL     OW 6973   2.250   0.594   4.784
 2025SOL    HW1 6974   2.259   0.665   4.854
 2025SOL    HW2 6975   2.183   0.526   4.814
 2026SOL     OW 6976   6.162   1.191   6.291
 2026SOL    HW1 6977   6.151   1.210   6.194
 2026SOL    HW2 6978   6.074   1.162   6.329
 2027SOL     OW 6979   0.362   6.049   2.814
 2027SOL    HW1 6980   0.314   6.011   2.735
 2027SOL    HW2 6981   0.322   6.137   2.838
 2028SOL     OW 6982   4.368   5.855   3.418
 2028SOL    HW1 6983   4.349   5.911   3.499
 2028SOL    HW2 6984   4.388   5.915   3.341
 2029SOL     OW 6985   5.689   2.720   6.409
 2029SOL    HW1 6986   5.773   2.755   6.451
 2029SOL    HW2 6987   5.690   2.740   6.311
 2030SOL     OW 6988   2.439   6.169   3.265
 2030SOL    HW1 6989   2.425   6.184   3.167
 2030SOL    HW2 6990   2.351   6.165   3.311
 2031SOL     OW 6991   6.300   5.651   3.503
 2031SOL    HW1 6992   6.230   5.580   3.513
 2031SOL    HW2 6993   6.327   5.684   3.593
 2032SOL     OW 6994   3.395   1.691   5.792
 2032SOL    HW1 6995   3.336   1.645   5.726
 2032SOL    HW2 6996   3.488   1.693   5.757
 2033SOL     OW 6997   2.097   1.611   1.113
 2033SOL    HW1 6998   2.179   1.666   1.102
 2033SOL    HW2 6999   2.107   1.551   1.193
 2034SOL     OW 7000   0.128   4.657   5.855
 2034SOL    HW1 7001   0.036   4.631   5.826
 2034SOL    HW2 7002   0.134   4.757   5.859
 2035SOL     OW 7003   5.632   7.003   2.425
 2035SOL    HW1 7004   5.668   7.004   2.518
 2035SOL    HW2 7005   5.561   0.049   2.416
 2036SOL     OW 7006   1.303   4.317   2.058
 2036SOL    HW1 7007   1.382   4.269   2.021
 2036SOL    HW2 7008   1.241   4.342   1.983
 2037SOL     OW 7009   0.229   3.218   6.760
 2037SOL    HW1 7010   0.256   3.164   6.681
 2037SOL    HW2 7011   0.222   3.314   6.734
 2038SOL     OW 7012   2.376   1.289   6.979
 2038SOL    HW1 7013   2.376   1.293   0.055
 2038SOL    HW2 7014   2.457   1.241   6.947
 2039SOL     OW 7015   6.557   6.070   2.465
 2039SOL    HW1 7016   6.567   6.042   2.560
 2039SOL    HW2 7017   6.534   6.168   2.461
 2040SOL     OW 7018   1.957   2.678   0.164
 2040SOL    HW1 7019   1.929   2.582   0.161
 2040SOL    HW2 7020   1.933   2.722   0.078
 2041SOL     OW 7021   1.478   0.647   6.220
 2041SOL    HW1 7022   1.444   0.661   6.313
 2041SOL    HW2 7023   1.492   0.549   6.204
 2042SOL     OW 7024   5.096   1.439   5.307
 2042SOL    HW1 7025   5.024   1.386   5.260
 2042SOL    HW2 7026   5.100   1.411   5.403
 2043SOL     OW 7027   6.342   4.034   1.041
 2043SOL    HW1 7028   6.371   4.094   0.966
 2043SOL    HW2 7029   6.262   4.073   1.086
 2044SOL     OW 7030   4.803   0.496   0.793
 2044SOL    HW1 7031   4.865   0.565   0.756
 2044SOL    HW2 7032   4.718   0.497   0.742
 2045SOL     OW 7033   2.159   6.347   6.567
 2045SOL    HW1 7034   2.162   6.438   6.527
 2045SOL    HW2 7035   2.208   6.347   6.655
 2046SOL     OW 7036   1.001   2.396   4.803
 2046SOL    HW1 7037   1.016   2.298   4.787
 2046SOL    HW2 7038   0.971   2.410   4.898
 2047SOL     OW 7039   6.851   1.180   0.007
 2047SOL    HW1 7040   6.946   1.199   7.003
 2047SOL    HW2 7041   6.850   1.146   0.101
 2048SOL     OW 7042   0.890   1.387   4.699
 2048SOL    HW1 7043   0.791   1.389   4.712
 2048SOL    HW2 7044   0.912   1.419   4.607
 2049SOL     OW 7045   4.659   1.900   4.886
 2049SOL    HW1 7046   4.755   1.891   4.858
 2049SOL    HW2 7047   4.600   1.884   4.807
 2050SOL     OW 7048   0.299   0.877   3.982
 2050SOL    HW1 7049   0.276   0.788   3.943
 2050SOL    HW2 7050   0.236   0.946   3.947
 2051SOL     OW 7051   3.171   6.208   0.539
 2051SOL    HW1 7052   3.250   6.154   0.569
 2051SOL    HW2 7053   3.143   6.270   0.613
 2052SOL     OW 7054   1.998   4.002   6.738
 2052SOL    HW1 7055   1.922   3.973   6.795
 2052SOL    HW2 7056   2.013   4.100   6.749
 2053SOL     OW 7057   1.123   5.302   4.206
 2053SOL    HW1 7058   1.109   5.233   4.134
 2053SOL    HW2 7059   1.100   5.392   4.170
 2054SOL     OW 7060   3.264   3.389   3.541
 2054SOL    HW1 7061   3.244   3.433   3.454
 2054SOL    HW2 7062   3.313   3.303   3.525
 2055SOL     OW 7063   2.585   2.023   5.860
 2055SOL    HW1 7064   2.617   2.085   5.788
 2055SOL    HW2 7065   2.661   1.996   5.918
 2056SOL     OW 7066   4.180   4.813   1.190
 2056SOL    HW1 7067   4.211   4.881   1.257
 2056SOL    HW2 7068   4.101   4.765   1.226
 2057SOL     OW 7069   5.926   2.444   4.193
 2057SOL    HW1 7070   5.910   2.348   4.169
 2057SOL    HW2 7071   5.971   2.448   4.282
 2058SOL     OW 7072   0.541   5.662   2.901
 2058SOL    HW1 7073   0.505   5.644   2.810
 2058SOL    HW2 7074   0.593   5.747   2.900
 2059SOL     OW 7075   1.317   0.203   6.373
 2059SOL    HW1 7076   1.340   0.221   6.278
 2059SOL    HW2 7077   1.360   0.273   6.431
 2060SOL     OW 7078   1.345   3.511   6.668
 2060SOL    HW1 7079   1.257   3.498   6.621
 2060SOL    HW2 7080   1.329   3.511   6.767
 2061SOL     OW 7081   2.105   2.287   2.908
 2061SOL    HW1 7082   2.180   2.320   2.852
 2061SOL    HW2 7083   2.021   2.337   2.885
 2062SOL     OW 7084   6.598   4.980   4.987
 2062SOL    HW1 7085   6.694   4.951   4.993
 2062SOL    HW2 7086   6.565   4.967   4.894
 2063SOL     OW 7087   1.030   0.547   4.832
 2063SOL    HW1 7088   1.070   0.456   4.816
 2063SOL    HW2 7089   1.086   0.598   4.896
 2064SOL     OW 7090   0.823   3.173   3.664
 2064SOL    HW1 7091   0.749   3.111   3.640
 2064SOL    HW2 7092   0.857   3.152   3.755
 2065SOL     OW 7093   4.368   3.231   5.599
 2065SOL    HW1 7094   4.464   3.207   5.618
 2065SOL    HW2 7095   4.331   3.166   5.532
 2066SOL     OW 7096   6.399   3.058   5.014
 2066SOL    HW1 7097   6.312   3.090   4.976
 2066SOL    HW2 7098   6.474   3.087   4.954
 2067SOL     OW 7099   6.330   5.079   1.154
 2067SOL    HW1 7100   6.235   5.103   1.175
 2067SOL    HW2 7101   6.345   5.083   1.055
 2068SOL     OW 7102   3.843   0.162   4.640
 2068SOL    HW1 7103   3.872   0.256   4.621
 2068SOL    HW2 7104   3.795   0.126   4.560
 2069SOL     OW 7105   0.053   2.145   3.817
 2069SOL    HW1 7106   0.055   2.099   3.905
 2069SOL    HW2 7107   0.029   2.242   3.831
 2070SOL     OW 7108   0.758   4.674   1.041
 2070SOL    HW1 7109   0.731   4.594   0.989
 2070SOL    HW2 7110   0.824   4.647   1.112
 2071SOL     OW 7111   6.957   1.165   5.886
 2071SOL    HW1 7112   6.873   1.218   5.893
 2071SOL    HW2 7113   7.015   1.182   5.966
 2072SOL     OW 7114   4.127   4.374   5.809
 2072SOL    HW1 7115   4.082   4.462   5.792
 2072SOL    HW2 7116   4.125   4.319   5.726
 2073SOL     OW 7117   2.874   6.147   6.900
 2073SOL    HW1 7118   2.943   6.218   6.884
 2073SOL    HW2 7119   2.867   6.131   6.999
 2074SOL     OW 7120   0.843   3.826   5.485
 2074SOL    HW1 7121   0.919   3.761   5.483
 2074SOL    HW2 7122   0.757   3.776   5.490
 2075SOL     OW 7123   6.543   1.684   1.421
 2075SOL    HW1 7124   6.616   1.752   1.425
 2075SOL    HW2 7125   6.490   1.687   1.506
 2076SOL     OW 7126   5.248   6.954   4.871
 2076SOL    HW1 7127   5.277   0.023   4.896
 2076SOL    HW2 7128   5.244   6.898   4.953
 2077SOL     OW 7129   6.449   4.183   0.827
 2077SOL    HW1 7130   6.511   4.229   0.889
 2077SOL    HW2 7131   6.413   4.248   0.760
 2078SOL     OW 7132   0.702   2.951   5.657
 2078SOL    HW1 7133   0.757   3.028   5.688
 2078SOL    HW2 7134   0.629   2.933   5.723
 2079SOL     OW 7135   4.981   2.051   2.605
 2079SOL    HW1 7136   4.971   1.980   2.535
 2079SOL    HW2 7137   4.998   2.008   2.693
 2080SOL     OW 7138   2.458   3.140   5.819
 2080SOL    HW1 7139   2.533   3.180   5.873
 2080SOL    HW2 7140   2.484   3.048   5.790
 2081SOL     OW 7141   6.080   0.274   2.881
 2081SOL    HW1 7142   6.150   0.209   2.852
 2081SOL    HW2 7143   6.042   0.320   2.801
 2082SOL     OW 7144   6.995   6.241   3.288
 2082SOL    HW1 7145   0.069   6.262   3.285
 2082SOL    HW2 7146   6.968   6.223   3.383
 2083SOL     OW 7147   0.239   6.223   3.717
 2083SOL    HW1 7148   0.193   6.250   3.801
 2083SOL    HW2 7149   0.321   6.170   3.739
 2084SOL     OW 7150   0.084   2.104   1.885
 2084SOL    HW1 7151   0.054   2.096   1.790
 2084SOL    HW2 7152   0.069   2.197   1.917
 2085SOL     OW 7153   5.003   5.751   0.821
 2085SOL    HW1 7154   5.086   5.804   0.802
 2085SOL    HW2 7155   4.966   5.778   0.910
 2086SOL     OW 7156   4.661   0.163   6.812
 2086SOL    HW1 7157   4.704   0.233   6.868
 2086SOL    HW2 7158   4.729   0.123   6.750
 2087SOL     OW 7159   4.367   2.186   6.761
 2087SOL    HW1 7160   4.385   2.091   6.734
 2087SOL    HW2 7161   4.317   2.232   6.688
 2088SOL     OW 7162   0.361   5.614   5.613
 2088SOL    HW1 7163   0.381   5.517   5.602
 2088SOL    HW2 7164   0.266   5.631   5.588
 2089SOL     OW 7165   2.838   3.574   7.000
 2089SOL    HW1 7166   2.772   3.636   6.958
 2089SOL    HW2 7167   2.892   3.623   0.044
 2090SOL     OW 7168   4.584   3.315   5.331
 2090SOL    HW1 7169   4.623   3.380   5.265
 2090SOL    HW2 7170   4.595   3.351   5.423
 2091SOL     OW 7171   6.000   5.683   1.443
 2091SOL    HW1 7172   5.961   5.676   1.351
 2091SOL    HW2 7173   5.942   5.742   1.499
 2092SOL     OW 7174   4.640   3.845   1.553
 2092SOL    HW1 7175   4.547   3.847   1.516
 2092SOL    HW2 7176   4.706   3.836   1.477
 2093SOL     OW 7177   3.851   1.628   2.445
 2093SOL    HW1 7178   3.773   1.569   2.467
 2093SOL    HW2 7179   3.860   1.699   2.515
 2094SOL     OW 7180   5.418   2.274   6.896
 2094SOL    HW1 7181   5.408   2.373   6.898
 2094SOL    HW2 7182   5.327   2.232   6.895
 2095SOL     OW 7183   5.065   6.663   2.789
 2095SOL    HW1 7184   5.162   6.676   2.809
 2095SOL    HW2 7185   5.022   6.752   2.774
 2096SOL     OW 7186   5.160   6.715   2.187
 2096SOL    HW1 7187   5.103   6.795   2.167
 2096SOL    HW2 7188   5.207   6.686   2.103
 2097SOL     OW 7189   1.404   4.984   6.400
 2097SOL    HW1 7190   1.333   5.021   6.339
 2097SOL    HW2 7191   1.391   5.021   6.492
 2098SOL     OW 7192   2.936   5.756   3.387
 2098SOL    HW1 7193   2.906   5.736   3.294
 2098SOL    HW2 7194   3.030   5.792   3.385
 2099SOL     OW 7195   5.114   1.064   6.943
 2099SOL    HW1 7196   5.106   0.993   6.873
 2099SOL    HW2 7197   5.157   1.026   0.001
 2100SOL     OW 7198   5.816   0.293   1.084
 2100SOL    HW1 7199   5.835   0.266   1.179
 2100SOL    HW2 7200   5.783   0.387   1.083
 2101SOL     OW 7201   0.214   6.628   1.982
 2101SOL    HW1 7202   0.208   6.648   2.080
 2101SOL    HW2 7203   0.123   6.634   1.940
 2102SOL     OW 7204   3.566   3.033   0.737
 2102SOL    HW1 7205   3.587   3.032   0.835
 2102SOL    HW2 7206   3.561   3.128   0.705
 2103SOL     OW 7207   3.110   5.724   0.497
 2103SOL    HW1 7208   3.096   5.635   0.541
 2103SOL    HW2 7209   3.178   5.776   0.549
 2104SOL     OW 7210   1.244   5.110   3.044
 2104SOL    HW1 7211   1.341   5.116   3.021
 2104SOL    HW2 7212   1.192   5.177   2.990
 2105SOL     OW 7213   6.165   4.068   6.207
 2105SOL    HW1 7214   6.076   4.106   6.233
 2105SOL    HW2 7215   6.166   4.050   6.108
 2106SOL     OW 7216   4.784   4.145   1.355
 2106SOL    HW1 7217   4.777   4.182   1.447
 2106SOL    HW2 7218   4.740   4.055   1.352
 2107SOL     OW 7219   5.178   4.275   5.774
 2107SOL    HW1 7220   5.104   4.259   5.709
 2107SOL    HW2 7221   5.190   4.373   5.787
 2108SOL     OW 7222   5.961   0.572   5.803
 2108SOL    HW1 7223   5.998   0.540   5.890
 2108SOL    HW2 7224   5.947   0.493   5.743
 2109SOL     OW 7225   2.601   6.373   3.383
 2109SOL    HW1 7226   2.560   6.346   3.470
 2109SOL    HW2 7227   2.574   6.308   3.312
 2110SOL     OW 7228   3.960   0.614   0.248
 2110SOL    HW1 7229   3.893   0.657   0.310
 2110SOL    HW2 7230   3.983   0.678   0.175
 2111SOL     OW 7231   1.104   2.478   5.683
 2111SOL    HW1 7232   1.148   2.563   5.654
 2111SOL    HW2 7233   1.093   2.417   5.604
 2112SOL     OW 7234   0.414   0.892   6.879
 2112SOL    HW1 7235   0.416   0.799   6.842
 2112SOL    HW2 7236   0.319   0.924   6.883
 2113SOL     OW 7237   1.206   0.472   4.341
 2113SOL    HW1 7238   1.250   0.429   4.420
 2113SOL    HW2 7239   1.178   0.565   4.365
 2114SOL     OW 7240   1.990   1.685   6.248
 2114SOL    HW1 7241   1.988   1.756   6.318
 2114SOL    HW2 7242   2.031   1.602   6.286
 2115SOL     OW 7243   6.573   5.559   2.725
 2115SOL    HW1 7244   6.626   5.563   2.810
 2115SOL    HW2 7245   6.482   5.597   2.740
 2116SOL     OW 7246   0.585   1.921   0.148
 2116SOL    HW1 7247   0.588   1.832   0.103
 2116SOL    HW2 7248   0.674   1.941   0.189
 2117SOL     OW 7249   6.175   1.444   2.415
 2117SOL    HW1 7250   6.128   1.356   2.429
 2117SOL    HW2 7251   6.270   1.428   2.388
 2118SOL     OW 7252   6.220   2.567   2.273
 2118SOL    HW1 7253   6.128   2.543   2.305
 2118SOL    HW2 7254   6.213   2.614   2.185
 2119SOL     OW 7255   3.042   0.851   0.007
 2119SOL    HW1 7256   2.990   0.844   6.946
 2119SOL    HW2 7257   3.112   0.922   7.021
 2120SOL     OW 7258   5.499   1.557   0.834
 2120SOL    HW1 7259   5.448   1.482   0.792
 2120SOL    HW2 7260   5.436   1.609   0.893
 2121SOL     OW 7261   1.206   0.498   6.613
 2121SOL    HW1 7262   1.166   0.569   6.555
 2121SOL    HW2 7263   1.305   0.502   6.607
 2122SOL     OW 7264   6.063   1.084   4.297
 2122SOL    HW1 7265   6.152   1.130   4.305
 2122SOL    HW2 7266   5.995   1.133   4.351
 2123SOL     OW 7267   1.901   5.431   3.411
 2123SOL    HW1 7268   1.870   5.394   3.324
 2123SOL    HW2 7269   1.870   5.526   3.419
 2124SOL     OW 7270   3.981   3.621   5.859
 2124SOL    HW1 7271   3.940   3.585   5.776
 2124SOL    HW2 7272   4.059   3.679   5.836
 2125SOL     OW 7273   1.439   5.654   3.856
 2125SOL    HW1 7274   1.502   5.661   3.778
 2125SOL    HW2 7275   1.450   5.565   3.900
 2126SOL     OW 7276   3.324   4.458   0.110
 2126SOL    HW1 7277   3.364   4.507   0.032
 2126SOL    HW2 7278   3.226   4.477   0.114
 2127SOL     OW 7279   0.584   2.382   4.257
 2127SOL    HW1 7280   0.659   2.441   4.285
 2127SOL    HW2 7281   0.616   2.317   4.188
 2128SOL     OW 7282   5.367   2.768   1.842
 2128SOL    HW1 7283   5.323   2.789   1.929
 2128SOL    HW2 7284   5.331   2.682   1.806
 2129SOL     OW 7285   5.107   4.441   4.001
 2129SOL    HW1 7286   5.076   4.369   4.064
 2129SOL    HW2 7287   5.207   4.440   3.996
 2130SOL     OW 7288   2.402   0.399   2.999
 2130SOL    HW1 7289   2.348   0.483   2.999
 2130SOL    HW2 7290   2.494   0.419   2.966
 2131SOL     OW 7291   5.726   1.403   5.377
 2131SOL    HW1 7292   5.783   1.347   5.438
 2131SOL    HW2 7293   5.713   1.354   5.290
 2132SOL     OW 7294   2.980   2.594   0.298
 2132SOL    HW1 7295   2.912   2.666   0.311
 2132SOL    HW2 7296   3.000   2.551   0.386
 2133SOL     OW 7297   2.801   2.032   2.066
 2133SOL    HW1 7298   2.827   2.128   2.078
 2133SOL    HW2 7299   2.759   2.020   1.975
 2134SOL     OW 7300   1.233   6.605   4.831
 2134SOL    HW1 7301   1.210   6.634   4.924
 2134SOL    HW2 7302   1.295   6.671   4.790
 2135SOL     OW 7303   0.702   1.262   3.403
 2135SOL    HW1 7304   0.671   1.229   3.313
 2135SOL    HW2 7305   0.761   1.341   3.390
 2136SOL     OW 7306   0.313   4.315   3.162
 2136SOL    HW1 7307   0.241   4.375   3.127
 2136SOL    HW2 7308   0.280   4.267   3.243
 2137SOL     OW 7309   1.336   0.520   5.189
 2137SOL    HW1 7310   1.315   0.606   5.143
 2137SOL    HW2 7311   1.254   0.464   5.195
 2138SOL     OW 7312   0.678   2.875   0.293
 2138SOL    HW1 7313   0.761   2.919   0.327
 2138SOL    HW2 7314   0.699   2.781   0.266
 2139SOL     OW 7315   2.515   1.156   5.701
 2139SOL    HW1 7316   2.494   1.211   5.782
 2139SOL    HW2 7317   2.431   1.113   5.668
 2140SOL     OW 7318   2.329   5.725   2.665
 2140SOL    HW1 7319   2.278   5.796   2.713
 2140SOL    HW2 7320   2.278   5.696   2.584
 2141SOL     OW 7321   5.219   2.094   0.630
 2141SOL    HW1 7322   5.168   2.009   0.620
 2141SOL    HW2 7323   5.302   2.090   0.574
 2142SOL     OW 7324   2.497   1.927   3.230
 2142SOL    HW1 7325   2.454   1.881   3.153
 2142SOL    HW2 7326   2.525   2.019   3.203
 2143SOL     OW 7327   3.036   6.740   0.828
 2143SOL    HW1 7328   3.132   6.761   0.809
 2143SOL    HW2 7329   3.003   6.674   0.761
 2144SOL     OW 7330   6.991   0.988   3.100
 2144SOL    HW1 7331   6.950   1.079   3.106
 2144SOL    HW2 7332   0.057   0.996   3.057
 2145SOL     OW 7333   4.017   5.424   2.885
 2145SOL    HW1 7334   4.044   5.381   2.798
 2145SOL    HW2 7335   4.094   5.479   2.919
 2146SOL     OW 7336   4.061   3.211   2.657
 2146SOL    HW1 7337   4.008   3.127   2.670
 2146SOL    HW2 7338   4.124   3.222   2.734
 2147SOL     OW 7339   1.414   0.680   5.603
 2147SOL    HW1 7340   1.319   0.711   5.608
 2147SOL    HW2 7341   1.443   0.675   5.507
 2148SOL     OW 7342   5.173   2.797   2.870
 2148SOL    HW1 7343   5.239   2.860   2.830
 2148SOL    HW2 7344   5.083   2.814   2.831
 2149SOL     OW 7345   3.378   1.200   2.686
 2149SOL    HW1 7346   3.322   1.202   2.768
 2149SOL    HW2 7347   3.459   1.143   2.702
 2150SOL     OW 7348   3.520   2.016   3.092
 2150SOL    HW1 7349   3.513   2.063   3.181
 2150SOL    HW2 7350   3.616   1.996   3.072
 2151SOL     OW 7351   3.887   2.936   5.679
 2151SOL    HW1 7352   3.891   2.928   5.580
 2151SOL    HW2 7353   3.910   3.030   5.705
 2152SOL     OW 7354   6.218   5.874   1.442
 2152SOL    HW1 7355   6.224   5.957   1.386
 2152SOL    HW2 7356   6.145   5.816   1.408
 2153SOL     OW 7357   4.713   2.445   3.135
 2153SOL    HW1 7358   4.674   2.464   3.045
 2153SOL    HW2 7359   4.751   2.528   3.173
 2154SOL     OW 7360   3.998   6.317   5.361
 2154SOL    HW1 7361   3.973   6.336   5.456
 2154SOL    HW2 7362   4.046   6.230   5.356
 2155SOL     OW 7363   0.012   3.981   0.661
 2155SOL    HW1 7364   0.043   4.061   0.609
 2155SOL    HW2 7365   6.936   3.985   0.671
 2156SOL     OW 7366   1.566   0.872   1.763
 2156SOL    HW1 7367   1.561   0.971   1.772
 2156SOL    HW2 7368   1.623   0.848   1.685
 2157SOL     OW 7369   0.855   1.331   5.249
 2157SOL    HW1 7370   0.782   1.330   5.181
 2157SOL    HW2 7371   0.937   1.373   5.209
 2158SOL     OW 7372   3.664   6.573   2.015
 2158SOL    HW1 7373   3.718   6.653   2.043
 2158SOL    HW2 7374   3.573   6.603   1.987
 2159SOL     OW 7375   1.907   6.558   4.765
 2159SOL    HW1 7376   1.868   6.606   4.844
 2159SOL    HW2 7377   1.926   6.463   4.790
 2160SOL     OW 7378   3.037   3.935   0.982
 2160SOL    HW1 7379   3.008   3.868   0.913
 2160SOL    HW2 7380   2.981   4.017   0.975
 2161SOL     OW 7381   5.194   2.400   3.324
 2161SOL    HW1 7382   5.266   2.331   3.319
 2161SOL    HW2 7383   5.163   2.422   3.231
 2162SOL     OW 7384   1.296   0.804   6.868
 2162SOL    HW1 7385   1.366   0.749   6.914
 2162SOL    HW2 7386   1.335   0.847   6.787
 2163SOL     OW 7387   1.691   2.058   0.791
 2163SOL    HW1 7388   1.641   1.976   0.765
 2163SOL    HW2 7389   1.756   2.036   0.864
 2164SOL     OW 7390   1.106   0.605   1.206
 2164SOL    HW1 7391   1.089   0.696   1.242
 2164SOL    HW2 7392   1.205   0.589   1.200
 2165SOL     OW 7393   2.239   6.864   2.415
 2165SOL    HW1 7394   2.317   6.923   2.397
 2165SOL    HW2 7395   2.255   6.813   2.500
 2166SOL     OW 7396   0.278   2.579   6.402
 2166SOL    HW1 7397   0.244   2.543   6.315
 2166SOL    HW2 7398   0.253   2.676   6.410
 2167SOL     OW 7399   2.868   0.400   2.857
 2167SOL    HW1 7400   2.870   0.328   2.788
 2167SOL    HW2 7401   2.886   0.360   2.947
 2168SOL     OW 7402   5.890   5.511   4.605
 2168SOL    HW1 7403   5.984   5.489   4.631
 2168SOL    HW2 7404   5.890   5.585   4.538
 2169SOL     OW 7405   4.930   1.612   6.106
 2169SOL    HW1 7406   4.845   1.559   6.104
 2169SOL    HW2 7407   5.001   1.563   6.055
 2170SOL     OW 7408   4.241   4.743   4.253
 2170SOL    HW1 7409   4.171   4.788   4.199
 2170SOL    HW2 7410   4.294   4.681   4.194
 2171SOL     OW 7411   0.388   2.446   0.008
 2171SOL    HW1 7412   0.425   2.385   0.079
 2171SOL    HW2 7413   0.423   2.538   0.023
 2172SOL     OW 7414   2.897   1.077   0.659
 2172SOL    HW1 7415   2.929   1.139   0.730
 2172SOL    HW2 7416   2.973   1.020   0.626
 2173SOL     OW 7417   5.531   1.625   5.407
 2173SOL    HW1 7418   5.587   1.681   5.345
 2173SOL    HW2 7419   5.553   1.529   5.393
 2174SOL     OW 7420   0.482   5.904   4.963
 2174SOL    HW1 7421   0.406   5.891   4.900
 2174SOL    HW2 7422   0.447   5.944   5.049
 2175SOL     OW 7423   2.219   6.386   5.046
 2175SOL    HW1 7424   2.137   6.343   5.009
 2175SOL    HW2 7425   2.280   6.316   5.083
 2176SOL     OW 7426   1.626   2.347   2.728
 2176SOL    HW1 7427   1.590   2.386   2.643
 2176SOL    HW2 7428   1.553   2.338   2.795
 2177SOL     OW 7429   6.793   1.807   1.532
 2177SOL    HW1 7430   6.801   1.721   1.582
 2177SOL    HW2 7431   6.836   1.881   1.584
 2178SOL     OW 7432   0.543   4.779   6.903
 2178SOL    HW1 7433   0.567   4.854   6.841
 2178SOL    HW2 7434   0.576   4.692   6.865
 2179SOL     OW 7435   1.407   5.260   4.182
 2179SOL    HW1 7436   1.311   5.243   4.159
 2179SOL    HW2 7437   1.423   5.231   4.277
 2180SOL     OW 7438   3.835   3.038   2.683
 2180SOL    HW1 7439   3.769   3.013   2.753
 2180SOL    HW2 7440   3.799   3.013   2.593
 2181SOL     OW 7441   5.245   5.017   5.991
 2181SOL    HW1 7442   5.171   5.021   5.925
 2181SOL    HW2 7443   5.220   5.070   6.072
 2182SOL     OW 7444   6.330   3.026   6.903
 2182SOL    HW1 7445   6.266   3.070   6.967
 2182SOL    HW2 7446   6.419   3.014   6.949
 2183SOL     OW 7447   2.880   3.318   1.097
 2183SOL    HW1 7448   2.854   3.280   1.186
 2183SOL    HW2 7449   2.798   3.356   1.053
 2184SOL     OW 7450   3.963   2.504   6.206
 2184SOL    HW1 7451   3.996   2.427   6.151
 2184SOL    HW2 7452   3.890   2.473   6.266
 2185SOL     OW 7453   1.762   1.505   1.361
 2185SOL    HW1 7454   1.748   1.582   1.424
 2185SOL    HW2 7455   1.857   1.474   1.367
 2186SOL     OW 7456   0.905   5.769   3.077
 2186SOL    HW1 7457   0.895   5.833   3.001
 2186SOL    HW2 7458   0.845   5.797   3.152
 2187SOL     OW 7459   6.956   1.045   6.452
 2187SOL    HW1 7460   7.016   1.098   6.512
 2187SOL    HW2 7461   6.861   1.061   6.479
 2188SOL     OW 7462   5.168   0.567   2.759
 2188SOL    HW1 7463   5.216   0.493   2.807
 2188SOL    HW2 7464   5.208   0.578   2.668
 2189SOL     OW 7465   2.067   0.303   6.631
 2189SOL    HW1 7466   2.155   0.285   6.587
 2189SOL    HW2 7467   2.063   0.398   6.661
 2190SOL     OW 7468   5.182   2.073   1.963
 2190SOL    HW1 7469   5.223   2.076   1.872
 2190SOL    HW2 7470   5.092   2.028   1.958
 2191SOL     OW 7471   3.372   2.350   0.256
 2191SOL    HW1 7472   3.464   2.364   0.293
 2191SOL    HW2 7473   3.339   2.435   0.215
 2192SOL     OW 7474   4.918   5.736   5.394
 2192SOL    HW1 7475   4.843   5.761   5.455
 2192SOL    HW2 7476   4.987   5.808   5.395
 2193SOL     OW 7477   0.584   4.724   6.093
 2193SOL    HW1 7478   0.626   4.766   6.012
 2193SOL    HW2 7479   0.588   4.789   6.169
 2194SOL     OW 7480   2.743   0.079   1.596
 2194SOL    HW1 7481   2.687   7.020   1.593
 2194SOL    HW2 7482   2.787   0.086   1.685
 2195SOL     OW 7483   1.287   4.088   2.926
 2195SOL    HW1 7484   1.333   4.056   3.008
 2195SOL    HW2 7485   1.229   4.166   2.948
 2196SOL     OW 7486   3.416   2.825   6.148
 2196SOL    HW1 7487   3.478   2.804   6.073
 2196SOL    HW2 7488   3.442   2.772   6.229
 2197SOL     OW 7489   4.474   5.072   0.494
 2197SOL    HW1 7490   4.461   5.143   0.563
 2197SOL    HW2 7491   4.388   5.024   0.479
 2198SOL     OW 7492   6.027   4.056   0.291
 2198SOL    HW1 7493   6.005   3.959   0.296
 2198SOL    HW2 7494   5.998   4.093   0.202
 2199SOL     OW 7495   4.386   0.910   1.826
 2199SOL    HW1 7496   4.420   0.967   1.901
 2199SOL    HW2 7497   4.463   0.878   1.771
 2200SOL     OW 7498   2.918   0.810   5.010
 2200SOL    HW1 7499   2.899   0.794   5.107
 2200SOL    HW2 7500   2.838   0.785   4.956
 2201SOL     OW 7501   5.215   4.040   1.902
 2201SOL    HW1 7502   5.232   3.997   1.991
 2201SOL    HW2 7503   5.284   4.111   1.886
 2202SOL     OW 7504   4.488   6.526   3.892
 2202SOL    HW1 7505   4.556   6.477   3.947
 2202SOL    HW2 7506   4.452   6.603   3.945
 2203SOL     OW 7507   3.579   1.704   3.361
 2203SOL    HW1 7508   3.534   1.751   3.285
 2203SOL    HW2 7509   3.548   1.609   3.364
 2204SOL     OW 7510   2.817   2.457   1.064
 2204SOL    HW1 7511   2.733   2.414   1.030
 2204SOL    HW2 7512   2.893   2.434   1.003
 2205SOL     OW 7513   1.995   0.109   0.366
 2205SOL    HW1 7514   1.978   0.163   0.448
 2205SOL    HW2 7515   2.053   0.161   0.303
 2206SOL     OW 7516   1.869   2.529   6.790
 2206SOL    HW1 7517   1.956   2.486   6.811
 2206SOL    HW2 7518   1.808   2.464   6.745
 2207SOL     OW 7519   0.656   4.189   4.968
 2207SOL    HW1 7520   0.690   4.282   4.980
 2207SOL    HW2 7521   0.718   4.125   5.013
 2208SOL     OW 7522   0.509   4.095   1.408
 2208SOL    HW1 7523   0.431   4.034   1.419
 2208SOL    HW2 7524   0.589   4.058   1.455
 2209SOL     OW 7525   1.286   5.635   0.697
 2209SOL    HW1 7526   1.199   5.586   0.704
 2209SOL    HW2 7527   1.280   5.703   0.624
 2210SOL     OW 7528   0.695   6.350   4.247
 2210SOL    HW1 7529   0.655   6.347   4.339
 2210SOL    HW2 7530   0.655   6.277   4.192
 2211SOL     OW 7531   6.222   1.494   5.647
 2211SOL    HW1 7532   6.275   1.578   5.638
 2211SOL    HW2 7533   6.254   1.427   5.581
 2212SOL     OW 7534   1.425   0.197   6.117
 2212SOL    HW1 7535   1.379   0.215   6.030
 2212SOL    HW2 7536   1.500   0.262   6.129
 2213SOL     OW 7537   3.564   1.373   3.288
 2213SOL    HW1 7538   3.578   1.348   3.384
 2213SOL    HW2 7539   3.466   1.376   3.267
 2214SOL     OW 7540   4.169   0.068   4.908
 2214SOL    HW1 7541   4.166   7.014   4.971
 2214SOL    HW2 7542   4.264   0.096   4.894
 2215SOL     OW 7543   5.520   2.898   5.169
 2215SOL    HW1 7544   5.542   2.995   5.184
 2215SOL    HW2 7545   5.462   2.890   5.087
 2216SOL     OW 7546   2.243   0.431   1.941
 2216SOL    HW1 7547   2.211   0.438   1.846
 2216SOL    HW2 7548   2.177   0.474   2.002
 2217SOL     OW 7549   4.032   0.551   1.500
 2217SOL    HW1 7550   4.055   0.493   1.423
 2217SOL    HW2 7551   4.030   0.647   1.470
 2218SOL     OW 7552   1.218   5.598   1.221
 2218SOL    HW1 7553   1.266   5.673   1.267
 2218SOL    HW2 7554   1.258   5.584   1.131
 2219SOL     OW 7555   1.106   3.117   3.005
 2219SOL    HW1 7556   1.194   3.093   3.045
 2219SOL    HW2 7557   1.040   3.044   3.023
 2220SOL     OW 7558   0.423   0.607   6.800
 2220SOL    HW1 7559   0.475   0.579   6.719
 2220SOL    HW2 7560   0.355   0.537   6.822
 2221SOL     OW 7561   0.238   2.187   0.471
 2221SOL    HW1 7562   0.158   2.167   0.413
 2221SOL    HW2 7563   0.254   2.109   0.532
 2222SOL     OW 7564   5.826   6.084   2.678
 2222SOL    HW1 7565   5.816   6.174   2.635
 2222SOL    HW2 7566   5.875   6.093   2.765
 2223SOL     OW 7567   5.294   5.474   1.860
 2223SOL    HW1 7568   5.206   5.496   1.903
 2223SOL    HW2 7569   5.362   5.458   1.932
 2224SOL     OW 7570   1.170   4.980   1.039
 2224SOL    HW1 7571   1.172   4.914   0.965
 2224SOL    HW2 7572   1.131   5.066   1.006
 2225SOL     OW 7573   6.427   4.865   1.321
 2225SOL    HW1 7574   6.394   4.931   1.254
 2225SOL    HW2 7575   6.430   4.774   1.279
 2226SOL     OW 7576   4.343   4.003   1.256
 2226SOL    HW1 7577   4.321   4.079   1.196
 2226SOL    HW2 7578   4.306   3.918   1.217
 2227SOL     OW 7579   0.686   3.693   4.562
 2227SOL    HW1 7580   0.698   3.612   4.506
 2227SOL    HW2 7581   0.681   3.667   4.659
 2228SOL     OW 7582   2.790   4.858   5.680
 2228SOL    HW1 7583   2.747   4.927   5.738
 2228SOL    HW2 7584   2.829   4.903   5.599
 2229SOL     OW 7585   4.944   0.893   3.292
 2229SOL    HW1 7586   4.990   0.815   3.334
 2229SOL    HW2 7587   4.845   0.884   3.305
 2230SOL     OW 7588   1.473   5.716   0.254
 2230SOL    HW1 7589   1.476   5.799   0.198
 2230SOL    HW2 7590   1.421   5.645   0.206
 2231SOL     OW 7591   2.998   6.745   1.692
 2231SOL    HW1 7592   3.046   6.827   1.661
 2231SOL    HW2 7593   2.924   6.772   1.755
 2232SOL     OW 7594   6.839   3.147   2.756
 2232SOL    HW1 7595   6.793   3.226   2.796
 2232SOL    HW2 7596   6.909   3.114   2.820
 2233SOL     OW 7597   3.576   1.264   6.976
 2233SOL    HW1 7598   3.497   1.259   6.915
 2233SOL    HW2 7599   3.596   1.172   7.012
 2234SOL     OW 7600   3.181   1.959   0.718
 2234SOL    HW1 7601   3.120   1.994   0.646
 2234SOL    HW2 7602   3.240   1.888   0.681
 2235SOL     OW 7603   1.974   0.147   1.473
 2235SOL    HW1 7604   1.959   0.054   1.440
 2235SOL    HW2 7605   1.895   0.204   1.452
 2236SOL     OW 7606   6.294   3.920   0.128
 2236SOL    HW1 7607   6.222   3.874   0.181
 2236SOL    HW2 7608   6.381   3.910   0.176
 2237SOL     OW 7609   6.891   2.378   4.203
 2237SOL    HW1 7610   6.904   2.306   4.135
 2237SOL    HW2 7611   6.795   2.381   4.230
 2238SOL     OW 7612   0.687   5.943   2.372
 2238SOL    HW1 7613   0.782   5.931   2.400
 2238SOL    HW2 7614   0.680   6.023   2.313
 2239SOL     OW 7615   5.129   5.104   3.262
 2239SOL    HW1 7616   5.226   5.122   3.250
 2239SOL    HW2 7617   5.113   5.006   3.270
 2240SOL     OW 7618   5.405   3.646   2.400
 2240SOL    HW1 7619   5.438   3.736   2.371
 2240SOL    HW2 7620   5.374   3.595   2.320
 2241SOL     OW 7621   0.910   0.216   2.419
 2241SOL    HW1 7622   0.886   0.120   2.434
 2241SOL    HW2 7623   0.947   0.254   2.504
 2242SOL     OW 7624   4.931   2.501   2.616
 2242SOL    HW1 7625   5.003   2.489   2.548
 2242SOL    HW2 7626   4.927   2.597   2.643
 2243SOL     OW 7627   2.628   5.874   5.195
 2243SOL    HW1 7628   2.652   5.903   5.102
 2243SOL    HW2 7629   2.623   5.774   5.199
 2244SOL     OW 7630   2.529   0.923   5.022
 2244SOL    HW1 7631   2.593   0.961   5.088
 2244SOL    HW2 7632   2.569   0.842   4.980
 2245SOL     OW 7633   0.694   1.917   1.758
 2245SOL    HW1 7634   0.675   1.948   1.852
 2245SOL    HW2 7635   0.730   1.823   1.761
 2246SOL     OW 7636   1.085   3.918   5.094
 2246SOL    HW1 7637   1.097   3.887   5.000
 2246SOL    HW2 7638   1.152   3.988   5.115
 2247SOL     OW 7639   1.959   1.791   5.775
 2247SOL    HW1 7640   2.055   1.769   5.758
 2247SOL    HW2 7641   1.901   1.721   5.734
 2248SOL     OW 7642   4.913   4.103   5.379
 2248SOL    HW1 7643   5.007   4.069   5.388
 2248SOL    HW2 7644   4.899   4.179   5.442
 2249SOL     OW 7645   4.923   5.881   4.997
 2249SOL    HW1 7646   4.886   5.838   5.079
 2249SOL    HW2 7647   4.853   5.883   4.926
 2250SOL     OW 7648   6.085   4.905   0.234
 2250SOL    HW1 7649   6.107   4.876   0.328
 2250SOL    HW2 7650   6.048   4.827   0.184
 2251SOL     OW 7651   6.812   0.824   6.753
 2251SOL    HW1 7652   6.893   0.789   6.708
 2251SOL    HW2 7653   6.743   0.751   6.760
 2252SOL     OW 7654   3.622   1.348   6.002
 2252SOL    HW1 7655   3.662   1.422   5.948
 2252SOL    HW2 7656   3.668   1.262   5.981
 2253SOL     OW 7657   1.659   2.525   6.410
 2253SOL    HW1 7658   1.656   2.491   6.504
 2253SOL    HW2 7659   1.746   2.498   6.367
 2254SOL     OW 7660   1.754   3.583   6.340
 2254SOL    HW1 7661   1.746   3.662   6.401
 2254SOL    HW2 7662   1.841   3.537   6.356
 2255SOL     OW 7663   5.827   2.312   1.781
 2255SOL    HW1 7664   5.847   2.219   1.811
 2255SOL    HW2 7665   5.777   2.360   1.853
 2256SOL     OW 7666   4.101   4.972   1.852
 2256SOL    HW1 7667   4.196   4.988   1.824
 2256SOL    HW2 7668   4.095   4.886   1.904
 2257SOL     OW 7669   1.598   4.194   3.676
 2257SOL    HW1 7670   1.667   4.144   3.624
 2257SOL    HW2 7671   1.512   4.196   3.625
 2258SOL     OW 7672   1.669   5.622   4.570
 2258SOL    HW1 7673   1.601   5.553   4.544
 2258SOL    HW2 7674   1.750   5.576   4.606
 2259SOL     OW 7675   5.450   2.755   6.549
 2259SOL    HW1 7676   5.532   2.727   6.498
 2259SOL    HW2 7677   5.453   2.715   6.641
 2260SOL     OW 7678   5.154   5.186   0.957
 2260SOL    HW1 7679   5.192   5.173   0.865
 2260SOL    HW2 7680   5.225   5.171   1.025
 2261SOL     OW 7681   4.406   6.444   6.230
 2261SOL    HW1 7682   4.368   6.530   6.196
 2261SOL    HW2 7683   4.385   6.433   6.327
 2262SOL     OW 7684   4.195   1.470   2.940
 2262SOL    HW1 7685   4.257   1.480   2.862
 2262SOL    HW2 7686   4.150   1.557   2.959
 2263SOL     OW 7687   6.841   4.514   6.629
 2263SOL    HW1 7688   6.852   4.502   6.530
 2263SOL    HW2 7689   6.916   4.467   6.676
 2264SOL     OW 7690   3.734   4.107   3.698
 2264SOL    HW1 7691   3.776   4.188   3.656
 2264SOL    HW2 7692   3.635   4.115   3.692
 2265SOL     OW 7693   6.772   0.560   1.829
 2265SOL    HW1 7694   6.694   0.500   1.849
 2265SOL    HW2 7695   6.794   0.555   1.732
 2266SOL     OW 7696   6.139   6.978   1.023
 2266SOL    HW1 7697   6.121   0.038   0.972
 2266SOL    HW2 7698   6.173   6.907   0.961
 2267SOL     OW 7699   5.229   1.752   5.578
 2267SOL    HW1 7700   5.162   1.821   5.550
 2267SOL    HW2 7701   5.249   1.692   5.501
 2268SOL     OW 7702   6.346   5.278   0.192
 2268SOL    HW1 7703   6.351   5.181   0.168
 2268SOL    HW2 7704   6.403   5.331   0.129
 2269SOL     OW 7705   7.009   5.267   4.984
 2269SOL    HW1 7706   0.063   5.326   5.002
 2269SOL    HW2 7707   7.011   5.235   4.890
 2270SOL     OW 7708   4.488   3.338   1.687
 2270SOL    HW1 7709   4.406   3.301   1.643
 2270SOL    HW2 7710   4.483   3.438   1.688
 2271SOL     OW 7711   6.191   4.163   3.326
 2271SOL    HW1 7712   6.224   4.188   3.417
 2271SOL    HW2 7713   6.117   4.224   3.299
 2272SOL     OW 7714   5.446   2.117   6.611
 2272SOL    HW1 7715   5.424   2.164   6.696
 2272SOL    HW2 7716   5.368   2.124   6.548
 2273SOL     OW 7717   1.012   1.770   3.889
 2273SOL    HW1 7718   0.955   1.847   3.860
 2273SOL    HW2 7719   0.970   1.724   3.967
 2274SOL     OW 7720   1.662   3.341   3.591
 2274SOL    HW1 7721   1.614   3.254   3.602
 2274SOL    HW2 7722   1.597   3.416   3.594
 2275SOL     OW 7723   4.882   0.100   3.391
 2275SOL    HW1 7724   4.878   0.134   3.485
 2275SOL    HW2 7725   4.822   0.155   3.333
 2276SOL     OW 7726   4.882   4.846   1.536
 2276SOL    HW1 7727   4.886   4.945   1.524
 2276SOL    HW2 7728   4.960   4.816   1.592
 2277SOL     OW 7729   3.190   3.939   0.362
 2277SOL    HW1 7730   3.224   3.972   0.273
 2277SOL    HW2 7731   3.227   3.848   0.380
 2278SOL     OW 7732   5.631   6.636   0.987
 2278SOL    HW1 7733   5.639   6.733   0.962
 2278SOL    HW2 7734   5.720   6.592   0.981
 2279SOL     OW 7735   5.037   4.462   4.953
 2279SOL    HW1 7736   5.038   4.546   5.008
 2279SOL    HW2 7737   5.131   4.428   4.945
 2280SOL     OW 7738   5.149   6.838   6.062
 2280SOL    HW1 7739   5.136   6.791   6.149
 2280SOL    HW2 7740   5.183   6.931   6.080
 2281SOL     OW 7741   2.753   3.091   0.937
 2281SOL    HW1 7742   2.833   3.069   0.993
 2281SOL    HW2 7743   2.719   3.182   0.962
 2282SOL     OW 7744   3.849   5.244   3.002
 2282SOL    HW1 7745   3.766   5.292   3.032
 2282SOL    HW2 7746   3.911   5.310   2.959
 2283SOL     OW 7747   0.136   3.545   3.244
 2283SOL    HW1 7748   0.207   3.535   3.314
 2283SOL    HW2 7749   0.104   3.454   3.216
 2284SOL     OW 7750   2.412   2.630   2.160
 2284SOL    HW1 7751   2.429   2.665   2.068
 2284SOL    HW2 7752   2.464   2.546   2.174
 2285SOL     OW 7753   1.937   4.414   0.193
 2285SOL    HW1 7754   1.852   4.437   0.144
 2285SOL    HW2 7755   1.944   4.314   0.201
 2286SOL     OW 7756   5.851   6.592   4.386
 2286SOL    HW1 7757   5.888   6.673   4.341
 2286SOL    HW2 7758   5.882   6.590   4.481
 2287SOL     OW 7759   1.882   2.975   1.704
 2287SOL    HW1 7760   1.797   3.012   1.741
 2287SOL    HW2 7761   1.862   2.893   1.650
 2288SOL     OW 7762   0.670   6.331   4.771
 2288SOL    HW1 7763   0.700   6.414   4.724
 2288SOL    HW2 7764   0.745   6.266   4.775
 2289SOL     OW 7765   4.716   2.362   1.537
 2289SOL    HW1 7766   4.747   2.322   1.450
 2289SOL    HW2 7767   4.783   2.430   1.567
 2290SOL     OW 7768   3.423   3.272   2.738
 2290SOL    HW1 7769   3.468   3.223   2.812
 2290SOL    HW2 7770   3.330   3.238   2.727
 2291SOL     OW 7771   1.162   2.501   0.241
 2291SOL    HW1 7772   1.243   2.460   0.282
 2291SOL    HW2 7773   1.094   2.431   0.223
 2292SOL     OW 7774   4.449   1.991   2.788
 2292SOL    HW1 7775   4.495   1.918   2.839
 2292SOL    HW2 7776   4.494   2.078   2.805
 2293SOL     OW 7777   6.757   1.323   6.734
 2293SOL    HW1 7778   6.743   1.227   6.759
 2293SOL    HW2 7779   6.684   1.378   6.773
 2294SOL     OW 7780   0.077   2.096   5.637
 2294SOL    HW1 7781   0.117   2.078   5.727
 2294SOL    HW2 7782   7.008   2.058   5.634
 2295SOL     OW 7783   5.865   6.645   1.359
 2295SOL    HW1 7784   5.797   6.714   1.336
 2295SOL    HW2 7785   5.845   6.560   1.309
 2296SOL     OW 7786   3.460   5.821   4.579
 2296SOL    HW1 7787   3.456   5.724   4.604
 2296SOL    HW2 7788   3.371   5.863   4.596
 2297SOL     OW 7789   4.242   4.216   5.561
 2297SOL    HW1 7790   4.167   4.251   5.505
 2297SOL    HW2 7791   4.329   4.242   5.520
 2298SOL     OW 7792   3.811   3.659   4.740
 2298SOL    HW1 7793   3.907   3.659   4.767
 2298SOL    HW2 7794   3.792   3.736   4.680
 2299SOL     OW 7795   5.873   3.407   4.600
 2299SOL    HW1 7796   5.775   3.420   4.612
 2299SOL    HW2 7797   5.891   3.313   4.570
 2300SOL     OW 7798   4.745   6.422   2.403
 2300SOL    HW1 7799   4.660   6.459   2.442
 2300SOL    HW2 7800   4.755   6.326   2.430
 2301SOL     OW 7801   3.817   3.032   4.294
 2301SOL    HW1 7802   3.808   3.127   4.324
 2301SOL    HW2 7803   3.821   2.972   4.374
 2302SOL     OW 7804   4.996   2.590   0.568
 2302SOL    HW1 7805   4.898   2.608   0.560
 2302SOL    HW2 7806   5.021   2.580   0.665
 2303SOL     OW 7807   3.883   1.809   6.862
 2303SOL    HW1 7808   3.808   1.744   6.869
 2303SOL    HW2 7809   3.881   1.872   6.940
 2304SOL     OW 7810   4.894   6.067   2.292
 2304SOL    HW1 7811   4.859   6.112   2.209
 2304SOL    HW2 7812   4.870   6.122   2.372
 2305SOL     OW 7813   2.291   0.757   5.026
 2305SOL    HW1 7814   2.342   0.836   5.059
 2305SOL    HW2 7815   2.242   0.714   5.102
 2306SOL     OW 7816   1.597   4.989   4.289
 2306SOL    HW1 7817   1.655   4.915   4.323
 2306SOL    HW2 7818   1.621   5.074   4.336
 2307SOL     OW 7819   6.572   3.528   5.955
 2307SOL    HW1 7820   6.571   3.500   5.859
 2307SOL    HW2 7821   6.665   3.518   5.991
 2308SOL     OW 7822   1.992   5.166   1.708
 2308SOL    HW1 7823   2.085   5.143   1.736
 2308SOL    HW2 7824   1.995   5.240   1.641
 2309SOL     OW 7825   2.422   6.229   5.387
 2309SOL    HW1 7826   2.360   6.171   5.439
 2309SOL    HW2 7827   2.501   6.253   5.444
 2310SOL     OW 7828   4.606   6.759   1.577
 2310SOL    HW1 7829   4.598   6.794   1.483
 2310SOL    HW2 7830   4.567   6.667   1.581
 2311SOL     OW 7831   3.475   5.545   1.323
 2311SOL    HW1 7832   3.557   5.531   1.379
 2311SOL    HW2 7833   3.402   5.485   1.356
 2312SOL     OW 7834   3.260   4.881   2.453
 2312SOL    HW1 7835   3.321   4.803   2.462
 2312SOL    HW2 7836   3.216   4.900   2.541
 2313SOL     OW 7837   5.124   5.870   1.377
 2313SOL    HW1 7838   5.197   5.803   1.359
 2313SOL    HW2 7839   5.058   5.868   1.302
 2314SOL     OW 7840   1.841   5.326   4.363
 2314SOL    HW1 7841   1.775   5.284   4.425
 2314SOL    HW2 7842   1.792   5.384   4.298
 2315SOL     OW 7843   4.519   2.697   6.717
 2315SOL    HW1 7844   4.597   2.636   6.729
 2315SOL    HW2 7845   4.531   2.751   6.634
 2316SOL     OW 7846   5.221   3.927   2.146
 2316SOL    HW1 7847   5.168   3.930   2.231
 2316SOL    HW2 7848   5.244   3.832   2.125
 2317SOL     OW 7849   0.773   4.709   4.123
 2317SOL    HW1 7850   0.717   4.628   4.137
 2317SOL    HW2 7851   0.869   4.683   4.115
 2318SOL     OW 7852   7.001   0.909   4.160
 2318SOL    HW1 7853   0.047   0.865   4.217
 2318SOL    HW2 7854   0.022   0.969   4.094
 2319SOL     OW 7855   0.605   4.010   3.668
 2319SOL    HW1 7856   0.656   3.935   3.627
 2319SOL    HW2 7857   0.663   4.091   3.673
 2320SOL     OW 7858   6.178   4.458   4.600
 2320SOL    HW1 7859   6.079   4.470   4.607
 2320SOL    HW2 7860   6.198   4.379   4.543
 2321SOL     OW 7861   2.336   5.196   5.255
 2321SOL    HW1 7862   2.421   5.178   5.206
 2321SOL    HW2 7863   2.274   5.247   5.197
 2322SOL     OW 7864   2.277   0.283   6.104
 2322SOL    HW1 7865   2.259   0.376   6.072
 2322SOL    HW2 7866   2.275   0.281   6.204
 2323SOL     OW 7867   5.101   4.755   1.706
 2323SOL    HW1 7868   5.118   4.660   1.734
 2323SOL    HW2 7869   5.187   4.799   1.682
 2324SOL     OW 7870   6.491   4.989   3.717
 2324SOL    HW1 7871   6.429   5.054   3.760
 2324SOL    HW2 7872   6.583   5.027   3.715
 2325SOL     OW 7873   6.722   2.843   0.448
 2325SOL    HW1 7874   6.813   2.880   0.468
 2325SOL    HW2 7875   6.728   2.781   0.370
 2326SOL     OW 7876   1.866   4.904   0.213
 2326SOL    HW1 7877   1.766   4.906   0.212
 2326SOL    HW2 7878   1.901   4.993   0.183
 2327SOL     OW 7879   5.783   2.282   4.898
 2327SOL    HW1 7880   5.757   2.193   4.935
 2327SOL    HW2 7881   5.702   2.327   4.859
 2328SOL     OW 7882   5.512   7.004   3.200
 2328SOL    HW1 7883   5.461   6.995   3.285
 2328SOL    HW2 7884   5.450   0.009   3.127
 2329SOL     OW 7885   6.986   6.240   3.593
 2329SOL    HW1 7886   6.946   6.150   3.607
 2329SOL    HW2 7887   0.060   6.236   3.614
 2330SOL     OW 7888   0.494   3.613   2.201
 2330SOL    HW1 7889   0.535   3.524   2.222
 2330SOL    HW2 7890   0.398   3.613   2.230
 2331SOL     OW 7891   0.933   4.086   5.805
 2331SOL    HW1 7892   0.920   4.079   5.706
 2331SOL    HW2 7893   0.886   4.168   5.839
 2332SOL     OW 7894   6.044   2.249   4.993
 2332SOL    HW1 7895   6.087   2.339   4.992
 2332SOL    HW2 7896   5.947   2.258   4.971
 2333SOL     OW 7897   1.195   5.027   3.575
 2333SOL    HW1 7898   1.229   5.017   3.481
 2333SOL    HW2 7899   1.265   4.998   3.639
 2334SOL     OW 7900   2.619   0.097   0.515
 2334SOL    HW1 7901   2.701   0.152   0.528
 2334SOL    HW2 7902   2.558   0.144   0.451
 2335SOL     OW 7903   4.443   6.729   4.073
 2335SOL    HW1 7904   4.492   6.728   4.160
 2335SOL    HW2 7905   4.345   6.736   4.090
 2336SOL     OW 7906   4.568   2.002   6.066
 2336SOL    HW1 7907   4.558   1.981   6.163
 2336SOL    HW2 7908   4.646   1.952   6.029
 2337SOL     OW 7909   6.098   0.530   2.643
 2337SOL    HW1 7910   6.045   0.456   2.603
 2337SOL    HW2 7911   6.144   0.582   2.570
 2338SOL     OW 7912   1.092   6.800   6.366
 2338SOL    HW1 7913   1.166   6.859   6.398
 2338SOL    HW2 7914   1.079   6.815   6.268
 2339SOL     OW 7915   3.980   4.573   0.227
 2339SOL    HW1 7916   4.073   4.546   0.203
 2339SOL    HW2 7917   3.942   4.506   0.291
 2340SOL     OW 7918   4.084   4.882   4.082
 2340SOL    HW1 7919   4.004   4.939   4.096
 2340SOL    HW2 7920   4.060   4.804   4.024
 2341SOL     OW 7921   5.896   5.452   0.292
 2341SOL    HW1 7922   5.921   5.370   0.240
 2341SOL    HW2 7923   5.841   5.512   0.234
 2342SOL     OW 7924   6.288   0.152   5.115
 2342SOL    HW1 7925   6.340   0.220   5.062
 2342SOL    HW2 7926   6.332   0.063   5.106
 2343SOL     OW 7927   1.141   6.699   0.428
 2343SOL    HW1 7928   1.235   6.706   0.394
 2343SOL    HW2 7929   1.100   6.790   0.432
 2344SOL     OW 7930   2.359   1.442   3.112
 2344SOL    HW1 7931   2.346   1.539   3.132
 2344SOL    HW2 7932   2.270   1.396   3.114
 2345SOL     OW 7933   2.331   1.282   3.970
 2345SOL    HW1 7934   2.386   1.291   4.054
 2345SOL    HW2 7935   2.320   1.372   3.928
 2346SOL     OW 7936   4.713   3.752   5.915
 2346SOL    HW1 7937   4.806   3.768   5.882
 2346SOL    HW2 7938   4.711   3.669   5.971
 2347SOL     OW 7939   1.311   3.426   1.272
 2347SOL    HW1 7940   1.339   3.409   1.177
 2347SOL    HW2 7941   1.221   3.386   1.288
 2348SOL     OW 7942   2.611   6.547   1.577
 2348SOL    HW1 7943   2.576   6.616   1.640
 2348SOL    HW2 7944   2.707   6.528   1.598
 2349SOL     OW 7945   5.010   5.368   5.911
 2349SOL    HW1 7946   5.014   5.293   5.844
 2349SOL    HW2 7947   4.958   5.444   5.872
 2350SOL     OW 7948   2.963   6.110   5.589
 2350SOL    HW1 7949   2.869   6.077   5.574
 2350SOL    HW2 7950   2.977   6.194   5.537
 2351SOL     OW 7951   2.413   5.545   4.294
 2351SOL    HW1 7952   2.367   5.508   4.213
 2351SOL    HW2 7953   2.512   5.546   4.278
 2352SOL     OW 7954   0.158   3.290   2.075
 2352SOL    HW1 7955   0.071   3.270   2.120
 2352SOL    HW2 7956   0.170   3.231   1.996
 2353SOL     OW 7957   2.783   4.022   6.002
 2353SOL    HW1 7958   2.710   4.090   6.000
 2353SOL    HW2 7959   2.868   4.063   5.969
 2354SOL     OW 7960   3.886   3.160   1.143
 2354SOL    HW1 7961   3.841   3.237   1.098
 2354SOL    HW2 7962   3.837   3.075   1.120
 2355SOL     OW 7963   0.378   6.956   0.848
 2355SOL    HW1 7964   0.402   0.021   0.889
 2355SOL    HW2 7965   0.382   6.964   0.749
 2356SOL     OW 7966   2.686   4.974   3.215
 2356SOL    HW1 7967   2.706   4.974   3.313
 2356SOL    HW2 7968   2.588   4.961   3.202
 2357SOL     OW 7969   6.206   4.696   0.746
 2357SOL    HW1 7970   6.298   4.728   0.770
 2357SOL    HW2 7971   6.210   4.600   0.718
 2358SOL     OW 7972   4.133   1.660   5.939
 2358SOL    HW1 7973   4.131   1.570   5.896
 2358SOL    HW2 7974   4.043   1.703   5.932
 2359SOL     OW 7975   1.422   1.276   5.533
 2359SOL    HW1 7976   1.362   1.213   5.485
 2359SOL    HW2 7977   1.372   1.359   5.556
 2360SOL     OW 7978   4.059   3.788   0.315
 2360SOL    HW1 7979   3.960   3.799   0.325
 2360SOL    HW2 7980   4.084   3.797   0.218
 2361SOL     OW 7981   4.222   5.693   1.636
 2361SOL    HW1 7982   4.218   5.765   1.566
 2361SOL    HW2 7983   4.223   5.735   1.727
 2362SOL     OW 7984   4.358   6.094   3.563
 2362SOL    HW1 7985   4.267   6.110   3.602
 2362SOL    HW2 7986   4.422   6.071   3.637
 2363SOL     OW 7987   2.569   3.953   0.598
 2363SOL    HW1 7988   2.553   3.953   0.499
 2363SOL    HW2 7989   2.493   3.999   0.644
 2364SOL     OW 7990   4.331   1.441   2.082
 2364SOL    HW1 7991   4.309   1.498   2.162
 2364SOL    HW2 7992   4.260   1.371   2.070
 2365SOL     OW 7993   5.008   3.460   3.281
 2365SOL    HW1 7994   4.962   3.465   3.370
 2365SOL    HW2 7995   4.948   3.417   3.214
 2366SOL     OW 7996   2.532   4.531   5.090
 2366SOL    HW1 7997   2.468   4.601   5.059
 2366SOL    HW2 7998   2.624   4.556   5.062
 2367SOL     OW 7999   5.858   4.567   6.090
 2367SOL    HW1 8000   5.939   4.604   6.045
 2367SOL    HW2 8001   5.844   4.614   6.177
 2368SOL     OW 8002   5.455   6.735   4.390
 2368SOL    HW1 8003   5.519   6.781   4.452
 2368SOL    HW2 8004   5.493   6.647   4.362
 2369SOL     OW 8005   3.268   1.838   4.429
 2369SOL    HW1 8006   3.187   1.836   4.370
 2369SOL    HW2 8007   3.244   1.879   4.516
 2370SOL     OW 8008   5.862   2.890   1.849
 2370SOL    HW1 8009   5.829   2.930   1.763
 2370SOL    HW2 8010   5.935   2.825   1.829
 2371SOL     OW 8011   0.608   6.429   3.000
 2371SOL    HW1 8012   0.510   6.413   2.989
 2371SOL    HW2 8013   0.622   6.510   3.058
 2372SOL     OW 8014   6.368   0.450   6.070
 2372SOL    HW1 8015   6.370   0.430   5.972
 2372SOL    HW2 8016   6.404   0.371   6.120
 2373SOL     OW 8017   5.771   5.226   0.000
 2373SOL    HW1 8018   5.848   5.237   0.063
 2373SOL    HW2 8019   5.763   5.129   6.999
 2374SOL     OW 8020   6.640   6.062   2.095
 2374SOL    HW1 8021   6.678   5.998   2.028
 2374SOL    HW2 8022   6.690   6.149   2.089
 2375SOL     OW 8023   0.995   6.943   4.072
 2375SOL    HW1 8024   0.957   0.001   4.029
 2375SOL    HW2 8025   1.075   6.912   4.019
 2376SOL     OW 8026   5.920   1.530   3.486
 2376SOL    HW1 8027   5.890   1.448   3.534
 2376SOL    HW2 8028   5.933   1.509   3.389
 2377SOL     OW 8029   4.244   4.821   5.531
 2377SOL    HW1 8030   4.268   4.918   5.543
 2377SOL    HW2 8031   4.250   4.774   5.620
 2378SOL     OW 8032   6.643   1.052   0.303
 2378SOL    HW1 8033   6.742   1.055   0.311
 2378SOL    HW2 8034   6.612   0.957   0.311
 2379SOL     OW 8035   6.369   4.518   0.960
 2379SOL    HW1 8036   6.361   4.607   0.916
 2379SOL    HW2 8037   6.290   4.461   0.936
 2380SOL     OW 8038   4.562   4.817   4.718
 2380SOL    HW1 8039   4.507   4.734   4.728
 2380SOL    HW2 8040   4.654   4.801   4.753
 2381SOL     OW 8041   1.908   4.543   4.776
 2381SOL    HW1 8042   1.995   4.494   4.773
 2381SOL    HW2 8043   1.852   4.507   4.851
 2382SOL     OW 8044   0.610   6.057   2.683
 2382SOL    HW1 8045   0.518   6.070   2.719
 2382SOL    HW2 8046   0.612   6.086   2.587
 2383SOL     OW 8047   5.821   5.462   5.642
 2383SOL    HW1 8048   5.912   5.504   5.644
 2383SOL    HW2 8049   5.752   5.533   5.628
 2384SOL     OW 8050   0.678   1.643   2.003
 2384SOL    HW1 8051   0.758   1.680   1.957
 2384SOL    HW2 8052   0.634   1.576   1.944
 2385SOL     OW 8053   0.246   1.767   0.917
 2385SOL    HW1 8054   0.297   1.854   0.922
 2385SOL    HW2 8055   0.235   1.731   1.010
 2386SOL     OW 8056   5.204   5.891   3.638
 2386SOL    HW1 8057   5.131   5.852   3.693
 2386SOL    HW2 8058   5.181   5.882   3.541
 2387SOL     OW 8059   2.050   1.953   4.191
 2387SOL    HW1 8060   2.013   2.025   4.132
 2387SOL    HW2 8061   2.148   1.943   4.173
 2388SOL     OW 8062   6.641   2.077   5.489
 2388SOL    HW1 8063   6.559   2.127   5.516
 2388SOL    HW2 8064   6.717   2.101   5.549
 2389SOL     OW 8065   5.186   4.771   4.712
 2389SOL    HW1 8066   5.183   4.797   4.616
 2389SOL    HW2 8067   5.124   4.694   4.728
 2390SOL     OW 8068   4.208   3.844   5.854
 2390SOL    HW1 8069   4.234   3.893   5.771
 2390SOL    HW2 8070   4.279   3.779   5.878
 2391SOL     OW 8071   2.875   4.768   6.213
 2391SOL    HW1 8072   2.914   4.713   6.287
 2391SOL    HW2 8073   2.783   4.734   6.191
 2392SOL     OW 8074   3.677   5.293   5.210
 2392SOL    HW1 8075   3.614   5.356   5.166
 2392SOL    HW2 8076   3.649   5.277   5.305
 2393SOL     OW 8077   3.605   4.927   1.329
 2393SOL    HW1 8078   3.533   4.913   1.397
 2393SOL    HW2 8079   3.611   4.847   1.269
 2394SOL     OW 8080   0.824   2.249   3.461
 2394SOL    HW1 8081   0.729   2.281   3.453
 2394SOL    HW2 8082   0.830   2.155   3.427
 2395SOL     OW 8083   0.180   2.562   4.521
 2395SOL    HW1 8084   0.246   2.637   4.526
 2395SOL    HW2 8085   0.223   2.483   4.475
 2396SOL     OW 8086   6.867   0.301   5.283
 2396SOL    HW1 8087   6.769   0.312   5.300
 2396SOL    HW2 8088   6.899   0.217   5.326
 2397SOL     OW 8089   0.171   4.260   5.608
 2397SOL    HW1 8090   0.259   4.286   5.650
 2397SOL    HW2 8091   0.141   4.333   5.547
 2398SOL     OW 8092   3.674   6.479   4.008
 2398SOL    HW1 8093   3.633   6.424   4.080
 2398SOL    HW2 8094   3.774   6.471   4.013
 2399SOL     OW 8095   3.606   2.122   3.701
 2399SOL    HW1 8096   3.513   2.136   3.736
 2399SOL    HW2 8097   3.602   2.105   3.602
 2400SOL     OW 8098   0.754   4.066   0.457
 2400SOL    HW1 8099   0.739   4.116   0.543
 2400SOL    HW2 8100   0.684   3.995   0.447
 2401SOL     OW 8101   2.612   0.293   5.867
 2401SOL    HW1 8102   2.601   0.209   5.921
 2401SOL    HW2 8103   2.704   0.295   5.827
 2402SOL     OW 8104   1.088   4.554   2.342
 2402SOL    HW1 8105   1.174   4.581   2.298
 2402SOL    HW2 8106   1.107   4.512   2.430
 2403SOL     OW 8107   4.074   3.819   3.079
 2403SOL    HW1 8108   3.989   3.855   3.117
 2403SOL    HW2 8109   4.086   3.853   2.985
 2404SOL     OW 8110   6.191   1.515   1.018
 2404SOL    HW1 8111   6.152   1.598   0.978
 2404SOL    HW2 8112   6.227   1.536   1.109
 2405SOL     OW 8113   1.910   3.380   0.972
 2405SOL    HW1 8114   1.884   3.468   0.932
 2405SOL    HW2 8115   1.844   3.355   1.043
 2406SOL     OW 8116   2.571   5.685   4.785
 2406SOL    HW1 8117   2.660   5.727   4.764
 2406SOL    HW2 8118   2.531   5.649   4.700
 2407SOL     OW 8119   3.435   1.203   4.158
 2407SOL    HW1 8120   3.336   1.201   4.168
 2407SOL    HW2 8121   3.459   1.258   4.078
 2408SOL     OW 8122   2.995   6.245   4.652
 2408SOL    HW1 8123   3.065   6.250   4.581
 2408SOL    HW2 8124   2.916   6.194   4.617
 2409SOL     OW 8125   1.811   3.289   1.553
 2409SOL    HW1 8126   1.730   3.308   1.498
 2409SOL    HW2 8127   1.878   3.240   1.498
 2410SOL     OW 8128   0.945   3.367   5.061
 2410SOL    HW1 8129   0.980   3.449   5.107
 2410SOL    HW2 8130   0.855   3.344   5.098
 2411SOL     OW 8131   2.947   4.088   0.257
 2411SOL    HW1 8132   2.997   4.043   0.330
 2411SOL    HW2 8133   2.963   4.040   0.171
 2412SOL     OW 8134   3.447   1.721   6.841
 2412SOL    HW1 8135   3.474   1.817   6.842
 2412SOL    HW2 8136   3.347   1.714   6.832
 2413SOL     OW 8137   6.984   3.268   6.811
 2413SOL    HW1 8138   6.920   3.233   6.742
 2413SOL    HW2 8139   0.048   3.223   6.799
 2414SOL     OW 8140   0.023   2.435   5.000
 2414SOL    HW1 8141   0.058   2.405   4.911
 2414SOL    HW2 8142   6.955   2.398   5.014
 2415SOL     OW 8143   2.527   5.345   0.405
 2415SOL    HW1 8144   2.615   5.301   0.387
 2415SOL    HW2 8145   2.539   5.444   0.407
 2416SOL     OW 8146   0.033   3.766   2.098
 2416SOL    HW1 8147   0.005   3.695   2.163
 2416SOL    HW2 8148   6.979   3.823   2.075
 2417SOL     OW 8149   3.203   2.942   1.395
 2417SOL    HW1 8150   3.166   2.854   1.425
 2417SOL    HW2 8151   3.231   2.935   1.299
 2418SOL     OW 8152   4.594   4.186   6.321
 2418SOL    HW1 8153   4.587   4.108   6.384
 2418SOL    HW2 8154   4.625   4.153   6.232
 2419SOL     OW 8155   2.085   6.479   3.787
 2419SOL    HW1 8156   2.066   6.476   3.689
 2419SOL    HW2 8157   2.130   6.394   3.815
 2420SOL     OW 8158   1.517   4.087   2.758
 2420SOL    HW1 8159   1.440   4.110   2.818
 2420SOL    HW2 8160   1.511   3.991   2.732
 2421SOL     OW 8161   2.274   6.290   4.390
 2421SOL    HW1 8162   2.368   6.267   4.364
 2421SOL    HW2 8163   2.226   6.207   4.417
 2422SOL     OW 8164   4.782   6.744   0.626
 2422SOL    HW1 8165   4.866   6.771   0.580
 2422SOL    HW2 8166   4.777   6.644   0.629
 2423SOL     OW 8167   2.593   5.266   2.707
 2423SOL    HW1 8168   2.516   5.233   2.653
 2423SOL    HW2 8169   2.610   5.203   2.782
 2424SOL     OW 8170   5.753   0.727   5.854
 2424SOL    HW1 8171   5.814   0.661   5.811
 2424SOL    HW2 8172   5.763   0.816   5.809
 2425SOL     OW 8173   5.301   5.752   5.676
 2425SOL    HW1 8174   5.217   5.803   5.695
 2425SOL    HW2 8175   5.283   5.654   5.682
 2426SOL     OW 8176   2.481   4.051   5.942
 2426SOL    HW1 8177   2.525   4.111   5.875
 2426SOL    HW2 8178   2.461   3.963   5.899
 2427SOL     OW 8179   5.214   1.056   0.372
 2427SOL    HW1 8180   5.121   1.053   0.335
 2427SOL    HW2 8181   5.219   1.125   0.444
 2428SOL     OW 8182   0.420   0.618   3.512
 2428SOL    HW1 8183   0.423   0.585   3.417
 2428SOL    HW2 8184   0.349   0.688   3.520
 2429SOL     OW 8185   5.569   5.042   1.893
 2429SOL    HW1 8186   5.547   5.128   1.847
 2429SOL    HW2 8187   5.604   4.976   1.827
 2430SOL     OW 8188   6.156   1.672   6.707
 2430SOL    HW1 8189   6.112   1.587   6.677
 2430SOL    HW2 8190   6.089   1.746   6.706
 2431SOL     OW 8191   6.572   2.774   1.460
 2431SOL    HW1 8192   6.541   2.788   1.554
 2431SOL    HW2 8193   6.669   2.797   1.454
 2432SOL     OW 8194   3.449   5.190   2.543
 2432SOL    HW1 8195   3.415   5.270   2.592
 2432SOL    HW2 8196   3.395   5.176   2.460
 2433SOL     OW 8197   5.893   4.192   5.821
 2433SOL    HW1 8198   5.917   4.096   5.836
 2433SOL    HW2 8199   5.892   4.239   5.909
 2434SOL     OW 8200   4.999   1.215   2.945
 2434SOL    HW1 8201   5.006   1.116   2.954
 2434SOL    HW2 8202   4.921   1.247   2.999
 2435SOL     OW 8203   5.817   6.560   6.961
 2435SOL    HW1 8204   5.829   6.461   6.955
 2435SOL    HW2 8205   5.895   6.601   7.007
 2436SOL     OW 8206   1.897   2.075   2.181
 2436SOL    HW1 8207   1.843   2.118   2.109
 2436SOL    HW2 8208   1.982   2.126   2.194
 2437SOL     OW 8209   0.131   4.560   2.566
 2437SOL    HW1 8210   0.054   4.622   2.580
 2437SOL    HW2 8211   0.113   4.501   2.488
 2438SOL     OW 8212   3.016   1.454   5.145
 2438SOL    HW1 8213   2.976   1.434   5.234
 2438SOL    HW2 8214   3.022   1.371   5.091
 2439SOL     OW 8215   1.209   6.519   1.511
 2439SOL    HW1 8216   1.307   6.539   1.510
 2439SOL    HW2 8217   1.187   6.466   1.594
 2440SOL     OW 8218   5.739   1.001   4.935
 2440SOL    HW1 8219   5.736   0.952   5.022
 2440SOL    HW2 8220   5.804   0.956   4.873
 2441SOL     OW 8221   6.129   0.092   0.145
 2441SOL    HW1 8222   6.174   0.181   0.149
 2441SOL    HW2 8223   6.121   0.062   0.050
 2442SOL     OW 8224   5.110   3.135   1.863
 2442SOL    HW1 8225   5.065   3.166   1.946
 2442SOL    HW2 8226   5.042   3.117   1.792
 2443SOL     OW 8227   0.460   2.236   1.224
 2443SOL    HW1 8228   0.476   2.209   1.319
 2443SOL    HW2 8229   0.527   2.305   1.197
 2444SOL     OW 8230   3.898   6.000   1.620
 2444SOL    HW1 8231   3.861   5.943   1.693
 2444SOL    HW2 8232   3.878   5.958   1.531
 2445SOL     OW 8233   6.657   2.297   0.439
 2445SOL    HW1 8234   6.715   2.376   0.458
 2445SOL    HW2 8235   6.585   2.323   0.375
 2446SOL     OW 8236   1.863   4.658   1.433
 2446SOL    HW1 8237   1.771   4.625   1.412
 2446SOL    HW2 8238   1.919   4.657   1.351
 2447SOL     OW 8239   3.071   6.950   0.397
 2447SOL    HW1 8240   3.033   0.012   0.361
 2447SOL    HW2 8241   3.054   6.945   0.495
 2448SOL     OW 8242   6.234   1.848   4.464
 2448SOL    HW1 8243   6.260   1.839   4.368
 2448SOL    HW2 8244   6.316   1.857   4.520
 2449SOL     OW 8245   1.810   4.557   1.740
 2449SOL    HW1 8246   1.887   4.560   1.804
 2449SOL    HW2 8247   1.724   4.566   1.790
 2450SOL     OW 8248   1.626   6.404   6.018
 2450SOL    HW1 8249   1.530   6.392   6.044
 2450SOL    HW2 8250   1.682   6.333   6.061
 2451SOL     OW 8251   1.102   6.954   4.861
 2451SOL    HW1 8252   1.181   6.915   4.815
 2451SOL    HW2 8253   1.056   6.883   4.915
 2452SOL     OW 8254   2.934   1.566   4.066
 2452SOL    HW1 8255   2.944   1.483   4.012
 2452SOL    HW2 8256   2.866   1.626   4.024
 2453SOL     OW 8257   1.342   1.637   6.913
 2453SOL    HW1 8258   1.287   1.720   6.913
 2453SOL    HW2 8259   1.331   1.589   6.826
 2454SOL     OW 8260   3.069   5.291   1.031
 2454SOL    HW1 8261   3.132   5.252   1.098
 2454SOL    HW2 8262   2.975   5.267   1.055
 2455SOL     OW 8263   3.594   1.947   0.492
 2455SOL    HW1 8264   3.569   2.029   0.544
 2455SOL    HW2 8265   3.573   1.961   0.395
 2456SOL     OW 8266   1.035   4.522   6.386
 2456SOL    HW1 8267   1.003   4.435   6.423
 2456SOL    HW2 8268   1.092   4.505   6.305
 2457SOL     OW 8269   5.574   2.142   5.490
 2457SOL    HW1 8270   5.623   2.228   5.496
 2457SOL    HW2 8271   5.477   2.159   5.472
 2458SOL     OW 8272   1.606   0.024   1.551
 2458SOL    HW1 8273   1.523   7.001   1.585
 2458SOL    HW2 8274   1.686   6.991   1.570
 2459SOL     OW 8275   3.030   6.064   0.892
 2459SOL    HW1 8276   2.989   6.083   0.981
 2459SOL    HW2 8277   2.978   5.993   0.845
 2460SOL     OW 8278   1.417   0.939   5.394
 2460SOL    HW1 8279   1.384   0.853   5.355
 2460SOL    HW2 8280   1.348   1.010   5.383
 2461SOL     OW 8281   3.667   1.436   4.116
 2461SOL    HW1 8282   3.680   1.533   4.096
 2461SOL    HW2 8283   3.608   1.395   4.046
 2462SOL     OW 8284   0.061   4.414   1.027
 2462SOL    HW1 8285   0.096   4.481   1.093
 2462SOL    HW2 8286   7.019   4.459   0.967
 2463SOL     OW 8287   6.684   1.269   6.267
 2463SOL    HW1 8288   6.695   1.188   6.208
 2463SOL    HW2 8289   6.677   1.239   6.362
 2464SOL     OW 8290   0.403   1.832   3.345
 2464SOL    HW1 8291   0.451   1.894   3.407
 2464SOL    HW2 8292   0.407   1.868   3.252
 2465SOL     OW 8293   0.737   4.591   5.712
 2465SOL    HW1 8294   0.690   4.658   5.769
 2465SOL    HW2 8295   0.833   4.585   5.740
 2466SOL     OW 8296   0.578   2.453   1.769
 2466SOL    HW1 8297   0.504   2.516   1.794
 2466SOL    HW2 8298   0.567   2.368   1.821
 2467SOL     OW 8299   5.111   1.435   5.975
 2467SOL    HW1 8300   5.143   1.504   5.909
 2467SOL    HW2 8301   5.025   1.396   5.942
 2468SOL     OW 8302   3.345   6.599   5.586
 2468SOL    HW1 8303   3.252   6.611   5.553
 2468SOL    HW2 8304   3.345   6.597   5.686
 2469SOL     OW 8305   3.402   2.834   5.654
 2469SOL    HW1 8306   3.492   2.861   5.687
 2469SOL    HW2 8307   3.387   2.737   5.674
 2470SOL     OW 8308   3.524   5.116   6.877
 2470SOL    HW1 8309   3.438   5.152   6.912
 2470SOL    HW2 8310   3.510   5.079   6.785
 2471SOL     OW 8311   4.730   5.771   1.466
 2471SOL    HW1 8312   4.772   5.744   1.553
 2471SOL    HW2 8313   4.673   5.696   1.432
 2472SOL     OW 8314   4.722   1.642   4.512
 2472SOL    HW1 8315   4.801   1.582   4.522
 2472SOL    HW2 8316   4.742   1.731   4.553
 2473SOL     OW 8317   0.244   4.242   4.908
 2473SOL    HW1 8318   0.276   4.301   4.982
 2473SOL    HW2 8319   0.319   4.181   4.880
 2474SOL     OW 8320   1.117   5.799   1.522
 2474SOL    HW1 8321   1.106   5.701   1.509
 2474SOL    HW2 8322   1.168   5.838   1.445
 2475SOL     OW 8323   4.790   0.742   1.083
 2475SOL    HW1 8324   4.778   0.647   1.056
 2475SOL    HW2 8325   4.887   0.766   1.076
 2476SOL     OW 8326   5.953   0.292   0.654
 2476SOL    HW1 8327   6.018   0.348   0.705
 2476SOL    HW2 8328   5.888   0.351   0.606
 2477SOL     OW 8329   3.946   0.534   3.238
 2477SOL    HW1 8330   3.969   0.603   3.307
 2477SOL    HW2 8331   3.934   0.579   3.149
 2478SOL     OW 8332   4.309   1.427   3.189
 2478SOL    HW1 8333   4.248   1.374   3.248
 2478SOL    HW2 8334   4.267   1.438   3.099
 2479SOL     OW 8335   0.691   3.805   0.703
 2479SOL    HW1 8336   0.753   3.773   0.774
 2479SOL    HW2 8337   0.608   3.749   0.703
 2480SOL     OW 8338   3.301   2.448   1.575
 2480SOL    HW1 8339   3.304   2.403   1.486
 2480SOL    HW2 8340   3.269   2.383   1.644
 2481SOL     OW 8341   2.956   1.078   1.079
 2481SOL    HW1 8342   2.977   0.989   1.118
 2481SOL    HW2 8343   2.861   1.102   1.099
 2482SOL     OW 8344   5.171   3.906   6.650
 2482SOL    HW1 8345   5.189   3.909   6.552
 2482SOL    HW2 8346   5.078   3.872   6.665
 2483SOL     OW 8347   0.512   2.176   0.682
 2483SOL    HW1 8348   0.453   2.099   0.705
 2483SOL    HW2 8349   0.465   2.262   0.705
 2484SOL     OW 8350   5.161   1.491   2.325
 2484SOL    HW1 8351   5.175   1.508   2.227
 2484SOL    HW2 8352   5.065   1.465   2.340
 2485SOL     OW 8353   4.865   2.437   6.214
 2485SOL    HW1 8354   4.957   2.399   6.204
 2485SOL    HW2 8355   4.803   2.396   6.148
 2486SOL     OW 8356   0.576   3.828   5.212
 2486SOL    HW1 8357   0.597   3.768   5.289
 2486SOL    HW2 8358   0.491   3.878   5.230
 2487SOL     OW 8359   4.947   6.047   0.187
 2487SOL    HW1 8360   4.978   5.981   0.256
 2487SOL    HW2 8361   4.910   5.997   0.108
 2488SOL     OW 8362   6.821   4.753   1.920
 2488SOL    HW1 8363   6.909   4.797   1.936
 2488SOL    HW2 8364   6.834   4.655   1.908
 2489SOL     OW 8365   0.306   5.923   3.838
 2489SOL    HW1 8366   0.250   5.962   3.911
 2489SOL    HW2 8367   0.351   5.840   3.871
 2490SOL     OW 8368   3.029   6.157   2.436
 2490SOL    HW1 8369   2.950   6.167   2.496
 2490SOL    HW2 8370   3.008   6.199   2.347
 2491SOL     OW 8371   4.375   4.968   1.715
 2491SOL    HW1 8372   4.320   4.887   1.692
 2491SOL    HW2 8373   4.463   4.963   1.667
 2492SOL     OW 8374   5.703   3.963   0.529
 2492SOL    HW1 8375   5.698   4.015   0.443
 2492SOL    HW2 8376   5.766   4.010   0.591
 2493SOL     OW 8377   0.161   6.789   1.570
 2493SOL    HW1 8378   0.210   6.864   1.614
 2493SOL    HW2 8379   0.141   6.718   1.638
 2494SOL     OW 8380   6.053   2.386   1.620
 2494SOL    HW1 8381   5.974   2.385   1.680
 2494SOL    HW2 8382   6.025   2.365   1.526
 2495SOL     OW 8383   5.290   5.592   3.285
 2495SOL    HW1 8384   5.323   5.543   3.366
 2495SOL    HW2 8385   5.230   5.667   3.313
 2496SOL     OW 8386   6.500   4.353   6.515
 2496SOL    HW1 8387   6.425   4.418   6.519
 2496SOL    HW2 8388   6.523   4.323   6.608
 2497SOL     OW 8389   0.432   0.189   1.507
 2497SOL    HW1 8390   0.494   0.265   1.526
 2497SOL    HW2 8391   0.356   0.221   1.451
 2498SOL     OW 8392   2.667   3.185   5.986
 2498SOL    HW1 8393   2.745   3.247   5.977
 2498SOL    HW2 8394   2.700   3.090   5.985
 2499SOL     OW 8395   6.277   3.559   1.581
 2499SOL    HW1 8396   6.273   3.541   1.679
 2499SOL    HW2 8397   6.187   3.543   1.541
 2500SOL     OW 8398   3.648   3.798   6.422
 2500SOL    HW1 8399   3.746   3.783   6.436
 2500SOL    HW2 8400   3.634   3.875   6.360
 2501SOL     OW 8401   5.928   6.056   0.483
 2501SOL    HW1 8402   5.892   6.149   0.494
 2501SOL    HW2 8403   6.004   6.058   0.418
 2502SOL     OW 8404   2.387   5.683   4.978
 2502SOL    HW1 8405   2.457   5.702   4.909
 2502SOL    HW2 8406   2.309   5.638   4.934
 2503SOL     OW 8407   2.683   6.594   5.384
 2503SOL    HW1 8408   2.625   6.653   5.328
 2503SOL    HW2 8409   2.637   6.576   5.471
 2504SOL     OW 8410   3.188   5.752   2.861
 2504SOL    HW1 8411   3.157   5.657   2.862
 2504SOL    HW2 8412   3.286   5.756   2.882
 2505SOL     OW 8413   0.888   5.694   2.458
 2505SOL    HW1 8414   0.953   5.768   2.444
 2505SOL    HW2 8415   0.908   5.647   2.543
 2506SOL     OW 8416   6.055   3.857   6.333
 2506SOL    HW1 8417   6.006   3.894   6.412
 2506SOL    HW2 8418   6.107   3.931   6.289
 2507SOL     OW 8419   6.908   3.172   0.267
 2507SOL    HW1 8420   6.892   3.107   0.192
 2507SOL    HW2 8421   6.915   3.264   0.230
 2508SOL     OW 8422   2.996   2.257   5.321
 2508SOL    HW1 8423   3.069   2.295   5.264
 2508SOL    HW2 8424   2.918   2.233   5.263
 2509SOL     OW 8425   6.303   3.903   6.869
 2509SOL    HW1 8426   6.303   3.921   6.967
 2509SOL    HW2 8427   6.365   3.827   6.850
 2510SOL     OW 8428   3.843   4.157   1.804
 2510SOL    HW1 8429   3.745   4.148   1.787
 2510SOL    HW2 8430   3.881   4.226   1.742
 2511SOL     OW 8431   1.970   0.808   5.124
 2511SOL    HW1 8432   2.041   0.777   5.186
 2511SOL    HW2 8433   1.975   0.908   5.114
 2512SOL     OW 8434   3.680   4.664   5.294
 2512SOL    HW1 8435   3.729   4.746   5.324
 2512SOL    HW2 8436   3.735   4.583   5.316
 2513SOL     OW 8437   2.114   6.771   5.795
 2513SOL    HW1 8438   2.031   6.727   5.830
 2513SOL    HW2 8439   2.191   6.708   5.802
 2514SOL     OW 8440   1.258   3.153   3.628
 2514SOL    HW1 8441   1.297   3.222   3.567
 2514SOL    HW2 8442   1.185   3.103   3.581
 2515SOL     OW 8443   2.098   0.543   1.697
 2515SOL    HW1 8444   2.069   0.448   1.700
 2515SOL    HW2 8445   2.134   0.564   1.606
 2516SOL     OW 8446   4.957   1.473   3.606
 2516SOL    HW1 8447   4.931   1.568   3.589
 2516SOL    HW2 8448   4.889   1.430   3.666
 2517SOL     OW 8449   1.507   0.659   5.350
 2517SOL    HW1 8450   1.461   0.609   5.277
 2517SOL    HW2 8451   1.588   0.705   5.313
 2518SOL     OW 8452   2.667   5.735   1.379
 2518SOL    HW1 8453   2.759   5.698   1.366
 2518SOL    HW2 8454   2.671   5.816   1.437
 2519SOL     OW 8455   2.729   1.300   1.602
 2519SOL    HW1 8456   2.786   1.326   1.680
 2519SOL    HW2 8457   2.677   1.217   1.624
 2520SOL     OW 8458   3.464   2.162   0.611
 2520SOL    HW1 8459   3.385   2.211   0.573
 2520SOL    HW2 8460   3.470   2.178   0.709
 2521SOL     OW 8461   4.186   1.575   4.955
 2521SOL    HW1 8462   4.161   1.495   4.900
 2521SOL    HW2 8463   4.105   1.629   4.975
 2522SOL     OW 8464   1.074   1.834   5.289
 2522SOL    HW1 8465   1.118   1.766   5.229
 2522SOL    HW2 8466   1.088   1.808   5.384
 2523SOL     OW 8467   1.946   4.311   1.031
 2523SOL    HW1 8468   1.911   4.365   1.108
 2523SOL    HW2 8469   1.979   4.372   0.960
 2524SOL     OW 8470   0.518   6.737   4.367
 2524SOL    HW1 8471   0.486   6.647   4.395
 2524SOL    HW2 8472   0.485   6.757   4.275
 2525SOL     OW 8473   1.389   2.748   4.695
 2525SOL    HW1 8474   1.404   2.661   4.650
 2525SOL    HW2 8475   1.473   2.803   4.691
 2526SOL     OW 8476   1.767   4.962   6.960
 2526SOL    HW1 8477   1.704   4.928   0.005
 2526SOL    HW2 8478   1.853   4.988   7.003
 2527SOL     OW 8479   5.628   5.653   5.588
 2527SOL    HW1 8480   5.625   5.675   5.491
 2527SOL    HW2 8481   5.545   5.688   5.632
 2528SOL     OW 8482   5.374   4.521   5.619
 2528SOL    HW1 8483   5.393   4.600   5.676
 2528SOL    HW2 8484   5.280   4.525   5.585
 2529SOL     OW 8485   0.878   0.566   6.323
 2529SOL    HW1 8486   0.963   0.558   6.271
 2529SOL    HW2 8487   0.806   0.513   6.278
 2530SOL     OW 8488   2.413   5.907   6.027
 2530SOL    HW1 8489   2.427   5.876   6.121
 2530SOL    HW2 8490   2.382   6.002   6.028
 2531SOL     OW 8491   5.513   5.831   5.927
 2531SOL    HW1 8492   5.432   5.889   5.938
 2531SOL    HW2 8493   5.487   5.735   5.933
 2532SOL     OW 8494   0.838   6.339   1.231
 2532SOL    HW1 8495   0.865   6.246   1.207
 2532SOL    HW2 8496   0.750   6.359   1.190
 2533SOL     OW 8497   4.863   1.054   3.509
 2533SOL    HW1 8498   4.901   0.999   3.434
 2533SOL    HW2 8499   4.792   1.001   3.555
 2534SOL     OW 8500   4.880   1.748   1.861
 2534SOL    HW1 8501   4.831   1.665   1.889
 2534SOL    HW2 8502   4.961   1.723   1.809
 2535SOL     OW 8503   3.585   2.667   6.670
 2535SOL    HW1 8504   3.501   2.661   6.726
 2535SOL    HW2 8505   3.642   2.742   6.704
 2536SOL     OW 8506   1.748   0.774   6.275
 2536SOL    HW1 8507   1.691   0.849   6.308
 2536SOL    HW2 8508   1.690   0.699   6.242
 2537SOL     OW 8509   3.283   0.418   6.422
 2537SOL    HW1 8510   3.381   0.439   6.414
 2537SOL    HW2 8511   3.270   0.343   6.486
 2538SOL     OW 8512   6.986   3.930   3.743
 2538SOL    HW1 8513   0.024   3.942   3.666
 2538SOL    HW2 8514   0.012   3.887   3.819
 2539SOL     OW 8515   5.859   0.934   3.393
 2539SOL    HW1 8516   5.888   1.025   3.364
 2539SOL    HW2 8517   5.819   0.939   3.484
 2540SOL     OW 8518   3.799   2.001   3.010
 2540SOL    HW1 8519   3.748   2.063   2.950
 2540SOL    HW2 8520   3.828   1.921   2.958
 2541SOL     OW 8521   2.606   0.253   5.338
 2541SOL    HW1 8522   2.599   0.351   5.356
 2541SOL    HW2 8523   2.669   0.212   5.403
 2542SOL     OW 8524   2.313   3.532   6.626
 2542SOL    HW1 8525   2.290   3.629   6.620
 2542SOL    HW2 8526   2.379   3.518   6.700
 2543SOL     OW 8527   0.806   1.351   4.033
 2543SOL    HW1 8528   0.748   1.365   4.114
 2543SOL    HW2 8529   0.802   1.255   4.006
 2544SOL     OW 8530   1.195   5.467   0.947
 2544SOL    HW1 8531   1.104   5.482   0.986
 2544SOL    HW2 8532   1.240   5.393   0.997
 2545SOL     OW 8533   1.965   6.989   2.572
 2545SOL    HW1 8534   2.008   6.903   2.600
 2545SOL    HW2 8535   1.916   0.005   2.650
 2546SOL     OW 8536   6.534   1.626   0.597
 2546SOL    HW1 8537   6.602   1.699   0.589
 2546SOL    HW2 8538   6.515   1.609   0.694
 2547SOL     OW 8539   0.176   4.085   6.599
 2547SOL    HW1 8540   0.206   4.148   6.527
 2547SOL    HW2 8541   0.089   4.044   6.572
 2548SOL     OW 8542   0.080   6.721   4.564
 2548SOL    HW1 8543   0.034   6.646   4.516
 2548SOL    HW2 8544   0.091   6.798   4.501
 2549SOL     OW 8545   0.584   0.578   1.394
 2549SOL    HW1 8546   0.522   0.617   1.325
 2549SOL    HW2 8547   0.540   0.582   1.484
 2550SOL     OW 8548   6.247   6.786   0.857
 2550SOL    HW1 8549   6.298   6.785   0.943
 2550SOL    HW2 8550   6.309   6.768   0.781
 2551SOL     OW 8551   2.867   4.726   0.079
 2551SOL    HW1 8552   2.919   4.753   0.159
 2551SOL    HW2 8553   2.772   4.709   0.105
 2552SOL     OW 8554   2.637   4.885   4.587
 2552SOL    HW1 8555   2.620   4.959   4.522
 2552SOL    HW2 8556   2.588   4.803   4.558
 2553SOL     OW 8557   3.660   3.689   6.127
 2553SOL    HW1 8558   3.628   3.747   6.202
 2553SOL    HW2 8559   3.727   3.623   6.162
 2554SOL     OW 8560   2.444   1.451   0.461
 2554SOL    HW1 8561   2.485   1.511   0.392
 2554SOL    HW2 8562   2.427   1.504   0.545
 2555SOL     OW 8563   4.973   2.971   4.321
 2555SOL    HW1 8564   4.948   3.011   4.233
 2555SOL    HW2 8565   4.915   2.890   4.338
 2556SOL     OW 8566   3.658   6.069   0.637
 2556SOL    HW1 8567   3.683   6.058   0.541
 2556SOL    HW2 8568   3.558   6.073   0.644
 2557SOL     OW 8569   1.952   3.184   6.382
 2557SOL    HW1 8570   2.027   3.249   6.391
 2557SOL    HW2 8571   1.989   3.091   6.380
 2558SOL     OW 8572   5.112   0.930   5.674
 2558SOL    HW1 8573   5.111   0.952   5.576
 2558SOL    HW2 8574   5.043   0.861   5.694
 2559SOL     OW 8575   1.120   4.280   6.129
 2559SOL    HW1 8576   1.187   4.206   6.135
 2559SOL    HW2 8577   1.037   4.254   6.177
 2560SOL     OW 8578   6.429   2.390   6.493
 2560SOL    HW1 8579   6.451   2.332   6.571
 2560SOL    HW2 8580   6.502   2.458   6.481
 2561SOL     OW 8581   3.313   4.872   4.309
 2561SOL    HW1 8582   3.401   4.895   4.268
 2561SOL    HW2 8583   3.242   4.875   4.239
 2562SOL     OW 8584   2.379   4.016   0.775
 2562SOL    HW1 8585   2.335   4.105   0.765
 2562SOL    HW2 8586   2.360   3.980   0.866
 2563SOL     OW 8587   2.788   0.309   0.449
 2563SOL    HW1 8588   2.810   0.336   0.543
 2563SOL    HW2 8589   2.739   0.384   0.404
 2564SOL     OW 8590   1.722   5.313   1.002
 2564SOL    HW1 8591   1.759   5.329   1.094
 2564SOL    HW2 8592   1.688   5.399   0.965
 2565SOL     OW 8593   0.618   0.609   0.774
 2565SOL    HW1 8594   0.684   0.535   0.761
 2565SOL    HW2 8595   0.581   0.637   0.686
 2566SOL     OW 8596   2.175   6.400   1.128
 2566SOL    HW1 8597   2.205   6.394   1.223
 2566SOL    HW2 8598   2.077   6.424   1.126
 2567SOL     OW 8599   1.392   6.933   0.628
 2567SOL    HW1 8600   1.390   6.892   0.720
 2567SOL    HW2 8601   1.417   0.006   0.635
 2568SOL     OW 8602   4.578   2.429   0.113
 2568SOL    HW1 8603   4.586   2.350   0.051
 2568SOL    HW2 8604   4.484   2.437   0.144
 2569SOL     OW 8605   3.348   1.501   3.682
 2569SOL    HW1 8606   3.398   1.581   3.716
 2569SOL    HW2 8607   3.315   1.519   3.589
 2570SOL     OW 8608   5.777   1.034   5.739
 2570SOL    HW1 8609   5.686   1.014   5.703
 2570SOL    HW2 8610   5.771   1.056   5.836
 2571SOL     OW 8611   1.444   4.825   4.116
 2571SOL    HW1 8612   1.515   4.805   4.048
 2571SOL    HW2 8613   1.486   4.870   4.195
 2572SOL     OW 8614   2.372   4.595   2.984
 2572SOL    HW1 8615   2.363   4.499   2.958
 2572SOL    HW2 8616   2.466   4.626   2.967
 2573SOL     OW 8617   0.630   1.529   1.018
 2573SOL    HW1 8618   0.535   1.530   1.051
 2573SOL    HW2 8619   0.632   1.497   0.923
 2574SOL     OW 8620   5.953   2.948   1.086
 2574SOL    HW1 8621   6.048   2.955   1.118
 2574SOL    HW2 8622   5.953   2.920   0.990
 2575SOL     OW 8623   6.158   5.982   0.318
 2575SOL    HW1 8624   6.121   6.002   0.227
 2575SOL    HW2 8625   6.198   5.890   0.318
 2576SOL     OW 8626   4.620   6.852   4.465
 2576SOL    HW1 8627   4.528   6.819   4.486
 2576SOL    HW2 8628   4.614   6.935   4.408
 2577SOL     OW 8629   3.006   4.775   2.136
 2577SOL    HW1 8630   2.943   4.715   2.087
 2577SOL    HW2 8631   3.097   4.769   2.095
 2578SOL     OW 8632   3.761   1.324   4.358
 2578SOL    HW1 8633   3.732   1.390   4.288
 2578SOL    HW2 8634   3.689   1.256   4.371
 2579SOL     OW 8635   0.701   6.439   3.780
 2579SOL    HW1 8636   0.642   6.365   3.812
 2579SOL    HW2 8637   0.742   6.485   3.859
 2580SOL     OW 8638   2.546   4.402   0.384
 2580SOL    HW1 8639   2.535   4.370   0.478
 2580SOL    HW2 8640   2.458   4.394   0.337
 2581SOL     OW 8641   3.014   6.391   6.082
 2581SOL    HW1 8642   3.067   6.344   6.152
 2581SOL    HW2 8643   3.037   6.353   5.992
 2582SOL     OW 8644   6.781   3.760   1.032
 2582SOL    HW1 8645   6.865   3.814   1.027
 2582SOL    HW2 8646   6.725   3.793   1.107
 2583SOL     OW 8647   0.050   6.868   0.669
 2583SOL    HW1 8648   0.069   6.878   0.767
 2583SOL    HW2 8649   0.009   6.952   0.634
 2584SOL     OW 8650   3.986   4.914   5.804
 2584SOL    HW1 8651   3.949   4.992   5.753
 2584SOL    HW2 8652   3.999   4.940   5.900
 2585SOL     OW 8653   3.320   5.310   6.475
 2585SOL    HW1 8654   3.288   5.215   6.472
 2585SOL    HW2 8655   3.243   5.372   6.462
 2586SOL     OW 8656   2.248   1.061   5.695
 2586SOL    HW1 8657   2.204   0.972   5.709
 2586SOL    HW2 8658   2.179   1.131   5.680
 2587SOL     OW 8659   0.743   0.993   2.924
 2587SOL    HW1 8660   0.797   1.072   2.895
 2587SOL    HW2 8661   0.797   0.910   2.911
 2588SOL     OW 8662   4.803   2.223   5.647
 2588SOL    HW1 8663   4.802   2.158   5.570
 2588SOL    HW2 8664   4.734   2.197   5.713
 2589SOL     OW 8665   0.824   6.867   0.010
 2589SOL    HW1 8666   0.754   6.880   6.963
 2589SOL    HW2 8667   0.914   6.888   6.996
 2590SOL     OW 8668   2.784   5.010   0.207
 2590SOL    HW1 8669   2.775   5.059   0.294
 2590SOL    HW2 8670   2.861   5.048   0.156
 2591SOL     OW 8671   6.112   5.541   3.792
 2591SOL    HW1 8672   6.102   5.544   3.892
 2591SOL    HW2 8673   6.177   5.610   3.763
 2592SOL     OW 8674   2.194   4.215   7.020
 2592SOL    HW1 8675   2.292   4.215   7.000
 2592SOL    HW2 8676   2.142   4.232   6.936
 2593SOL     OW 8677   3.227   5.837   0.734
 2593SOL    HW1 8678   3.283   5.781   0.795
 2593SOL    HW2 8679   3.138   5.854   0.777
 2594SOL     OW 8680   1.800   4.122   5.380
 2594SOL    HW1 8681   1.799   4.186   5.303
 2594SOL    HW2 8682   1.889   4.127   5.426
 2595SOL     OW 8683   1.228   1.758   4.606
 2595SOL    HW1 8684   1.155   1.827   4.598
 2595SOL    HW2 8685   1.291   1.768   4.528
 2596SOL     OW 8686   1.749   2.919   1.079
 2596SOL    HW1 8687   1.708   2.975   1.151
 2596SOL    HW2 8688   1.838   2.886   1.109
 2597SOL     OW 8689   0.549   5.310   6.193
 2597SOL    HW1 8690   0.578   5.226   6.148
 2597SOL    HW2 8691   0.548   5.295   6.292
 2598SOL     OW 8692   6.069   1.475   2.093
 2598SOL    HW1 8693   6.011   1.554   2.074
 2598SOL    HW2 8694   6.104   1.481   2.187
 2599SOL     OW 8695   3.245   6.644   1.707
 2599SOL    HW1 8696   3.254   6.552   1.670
 2599SOL    HW2 8697   3.158   6.684   1.676
 2600SOL     OW 8698   6.595   4.046   4.467
 2600SOL    HW1 8699   6.669   4.014   4.527
 2600SOL    HW2 8700   6.624   4.131   4.422
 2601SOL     OW 8701   0.984   1.606   2.249
 2601SOL    HW1 8702   0.906   1.598   2.311
 2601SOL    HW2 8703   1.036   1.688   2.272
 2602SOL     OW 8704   1.454   5.083   3.968
 2602SOL    HW1 8705   1.457   5.173   4.011
 2602SOL    HW2 8706   1.441   5.013   4.038
 2603SOL     OW 8707   2.932   1.014   2.604
 2603SOL    HW1 8708   3.007   0.960   2.642
 2603SOL    HW2 8709   2.887   0.961   2.531
 2604SOL     OW 8710   6.054   1.639   1.814
 2604SOL    HW1 8711   6.033   1.565   1.750
 2604SOL    HW2 8712   6.139   1.617   1.863
 2605SOL     OW 8713   1.501   3.836   1.671
 2605SOL    HW1 8714   1.559   3.883   1.737
 2605SOL    HW2 8715   1.408   3.830   1.706
 2606SOL     OW 8716   5.019   4.552   0.872
 2606SOL    HW1 8717   5.075   4.536   0.954
 2606SOL    HW2 8718   4.966   4.635   0.884
 2607SOL     OW 8719   1.891   2.554   0.964
 2607SOL    HW1 8720   1.825   2.543   0.889
 2607SOL    HW2 8721   1.903   2.466   1.011
 2608SOL     OW 8722   2.415   5.844   6.556
 2608SOL    HW1 8723   2.474   5.796   6.621
 2608SOL    HW2 8724   2.465   5.860   6.471
 2609SOL     OW 8725   0.746   0.807   1.196
 2609SOL    HW1 8726   0.785   0.719   1.223
 2609SOL    HW2 8727   0.667   0.793   1.137
 2610SOL     OW 8728   0.756   4.812   4.389
 2610SOL    HW1 8729   0.768   4.763   4.302
 2610SOL    HW2 8730   0.783   4.752   4.465
 2611SOL     OW 8731   5.079   6.599   6.971
 2611SOL    HW1 8732   5.034   6.674   7.020
 2611SOL    HW2 8733   5.157   6.566   0.001
 2612SOL     OW 8734   5.355   0.577   4.766
 2612SOL    HW1 8735   5.292   0.562   4.842
 2612SOL    HW2 8736   5.384   0.488   4.729
 2613SOL     OW 8737   0.781   5.747   6.544
 2613SOL    HW1 8738   0.727   5.747   6.460
 2613SOL    HW2 8739   0.724   5.777   6.620
 2614SOL     OW 8740   6.361   1.025   5.933
 2614SOL    HW1 8741   6.395   1.009   5.840
 2614SOL    HW2 8742   6.375   0.943   5.989
 2615SOL     OW 8743   1.343   3.757   0.822
 2615SOL    HW1 8744   1.372   3.852   0.832
 2615SOL    HW2 8745   1.303   3.744   0.731
 2616SOL     OW 8746   1.530   0.269   5.554
 2616SOL    HW1 8747   1.437   0.305   5.547
 2616SOL    HW2 8748   1.564   0.282   5.647
 2617SOL     OW 8749   5.525   0.444   0.393
 2617SOL    HW1 8750   5.546   0.540   0.377
 2617SOL    HW2 8751   5.483   0.405   0.311
 2618SOL     OW 8752   1.546   6.137   5.875
 2618SOL    HW1 8753   1.630   6.148   5.928
 2618SOL    HW2 8754   1.554   6.189   5.790
 2619SOL     OW 8755   4.447   1.631   1.912
 2619SOL    HW1 8756   4.488   1.701   1.971
 2619SOL    HW2 8757   4.389   1.571   1.966
 2620SOL     OW 8758   6.934   6.261   1.839
 2620SOL    HW1 8759   6.956   6.174   1.795
 2620SOL    HW2 8760   6.945   6.336   1.773
 2621SOL     OW 8761   1.412   5.922   2.427
 2621SOL    HW1 8762   1.496   5.968   2.401
 2621SOL    HW2 8763   1.340   5.943   2.360
 2622SOL     OW 8764   3.020   3.207   6.524
 2622SOL    HW1 8765   3.078   3.275   6.478
 2622SOL    HW2 8766   2.934   3.250   6.552
 2623SOL     OW 8767   0.928   6.917   3.683
 2623SOL    HW1 8768   0.829   6.905   3.686
 2623SOL    HW2 8769   0.971   6.829   3.663
 2624SOL     OW 8770   0.401   1.988   4.504
 2624SOL    HW1 8771   0.318   1.949   4.545
 2624SOL    HW2 8772   0.422   2.075   4.548
 2625SOL     OW 8773   1.949   5.122   5.433
 2625SOL    HW1 8774   2.039   5.107   5.474
 2625SOL    HW2 8775   1.959   5.141   5.335
 2626SOL     OW 8776   6.134   6.094   5.845
 2626SOL    HW1 8777   6.065   6.060   5.781
 2626SOL    HW2 8778   6.114   6.059   5.937
 2627SOL     OW 8779   1.038   6.821   6.097
 2627SOL    HW1 8780   1.100   6.851   6.024
 2627SOL    HW2 8781   0.978   6.749   6.062
 2628SOL     OW 8782   1.664   3.700   3.019
 2628SOL    HW1 8783   1.721   3.653   3.087
 2628SOL    HW2 8784   1.714   3.779   2.983
 2629SOL     OW 8785   3.393   4.178   3.430
 2629SOL    HW1 8786   3.459   4.195   3.357
 2629SOL    HW2 8787   3.305   4.153   3.391
 2630SOL     OW 8788   3.729   1.278   3.805
 2630SOL    HW1 8789   3.740   1.180   3.820
 2630SOL    HW2 8790   3.818   1.323   3.810
 2631SOL     OW 8791   5.636   0.824   6.864
 2631SOL    HW1 8792   5.721   0.775   6.847
 2631SOL    HW2 8793   5.572   0.764   6.911
 2632SOL     OW 8794   5.708   4.802   2.009
 2632SOL    HW1 8795   5.764   4.861   1.951
 2632SOL    HW2 8796   5.745   4.801   2.102
 2633SOL     OW 8797   6.878   3.215   5.792
 2633SOL    HW1 8798   6.798   3.155   5.796
 2633SOL    HW2 8799   6.870   3.277   5.714
 2634SOL     OW 8800   5.982   0.176   4.993
 2634SOL    HW1 8801   6.079   0.159   5.005
 2634SOL    HW2 8802   5.939   0.192   5.082
 2635SOL     OW 8803   5.387   5.388   3.763
 2635SOL    HW1 8804   5.472   5.363   3.810
 2635SOL    HW2 8805   5.321   5.423   3.829
 2636SOL     OW 8806   3.613   6.965   6.106
 2636SOL    HW1 8807   3.675   6.898   6.147
 2636SOL    HW2 8808   3.665   0.019   6.071
 2637SOL     OW 8809   1.498   1.362   3.392
 2637SOL    HW1 8810   1.565   1.436   3.388
 2637SOL    HW2 8811   1.430   1.382   3.463
 2638SOL     OW 8812   0.943   0.398   4.210
 2638SOL    HW1 8813   0.909   0.334   4.279
 2638SOL    HW2 8814   1.036   0.426   4.233
 2639SOL     OW 8815   4.490   5.278   4.826
 2639SOL    HW1 8816   4.445   5.200   4.783
 2639SOL    HW2 8817   4.573   5.301   4.775
 2640SOL     OW 8818   0.942   6.990   4.326
 2640SOL    HW1 8819   0.905   6.909   4.372
 2640SOL    HW2 8820   0.968   6.965   4.233
 2641SOL     OW 8821   5.560   2.266   0.118
 2641SOL    HW1 8822   5.554   2.329   0.040
 2641SOL    HW2 8823   5.574   2.318   0.202
 2642SOL     OW 8824   0.088   1.100   3.953
 2642SOL    HW1 8825   0.002   1.150   3.967
 2642SOL    HW2 8826   0.163   1.166   3.949
 2643SOL     OW 8827   0.834   4.264   3.406
 2643SOL    HW1 8828   0.912   4.316   3.372
 2643SOL    HW2 8829   0.846   4.245   3.504
 2644SOL     OW 8830   5.299   5.487   5.183
 2644SOL    HW1 8831   5.224   5.455   5.242
 2644SOL    HW2 8832   5.273   5.573   5.141
 2645SOL     OW 8833   4.936   4.867   3.531
 2645SOL    HW1 8834   4.998   4.946   3.534
 2645SOL    HW2 8835   4.860   4.887   3.469
 2646SOL     OW 8836   0.356   3.766   5.948
 2646SOL    HW1 8837   0.427   3.798   5.885
 2646SOL    HW2 8838   0.269   3.809   5.924
 2647SOL     OW 8839   4.904   6.443   1.817
 2647SOL    HW1 8840   4.827   6.449   1.754
 2647SOL    HW2 8841   4.989   6.433   1.765
 2648SOL     OW 8842   0.467   0.297   4.416
 2648SOL    HW1 8843   0.507   0.375   4.369
 2648SOL    HW2 8844   0.534   0.256   4.477
 2649SOL     OW 8845   4.811   2.411   1.940
 2649SOL    HW1 8846   4.761   2.350   1.878
 2649SOL    HW2 8847   4.747   2.476   1.981
 2650SOL     OW 8848   3.706   5.918   5.439
 2650SOL    HW1 8849   3.663   5.871   5.516
 2650SOL    HW2 8850   3.649   5.996   5.413
 2651SOL     OW 8851   4.318   1.792   5.316
 2651SOL    HW1 8852   4.411   1.814   5.344
 2651SOL    HW2 8853   4.317   1.763   5.220
 2652SOL     OW 8854   5.176   4.003   5.381
 2652SOL    HW1 8855   5.208   4.020   5.474
 2652SOL    HW2 8856   5.250   4.023   5.317
 2653SOL     OW 8857   2.980   6.454   6.869
 2653SOL    HW1 8858   3.029   6.496   6.793
 2653SOL    HW2 8859   2.890   6.424   6.839
 2654SOL     OW 8860   5.575   0.973   0.586
 2654SOL    HW1 8861   5.503   0.932   0.641
 2654SOL    HW2 8862   5.541   1.057   0.544
 2655SOL     OW 8863   5.168   6.015   2.967
 2655SOL    HW1 8864   5.077   6.036   3.005
 2655SOL    HW2 8865   5.192   5.921   2.989
 2656SOL     OW 8866   3.661   5.264   3.815
 2656SOL    HW1 8867   3.579   5.291   3.764
 2656SOL    HW2 8868   3.732   5.238   3.750
 2657SOL     OW 8869   2.190   3.228   0.255
 2657SOL    HW1 8870   2.137   3.219   0.339
 2657SOL    HW2 8871   2.272   3.282   0.272
 2658SOL     OW 8872   4.407   5.066   6.478
 2658SOL    HW1 8873   4.435   4.998   6.410
 2658SOL    HW2 8874   4.309   5.080   6.473
 2659SOL     OW 8875   6.691   2.294   4.627
 2659SOL    HW1 8876   6.703   2.378   4.575
 2659SOL    HW2 8877   6.598   2.290   4.664
 2660SOL     OW 8878   0.602   1.986   1.346
 2660SOL    HW1 8879   0.576   1.952   1.437
 2660SOL    HW2 8880   0.637   2.079   1.355
 2661SOL     OW 8881   1.939   1.404   0.827
 2661SOL    HW1 8882   1.898   1.412   0.918
 2661SOL    HW2 8883   2.034   1.435   0.831
 2662SOL     OW 8884   3.065   0.578   2.787
 2662SOL    HW1 8885   3.125   0.562   2.708
 2662SOL    HW2 8886   3.004   0.500   2.799
 2663SOL     OW 8887   4.156   6.716   6.748
 2663SOL    HW1 8888   4.075   6.734   6.805
 2663SOL    HW2 8889   4.237   6.754   6.792
 2664SOL     OW 8890   4.238   2.746   5.826
 2664SOL    HW1 8891   4.254   2.742   5.924
 2664SOL    HW2 8892   4.142   2.722   5.807
 2665SOL     OW 8893   1.969   3.804   5.318
 2665SOL    HW1 8894   1.933   3.841   5.233
 2665SOL    HW2 8895   1.940   3.861   5.395
 2666SOL     OW 8896   2.099   4.055   2.275
 2666SOL    HW1 8897   2.169   4.120   2.245
 2666SOL    HW2 8898   2.119   4.026   2.369
 2667SOL     OW 8899   5.697   3.895   4.121
 2667SOL    HW1 8900   5.603   3.902   4.156
 2667SOL    HW2 8901   5.699   3.927   4.026
 2668SOL     OW 8902   5.860   1.412   4.352
 2668SOL    HW1 8903   5.809   1.330   4.379
 2668SOL    HW2 8904   5.955   1.387   4.332
 2669SOL     OW 8905   2.433   0.699   0.457
 2669SOL    HW1 8906   2.406   0.702   0.360
 2669SOL    HW2 8907   2.351   0.701   0.514
 2670SOL     OW 8908   0.451   0.770   6.136
 2670SOL    HW1 8909   0.352   0.784   6.138
 2670SOL    HW2 8910   0.497   0.858   6.124
 2671SOL     OW 8911   3.879   5.159   5.691
 2671SOL    HW1 8912   3.863   5.232   5.625
 2671SOL    HW2 8913   3.832   5.179   5.777
 2672SOL     OW 8914   3.457   1.146   1.740
 2672SOL    HW1 8915   3.460   1.245   1.730
 2672SOL    HW2 8916   3.541   1.107   1.704
 2673SOL     OW 8917   4.812   0.416   2.413
 2673SOL    HW1 8918   4.852   0.454   2.496
 2673SOL    HW2 8919   4.840   0.320   2.404
 2674SOL     OW 8920   0.694   5.244   2.781
 2674SOL    HW1 8921   0.694   5.343   2.770
 2674SOL    HW2 8922   0.789   5.211   2.789
 2675SOL     OW 8923   6.131   0.256   4.159
 2675SOL    HW1 8924   6.124   0.195   4.238
 2675SOL    HW2 8925   6.145   0.350   4.191
 2676SOL     OW 8926   3.338   3.707   3.025
 2676SOL    HW1 8927   3.275   3.637   3.059
 2676SOL    HW2 8928   3.348   3.697   2.926
 2677SOL     OW 8929   2.279   5.103   1.765
 2677SOL    HW1 8930   2.338   5.166   1.716
 2677SOL    HW2 8931   2.334   5.047   1.827
 2678SOL     OW 8932   5.742   2.259   2.582
 2678SOL    HW1 8933   5.674   2.188   2.562
 2678SOL    HW2 8934   5.818   2.251   2.518
 2679SOL     OW 8935   1.871   4.824   3.316
 2679SOL    HW1 8936   1.969   4.825   3.297
 2679SOL    HW2 8937   1.836   4.731   3.305
 2680SOL     OW 8938   0.832   1.893   7.000
 2680SOL    HW1 8939   0.797   1.909   0.068
 2680SOL    HW2 8940   0.916   1.945   6.987
 2681SOL     OW 8941   1.774   2.359   5.142
 2681SOL    HW1 8942   1.827   2.392   5.220
 2681SOL    HW2 8943   1.721   2.435   5.104
 2682SOL     OW 8944   4.391   4.457   1.457
 2682SOL    HW1 8945   4.490   4.455   1.473
 2682SOL    HW2 8946   4.347   4.387   1.513
 2683SOL     OW 8947   2.374   4.339   2.309
 2683SOL    HW1 8948   2.467   4.378   2.311
 2683SOL    HW2 8949   2.356   4.303   2.218
 2684SOL     OW 8950   5.827   6.690   2.316
 2684SOL    HW1 8951   5.856   6.630   2.241
 2684SOL    HW2 8952   5.833   6.641   2.403
 2685SOL     OW 8953   0.947   5.968   4.921
 2685SOL    HW1 8954   1.014   5.898   4.947
 2685SOL    HW2 8955   0.965   5.999   4.828
 2686SOL     OW 8956   1.109   1.544   4.416
 2686SOL    HW1 8957   1.157   1.457   4.417
 2686SOL    HW2 8958   1.169   1.615   4.378
 2687SOL     OW 8959   3.786   1.522   1.485
 2687SOL    HW1 8960   3.760   1.555   1.395
 2687SOL    HW2 8961   3.885   1.524   1.495
 2688SOL     OW 8962   3.551   3.339   5.885
 2688SOL    HW1 8963   3.646   3.308   5.891
 2688SOL    HW2 8964   3.491   3.260   5.874
 2689SOL     OW 8965   0.891   3.824   3.296
 2689SOL    HW1 8966   0.971   3.850   3.349
 2689SOL    HW2 8967   0.864   3.899   3.236
 2690SOL     OW 8968   3.354   1.292   6.355
 2690SOL    HW1 8969   3.273   1.254   6.399
 2690SOL    HW2 8970   3.435   1.239   6.382
 2691SOL     OW 8971   0.315   4.564   3.540
 2691SOL    HW1 8972   0.261   4.483   3.515
 2691SOL    HW2 8973   0.365   4.597   3.460
 2692SOL     OW 8974   2.639   5.795   2.704
 2692SOL    HW1 8975   2.590   5.719   2.662
 2692SOL    HW2 8976   2.731   5.764   2.731
 2693SOL     OW 8977   1.654   5.328   3.706
 2693SOL    HW1 8978   1.595   5.346   3.628
 2693SOL    HW2 8979   1.749   5.319   3.675
 2694SOL     OW 8980   3.185   6.862   4.171
 2694SOL    HW1 8981   3.127   6.783   4.153
 2694SOL    HW2 8982   3.223   6.856   4.263
 2695SOL     OW 8983   6.869   5.645   3.449
 2695SOL    HW1 8984   6.902   5.702   3.373
 2695SOL    HW2 8985   6.795   5.692   3.496
 2696SOL     OW 8986   4.929   4.060   6.100
 2696SOL    HW1 8987   4.938   4.002   6.181
 2696SOL    HW2 8988   4.835   4.095   6.094
 2697SOL     OW 8989   4.134   2.718   0.653
 2697SOL    HW1 8990   4.095   2.809   0.641
 2697SOL    HW2 8991   4.174   2.710   0.744
 2698SOL     OW 8992   1.761   3.906   5.877
 2698SOL    HW1 8993   1.749   3.971   5.952
 2698SOL    HW2 8994   1.838   3.845   5.898
 2699SOL     OW 8995   3.745   5.808   2.132
 2699SOL    HW1 8996   3.653   5.847   2.126
 2699SOL    HW2 8997   3.740   5.709   2.122
 2700SOL     OW 8998   2.915   2.245   1.700
 2700SOL    HW1 8999   3.011   2.253   1.675
 2700SOL    HW2 9000   2.901   2.284   1.791
 2701SOL     OW 9001   5.028   2.723   4.699
 2701SOL    HW1 9002   4.989   2.772   4.777
 2701SOL    HW2 9003   5.061   2.789   4.632
 2702SOL     OW 9004   2.545   1.828   4.670
 2702SOL    HW1 9005   2.450   1.842   4.698
 2702SOL    HW2 9006   2.547   1.798   4.575
 2703SOL     OW 9007   1.693   6.671   2.093
 2703SOL    HW1 9008   1.761   6.599   2.105
 2703SOL    HW2 9009   1.735   6.749   2.045
 2704SOL     OW 9010   5.829   6.880   3.667
 2704SOL    HW1 9011   5.825   6.788   3.705
 2704SOL    HW2 9012   5.881   6.939   3.728
 2705SOL     OW 9013   0.091   0.101   5.084
 2705SOL    HW1 9014   0.065   0.195   5.062
 2705SOL    HW2 9015   0.039   0.037   5.028
 2706SOL     OW 9016   6.781   4.332   4.031
 2706SOL    HW1 9017   6.819   4.421   4.058
 2706SOL    HW2 9018   6.774   4.329   3.931
 2707SOL     OW 9019   3.910   0.673   3.005
 2707SOL    HW1 9020   3.968   0.755   3.008
 2707SOL    HW2 9021   3.958   0.600   2.957
 2708SOL     OW 9022   5.671   3.005   0.308
 2708SOL    HW1 9023   5.700   2.946   0.383
 2708SOL    HW2 9024   5.637   2.950   0.232
 2709SOL     OW 9025   5.000   0.646   4.942
 2709SOL    HW1 9026   5.049   0.669   5.025
 2709SOL    HW2 9027   5.060   0.659   4.863
 2710SOL     OW 9028   1.260   2.744   3.828
 2710SOL    HW1 9029   1.274   2.647   3.808
 2710SOL    HW2 9030   1.184   2.780   3.773
 2711SOL     OW 9031   3.374   2.073   2.689
 2711SOL    HW1 9032   3.443   2.104   2.622
 2711SOL    HW2 9033   3.361   1.974   2.679
 2712SOL     OW 9034   4.493   5.472   2.209
 2712SOL    HW1 9035   4.422   5.405   2.188
 2712SOL    HW2 9036   4.565   5.467   2.140
 2713SOL     OW 9037   3.745   4.819   6.358
 2713SOL    HW1 9038   3.740   4.842   6.455
 2713SOL    HW2 9039   3.773   4.900   6.306
 2714SOL     OW 9040   3.064   4.505   0.140
 2714SOL    HW1 9041   2.996   4.497   0.066
 2714SOL    HW2 9042   3.055   4.595   0.183
 2715SOL     OW 9043   4.272   0.982   1.309
 2715SOL    HW1 9044   4.307   1.006   1.218
 2715SOL    HW2 9045   4.337   0.920   1.354
 2716SOL     OW 9046   3.664   2.089   2.781
 2716SOL    HW1 9047   3.652   1.995   2.748
 2716SOL    HW2 9048   3.577   2.137   2.774
 2717SOL     OW 9049   0.784   1.327   2.566
 2717SOL    HW1 9050   0.743   1.289   2.649
 2717SOL    HW2 9051   0.777   1.260   2.492
 2718SOL     OW 9052   0.106   0.009   5.751
 2718SOL    HW1 9053   0.015   0.049   5.746
 2718SOL    HW2 9054   0.168   0.073   5.797
 2719SOL     OW 9055   1.790   3.899   2.337
 2719SOL    HW1 9056   1.706   3.944   2.366
 2719SOL    HW2 9057   1.787   3.883   2.238
 2720SOL     OW 9058   1.259   6.039   5.540
 2720SOL    HW1 9059   1.271   5.943   5.515
 2720SOL    HW2 9060   1.214   6.088   5.466
 2721SOL     OW 9061   3.519   5.637   1.764
 2721SOL    HW1 9062   3.571   5.706   1.714
 2721SOL    HW2 9063   3.577   5.596   1.835
 2722SOL     OW 9064   4.735   5.096   6.885
 2722SOL    HW1 9065   4.719   5.072   6.981
 2722SOL    HW2 9066   4.651   5.081   6.833
 2723SOL     OW 9067   3.029   6.606   0.571
 2723SOL    HW1 9068   3.106   6.639   0.516
 2723SOL    HW2 9069   2.943   6.635   0.529
 2724SOL     OW 9070   1.736   5.851   0.921
 2724SOL    HW1 9071   1.642   5.830   0.947
 2724SOL    HW2 9072   1.740   5.939   0.874
 2725SOL     OW 9073   5.711   3.892   4.951
 2725SOL    HW1 9074   5.753   3.982   4.962
 2725SOL    HW2 9075   5.614   3.897   4.976
 2726SOL     OW 9076   0.219   1.290   1.706
 2726SOL    HW1 9077   0.160   1.216   1.739
 2726SOL    HW2 9078   0.178   1.332   1.625
 2727SOL     OW 9079   1.937   4.160   4.475
 2727SOL    HW1 9080   1.984   4.162   4.387
 2727SOL    HW2 9081   1.862   4.094   4.472
 2728SOL     OW 9082   5.413   5.555   6.042
 2728SOL    HW1 9083   5.385   5.461   6.021
 2728SOL    HW2 9084   5.419   5.567   6.141
 2729SOL     OW 9085   5.684   5.574   6.095
 2729SOL    HW1 9086   5.602   5.560   6.039
 2729SOL    HW2 9087   5.766   5.562   6.038
 2730SOL     OW 9088   0.747   5.419   2.069
 2730SOL    HW1 9089   0.802   5.485   2.120
 2730SOL    HW2 9090   0.651   5.433   2.090
 2731SOL     OW 9091   3.332   2.931   3.771
 2731SOL    HW1 9092   3.278   2.974   3.843
 2731SOL    HW2 9093   3.289   2.845   3.744
 2732SOL     OW 9094   5.966   1.357   1.746
 2732SOL    HW1 9095   5.964   1.298   1.664
 2732SOL    HW2 9096   5.999   1.304   1.824
 2733SOL     OW 9097   0.527   0.540   6.006
 2733SOL    HW1 9098   0.491   0.625   6.044
 2733SOL    HW2 9099   0.612   0.559   5.956
 2734SOL     OW 9100   3.808   5.834   1.819
 2734SOL    HW1 9101   3.733   5.899   1.831
 2734SOL    HW2 9102   3.823   5.784   1.904
 2735SOL     OW 9103   0.721   1.400   1.261
 2735SOL    HW1 9104   0.673   1.316   1.284
 2735SOL    HW2 9105   0.684   1.440   1.177
 2736SOL     OW 9106   4.210   5.659   3.206
 2736SOL    HW1 9107   4.281   5.669   3.276
 2736SOL    HW2 9108   4.244   5.598   3.134
 2737SOL     OW 9109   2.300   2.087   6.879
 2737SOL    HW1 9110   2.323   1.991   6.893
 2737SOL    HW2 9111   2.344   2.143   6.949
 2738SOL     OW 9112   5.891   0.407   1.607
 2738SOL    HW1 9113   5.931   0.327   1.651
 2738SOL    HW2 9114   5.815   0.441   1.663
 2739SOL     OW 9115   1.257   5.359   2.146
 2739SOL    HW1 9116   1.209   5.446   2.134
 2739SOL    HW2 9117   1.280   5.347   2.243
 2740SOL     OW 9118   6.640   6.103   3.216
 2740SOL    HW1 9119   6.728   6.087   3.172
 2740SOL    HW2 9120   6.646   6.184   3.274
 2741SOL     OW 9121   1.117   2.123   4.725
 2741SOL    HW1 9122   1.096   2.043   4.781
 2741SOL    HW2 9123   1.207   2.158   4.749
 2742SOL     OW 9124   3.534   5.199   2.106
 2742SOL    HW1 9125   3.591   5.154   2.037
 2742SOL    HW2 9126   3.465   5.136   2.139
 2743SOL     OW 9127   6.095   4.281   2.138
 2743SOL    HW1 9128   6.110   4.364   2.085
 2743SOL    HW2 9129   6.173   4.264   2.198
 2744SOL     OW 9130   3.499   3.877   2.866
 2744SOL    HW1 9131   3.572   3.810   2.849
 2744SOL    HW2 9132   3.453   3.854   2.952
 2745SOL     OW 9133   6.593   0.179   5.743
 2745SOL    HW1 9134   6.684   0.207   5.772
 2745SOL    HW2 9135   6.594   0.082   5.719
 2746SOL     OW 9136   1.512   1.126   3.552
 2746SOL    HW1 9137   1.492   1.186   3.630
 2746SOL    HW2 9138   1.500   1.177   3.467
 2747SOL     OW 9139   3.957   6.189   0.611
 2747SOL    HW1 9140   3.997   6.259   0.670
 2747SOL    HW2 9141   3.861   6.210   0.595
 2748SOL     OW 9142   4.481   6.516   1.552
 2748SOL    HW1 9143   4.487   6.507   1.452
 2748SOL    HW2 9144   4.385   6.525   1.579
 2749SOL     OW 9145   2.023   3.549   0.431
 2749SOL    HW1 9146   1.983   3.459   0.416
 2749SOL    HW2 9147   2.113   3.539   0.473
 2750SOL     OW 9148   2.603   5.321   2.390
 2750SOL    HW1 9149   2.669   5.301   2.462
 2750SOL    HW2 9150   2.563   5.236   2.357
 2751SOL     OW 9151   1.002   3.301   1.262
 2751SOL    HW1 9152   0.952   3.349   1.190
 2751SOL    HW2 9153   1.009   3.204   1.240
 2752SOL     OW 9154   3.712   4.872   6.614
 2752SOL    HW1 9155   3.710   4.826   6.703
 2752SOL    HW2 9156   3.671   4.963   6.623
 2753SOL     OW 9157   6.135   5.944   5.183
 2753SOL    HW1 9158   6.074   5.897   5.246
 2753SOL    HW2 9159   6.230   5.915   5.201
 2754SOL     OW 9160   0.419   6.749   6.434
 2754SOL    HW1 9161   0.431   6.673   6.499
 2754SOL    HW2 9162   0.440   6.718   6.342
 2755SOL     OW 9163   2.748   6.787   3.160
 2755SOL    HW1 9164   2.666   6.729   3.151
 2755SOL    HW2 9165   2.722   6.876   3.197
 2756SOL     OW 9166   5.143   6.240   0.139
 2756SOL    HW1 9167   5.062   6.190   0.170
 2756SOL    HW2 9168   5.152   6.324   0.192
 2757SOL     OW 9169   0.825   5.097   1.190
 2757SOL    HW1 9170   0.828   5.150   1.275
 2757SOL    HW2 9171   0.759   5.139   1.128
 2758SOL     OW 9172   4.885   0.482   6.030
 2758SOL    HW1 9173   4.797   0.443   6.003
 2758SOL    HW2 9174   4.955   0.411   6.029
 2759SOL     OW 9175   5.954   6.798   4.219
 2759SOL    HW1 9176   5.966   6.778   4.122
 2759SOL    HW2 9177   5.911   6.888   4.229
 2760SOL     OW 9178   2.377   5.077   2.647
 2760SOL    HW1 9179   2.430   4.994   2.632
 2760SOL    HW2 9180   2.339   5.108   2.560
 2761SOL     OW 9181   2.147   5.352   2.855
 2761SOL    HW1 9182   2.160   5.416   2.931
 2761SOL    HW2 9183   2.060   5.370   2.810
 2762SOL     OW 9184   1.011   6.768   5.716
 2762SOL    HW1 9185   1.033   6.777   5.619
 2762SOL    HW2 9186   1.089   6.797   5.771
 2763SOL     OW 9187   5.482   2.057   3.581
 2763SOL    HW1 9188   5.575   2.026   3.558
 2763SOL    HW2 9189   5.425   1.978   3.602
 2764SOL     OW 9190   5.413   0.807   1.275
 2764SOL    HW1 9191   5.435   0.778   1.182
 2764SOL    HW2 9192   5.490   0.789   1.335
 2765SOL     OW 9193   6.088   1.112   1.962
 2765SOL    HW1 9194   6.162   1.114   2.029
 2765SOL    HW2 9195   6.125   1.131   1.871
 2766SOL     OW 9196   6.010   1.532   1.483
 2766SOL    HW1 9197   6.065   1.469   1.539
 2766SOL    HW2 9198   6.070   1.584   1.422
 2767SOL     OW 9199   5.426   3.604   6.096
 2767SOL    HW1 9200   5.426   3.684   6.036
 2767SOL    HW2 9201   5.351   3.611   6.162
 2768SOL     OW 9202   5.044   1.548   6.903
 2768SOL    HW1 9203   5.102   1.629   6.902
 2768SOL    HW2 9204   4.963   1.563   6.846
 2769SOL     OW 9205   0.066   4.446   1.931
 2769SOL    HW1 9206   0.129   4.522   1.945
 2769SOL    HW2 9207   0.081   4.377   2.002
 2770SOL     OW 9208   1.453   5.137   1.552
 2770SOL    HW1 9209   1.480   5.063   1.490
 2770SOL    HW2 9210   1.423   5.098   1.640
 2771SOL     OW 9211   5.549   2.024   1.295
 2771SOL    HW1 9212   5.500   2.091   1.351
 2771SOL    HW2 9213   5.544   2.051   1.199
 2772SOL     OW 9214   4.398   2.489   6.888
 2772SOL    HW1 9215   4.416   2.533   6.800
 2772SOL    HW2 9216   4.468   2.419   6.905
 2773SOL     OW 9217   4.100   4.361   6.663
 2773SOL    HW1 9218   4.107   4.414   6.748
 2773SOL    HW2 9219   4.022   4.298   6.670
 2774SOL     OW 9220   5.640   3.065   2.288
 2774SOL    HW1 9221   5.555   3.014   2.306
 2774SOL    HW2 9222   5.709   3.039   2.356
 2775SOL     OW 9223   0.119   5.544   0.750
 2775SOL    HW1 9224   0.186   5.516   0.819
 2775SOL    HW2 9225   0.041   5.587   0.794
 2776SOL     OW 9226   3.651   6.798   5.868
 2776SOL    HW1 9227   3.673   6.717   5.923
 2776SOL    HW2 9228   3.625   6.769   5.776
 2777SOL     OW 9229   3.185   1.435   2.510
 2777SOL    HW1 9230   3.191   1.416   2.412
 2777SOL    HW2 9231   3.145   1.356   2.557
 2778SOL     OW 9232   2.463   1.848   5.659
 2778SOL    HW1 9233   2.506   1.767   5.618
 2778SOL    HW2 9234   2.527   1.890   5.723
 2779SOL     OW 9235   5.260   0.112   6.942
 2779SOL    HW1 9236   5.230   0.082   0.009
 2779SOL    HW2 9237   5.354   0.081   6.926
 2780SOL     OW 9238   4.866   5.074   6.386
 2780SOL    HW1 9239   4.837   5.055   6.292
 2780SOL    HW2 9240   4.841   5.168   6.410
 2781SOL     OW 9241   5.952   4.434   1.449
 2781SOL    HW1 9242   5.903   4.450   1.535
 2781SOL    HW2 9243   5.975   4.337   1.441
 2782SOL     OW 9244   3.171   2.682   6.465
 2782SOL    HW1 9245   3.086   2.632   6.449
 2782SOL    HW2 9246   3.181   2.755   6.398
 2783SOL     OW 9247   6.895   4.615   5.747
 2783SOL    HW1 9248   6.863   4.523   5.772
 2783SOL    HW2 9249   6.828   4.683   5.777
 2784SOL     OW 9250   1.996   2.769   1.093
 2784SOL    HW1 9251   2.032   2.765   1.186
 2784SOL    HW2 9252   1.969   2.677   1.063
 2785SOL     OW 9253   6.552   0.810   0.401
 2785SOL    HW1 9254   6.636   0.774   0.442
 2785SOL    HW2 9255   6.529   0.756   0.320
 2786SOL     OW 9256   4.272   6.173   1.193
 2786SOL    HW1 9257   4.311   6.117   1.266
 2786SOL    HW2 9258   4.235   6.257   1.233
 2787SOL     OW 9259   1.886   2.748   6.222
 2787SOL    HW1 9260   1.793   2.783   6.234
 2787SOL    HW2 9261   1.927   2.788   6.140
 2788SOL     OW 9262   2.909   4.338   0.509
 2788SOL    HW1 9263   2.901   4.259   0.448
 2788SOL    HW2 9264   2.991   4.327   0.565
 2789SOL     OW 9265   0.851   1.754   4.106
 2789SOL    HW1 9266   0.866   1.708   4.194
 2789SOL    HW2 9267   0.771   1.715   4.061
 2790SOL     OW 9268   3.723   4.840   3.096
 2790SOL    HW1 9269   3.662   4.868   3.022
 2790SOL    HW2 9270   3.670   4.829   3.180
 2791SOL     OW 9271   1.473   3.765   4.763
 2791SOL    HW1 9272   1.432   3.710   4.690
 2791SOL    HW2 9273   1.510   3.705   4.834
 2792SOL     OW 9274   0.675   0.813   5.070
 2792SOL    HW1 9275   0.715   0.904   5.071
 2792SOL    HW2 9276   0.593   0.813   5.012
 2793SOL     OW 9277   5.544   1.259   2.482
 2793SOL    HW1 9278   5.485   1.246   2.402
 2793SOL    HW2 9279   5.491   1.246   2.565
 2794SOL     OW 9280   0.187   1.571   0.219
 2794SOL    HW1 9281   0.172   1.594   0.123
 2794SOL    HW2 9282   0.272   1.518   0.228
 2795SOL     OW 9283   2.913   4.138   1.340
 2795SOL    HW1 9284   2.926   4.039   1.351
 2795SOL    HW2 9285   2.815   4.159   1.337
 2796SOL     OW 9286   5.790   3.816   2.683
 2796SOL    HW1 9287   5.874   3.767   2.706
 2796SOL    HW2 9288   5.723   3.753   2.645
 2797SOL     OW 9289   4.758   5.422   4.764
 2797SOL    HW1 9290   4.794   5.337   4.801
 2797SOL    HW2 9291   4.819   5.498   4.788
 2798SOL     OW 9292   1.107   3.443   3.504
 2798SOL    HW1 9293   1.187   3.398   3.465
 2798SOL    HW2 9294   1.024   3.403   3.465
 2799SOL     OW 9295   6.935   5.136   6.041
 2799SOL    HW1 9296   6.913   5.208   5.975
 2799SOL    HW2 9297   6.855   5.118   6.098
 2800SOL     OW 9298   3.913   5.097   6.722
 2800SOL    HW1 9299   3.878   5.143   6.804
 2800SOL    HW2 9300   3.863   5.012   6.706
 2801SOL     OW 9301   5.183   5.366   2.485
 2801SOL    HW1 9302   5.125   5.448   2.490
 2801SOL    HW2 9303   5.261   5.377   2.546
 2802SOL     OW 9304   4.311   2.087   5.583
 2802SOL    HW1 9305   4.350   2.165   5.631
 2802SOL    HW2 9306   4.378   2.050   5.519
 2803SOL     OW 9307   2.534   6.610   6.197
 2803SOL    HW1 9308   2.629   6.609   6.167
 2803SOL    HW2 9309   2.515   6.528   6.251
 2804SOL     OW 9310   6.371   4.747   3.810
 2804SOL    HW1 9311   6.288   4.791   3.773
 2804SOL    HW2 9312   6.451   4.801   3.784
 2805SOL     OW 9313   4.917   3.027   1.339
 2805SOL    HW1 9314   4.916   3.022   1.439
 2805SOL    HW2 9315   4.900   3.121   1.310
 2806SOL     OW 9316   5.788   5.188   3.036
 2806SOL    HW1 9317   5.865   5.243   3.068
 2806SOL    HW2 9318   5.788   5.185   2.936
 2807SOL     OW 9319   4.176   4.860   3.568
 2807SOL    HW1 9320   4.266   4.817   3.558
 2807SOL    HW2 9321   4.153   4.909   3.484
 2808SOL     OW 9322   5.742   1.235   3.313
 2808SOL    HW1 9323   5.827   1.245   3.365
 2808SOL    HW2 9324   5.673   1.190   3.371
 2809SOL     OW 9325   6.012   2.529   0.846
 2809SOL    HW1 9326   6.109   2.547   0.860
 2809SOL    HW2 9327   5.971   2.499   0.932
 2810SOL     OW 9328   2.698   0.186   5.605
 2810SOL    HW1 9329   2.669   0.091   5.596
 2810SOL    HW2 9330   2.783   0.190   5.657
 2811SOL     OW 9331   0.676   1.265   3.096
 2811SOL    HW1 9332   0.625   1.179   3.095
 2811SOL    HW2 9333   0.716   1.281   3.006
 2812SOL     OW 9334   4.994   3.763   2.737
 2812SOL    HW1 9335   4.984   3.755   2.638
 2812SOL    HW2 9336   4.999   3.860   2.762
 2813SOL     OW 9337   5.854   6.815   5.730
 2813SOL    HW1 9338   5.874   6.851   5.822
 2813SOL    HW2 9339   5.918   6.740   5.709
 2814SOL     OW 9340   4.089   4.219   6.027
 2814SOL    HW1 9341   4.173   4.195   6.075
 2814SOL    HW2 9342   4.110   4.278   5.949
 2815SOL     OW 9343   6.764   1.241   4.657
 2815SOL    HW1 9344   6.776   1.340   4.669
 2815SOL    HW2 9345   6.810   1.193   4.732
 2816SOL     OW 9346   6.003   0.085   3.794
 2816SOL    HW1 9347   5.970   0.154   3.731
 2816SOL    HW2 9348   6.085   0.119   3.841
 2817SOL     OW 9349   1.682   1.241   1.411
 2817SOL    HW1 9350   1.742   1.189   1.471
 2817SOL    HW2 9351   1.713   1.336   1.407
 2818SOL     OW 9352   6.942   4.823   6.101
 2818SOL    HW1 9353   6.886   4.858   6.026
 2818SOL    HW2 9354   0.011   4.859   6.093
 2819SOL     OW 9355   0.117   3.258   0.426
 2819SOL    HW1 9356   0.105   3.231   0.521
 2819SOL    HW2 9357   0.027   3.272   0.383
 2820SOL     OW 9358   0.144   2.656   2.891
 2820SOL    HW1 9359   0.121   2.583   2.827
 2820SOL    HW2 9360   0.088   2.737   2.871
 2821SOL     OW 9361   1.827   4.520   5.542
 2821SOL    HW1 9362   1.766   4.442   5.558
 2821SOL    HW2 9363   1.829   4.541   5.445
 2822SOL     OW 9364   5.132   2.264   0.340
 2822SOL    HW1 9365   5.215   2.233   0.294
 2822SOL    HW2 9366   5.157   2.316   0.422
 2823SOL     OW 9367   2.643   6.650   2.660
 2823SOL    HW1 9368   2.734   6.671   2.622
 2823SOL    HW2 9369   2.624   6.553   2.648
 2824SOL     OW 9370   2.282   1.388   5.225
 2824SOL    HW1 9371   2.184   1.404   5.240
 2824SOL    HW2 9372   2.299   1.290   5.222
 2825SOL     OW 9373   0.060   6.427   1.061
 2825SOL    HW1 9374   0.152   6.456   1.033
 2825SOL    HW2 9375   0.044   6.333   1.032
 2826SOL     OW 9376   5.036   2.299   5.487
 2826SOL    HW1 9377   5.028   2.321   5.390
 2826SOL    HW2 9378   4.952   2.256   5.519
 2827SOL     OW 9379   6.396   0.992   5.239
 2827SOL    HW1 9380   6.406   0.947   5.328
 2827SOL    HW2 9381   6.484   0.992   5.192
 2828SOL     OW 9382   4.068   0.896   6.304
 2828SOL    HW1 9383   4.033   0.982   6.341
 2828SOL    HW2 9384   4.154   0.912   6.256
 2829SOL     OW 9385   3.965   5.799   6.262
 2829SOL    HW1 9386   3.874   5.773   6.228
 2829SOL    HW2 9387   4.003   5.724   6.316
 2830SOL     OW 9388   5.011   3.433   6.053
 2830SOL    HW1 9389   5.029   3.461   5.959
 2830SOL    HW2 9390   5.060   3.348   6.073
 2831SOL     OW 9391   5.680   6.395   4.439
 2831SOL    HW1 9392   5.750   6.455   4.400
 2831SOL    HW2 9393   5.589   6.429   4.416
 2832SOL     OW 9394   0.290   1.253   1.125
 2832SOL    HW1 9395   0.275   1.167   1.076
 2832SOL    HW2 9396   0.327   1.233   1.216
 2833SOL     OW 9397   6.138   2.430   1.891
 2833SOL    HW1 9398   6.220   2.381   1.921
 2833SOL    HW2 9399   6.114   2.402   1.798
 2834SOL     OW 9400   3.655   1.429   6.429
 2834SOL    HW1 9401   3.692   1.501   6.372
 2834SOL    HW2 9402   3.662   1.456   6.525
 2835SOL     OW 9403   0.367   6.518   2.309
 2835SOL    HW1 9404   0.290   6.470   2.268
 2835SOL    HW2 9405   0.378   6.489   2.404
 2836SOL     OW 9406   0.156   7.010   1.834
 2836SOL    HW1 9407   0.096   6.947   1.884
 2836SOL    HW2 9408   0.100   0.045   1.776
 2837SOL     OW 9409   5.276   3.671   3.432
 2837SOL    HW1 9410   5.190   3.659   3.481
 2837SOL    HW2 9411   5.263   3.652   3.335
 2838SOL     OW 9412   2.596   4.528   1.859
 2838SOL    HW1 9413   2.587   4.555   1.763
 2838SOL    HW2 9414   2.688   4.549   1.892
 2839SOL     OW 9415   5.717   1.482   1.781
 2839SOL    HW1 9416   5.646   1.413   1.766
 2839SOL    HW2 9417   5.807   1.439   1.783
 2840SOL     OW 9418   0.085   1.452   5.142
 2840SOL    HW1 9419   7.022   1.489   5.110
 2840SOL    HW2 9420   0.067   1.373   5.201
 2841SOL     OW 9421   1.214   5.996   0.830
 2841SOL    HW1 9422   1.244   6.090   0.850
 2841SOL    HW2 9423   1.294   5.940   0.806
 2842SOL     OW 9424   6.715   3.345   3.905
 2842SOL    HW1 9425   6.619   3.368   3.922
 2842SOL    HW2 9426   6.774   3.416   3.944
 2843SOL     OW 9427   3.597   1.101   5.007
 2843SOL    HW1 9428   3.659   1.081   4.931
 2843SOL    HW2 9429   3.540   1.180   4.983
 2844SOL     OW 9430   1.311   3.948   0.105
 2844SOL    HW1 9431   1.258   3.888   0.044
 2844SOL    HW2 9432   1.401   3.965   0.065
 2845SOL     OW 9433   0.593   3.937   0.063
 2845SOL    HW1 9434   0.537   4.008   0.020
 2845SOL    HW2 9435   0.552   3.848   0.045
 2846SOL     OW 9436   4.824   1.337   0.196
 2846SOL    HW1 9437   4.822   1.436   0.204
 2846SOL    HW2 9438   4.840   1.311   0.101
 2847SOL     OW 9439   5.515   4.423   3.532
 2847SOL    HW1 9440   5.564   4.337   3.545
 2847SOL    HW2 9441   5.462   4.420   3.447
 2848SOL     OW 9442   0.242   4.710   5.424
 2848SOL    HW1 9443   0.315   4.672   5.368
 2848SOL    HW2 9444   0.210   4.795   5.384
 2849SOL     OW 9445   3.376   1.316   0.349
 2849SOL    HW1 9446   3.346   1.388   0.287
 2849SOL    HW2 9447   3.341   1.228   0.316
 2850SOL     OW 9448   3.389   0.239   1.406
 2850SOL    HW1 9449   3.407   0.319   1.348
 2850SOL    HW2 9450   3.459   0.232   1.476
 2851SOL     OW 9451   0.987   4.676   5.318
 2851SOL    HW1 9452   1.007   4.746   5.386
 2851SOL    HW2 9453   1.063   4.611   5.312
 2852SOL     OW 9454   6.281   3.310   6.832
 2852SOL    HW1 9455   6.360   3.284   6.888
 2852SOL    HW2 9456   6.197   3.297   6.885
 2853SOL     OW 9457   3.427   2.526   0.996
 2853SOL    HW1 9458   3.512   2.565   1.033
 2853SOL    HW2 9459   3.355   2.533   1.065
 2854SOL     OW 9460   2.692   0.879   4.461
 2854SOL    HW1 9461   2.762   0.816   4.428
 2854SOL    HW2 9462   2.616   0.827   4.500
 2855SOL     OW 9463   1.729   0.756   5.615
 2855SOL    HW1 9464   1.641   0.718   5.585
 2855SOL    HW2 9465   1.755   0.832   5.556
 2856SOL     OW 9466   2.354   2.292   5.294
 2856SOL    HW1 9467   2.344   2.262   5.388
 2856SOL    HW2 9468   2.299   2.374   5.279
 2857SOL     OW 9469   2.892   2.027   1.409
 2857SOL    HW1 9470   2.805   2.058   1.371
 2857SOL    HW2 9471   2.937   1.968   1.343
 2858SOL     OW 9472   6.532   2.901   2.415
 2858SOL    HW1 9473   6.502   2.819   2.462
 2858SOL    HW2 9474   6.525   2.888   2.316
 2859SOL     OW 9475   4.749   0.953   0.841
 2859SOL    HW1 9476   4.818   0.887   0.811
 2859SOL    HW2 9477   4.781   1.000   0.923
 2860SOL     OW 9478   3.878   1.876   1.677
 2860SOL    HW1 9479   3.788   1.913   1.656
 2860SOL    HW2 9480   3.920   1.930   1.750
 2861SOL     OW 9481   4.316   5.814   5.713
 2861SOL    HW1 9482   4.384   5.887   5.719
 2861SOL    HW2 9483   4.291   5.800   5.617
 2862SOL     OW 9484   5.154   1.324   3.703
 2862SOL    HW1 9485   5.089   1.399   3.691
 2862SOL    HW2 9486   5.104   1.238   3.710
 2863SOL     OW 9487   6.311   2.116   0.296
 2863SOL    HW1 9488   6.374   2.051   0.337
 2863SOL    HW2 9489   6.328   2.122   0.198
 2864SOL     OW 9490   3.720   0.521   1.175
 2864SOL    HW1 9491   3.732   0.619   1.190
 2864SOL    HW2 9492   3.801   0.472   1.208
 2865SOL     OW 9493   4.346   4.397   5.376
 2865SOL    HW1 9494   4.305   4.460   5.310
 2865SOL    HW2 9495   4.445   4.395   5.361
 2866SOL     OW 9496   6.888   5.947   6.739
 2866SOL    HW1 9497   6.843   6.033   6.765
 2866SOL    HW2 9498   6.885   5.936   6.640
 2867SOL     OW 9499   6.114   5.110   2.687
 2867SOL    HW1 9500   6.209   5.094   2.714
 2867SOL    HW2 9501   6.097   5.067   2.598
 2868SOL     OW 9502   0.350   3.962   5.238
 2868SOL    HW1 9503   0.332   4.050   5.282
 2868SOL    HW2 9504   0.263   3.915   5.222
 2869SOL     OW 9505   6.022   0.269   2.289
 2869SOL    HW1 9506   6.080   0.228   2.360
 2869SOL    HW2 9507   5.946   0.319   2.332
 2870SOL     OW 9508   6.394   2.009   3.328
 2870SOL    HW1 9509   6.347   1.978   3.410
 2870SOL    HW2 9510   6.339   2.079   3.282
 2871SOL     OW 9511   1.881   1.883   6.475
 2871SOL    HW1 9512   1.896   1.977   6.444
 2871SOL    HW2 9513   1.917   1.872   6.567
 2872SOL     OW 9514   2.549   0.716   4.185
 2872SOL    HW1 9515   2.452   0.741   4.190
 2872SOL    HW2 9516   2.561   0.623   4.219
 2873SOL     OW 9517   0.930   5.979   2.896
 2873SOL    HW1 9518   1.025   5.992   2.868
 2873SOL    HW2 9519   0.883   6.068   2.896
 2874SOL     OW 9520   5.081   4.011   2.521
 2874SOL    HW1 9521   5.031   3.926   2.504
 2874SOL    HW2 9522   5.046   4.053   2.605
 2875SOL     OW 9523   3.687   6.301   6.260
 2875SOL    HW1 9524   3.775   6.253   6.262
 2875SOL    HW2 9525   3.697   6.390   6.304
 2876SOL     OW 9526   0.730   1.625   1.587
 2876SOL    HW1 9527   0.803   1.558   1.600
 2876SOL    HW2 9528   0.714   1.639   1.490
 2877SOL     OW 9529   2.959   2.900   5.320
 2877SOL    HW1 9530   3.002   2.945   5.242
 2877SOL    HW2 9531   2.865   2.931   5.329
 2878SOL     OW 9532   2.615   4.580   4.590
 2878SOL    HW1 9533   2.612   4.632   4.675
 2878SOL    HW2 9534   2.589   4.485   4.609
 2879SOL     OW 9535   5.045   5.172   6.879
 2879SOL    HW1 9536   5.087   5.094   6.926
 2879SOL    HW2 9537   4.954   5.188   6.916
 2880SOL     OW 9538   0.108   5.922   1.118
 2880SOL    HW1 9539   0.182   5.874   1.069
 2880SOL    HW2 9540   0.108   5.894   1.214
 2881SOL     OW 9541   6.505   6.303   0.686
 2881SOL    HW1 9542   6.478   6.210   0.712
 2881SOL    HW2 9543   6.565   6.299   0.607
 2882SOL     OW 9544   0.038   3.006   2.372
 2882SOL    HW1 9545   0.047   3.102   2.398
 2882SOL    HW2 9546   6.970   2.990   2.336
 2883SOL     OW 9547   3.716   6.889   3.145
 2883SOL    HW1 9548   3.781   6.957   3.179
 2883SOL    HW2 9549   3.763   6.825   3.084
 2884SOL     OW 9550   0.797   6.202   2.866
 2884SOL    HW1 9551   0.777   6.291   2.908
 2884SOL    HW2 9552   0.722   6.177   2.805
 2885SOL     OW 9553   0.559   2.218   2.742
 2885SOL    HW1 9554   0.460   2.212   2.732
 2885SOL    HW2 9555   0.603   2.176   2.663
 2886SOL     OW 9556   1.680   2.309   0.268
 2886SOL    HW1 9557   1.684   2.213   0.296
 2886SOL    HW2 9558   1.748   2.325   0.197
 2887SOL     OW 9559   2.207   0.339   4.992
 2887SOL    HW1 9560   2.306   0.342   4.975
 2887SOL    HW2 9561   2.191   0.326   5.090
 2888SOL     OW 9562   6.644   4.510   6.846
 2888SOL    HW1 9563   6.731   4.530   6.800
 2888SOL    HW2 9564   6.612   4.420   6.817
 2889SOL     OW 9565   0.933   0.805   1.785
 2889SOL    HW1 9566   0.939   0.809   1.685
 2889SOL    HW2 9567   1.020   0.775   1.822
 2890SOL     OW 9568   3.274   0.735   1.537
 2890SOL    HW1 9569   3.178   0.745   1.510
 2890SOL    HW2 9570   3.297   0.638   1.546
 2891SOL     OW 9571   2.090   4.404   3.362
 2891SOL    HW1 9572   2.048   4.465   3.430
 2891SOL    HW2 9573   2.068   4.309   3.386
 2892SOL     OW 9574   3.622   4.264   6.508
 2892SOL    HW1 9575   3.668   4.208   6.577
 2892SOL    HW2 9576   3.530   4.230   6.491
 2893SOL     OW 9577   2.169   6.611   5.202
 2893SOL    HW1 9578   2.192   6.539   5.136
 2893SOL    HW2 9579   2.221   6.694   5.180
 2894SOL     OW 9580   2.999   2.759   0.068
 2894SOL    HW1 9581   2.964   2.771   0.161
 2894SOL    HW2 9582   2.923   2.746   0.005
 2895SOL     OW 9583   3.754   3.035   6.548
 2895SOL    HW1 9584   3.675   3.089   6.519
 2895SOL    HW2 9585   3.801   3.082   6.622
 2896SOL     OW 9586   2.381   5.532   0.035
 2896SOL    HW1 9587   2.438   5.602   0.078
 2896SOL    HW2 9588   2.382   5.449   0.091
 2897SOL     OW 9589   2.637   6.639   3.462
 2897SOL    HW1 9590   2.584   6.591   3.531
 2897SOL    HW2 9591   2.702   6.576   3.419
 2898SOL     OW 9592   4.482   5.156   2.774
 2898SOL    HW1 9593   4.576   5.132   2.749
 2898SOL    HW2 9594   4.424   5.152   2.692
 2899SOL     OW 9595   0.198   6.889   6.536
 2899SOL    HW1 9596   0.115   6.883   6.480
 2899SOL    HW2 9597   0.275   6.851   6.486
 2900SOL     OW 9598   1.139   4.867   5.766
 2900SOL    HW1 9599   1.159   4.965   5.767
 2900SOL    HW2 9600   1.223   4.815   5.782
 2901SOL     OW 9601   2.626   0.690   2.614
 2901SOL    HW1 9602   2.548   0.750   2.628
 2901SOL    HW2 9603   2.643   0.680   2.516
 2902SOL     OW 9604   5.292   6.483   0.832
 2902SOL    HW1 9605   5.350   6.505   0.753
 2902SOL    HW2 9606   5.241   6.565   0.859
 2903SOL     OW 9607   2.748   0.644   1.838
 2903SOL    HW1 9608   2.758   0.740   1.813
 2903SOL    HW2 9609   2.789   0.628   1.928
 2904SOL     OW 9610   2.218   3.225   5.210
 2904SOL    HW1 9611   2.266   3.303   5.248
 2904SOL    HW2 9612   2.284   3.157   5.177
 2905SOL     OW 9613   1.368   1.003   2.679
 2905SOL    HW1 9614   1.363   1.068   2.603
 2905SOL    HW2 9615   1.417   1.045   2.756
 2906SOL     OW 9616   5.395   4.850   1.971
 2906SOL    HW1 9617   5.378   4.815   2.064
 2906SOL    HW2 9618   5.463   4.923   1.976
 2907SOL     OW 9619   7.018   2.165   5.294
 2907SOL    HW1 9620   6.953   2.190   5.366
 2907SOL    HW2 9621   6.970   2.115   5.222
 2908SOL     OW 9622   4.116   6.775   4.390
 2908SOL    HW1 9623   4.104   6.848   4.322
 2908SOL    HW2 9624   4.044   6.781   4.459
 2909SOL     OW 9625   0.887   5.363   4.374
 2909SOL    HW1 9626   0.845   5.399   4.290
 2909SOL    HW2 9627   0.976   5.323   4.352
 2910SOL     OW 9628   3.539   6.583   4.962
 2910SOL    HW1 9629   3.599   6.620   4.891
 2910SOL    HW2 9630   3.473   6.521   4.920
 2911SOL     OW 9631   2.237   4.972   3.410
 2911SOL    HW1 9632   2.239   4.957   3.509
 2911SOL    HW2 9633   2.197   4.892   3.365
 2912SOL     OW 9634   2.814   6.120   0.161
 2912SOL    HW1 9635   2.742   6.178   0.201
 2912SOL    HW2 9636   2.892   6.116   0.223
 2913SOL     OW 9637   1.502   3.671   2.358
 2913SOL    HW1 9638   1.482   3.769   2.356
 2913SOL    HW2 9639   1.601   3.657   2.354
 2914SOL     OW 9640   5.432   4.265   6.110
 2914SOL    HW1 9641   5.338   4.233   6.099
 2914SOL    HW2 9642   5.488   4.231   6.034
 2915SOL     OW 9643   4.228   1.226   4.395
 2915SOL    HW1 9644   4.145   1.172   4.412
 2915SOL    HW2 9645   4.303   1.165   4.369
 2916SOL     OW 9646   6.136   4.404   5.174
 2916SOL    HW1 9647   6.171   4.467   5.104
 2916SOL    HW2 9648   6.178   4.314   5.161
 2917SOL     OW 9649   3.836   0.195   0.857
 2917SOL    HW1 9650   3.799   0.147   0.936
 2917SOL    HW2 9651   3.817   0.293   0.867
 2918SOL     OW 9652   0.539   3.471   3.369
 2918SOL    HW1 9653   0.452   3.496   3.412
 2918SOL    HW2 9654   0.607   3.451   3.440
 2919SOL     OW 9655   6.335   6.606   0.042
 2919SOL    HW1 9656   6.361   6.516   0.009
 2919SOL    HW2 9657   6.415   6.666   0.043
 2920SOL     OW 9658   3.877   2.139   2.611
 2920SOL    HW1 9659   3.842   2.127   2.517
 2920SOL    HW2 9660   3.800   2.135   2.675
 2921SOL     OW 9661   6.949   1.236   2.832
 2921SOL    HW1 9662   6.973   1.326   2.797
 2921SOL    HW2 9663   6.942   1.239   2.932
 2922SOL     OW 9664   4.968   0.044   5.666
 2922SOL    HW1 9665   4.985   0.141   5.687
 2922SOL    HW2 9666   4.978   7.014   5.749
 2923SOL     OW 9667   0.136   4.948   2.403
 2923SOL    HW1 9668   0.046   4.919   2.434
 2923SOL    HW2 9669   0.203   4.934   2.476
 2924SOL     OW 9670   0.687   1.179   5.614
 2924SOL    HW1 9671   0.729   1.240   5.681
 2924SOL    HW2 9672   0.612   1.227   5.569
 2925SOL     OW 9673   5.642   2.701   1.839
 2925SOL    HW1 9674   5.545   2.725   1.831
 2925SOL    HW2 9675   5.696   2.785   1.842
 2926SOL     OW 9676   6.984   1.851   4.983
 2926SOL    HW1 9677   6.946   1.936   5.019
 2926SOL    HW2 9678   6.975   1.851   4.883
 2927SOL     OW 9679   1.069   2.560   2.662
 2927SOL    HW1 9680   1.044   2.482   2.604
 2927SOL    HW2 9681   1.167   2.559   2.679
 2928SOL     OW 9682   7.007   0.315   6.869
 2928SOL    HW1 9683   6.937   0.365   6.919
 2928SOL    HW2 9684   6.994   0.217   6.881
 2929SOL     OW 9685   0.589   0.444   6.663
 2929SOL    HW1 9686   0.680   0.485   6.661
 2929SOL    HW2 9687   0.596   0.345   6.653
 2930SOL     OW 9688   5.233   0.246   4.540
 2930SOL    HW1 9689   5.319   0.294   4.524
 2930SOL    HW2 9690   5.248   0.148   4.538
 2931SOL     OW 9691   4.556   6.344   6.615
 2931SOL    HW1 9692   4.601   6.279   6.676
 2931SOL    HW2 9693   4.587   6.330   6.521
 2932SOL     OW 9694   1.159   4.374   1.852
 2932SOL    HW1 9695   1.246   4.402   1.813
 2932SOL    HW2 9696   1.107   4.455   1.880
 2933SOL     OW 9697   5.203   2.941   4.019
 2933SOL    HW1 9698   5.273   2.900   3.961
 2933SOL    HW2 9699   5.226   2.927   4.115
 2934SOL     OW 9700   3.535   0.172   0.344
 2934SOL    HW1 9701   3.542   0.092   0.403
 2934SOL    HW2 9702   3.552   0.145   0.249
 2935SOL     OW 9703   6.295   3.718   1.286
 2935SOL    HW1 9704   6.347   3.696   1.203
 2935SOL    HW2 9705   6.351   3.696   1.366
 2936SOL     OW 9706   4.762   5.454   0.521
 2936SOL    HW1 9707   4.758   5.468   0.620
 2936SOL    HW2 9708   4.850   5.486   0.486
 2937SOL     OW 9709   3.563   5.483   0.851
 2937SOL    HW1 9710   3.656   5.452   0.873
 2937SOL    HW2 9711   3.541   5.459   0.757
 2938SOL     OW 9712   4.473   5.565   5.515
 2938SOL    HW1 9713   4.528   5.532   5.438
 2938SOL    HW2 9714   4.396   5.503   5.530
 2939SOL     OW 9715   5.907   0.187   5.254
 2939SOL    HW1 9716   5.982   0.161   5.314
 2939SOL    HW2 9717   5.873   0.278   5.280
 2940SOL     OW 9718   5.570   0.194   5.138
 2940SOL    HW1 9719   5.523   0.180   5.225
 2940SOL    HW2 9720   5.582   0.106   5.092
 2941SOL     OW 9721   0.881   1.649   4.904
 2941SOL    HW1 9722   0.898   1.551   4.894
 2941SOL    HW2 9723   0.783   1.666   4.899
 2942SOL     OW 9724   3.199   0.350   2.373
 2942SOL    HW1 9725   3.170   0.382   2.283
 2942SOL    HW2 9726   3.195   0.250   2.376
 2943SOL     OW 9727   6.138   3.345   2.742
 2943SOL    HW1 9728   6.161   3.266   2.686
 2943SOL    HW2 9729   6.208   3.357   2.813
 2944SOL     OW 9730   3.371   4.928   5.067
 2944SOL    HW1 9731   3.428   4.886   4.997
 2944SOL    HW2 9732   3.276   4.933   5.035
 2945SOL     OW 9733   3.847   3.376   3.271
 2945SOL    HW1 9734   3.833   3.444   3.199
 2945SOL    HW2 9735   3.770   3.378   3.334
 2946SOL     OW 9736   6.715   5.864   5.830
 2946SOL    HW1 9737   6.749   5.911   5.912
 2946SOL    HW2 9738   6.651   5.924   5.781
 2947SOL     OW 9739   6.566   3.958   6.208
 2947SOL    HW1 9740   6.525   3.999   6.290
 2947SOL    HW2 9741   6.493   3.931   6.145
 2948SOL     OW 9742   6.462   3.968   5.009
 2948SOL    HW1 9743   6.541   4.017   5.044
 2948SOL    HW2 9744   6.448   3.884   5.060
 2949SOL     OW 9745   1.933   6.864   0.905
 2949SOL    HW1 9746   1.833   6.869   0.899
 2949SOL    HW2 9747   1.973   6.917   0.831
 2950SOL     OW 9748   5.961   3.823   4.229
 2950SOL    HW1 9749   5.953   3.729   4.262
 2950SOL    HW2 9750   5.876   3.850   4.184
 2951SOL     OW 9751   7.006   1.780   0.336
 2951SOL    HW1 9752   0.066   1.828   0.363
 2951SOL    HW2 9753   0.006   1.699   0.282
 2952SOL     OW 9754   1.052   4.442   3.297
 2952SOL    HW1 9755   1.061   4.483   3.388
 2952SOL    HW2 9756   1.130   4.468   3.240
 2953SOL     OW 9757   4.956   1.877   2.372
 2953SOL    HW1 9758   4.938   1.801   2.309
 2953SOL    HW2 9759   4.959   1.963   2.320
 2954SOL     OW 9760   0.183   6.246   2.398
 2954SOL    HW1 9761   0.094   6.202   2.392
 2954SOL    HW2 9762   0.181   6.333   2.347
 2955SOL     OW 9763   0.363   3.333   0.803
 2955SOL    HW1 9764   0.428   3.263   0.775
 2955SOL    HW2 9765   0.340   3.390   0.723
 2956SOL     OW 9766   0.091   5.360   3.032
 2956SOL    HW1 9767   0.116   5.410   2.949
 2956SOL    HW2 9768   0.158   5.288   3.049
 2957SOL     OW 9769   6.935   3.836   1.278
 2957SOL    HW1 9770   6.846   3.818   1.319
 2957SOL    HW2 9771   6.936   3.929   1.242
 2958SOL     OW 9772   1.608   4.792   5.810
 2958SOL    HW1 9773   1.656   4.823   5.729
 2958SOL    HW2 9774   1.611   4.692   5.815
 2959SOL     OW 9775   5.204   4.745   6.113
 2959SOL    HW1 9776   5.287   4.712   6.068
 2959SOL    HW2 9777   5.204   4.845   6.116
 2960SOL     OW 9778   2.677   2.094   0.172
 2960SOL    HW1 9779   2.638   2.008   0.206
 2960SOL    HW2 9780   2.746   2.127   0.237
 2961SOL     OW 9781   5.439   3.676   4.397
 2961SOL    HW1 9782   5.530   3.716   4.411
 2961SOL    HW2 9783   5.428   3.651   4.301
 2962SOL     OW 9784   4.457   1.168   3.744
 2962SOL    HW1 9785   4.438   1.071   3.735
 2962SOL    HW2 9786   4.530   1.194   3.682
 2963SOL     OW 9787   1.686   1.156   6.009
 2963SOL    HW1 9788   1.654   1.234   5.954
 2963SOL    HW2 9789   1.652   1.071   5.969
 2964SOL     OW 9790   1.857   6.549   1.373
 2964SOL    HW1 9791   1.872   6.534   1.471
 2964SOL    HW2 9792   1.763   6.581   1.359
 2965SOL     OW 9793   0.322   1.036   5.699
 2965SOL    HW1 9794   0.379   1.108   5.738
 2965SOL    HW2 9795   0.267   0.995   5.772
 2966SOL     OW 9796   5.370   4.600   3.888
 2966SOL    HW1 9797   5.376   4.593   3.988
 2966SOL    HW2 9798   5.461   4.605   3.849
 2967SOL     OW 9799   5.388   2.184   3.320
 2967SOL    HW1 9800   5.388   2.132   3.405
 2967SOL    HW2 9801   5.482   2.198   3.289
 2968SOL     OW 9802   0.868   3.867   4.445
 2968SOL    HW1 9803   0.872   3.957   4.490
 2968SOL    HW2 9804   0.814   3.804   4.501
 2969SOL     OW 9805   5.749   1.899   4.810
 2969SOL    HW1 9806   5.655   1.870   4.788
 2969SOL    HW2 9807   5.805   1.895   4.727
 2970SOL     OW 9808   0.923   4.325   6.543
 2970SOL    HW1 9809   0.850   4.275   6.589
 2970SOL    HW2 9810   1.008   4.316   6.594
 2971SOL     OW 9811   6.109   3.017   3.484
 2971SOL    HW1 9812   6.028   2.988   3.536
 2971SOL    HW2 9813   6.080   3.053   3.396
 2972SOL     OW 9814   6.246   3.324   6.360
 2972SOL    HW1 9815   6.271   3.373   6.444
 2972SOL    HW2 9816   6.248   3.387   6.283
 2973SOL     OW 9817   5.606   0.596   3.605
 2973SOL    HW1 9818   5.598   0.683   3.654
 2973SOL    HW2 9819   5.683   0.544   3.643
 2974SOL     OW 9820   6.571   4.606   2.803
 2974SOL    HW1 9821   6.525   4.582   2.889
 2974SOL    HW2 9822   6.669   4.583   2.811
 2975SOL     OW 9823   0.569   1.316   5.381
 2975SOL    HW1 9824   0.638   1.372   5.334
 2975SOL    HW2 9825   0.498   1.289   5.316
 2976SOL     OW 9826   4.313   1.485   2.691
 2976SOL    HW1 9827   4.313   1.581   2.664
 2976SOL    HW2 9828   4.373   1.433   2.629
 2977SOL     OW 9829   2.805   0.051   4.311
 2977SOL    HW1 9830   2.725   0.091   4.265
 2977SOL    HW2 9831   2.868   0.014   4.242
 2978SOL     OW 9832   4.715   4.842   0.028
 2978SOL    HW1 9833   4.774   4.871   0.104
 2978SOL    HW2 9834   4.620   4.838   0.059
 2979SOL     OW 9835   3.743   0.236   3.102
 2979SOL    HW1 9836   3.733   0.294   3.021
 2979SOL    HW2 9837   3.690   0.275   3.178
 2980SOL     OW 9838   0.769   6.533   4.039
 2980SOL    HW1 9839   0.736   6.460   4.099
 2980SOL    HW2 9840   0.842   6.583   4.085
 2981SOL     OW 9841   1.603   0.895   5.853
 2981SOL    HW1 9842   1.568   0.803   5.869
 2981SOL    HW2 9843   1.566   0.930   5.766
 2982SOL     OW 9844   4.407   5.737   2.647
 2982SOL    HW1 9845   4.453   5.762   2.733
 2982SOL    HW2 9846   4.432   5.803   2.576
 2983SOL     OW 9847   0.222   0.902   4.716
 2983SOL    HW1 9848   0.230   0.997   4.746
 2983SOL    HW2 9849   0.126   0.877   4.709
 2984SOL     OW 9850   6.785   5.291   1.546
 2984SOL    HW1 9851   6.744   5.332   1.628
 2984SOL    HW2 9852   6.745   5.201   1.530
 2985SOL     OW 9853   0.355   1.955   4.245
 2985SOL    HW1 9854   0.444   1.927   4.209
 2985SOL    HW2 9855   0.363   1.972   4.343
 2986SOL     OW 9856   1.773   3.643   5.267
 2986SOL    HW1 9857   1.857   3.691   5.294
 2986SOL    HW2 9858   1.694   3.701   5.285
 2987SOL     OW 9859   4.120   1.394   4.746
 2987SOL    HW1 9860   4.157   1.303   4.733
 2987SOL    HW2 9861   4.139   1.450   4.665
 2988SOL     OW 9862   1.048   0.362   1.626
 2988SOL    HW1 9863   1.012   0.429   1.561
 2988SOL    HW2 9864   1.048   0.271   1.583
 2989SOL     OW 9865   6.586   4.513   1.439
 2989SOL    HW1 9866   6.502   4.488   1.390
 2989SOL    HW2 9867   6.646   4.565   1.378
 2990SOL     OW 9868   3.211   0.567   2.543
 2990SOL    HW1 9869   3.137   0.621   2.501
 2990SOL    HW2 9870   3.234   0.491   2.483
 2991SOL     OW 9871   0.256   3.833   0.626
 2991SOL    HW1 9872   0.266   3.774   0.706
 2991SOL    HW2 9873   0.167   3.879   0.629
 2992SOL     OW 9874   3.204   5.682   6.377
 2992SOL    HW1 9875   3.136   5.733   6.324
 2992SOL    HW2 9876   3.282   5.660   6.318
 2993SOL     OW 9877   1.861   4.848   1.641
 2993SOL    HW1 9878   1.890   4.775   1.580
 2993SOL    HW2 9879   1.821   4.809   1.724
 2994SOL     OW 9880   4.947   0.765   0.054
 2994SOL    HW1 9881   5.021   0.831   0.067
 2994SOL    HW2 9882   4.917   0.731   0.142
 2995SOL     OW 9883   1.043   2.155   0.271
 2995SOL    HW1 9884   1.137   2.148   0.238
 2995SOL    HW2 9885   1.043   2.166   0.371
 2996SOL     OW 9886   2.832   5.174   5.069
 2996SOL    HW1 9887   2.818   5.243   5.140
 2996SOL    HW2 9888   2.871   5.091   5.111
 2997SOL     OW 9889   5.849   6.158   1.388
 2997SOL    HW1 9890   5.837   6.105   1.304
 2997SOL    HW2 9891   5.920   6.227   1.374
 2998SOL     OW 9892   5.709   6.201   3.923
 2998SOL    HW1 9893   5.668   6.110   3.936
 2998SOL    HW2 9894   5.722   6.217   3.825
 2999SOL     OW 9895   3.598   6.398   3.327
 2999SOL    HW1 9896   3.605   6.495   3.353
 2999SOL    HW2 9897   3.572   6.344   3.407
 3000SOL     OW 9898   1.614   2.939   5.615
 3000SOL    HW1 9899   1.532   2.950   5.672
 3000SOL    HW2 9900   1.679   2.880   5.662
 3001SOL     OW 9901   5.087   0.545   5.782
 3001SOL    HW1 9902   5.058   0.533   5.877
 3001SOL    HW2 9903   5.166   0.607   5.779
 3002SOL     OW 9904   4.295   0.036   5.383
 3002SOL    HW1 9905   4.351   0.042   5.465
 3002SOL    HW2 9906   4.302   0.121   5.331
 3003SOL     OW 9907   2.680   6.057   5.388
 3003SOL    HW1 9908   2.693   6.152   5.358
 3003SOL    HW2 9909   2.676   5.997   5.309
 3004SOL     OW 9910   6.054   4.120   3.667
 3004SOL    HW1 9911   5.960   4.125   3.700
 3004SOL    HW2 9912   6.092   4.213   3.659
 3005SOL     OW 9913   3.479   3.041   1.303
 3005SOL    HW1 9914   3.411   3.113   1.316
 3005SOL    HW2 9915   3.529   3.028   1.389
 3006SOL     OW 9916   5.381   1.276   0.990
 3006SOL    HW1 9917   5.479   1.290   0.976
 3006SOL    HW2 9918   5.333   1.362   0.977
 3007SOL     OW 9919   6.081   4.571   2.721
 3007SOL    HW1 9920   6.134   4.561   2.805
 3007SOL    HW2 9921   6.140   4.557   2.642
 3008SOL     OW 9922   3.485   6.714   6.138
 3008SOL    HW1 9923   3.449   6.803   6.109
 3008SOL    HW2 9924   3.581   6.725   6.165
 3009SOL     OW 9925   1.141   0.481   2.167
 3009SOL    HW1 9926   1.217   0.484   2.103
 3009SOL    HW2 9927   1.153   0.552   2.237
 3010SOL     OW 9928   3.973   5.275   3.235
 3010SOL    HW1 9929   3.938   5.367   3.253
 3010SOL    HW2 9930   3.939   5.243   3.147
 3011SOL     OW 9931   6.251   0.331   6.965
 3011SOL    HW1 9932   6.338   0.358   6.924
 3011SOL    HW2 9933   6.256   0.341   0.040
 3012SOL     OW 9934   0.035   3.557   3.678
 3012SOL    HW1 9935   7.021   3.550   3.771
 3012SOL    HW2 9936   7.011   3.628   3.628
 3013SOL     OW 9937   6.231   5.836   2.255
 3013SOL    HW1 9938   6.241   5.820   2.353
 3013SOL    HW2 9939   6.140   5.873   2.237
 3014SOL     OW 9940   5.098   1.420   4.267
 3014SOL    HW1 9941   5.084   1.518   4.252
 3014SOL    HW2 9942   5.159   1.384   4.197
 3015SOL     OW 9943   2.425   2.143   0.765
 3015SOL    HW1 9944   2.522   2.118   0.766
 3015SOL    HW2 9945   2.372   2.069   0.724
 3016SOL     OW 9946   3.500   6.276   4.165
 3016SOL    HW1 9947   3.544   6.222   4.236
 3016SOL    HW2 9948   3.449   6.216   4.103
 3017SOL     OW 9949   1.539   6.122   1.553
 3017SOL    HW1 9950   1.594   6.190   1.600
 3017SOL    HW2 9951   1.567   6.031   1.581
 3018SOL     OW 9952   3.968   0.272   6.802
 3018SOL    HW1 9953   4.021   0.342   6.850
 3018SOL    HW2 9954   3.980   0.184   6.848
 3019SOL     OW 9955   3.290   6.085   0.966
 3019SOL    HW1 9956   3.326   6.174   0.938
 3019SOL    HW2 9957   3.196   6.075   0.935
 3020SOL     OW 9958   2.841   3.683   1.819
 3020SOL    HW1 9959   2.883   3.759   1.770
 3020SOL    HW2 9960   2.756   3.657   1.773
 3021SOL     OW 9961   1.509   1.862   6.581
 3021SOL    HW1 9962   1.575   1.816   6.522
 3021SOL    HW2 9963   1.556   1.899   6.661
 3022SOL     OW 9964   3.932   5.996   3.328
 3022SOL    HW1 9965   3.944   6.076   3.270
 3022SOL    HW2 9966   3.836   5.989   3.356
 3023SOL     OW 9967   3.877   5.507   3.790
 3023SOL    HW1 9968   3.850   5.424   3.838
 3023SOL    HW2 9969   3.975   5.523   3.802
 3024SOL     OW 9970   3.347   1.252   6.831
 3024SOL    HW1 9971   3.319   1.216   6.742
 3024SOL    HW2 9972   3.312   1.345   6.842
 3025SOL     OW 9973   2.637   2.936   1.140
 3025SOL    HW1 9974   2.654   2.981   1.053
 3025SOL    HW2 9975   2.663   2.839   1.133
 3026SOL     OW 9976   1.407   3.287   1.009
 3026SOL    HW1 9977   1.393   3.200   1.058
 3026SOL    HW2 9978   1.439   3.268   0.916
 3027SOL     OW 9979   3.247   0.981   1.682
 3027SOL    HW1 9980   3.321   1.047   1.669
 3027SOL    HW2 9981   3.202   0.963   1.595
 3028SOL     OW 9982   1.431   5.307   6.154
 3028SOL    HW1 9983   1.465   5.241   6.221
 3028SOL    HW2 9984   1.451   5.274   6.062
 3029SOL     OW 9985   6.221   5.515   4.817
 3029SOL    HW1 9986   6.233   5.522   4.718
 3029SOL    HW2 9987   6.244   5.422   4.846
 3030SOL     OW 9988   0.939   0.811   5.686
 3030SOL    HW1 9989   0.883   0.868   5.626
 3030SOL    HW2 9990   0.903   0.814   5.779
 3031SOL     OW 9991   0.591   3.840   6.608
 3031SOL    HW1 9992   0.684   3.863   6.634
 3031SOL    HW2 9993   0.527   3.871   6.678
 3032SOL     OW 9994   4.971   0.418   6.803
 3032SOL    HW1 9995   5.000   0.380   6.715
 3032SOL    HW2 9996   5.014   0.507   6.816
 3033SOL     OW 9997   0.113   3.974   6.975
 3033SOL    HW1 9998   0.033   3.952   6.919
 3033SOL    HW2 9999   0.084   3.984   0.047
 3034SOL     OW10000   2.909   6.447   3.882
 3034SOL    HW110001   2.811   6.466   3.890
 3034SOL    HW210002   2.934   6.439   3.786
 3035SOL     OW10003   6.477   1.099   0.076
 3035SOL    HW110004   6.512   1.192   0.080
 3035SOL    HW210005   6.497   1.052   0.162
 3036SOL     OW10006   1.212   3.814   6.916
 3036SOL    HW110007   1.192   3.716   6.913
 3036SOL    HW210008   1.236   3.846   6.824
 3037SOL     OW10009   6.489   6.185   5.184
 3037SOL    HW110010   6.444   6.097   5.170
 3037SOL    HW210011   6.433   6.257   5.143
 3038SOL     OW10012   5.247   0.367   6.264
 3038SOL    HW110013   5.263   0.457   6.224
 3038SOL    HW210014   5.218   0.303   6.192
 3039SOL     OW10015   0.116   4.433   2.335
 3039SOL    HW110016   0.100   4.521   2.290
 3039SOL    HW210017   0.135   4.363   2.266
 3040SOL     OW10018   3.069   3.554   6.785
 3040SOL    HW110019   2.974   3.582   6.773
 3040SOL    HW210020   3.124   3.590   6.710
 3041SOL     OW10021   1.848   2.243   5.554
 3041SOL    HW110022   1.866   2.145   5.560
 3041SOL    HW210023   1.890   2.281   5.471
 3042SOL     OW10024   5.142   0.185   1.597
 3042SOL    HW110025   5.178   0.261   1.544
 3042SOL    HW210026   5.087   0.219   1.674
 3043SOL     OW10027   0.949   5.466   0.399
 3043SOL    HW110028   1.026   5.525   0.373
 3043SOL    HW210029   0.884   5.460   0.324
 3044SOL     OW10030   3.336   4.253   5.536
 3044SOL    HW110031   3.386   4.176   5.499
 3044SOL    HW210032   3.357   4.335   5.483
 3045SOL     OW10033   4.598   1.750   2.905
 3045SOL    HW110034   4.603   1.651   2.896
 3045SOL    HW210035   4.656   1.793   2.835
 3046SOL     OW10036   1.409   2.944   5.812
 3046SOL    HW110037   1.385   2.889   5.892
 3046SOL    HW210038   1.344   3.020   5.804
 3047SOL     OW10039   6.244   5.352   2.077
 3047SOL    HW110040   6.286   5.267   2.108
 3047SOL    HW210041   6.252   5.421   2.148
 3048SOL     OW10042   3.967   3.668   1.367
 3048SOL    HW110043   3.916   3.606   1.428
 3048SOL    HW210044   4.062   3.674   1.398
 3049SOL     OW10045   1.305   0.177   1.939
 3049SOL    HW110046   1.217   0.185   1.985
 3049SOL    HW210047   1.301   0.226   1.852
 3050SOL     OW10048   3.245   6.051   3.490
 3050SOL    HW110049   3.171   6.097   3.441
 3050SOL    HW210050   3.301   6.000   3.425
 3051SOL     OW10051   2.611   5.281   6.651
 3051SOL    HW110052   2.549   5.210   6.621
 3051SOL    HW210053   2.580   5.370   6.616
 3052SOL     OW10054   3.818   0.438   2.761
 3052SOL    HW110055   3.732   0.481   2.789
 3052SOL    HW210056   3.887   0.508   2.744
 3053SOL     OW10057   6.119   0.603   0.186
 3053SOL    HW110058   6.121   0.673   0.257
 3053SOL    HW210059   6.033   0.609   0.136
 3054SOL     OW10060   0.017   3.502   0.583
 3054SOL    HW110061   6.999   3.453   0.506
 3054SOL    HW210062   0.116   3.495   0.577
 3055SOL     OW10063   5.917   0.255   3.614
 3055SOL    HW110064   5.913   0.235   3.516
 3055SOL    HW210065   5.838   0.310   3.640
 3056SOL     OW10066   6.961   0.390   0.268
 3056SOL    HW110067   6.900   0.463   0.235
 3056SOL    HW210068   0.029   0.405   0.232
 3057SOL     OW10069   6.066   4.657   2.360
 3057SOL    HW110070   6.139   4.660   2.291
 3057SOL    HW210071   6.049   4.562   2.386
 3058SOL     OW10072   6.573   6.086   0.914
 3058SOL    HW110073   6.666   6.108   0.883
 3058SOL    HW210074   6.528   6.027   0.847
 3059SOL     OW10075   0.635   2.794   4.671
 3059SOL    HW110076   0.601   2.876   4.626
 3059SOL    HW210077   0.707   2.818   4.736
 3060SOL     OW10078   0.524   6.687   1.169
 3060SOL    HW110079   0.515   6.638   1.255
 3060SOL    HW210080   0.621   6.689   1.141
 3061SOL     OW10081   0.066   1.059   5.027
 3061SOL    HW110082   0.136   0.989   5.040
 3061SOL    HW210083   0.056   1.113   5.111
 3062SOL     OW10084   2.882   6.609   1.430
 3062SOL    HW110085   2.923   6.641   1.516
 3062SOL    HW210086   2.921   6.520   1.405
 3063SOL     OW10087   1.945   4.715   1.997
 3063SOL    HW110088   1.862   4.668   2.027
 3063SOL    HW210089   2.024   4.657   2.014
 3064SOL     OW10090   6.401   3.804   3.610
 3064SOL    HW110091   6.471   3.735   3.632
 3064SOL    HW210092   6.323   3.794   3.672
 3065SOL     OW10093   1.726   0.481   6.846
 3065SOL    HW110094   1.773   0.508   6.930
 3065SOL    HW210095   1.656   0.549   6.823
 3066SOL     OW10096   5.864   4.546   0.585
 3066SOL    HW110097   5.837   4.455   0.552
 3066SOL    HW210098   5.798   4.614   0.553
 3067SOL     OW10099   4.089   0.602   5.151
 3067SOL    HW110100   4.114   0.627   5.057
 3067SOL    HW210101   4.038   0.516   5.150
 3068SOL     OW10102   6.188   6.415   1.211
 3068SOL    HW110103   6.261   6.347   1.200
 3068SOL    HW210104   6.165   6.453   1.122
 3069SOL     OW10105   0.646   5.789   1.953
 3069SOL    HW110106   0.632   5.846   1.872
 3069SOL    HW210107   0.576   5.811   2.021
 3070SOL     OW10108   1.882   1.380   3.223
 3070SOL    HW110109   1.794   1.424   3.209
 3070SOL    HW210110   1.955   1.448   3.218
 3071SOL     OW10111   6.251   0.168   3.942
 3071SOL    HW110112   6.319   0.240   3.930
 3071SOL    HW210113   6.201   0.183   4.028
 3072SOL     OW10114   0.543   6.053   2.087
 3072SOL    HW110115   0.582   6.010   2.006
 3072SOL    HW210116   0.463   6.108   2.061
 3073SOL     OW10117   0.742   3.045   5.186
 3073SOL    HW110118   0.788   3.043   5.275
 3073SOL    HW210119   0.806   3.016   5.115
 3074SOL     OW10120   4.474   3.411   0.665
 3074SOL    HW110121   4.537   3.486   0.646
 3074SOL    HW210122   4.420   3.392   0.582
 3075SOL     OW10123   2.033   6.364   1.525
 3075SOL    HW110124   1.973   6.400   1.597
 3075SOL    HW210125   1.978   6.311   1.460
 3076SOL     OW10126   6.410   0.643   5.034
 3076SOL    HW110127   6.407   0.713   5.105
 3076SOL    HW210128   6.348   0.669   4.959
 3077SOL     OW10129   6.021   4.514   4.131
 3077SOL    HW110130   5.996   4.434   4.186
 3077SOL    HW210131   6.047   4.589   4.192
 3078SOL     OW10132   1.940   3.962   2.051
 3078SOL    HW110133   1.979   3.997   2.136
 3078SOL    HW210134   2.010   3.911   2.001
 3079SOL     OW10135   0.587   2.529   4.728
 3079SOL    HW110136   0.594   2.629   4.724
 3079SOL    HW210137   0.610   2.498   4.820
 3080SOL     OW10138   5.999   4.893   0.770
 3080SOL    HW110139   6.075   4.831   0.749
 3080SOL    HW210140   5.982   4.892   0.869
 3081SOL     OW10141   0.612   4.186   6.111
 3081SOL    HW110142   0.591   4.173   6.015
 3081SOL    HW210143   0.680   4.259   6.121
 3082SOL     OW10144   3.845   6.739   2.943
 3082SOL    HW110145   3.918   6.763   2.879
 3082SOL    HW210146   3.772   6.691   2.895
 3083SOL     OW10147   3.442   0.634   2.204
 3083SOL    HW110148   3.395   0.715   2.169
 3083SOL    HW210149   3.391   0.552   2.178
 3084SOL     OW10150   4.879   5.359   4.001
 3084SOL    HW110151   4.825   5.287   3.959
 3084SOL    HW210152   4.915   5.327   4.089
 3085SOL     OW10153   6.843   5.331   2.838
 3085SOL    HW110154   6.800   5.419   2.821
 3085SOL    HW210155   6.821   5.300   2.931
 3086SOL     OW10156   4.372   0.891   2.217
 3086SOL    HW110157   4.346   0.955   2.146
 3086SOL    HW210158   4.291   0.846   2.254
 3087SOL     OW10159   6.084   3.651   2.818
 3087SOL    HW110160   6.174   3.609   2.833
 3087SOL    HW210161   6.024   3.631   2.895
 3088SOL     OW10162   2.072   4.399   5.267
 3088SOL    HW110163   2.150   4.445   5.308
 3088SOL    HW210164   2.101   4.312   5.228
 3089SOL     OW10165   1.013   2.506   6.746
 3089SOL    HW110166   0.981   2.518   6.840
 3089SOL    HW210167   0.943   2.539   6.683
 3090SOL     OW10168   2.369   1.938   1.603
 3090SOL    HW110169   2.361   2.035   1.577
 3090SOL    HW210170   2.465   1.914   1.611
 3091SOL     OW10171   2.516   0.129   0.170
 3091SOL    HW110172   2.558   0.153   0.083
 3091SOL    HW210173   2.574   0.062   0.217
 3092SOL     OW10174   6.216   6.565   0.321
 3092SOL    HW110175   6.193   6.622   0.242
 3092SOL    HW210176   6.163   6.596   0.400
 3093SOL     OW10177   6.152   5.282   5.341
 3093SOL    HW110178   6.134   5.219   5.416
 3093SOL    HW210179   6.200   5.234   5.268
 3094SOL     OW10180   3.161   5.379   5.158
 3094SOL    HW110181   3.245   5.429   5.182
 3094SOL    HW210182   3.171   5.340   5.066
 3095SOL     OW10183   2.182   4.726   4.193
 3095SOL    HW110184   2.118   4.667   4.243
 3095SOL    HW210185   2.268   4.731   4.242
 3096SOL     OW10186   6.774   7.023   5.152
 3096SOL    HW110187   6.811   0.065   5.086
 3096SOL    HW210188   6.840   6.950   5.167
 3097SOL     OW10189   0.522   3.190   0.591
 3097SOL    HW110190   0.539   3.096   0.562
 3097SOL    HW210191   0.596   3.249   0.559
 3098SOL     OW10192   2.576   3.805   0.865
 3098SOL    HW110193   2.592   3.878   0.798
 3098SOL    HW210194   2.504   3.833   0.929
 3099SOL     OW10195   0.032   5.841   5.041
 3099SOL    HW110196   0.002   5.935   5.026
 3099SOL    HW210197   0.089   5.838   5.124
 3100SOL     OW10198   6.472   6.327   5.583
 3100SOL    HW110199   6.478   6.320   5.682
 3100SOL    HW210200   6.536   6.262   5.541
 3101SOL     OW10201   4.900   6.163   6.003
 3101SOL    HW110202   4.911   6.259   6.029
 3101SOL    HW210203   4.806   6.133   6.023
 3102SOL     OW10204   1.710   4.337   1.326
 3102SOL    HW110205   1.694   4.436   1.331
 3102SOL    HW210206   1.770   4.309   1.401
 3103SOL     OW10207   3.718   2.475   0.828
 3103SOL    HW110208   3.817   2.486   0.814
 3103SOL    HW210209   3.683   2.553   0.880
 3104SOL     OW10210   5.454   6.479   4.298
 3104SOL    HW110211   5.492   6.441   4.214
 3104SOL    HW210212   5.357   6.455   4.304
 3105SOL     OW10213   5.910   5.872   3.214
 3105SOL    HW110214   5.832   5.932   3.194
 3105SOL    HW210215   5.877   5.787   3.256
 3106SOL     OW10216   6.268   2.537   2.727
 3106SOL    HW110217   6.251   2.636   2.723
 3106SOL    HW210218   6.205   2.490   2.666
 3107SOL     OW10219   3.413   0.775   3.915
 3107SOL    HW110220   3.422   0.693   3.971
 3107SOL    HW210221   3.316   0.795   3.901
 3108SOL     OW10222   1.981   0.640   4.158
 3108SOL    HW110223   1.943   0.562   4.207
 3108SOL    HW210224   1.908   0.689   4.111
 3109SOL     OW10225   5.307   5.927   2.583
 3109SOL    HW110226   5.395   5.942   2.538
 3109SOL    HW210227   5.269   5.839   2.552
 3110SOL     OW10228   0.132   2.945   3.581
 3110SOL    HW110229   0.185   2.881   3.525
 3110SOL    HW210230   0.035   2.940   3.555
 3111SOL     OW10231   6.369   5.173   3.884
 3111SOL    HW110232   6.374   5.251   3.820
 3111SOL    HW210233   6.299   5.192   3.953
 3112SOL     OW10234   4.327   3.613   5.941
 3112SOL    HW110235   4.255   3.605   6.010
 3112SOL    HW210236   4.330   3.530   5.886
 3113SOL     OW10237   2.122   6.842   4.101
 3113SOL    HW110238   2.075   6.877   4.182
 3113SOL    HW210239   2.075   6.760   4.069
 3114SOL     OW10240   4.670   4.101   6.722
 3114SOL    HW110241   4.652   4.163   6.798
 3114SOL    HW210242   4.766   4.106   6.696
 3115SOL     OW10243   3.522   3.842   0.680
 3115SOL    HW110244   3.525   3.845   0.780
 3115SOL    HW210245   3.459   3.913   0.647
 3116SOL     OW10246   5.891   2.574   6.608
 3116SOL    HW110247   5.796   2.550   6.588
 3116SOL    HW210248   5.950   2.539   6.535
 3117SOL     OW10249   4.228   3.532   5.581
 3117SOL    HW110250   4.245   3.529   5.680
 3117SOL    HW210251   4.273   3.453   5.538
 3118SOL     OW10252   6.759   5.011   0.124
 3118SOL    HW110253   6.821   4.934   0.136
 3118SOL    HW210254   6.802   5.094   0.158
 3119SOL     OW10255   1.574   4.496   5.273
 3119SOL    HW110256   1.671   4.515   5.258
 3119SOL    HW210257   1.520   4.539   5.200
 3120SOL     OW10258   2.189   5.375   4.647
 3120SOL    HW110259   2.161   5.438   4.574
 3120SOL    HW210260   2.285   5.351   4.635
 3121SOL     OW10261   6.861   1.420   2.402
 3121SOL    HW110262   6.904   1.399   2.490
 3121SOL    HW210263   6.862   1.338   2.344
 3122SOL     OW10264   2.375   5.211   6.370
 3122SOL    HW110265   2.462   5.162   6.370
 3122SOL    HW210266   2.336   5.209   6.462
 3123SOL     OW10267   3.587   6.671   4.204
 3123SOL    HW110268   3.582   6.603   4.130
 3123SOL    HW210269   3.599   6.762   4.165
 3124SOL     OW10270   4.789   0.825   5.297
 3124SOL    HW110271   4.770   0.923   5.295
 3124SOL    HW210272   4.705   0.774   5.315
 3125SOL     OW10273   6.284   1.914   5.486
 3125SOL    HW110274   6.352   1.983   5.507
 3125SOL    HW210275   6.225   1.900   5.565
 3126SOL     OW10276   4.659   5.074   5.858
 3126SOL    HW110277   4.727   5.045   5.925
 3126SOL    HW210278   4.587   5.004   5.852
 3127SOL     OW10279   1.437   1.631   4.037
 3127SOL    HW110280   1.380   1.668   3.963
 3127SOL    HW210281   1.534   1.641   4.014
 3128SOL     OW10282   2.304   1.269   0.575
 3128SOL    HW110283   2.345   1.184   0.542
 3128SOL    HW210284   2.341   1.346   0.523
 3129SOL     OW10285   0.017   4.561   5.143
 3129SOL    HW110286   0.013   4.511   5.230
 3129SOL    HW210287   6.956   4.545   5.092
 3130SOL     OW10288   2.302   4.760   2.682
 3130SOL    HW110289   2.340   4.676   2.643
 3130SOL    HW210290   2.217   4.740   2.730
 3131SOL     OW10291   0.158   3.751   2.666
 3131SOL    HW110292   0.077   3.747   2.724
 3131SOL    HW210293   0.131   3.772   2.572
 3132SOL     OW10294   5.590   6.052   6.176
 3132SOL    HW110295   5.584   5.960   6.215
 3132SOL    HW210296   5.521   6.061   6.103
 3133SOL     OW10297   2.322   1.574   3.671
 3133SOL    HW110298   2.384   1.568   3.749
 3133SOL    HW210299   2.240   1.519   3.689
 3134SOL     OW10300   5.010   2.905   1.585
 3134SOL    HW110301   5.024   2.922   1.683
 3134SOL    HW210302   5.089   2.855   1.549
 3135SOL     OW10303   4.190   2.004   3.970
 3135SOL    HW110304   4.190   1.904   3.965
 3135SOL    HW210305   4.115   2.034   4.030
 3136SOL     OW10306   5.900   5.472   5.980
 3136SOL    HW110307   5.854   5.399   6.031
 3136SOL    HW210308   5.996   5.477   6.008
 3137SOL     OW10309   5.464   2.338   4.348
 3137SOL    HW110310   5.505   2.429   4.346
 3137SOL    HW210311   5.443   2.309   4.254
 3138SOL     OW10312   6.338   1.566   4.649
 3138SOL    HW110313   6.370   1.471   4.658
 3138SOL    HW210314   6.249   1.566   4.604
 3139SOL     OW10315   4.884   6.101   5.617
 3139SOL    HW110316   4.795   6.126   5.655
 3139SOL    HW210317   4.932   6.183   5.587
 3140SOL     OW10318   6.563   6.373   6.666
 3140SOL    HW110319   6.626   6.365   6.588
 3140SOL    HW210320   6.576   6.462   6.709
 3141SOL     OW10321   1.102   6.062   0.595
 3141SOL    HW110322   1.148   6.017   0.672
 3141SOL    HW210323   1.131   6.020   0.509
 3142SOL     OW10324   4.887   6.479   6.793
 3142SOL    HW110325   4.909   6.474   6.891
 3142SOL    HW210326   4.814   6.413   6.772
 3143SOL     OW10327   0.246   2.107   6.582
 3143SOL    HW110328   0.285   2.198   6.593
 3143SOL    HW210329   0.147   2.112   6.588
 3144SOL     OW10330   1.836   3.500   7.012
 3144SOL    HW110331   1.824   3.412   6.966
 3144SOL    HW210332   1.748   3.547   7.016
 3145SOL     OW10333   2.791   5.440   2.918
 3145SOL    HW110334   2.770   5.396   3.005
 3145SOL    HW210335   2.707   5.481   2.880
 3146SOL     OW10336   1.305   0.463   3.245
 3146SOL    HW110337   1.320   0.394   3.174
 3146SOL    HW210338   1.207   0.476   3.257
 3147SOL     OW10339   4.333   3.911   0.402
 3147SOL    HW110340   4.365   3.992   0.451
 3147SOL    HW210341   4.234   3.903   0.413
 3148SOL     OW10342   4.077   5.333   4.300
 3148SOL    HW110343   4.019   5.251   4.297
 3148SOL    HW210344   4.095   5.365   4.207
 3149SOL     OW10345   3.070   0.368   5.659
 3149SOL    HW110346   2.998   0.355   5.590
 3149SOL    HW210347   3.142   0.427   5.622
 3150SOL     OW10348   5.492   6.808   4.879
 3150SOL    HW110349   5.404   6.855   4.871
 3150SOL    HW210350   5.496   6.733   4.814
 3151SOL     OW10351   4.782   1.682   6.381
 3151SOL    HW110352   4.729   1.636   6.310
 3151SOL    HW210353   4.831   1.759   6.341
 3152SOL     OW10354   0.722   5.539   1.513
 3152SOL    HW110355   0.634   5.577   1.541
 3152SOL    HW210356   0.796   5.594   1.552
 3153SOL     OW10357   5.943   4.093   1.976
 3153SOL    HW110358   5.999   4.155   2.031
 3153SOL    HW210359   5.859   4.071   2.026
 3154SOL     OW10360   6.104   2.550   5.755
 3154SOL    HW110361   6.166   2.624   5.729
 3154SOL    HW210362   6.053   2.578   5.836
 3155SOL     OW10363   6.106   5.509   0.677
 3155SOL    HW110364   6.065   5.490   0.767
 3155SOL    HW210365   6.033   5.531   0.612
 3156SOL     OW10366   3.453   3.916   3.177
 3156SOL    HW110367   3.416   3.835   3.222
 3156SOL    HW210368   3.379   3.965   3.132
 3157SOL     OW10369   2.125   3.505   4.705
 3157SOL    HW110370   2.039   3.469   4.743
 3157SOL    HW210371   2.175   3.552   4.777
 3158SOL     OW10372   5.093   6.499   1.595
 3158SOL    HW110373   5.179   6.472   1.639
 3158SOL    HW210374   5.086   6.452   1.506
 3159SOL     OW10375   4.417   5.908   6.828
 3159SOL    HW110376   4.469   5.902   6.914
 3159SOL    HW210377   4.393   5.816   6.798
 3160SOL     OW10378   4.896   3.922   6.325
 3160SOL    HW110379   4.827   3.856   6.294
 3160SOL    HW210380   4.850   4.003   6.362
 3161SOL     OW10381   1.532   0.647   2.886
 3161SOL    HW110382   1.506   0.568   2.831
 3161SOL    HW210383   1.595   0.618   2.958
 3162SOL     OW10384   0.505   5.309   6.458
 3162SOL    HW110385   0.509   5.395   6.510
 3162SOL    HW210386   0.481   5.234   6.520
 3163SOL     OW10387   3.934   3.219   6.684
 3163SOL    HW110388   3.876   3.276   6.742
 3163SOL    HW210389   4.012   3.273   6.651
 3164SOL     OW10390   5.211   3.751   0.295
 3164SOL    HW110391   5.145   3.787   0.361
 3164SOL    HW210392   5.161   3.705   0.221
 3165SOL     OW10393   0.876   0.474   2.041
 3165SOL    HW110394   0.958   0.488   2.097
 3165SOL    HW210395   0.869   0.547   1.973
 3166SOL     OW10396   4.419   3.689   6.218
 3166SOL    HW110397   4.360   3.769   6.217
 3166SOL    HW210398   4.414   3.643   6.129
 3167SOL     OW10399   0.566   4.552   1.279
 3167SOL    HW110400   0.616   4.596   1.205
 3167SOL    HW210401   0.533   4.462   1.249
 3168SOL     OW10402   5.667   3.141   0.664
 3168SOL    HW110403   5.587   3.107   0.616
 3168SOL    HW210404   5.640   3.212   0.729
 3169SOL     OW10405   0.970   2.407   5.099
 3169SOL    HW110406   1.018   2.474   5.155
 3169SOL    HW210407   0.962   2.321   5.149
 3170SOL     OW10408   4.246   0.926   6.842
 3170SOL    HW110409   4.323   0.862   6.846
 3170SOL    HW210410   4.166   0.879   6.804
 3171SOL     OW10411   6.222   6.830   2.728
 3171SOL    HW110412   6.199   6.752   2.786
 3171SOL    HW210413   6.218   6.803   2.632
 3172SOL     OW10414   6.028   6.652   5.358
 3172SOL    HW110415   6.062   6.558   5.361
 3172SOL    HW210416   6.024   6.689   5.451
 3173SOL     OW10417   2.115   0.762   1.900
 3173SOL    HW110418   2.101   0.851   1.855
 3173SOL    HW210419   2.102   0.689   1.833
 3174SOL     OW10420   2.881   2.866   6.249
 3174SOL    HW110421   2.977   2.854   6.272
 3174SOL    HW210422   2.824   2.837   6.326
 3175SOL     OW10423   1.382   6.250   0.626
 3175SOL    HW110424   1.387   6.230   0.528
 3175SOL    HW210425   1.415   6.343   0.643
 3176SOL     OW10426   1.577   4.072   6.801
 3176SOL    HW110427   1.651   4.015   6.839
 3176SOL    HW210428   1.548   4.035   6.713
 3177SOL     OW10429   5.324   5.303   5.941
 3177SOL    HW110430   5.418   5.314   5.909
 3177SOL    HW210431   5.294   5.208   5.926
 3178SOL     OW10432   0.406   4.315   1.575
 3178SOL    HW110433   0.419   4.252   1.499
 3178SOL    HW210434   0.310   4.312   1.604
 3179SOL     OW10435   1.661   1.734   2.333
 3179SOL    HW110436   1.648   1.662   2.265
 3179SOL    HW210437   1.580   1.792   2.338
 3180SOL     OW10438   5.709   0.268   5.793
 3180SOL    HW110439   5.705   0.170   5.815
 3180SOL    HW210440   5.799   0.290   5.756
 3181SOL     OW10441   0.959   0.431   3.581
 3181SOL    HW110442   1.042   0.444   3.635
 3181SOL    HW210443   0.966   0.487   3.497
 3182SOL     OW10444   1.305   5.744   5.470
 3182SOL    HW110445   1.401   5.744   5.498
 3182SOL    HW210446   1.290   5.672   5.402
 3183SOL     OW10447   4.452   4.346   1.079
 3183SOL    HW110448   4.500   4.383   1.159
 3183SOL    HW210449   4.481   4.252   1.063
 3184SOL     OW10450   2.847   1.884   2.274
 3184SOL    HW110451   2.852   1.789   2.243
 3184SOL    HW210452   2.816   1.942   2.199
 3185SOL     OW10453   6.606   6.925   5.740
 3185SOL    HW110454   6.656   6.848   5.700
 3185SOL    HW210455   6.656   6.960   5.819
 3186SOL     OW10456   3.193   1.560   2.789
 3186SOL    HW110457   3.178   1.496   2.865
 3186SOL    HW210458   3.178   1.513   2.703
 3187SOL     OW10459   3.305   4.843   0.391
 3187SOL    HW110460   3.241   4.908   0.432
 3187SOL    HW210461   3.363   4.804   0.463
 3188SOL     OW10462   4.085   6.137   3.714
 3188SOL    HW110463   4.064   6.040   3.703
 3188SOL    HW210464   4.000   6.190   3.716
 3189SOL     OW10465   1.904   6.924   3.269
 3189SOL    HW110466   1.856   6.965   3.346
 3189SOL    HW210467   1.961   6.993   3.224
 3190SOL     OW10468   1.758   6.147   2.786
 3190SOL    HW110469   1.727   6.224   2.730
 3190SOL    HW210470   1.846   6.170   2.828
 3191SOL     OW10471   3.708   0.434   0.909
 3191SOL    HW110472   3.615   0.401   0.898
 3191SOL    HW210473   3.719   0.474   1.000
 3192SOL     OW10474   0.296   2.612   2.117
 3192SOL    HW110475   0.255   2.685   2.171
 3192SOL    HW210476   0.387   2.592   2.152
 3193SOL     OW10477   4.534   2.604   5.454
 3193SOL    HW110478   4.525   2.679   5.388
 3193SOL    HW210479   4.548   2.642   5.545
 3194SOL     OW10480   1.194   3.136   5.833
 3194SOL    HW110481   1.145   3.222   5.847
 3194SOL    HW210482   1.141   3.061   5.872
 3195SOL     OW10483   0.731   2.825   3.780
 3195SOL    HW110484   0.726   2.763   3.702
 3195SOL    HW210485   0.745   2.773   3.864
 3196SOL     OW10486   6.922   6.789   5.137
 3196SOL    HW110487   7.007   6.765   5.091
 3196SOL    HW210488   6.855   6.716   5.123
 3197SOL     OW10489   1.339   4.413   3.845
 3197SOL    HW110490   1.245   4.387   3.867
 3197SOL    HW210491   1.402   4.344   3.882
 3198SOL     OW10492   0.550   2.497   5.978
 3198SOL    HW110493   0.617   2.452   6.038
 3198SOL    HW210494   0.576   2.482   5.883
 3199SOL     OW10495   4.916   2.018   1.953
 3199SOL    HW110496   4.902   1.927   1.916
 3199SOL    HW210497   4.883   2.087   1.888
 3200SOL     OW10498   6.584   2.307   7.018
 3200SOL    HW110499   6.547   2.385   0.045
 3200SOL    HW210500   6.530   2.226   0.014
 3201SOL     OW10501   4.910   4.602   4.006
 3201SOL    HW110502   4.919   4.644   3.916
 3201SOL    HW210503   4.972   4.524   4.014
 3202SOL     OW10504   1.885   4.951   2.162
 3202SOL    HW110505   1.785   4.954   2.151
 3202SOL    HW210506   1.921   4.873   2.111
 3203SOL     OW10507   6.726   0.584   1.039
 3203SOL    HW110508   6.783   0.507   1.011
 3203SOL    HW210509   6.632   0.569   1.007
 3204SOL     OW10510   7.001   5.629   1.669
 3204SOL    HW110511   0.012   5.598   1.758
 3204SOL    HW210512   0.025   5.580   1.596
 3205SOL     OW10513   0.370   3.617   4.486
 3205SOL    HW110514   0.342   3.615   4.389
 3205SOL    HW210515   0.468   3.602   4.492
 3206SOL     OW10516   0.957   6.477   6.027
 3206SOL    HW110517   0.995   6.487   6.119
 3206SOL    HW210518   1.029   6.444   5.965
 3207SOL     OW10519   0.431   0.809   4.930
 3207SOL    HW110520   0.347   0.785   4.979
 3207SOL    HW210521   0.426   0.905   4.902
 3208SOL     OW10522   4.860   6.250   4.926
 3208SOL    HW110523   4.934   6.210   4.874
 3208SOL    HW210524   4.773   6.231   4.881
 3209SOL     OW10525   2.357   0.485   4.176
 3209SOL    HW110526   2.278   0.425   4.168
 3209SOL    HW210527   2.439   0.431   4.196
 3210SOL     OW10528   6.428   4.540   2.571
 3210SOL    HW110529   6.418   4.627   2.522
 3210SOL    HW210530   6.482   4.556   2.654
 3211SOL     OW10531   1.717   4.515   2.066
 3211SOL    HW110532   1.696   4.527   2.163
 3211SOL    HW210533   1.795   4.452   2.057
 3212SOL     OW10534   5.416   1.904   6.889
 3212SOL    HW110535   5.506   1.923   6.851
 3212SOL    HW210536   5.352   1.975   6.859
 3213SOL     OW10537   6.189   6.268   2.045
 3213SOL    HW110538   6.242   6.201   2.097
 3213SOL    HW210539   6.092   6.242   2.045
 3214SOL     OW10540   3.763   5.449   6.435
 3214SOL    HW110541   3.845   5.501   6.455
 3214SOL    HW210542   3.685   5.510   6.426
 3215SOL     OW10543   5.724   1.826   6.869
 3215SOL    HW110544   5.723   1.908   6.926
 3215SOL    HW210545   5.733   1.745   6.927
 3216SOL     OW10546   5.790   6.967   3.204
 3216SOL    HW110547   5.691   6.977   3.209
 3216SOL    HW210548   5.823   7.003   3.116
 3217SOL     OW10549   6.744   4.444   2.161
 3217SOL    HW110550   6.761   4.496   2.078
 3217SOL    HW210551   6.656   4.397   2.155
 3218SOL     OW10552   3.754   0.995   3.826
 3218SOL    HW110553   3.670   1.005   3.880
 3218SOL    HW210554   3.752   0.907   3.778
 3219SOL     OW10555   6.445   0.995   3.915
 3219SOL    HW110556   6.458   0.951   3.827
 3219SOL    HW210557   6.411   1.088   3.901
 3220SOL     OW10558   6.658   4.440   5.849
 3220SOL    HW110559   6.611   4.523   5.821
 3220SOL    HW210560   6.605   4.393   5.919
 3221SOL     OW10561   2.980   6.758   3.591
 3221SOL    HW110562   2.891   6.803   3.588
 3221SOL    HW210563   3.018   6.754   3.498
 3222SOL     OW10564   5.992   2.436   3.188
 3222SOL    HW110565   5.937   2.494   3.128
 3222SOL    HW210566   5.936   2.360   3.221
 3223SOL     OW10567   2.051   4.804   5.471
 3223SOL    HW110568   2.074   4.731   5.536
 3223SOL    HW210569   2.123   4.812   5.403
 3224SOL     OW10570   4.046   4.861   0.553
 3224SOL    HW110571   4.095   4.932   0.503
 3224SOL    HW210572   4.111   4.805   0.604
 3225SOL     OW10573   2.275   3.509   0.573
 3225SOL    HW110574   2.323   3.461   0.500
 3225SOL    HW210575   2.336   3.576   0.615
 3226SOL     OW10576   1.135   0.656   3.728
 3226SOL    HW110577   1.158   0.567   3.765
 3226SOL    HW210578   1.211   0.689   3.671
 3227SOL     OW10579   3.423   1.266   5.558
 3227SOL    HW110580   3.433   1.247   5.656
 3227SOL    HW210581   3.491   1.333   5.530
 3228SOL     OW10582   5.566   4.012   4.412
 3228SOL    HW110583   5.481   3.960   4.409
 3228SOL    HW210584   5.643   3.951   4.394
 3229SOL     OW10585   3.967   1.589   5.650
 3229SOL    HW110586   3.999   1.498   5.623
 3229SOL    HW210587   4.040   1.655   5.634
 3230SOL     OW10588   1.412   0.248   3.696
 3230SOL    HW110589   1.468   0.330   3.683
 3230SOL    HW210590   1.412   0.194   3.611
 3231SOL     OW10591   5.906   6.130   0.776
 3231SOL    HW110592   5.828   6.080   0.814
 3231SOL    HW210593   5.908   6.120   0.677
 3232SOL     OW10594   2.520   4.885   4.016
 3232SOL    HW110595   2.511   4.849   3.923
 3232SOL    HW210596   2.593   4.953   4.019
 3233SOL     OW10597   0.738   4.019   1.548
 3233SOL    HW110598   0.742   3.931   1.595
 3233SOL    HW210599   0.789   4.087   1.600
 3234SOL     OW10600   0.511   1.846   5.764
 3234SOL    HW110601   0.549   1.898   5.688
 3234SOL    HW210602   0.566   1.862   5.846
 3235SOL     OW10603   5.372   6.655   2.684
 3235SOL    HW110604   5.370   6.691   2.590
 3235SOL    HW210605   5.313   6.575   2.691
 3236SOL     OW10606   0.440   3.073   1.975
 3236SOL    HW110607   0.434   3.172   1.967
 3236SOL    HW210608   0.475   3.048   2.065
 3237SOL     OW10609   3.028   0.490   4.245
 3237SOL    HW110610   2.988   0.441   4.323
 3237SOL    HW210611   3.037   0.427   4.167
 3238SOL     OW10612   0.347   5.978   6.427
 3238SOL    HW110613   0.314   5.961   6.520
 3238SOL    HW210614   0.447   5.973   6.426
 3239SOL     OW10615   6.252   6.822   5.324
 3239SOL    HW110616   6.342   6.786   5.348
 3239SOL    HW210617   6.184   6.749   5.329
 3240SOL     OW10618   1.442   0.604   4.497
 3240SOL    HW110619   1.539   0.599   4.473
 3240SOL    HW210620   1.407   0.511   4.515
 3241SOL     OW10621   5.252   0.869   3.554
 3241SOL    HW110622   5.199   0.784   3.545
 3241SOL    HW210623   5.298   0.889   3.468
 3242SOL     OW10624   3.818   0.076   0.189
 3242SOL    HW110625   3.863   7.012   0.173
 3242SOL    HW210626   3.732   0.080   0.138
 3243SOL     OW10627   3.649   5.127   0.954
 3243SOL    HW110628   3.639   5.219   0.991
 3243SOL    HW210629   3.726   5.125   0.890
 3244SOL     OW10630   3.001   6.127   6.478
 3244SOL    HW110631   2.938   6.065   6.430
 3244SOL    HW210632   2.961   6.153   6.566
 3245SOL     OW10633   3.459   2.456   6.515
 3245SOL    HW110634   3.498   2.519   6.582
 3245SOL    HW210635   3.452   2.365   6.556
 3246SOL     OW10636   5.533   6.238   3.183
 3246SOL    HW110637   5.452   6.186   3.209
 3246SOL    HW210638   5.514   6.336   3.192
 3247SOL     OW10639   0.909   2.418   4.385
 3247SOL    HW110640   0.917   2.491   4.317
 3247SOL    HW210641   0.868   2.455   4.469
 3248SOL     OW10642   6.446   3.458   2.148
 3248SOL    HW110643   6.369   3.417   2.099
 3248SOL    HW210644   6.417   3.484   2.240
 3249SOL     OW10645   1.851   4.210   5.090
 3249SOL    HW110646   1.888   4.267   5.017
 3249SOL    HW210647   1.917   4.138   5.113
 3250SOL     OW10648   4.838   6.576   2.208
 3250SOL    HW110649   4.929   6.547   2.179
 3250SOL    HW210650   4.814   6.530   2.294
 3251SOL     OW10651   3.409   1.137   3.004
 3251SOL    HW110652   3.480   1.128   2.934
 3251SOL    HW210653   3.382   1.047   3.037
 3252SOL     OW10654   2.885   1.487   2.872
 3252SOL    HW110655   2.963   1.488   2.935
 3252SOL    HW210656   2.887   1.405   2.816
 3253SOL     OW10657   4.896   3.301   1.302
 3253SOL    HW110658   4.939   3.390   1.287
 3253SOL    HW210659   4.822   3.309   1.368
 3254SOL     OW10660   5.213   4.138   3.029
 3254SOL    HW110661   5.284   4.089   3.080
 3254SOL    HW210662   5.144   4.173   3.093
 3255SOL     OW10663   4.342   5.319   0.382
 3255SOL    HW110664   4.329   5.310   0.480
 3255SOL    HW210665   4.396   5.242   0.348
 3256SOL     OW10666   5.978   6.110   5.497
 3256SOL    HW110667   6.075   6.130   5.512
 3256SOL    HW210668   5.930   6.112   5.584
 3257SOL     OW10669   1.612   2.655   1.041
 3257SOL    HW110670   1.684   2.591   1.015
 3257SOL    HW210671   1.654   2.743   1.067
 3258SOL     OW10672   5.525   6.903   2.089
 3258SOL    HW110673   5.537   6.830   2.156
 3258SOL    HW210674   5.605   6.964   2.092
 3259SOL     OW10675   4.327   0.119   4.028
 3259SOL    HW110676   4.400   0.105   3.960
 3259SOL    HW210677   4.238   0.108   3.984
 3260SOL     OW10678   1.416   2.378   0.286
 3260SOL    HW110679   1.514   2.362   0.289
 3260SOL    HW210680   1.373   2.342   0.369
 3261SOL     OW10681   4.116   0.085   1.846
 3261SOL    HW110682   4.149   0.006   1.896
 3261SOL    HW210683   4.107   0.163   1.909
 3262SOL     OW10684   4.192   1.801   3.108
 3262SOL    HW110685   4.111   1.742   3.108
 3262SOL    HW210686   4.188   1.865   3.032
 3263SOL     OW10687   3.738   6.456   1.413
 3263SOL    HW110688   3.790   6.409   1.485
 3263SOL    HW210689   3.688   6.532   1.453
 3264SOL     OW10690   5.178   5.078   6.612
 3264SOL    HW110691   5.113   5.028   6.554
 3264SOL    HW210692   5.129   5.126   6.684
 3265SOL     OW10693   4.999   0.667   6.174
 3265SOL    HW110694   4.980   0.650   6.271
 3265SOL    HW210695   4.950   0.599   6.118
 3266SOL     OW10696   1.113   1.664   6.347
 3266SOL    HW110697   1.206   1.697   6.329
 3266SOL    HW210698   1.102   1.574   6.306
 3267SOL     OW10699   3.198   2.652   1.166
 3267SOL    HW110700   3.136   2.683   1.238
 3267SOL    HW210701   3.238   2.731   1.120
 3268SOL     OW10702   0.885   4.251   6.294
 3268SOL    HW110703   0.886   4.152   6.277
 3268SOL    HW210704   0.884   4.268   6.392
 3269SOL     OW10705   4.416   3.628   1.240
 3269SOL    HW110706   4.496   3.583   1.200
 3269SOL    HW210707   4.369   3.681   1.169
 3270SOL     OW10708   1.343   6.291   4.646
 3270SOL    HW110709   1.332   6.210   4.705
 3270SOL    HW210710   1.327   6.264   4.551
 3271SOL     OW10711   6.014   1.747   1.238
 3271SOL    HW110712   6.042   1.820   1.175
 3271SOL    HW210713   6.095   1.713   1.286
 3272SOL     OW10714   4.935   0.460   0.482
 3272SOL    HW110715   5.008   0.400   0.451
 3272SOL    HW210716   4.847   0.414   0.472
 3273SOL     OW10717   6.950   6.429   2.596
 3273SOL    HW110718   6.875   6.389   2.544
 3273SOL    HW210719   6.914   6.472   2.679
 3274SOL     OW10720   3.365   2.194   6.044
 3274SOL    HW110721   3.362   2.168   5.947
 3274SOL    HW210722   3.345   2.113   6.100
 3275SOL     OW10723   2.979   1.193   6.147
 3275SOL    HW110724   3.038   1.139   6.087
 3275SOL    HW210725   2.886   1.159   6.141
 3276SOL     OW10726   3.107   6.389   0.145
 3276SOL    HW110727   3.185   6.390   0.082
 3276SOL    HW210728   3.054   6.473   0.134
 3277SOL     OW10729   0.141   6.464   5.155
 3277SOL    HW110730   0.234   6.499   5.145
 3277SOL    HW210731   0.115   6.466   5.251
 3278SOL     OW10732   1.173   0.683   6.400
 3278SOL    HW110733   1.167   0.591   6.361
 3278SOL    HW210734   1.125   0.747   6.340
 3279SOL     OW10735   1.293   6.943   1.346
 3279SOL    HW110736   1.238   6.925   1.264
 3279SOL    HW210737   1.246   6.906   1.426
 3280SOL     OW10738   1.893   4.507   6.501
 3280SOL    HW110739   1.944   4.587   6.472
 3280SOL    HW210740   1.957   4.434   6.525
 3281SOL     OW10741   2.420   5.495   0.820
 3281SOL    HW110742   2.431   5.550   0.737
 3281SOL    HW210743   2.392   5.403   0.794
 3282SOL     OW10744   2.248   5.397   2.620
 3282SOL    HW110745   2.221   5.376   2.715
 3282SOL    HW210746   2.238   5.315   2.564
 3283SOL     OW10747   2.085   0.563   3.568
 3283SOL    HW110748   2.001   0.508   3.567
 3283SOL    HW210749   2.159   0.511   3.525
 3284SOL     OW10750   6.595   3.705   6.983
 3284SOL    HW110751   6.558   3.637   0.023
 3284SOL    HW210752   6.562   3.686   6.891
 3285SOL     OW10753   0.715   1.485   3.799
 3285SOL    HW110754   0.733   1.411   3.864
 3285SOL    HW210755   0.681   1.565   3.848
 3286SOL     OW10756   3.487   3.733   5.109
 3286SOL    HW110757   3.468   3.815   5.163
 3286SOL    HW210758   3.460   3.749   5.014
 3287SOL     OW10759   1.376   5.320   1.090
 3287SOL    HW110760   1.417   5.244   1.039
 3287SOL    HW210761   1.448   5.386   1.114
 3288SOL     OW10762   0.273   6.252   6.523
 3288SOL    HW110763   0.253   6.154   6.518
 3288SOL    HW210764   0.271   6.291   6.431
 3289SOL     OW10765   1.912   5.982   4.376
 3289SOL    HW110766   1.865   6.033   4.449
 3289SOL    HW210767   1.902   5.884   4.393
 3290SOL     OW10768   6.655   5.000   1.452
 3290SOL    HW110769   6.596   4.932   1.408
 3290SOL    HW210770   6.679   4.968   1.544
 3291SOL     OW10771   1.618   6.442   1.098
 3291SOL    HW110772   1.552   6.511   1.128
 3291SOL    HW210773   1.597   6.354   1.140
 3292SOL     OW10774   0.553   6.103   6.564
 3292SOL    HW110775   0.637   6.153   6.541
 3292SOL    HW210776   0.477   6.168   6.571
 3293SOL     OW10777   0.025   0.989   2.691
 3293SOL    HW110778   7.004   1.074   2.720
 3293SOL    HW210779   0.106   1.010   2.637
 3294SOL     OW10780   0.658   0.828   0.396
 3294SOL    HW110781   0.603   0.910   0.379
 3294SOL    HW210782   0.606   0.765   0.453
 3295SOL     OW10783   1.328   2.719   6.809
 3295SOL    HW110784   1.293   2.682   6.895
 3295SOL    HW210785   1.257   2.777   6.767
 3296SOL     OW10786   1.455   6.574   2.487
 3296SOL    HW110787   1.493   6.634   2.557
 3296SOL    HW210788   1.379   6.522   2.527
 3297SOL     OW10789   3.380   2.564   6.801
 3297SOL    HW110790   3.392   2.468   6.826
 3297SOL    HW210791   3.283   2.587   6.802
 3298SOL     OW10792   6.346   3.513   2.874
 3298SOL    HW110793   6.365   3.493   2.970
 3298SOL    HW210794   6.388   3.444   2.816
 3299SOL     OW10795   2.015   6.780   5.386
 3299SOL    HW110796   2.010   6.715   5.462
 3299SOL    HW210797   2.034   6.730   5.301
 3300SOL     OW10798   6.604   0.024   5.352
 3300SOL    HW110799   6.666   0.019   5.431
 3300SOL    HW210800   6.658   0.027   5.268
 3301SOL     OW10801   0.712   3.611   3.176
 3301SOL    HW110802   0.661   3.548   3.234
 3301SOL    HW210803   0.778   3.661   3.231
 3302SOL     OW10804   1.055   4.059   4.003
 3302SOL    HW110805   1.015   3.981   3.957
 3302SOL    HW210806   1.140   4.086   3.958
 3303SOL     OW10807   4.080   3.841   2.803
 3303SOL    HW110808   4.067   3.757   2.751
 3303SOL    HW210809   4.077   3.919   2.741
 3304SOL     OW10810   0.309   6.052   4.355
 3304SOL    HW110811   0.270   6.091   4.272
 3304SOL    HW210812   0.239   6.051   4.427
 3305SOL     OW10813   1.681   1.052   2.407
 3305SOL    HW110814   1.692   0.956   2.383
 3305SOL    HW210815   1.723   1.069   2.496
 3306SOL     OW10816   1.101   4.147   3.653
 3306SOL    HW110817   1.134   4.233   3.613
 3306SOL    HW210818   1.149   4.130   3.739
 3307SOL     OW10819   0.549   5.836   6.672
 3307SOL    HW110820   0.561   5.921   6.620
 3307SOL    HW210821   0.465   5.842   6.726
 3308SOL     OW10822   4.703   5.964   0.683
 3308SOL    HW110823   4.607   5.956   0.657
 3308SOL    HW210824   4.718   6.050   0.731
 3309SOL     OW10825   6.563   5.209   3.151
 3309SOL    HW110826   6.505   5.160   3.216
 3309SOL    HW210827   6.509   5.280   3.106
 3310SOL     OW10828   1.250   5.897   1.743
 3310SOL    HW110829   1.173   5.856   1.694
 3310SOL    HW210830   1.269   5.987   1.704
 3311SOL     OW10831   4.530   6.451   1.290
 3311SOL    HW110832   4.562   6.463   1.197
 3311SOL    HW210833   4.558   6.361   1.324
 3312SOL     OW10834   3.022   3.713   0.144
 3312SOL    HW110835   3.106   3.679   0.102
 3312SOL    HW210836   3.020   3.688   0.241
 3313SOL     OW10837   6.625   5.819   3.827
 3313SOL    HW110838   6.697   5.759   3.862
 3313SOL    HW210839   6.611   5.895   3.891
 3314SOL     OW10840   1.049   3.628   5.159
 3314SOL    HW110841   1.034   3.727   5.152
 3314SOL    HW210842   1.140   3.605   5.124
 3315SOL     OW10843   6.775   1.797   3.317
 3315SOL    HW110844   6.853   1.854   3.343
 3315SOL    HW210845   6.806   1.725   3.254
 3316SOL     OW10846   4.503   1.481   0.217
 3316SOL    HW110847   4.478   1.577   0.232
 3316SOL    HW210848   4.585   1.459   0.270
 3317SOL     OW10849   4.044   2.525   1.487
 3317SOL    HW110850   3.957   2.477   1.473
 3317SOL    HW210851   4.043   2.611   1.437
 3318SOL     OW10852   2.293   5.799   5.640
 3318SOL    HW110853   2.299   5.762   5.733
 3318SOL    HW210854   2.349   5.744   5.578
 3319SOL     OW10855   0.985   5.615   5.278
 3319SOL    HW110856   1.073   5.577   5.249
 3319SOL    HW210857   0.935   5.647   5.198
 3320SOL     OW10858   0.188   0.733   6.292
 3320SOL    HW110859   0.201   0.665   6.220
 3320SOL    HW210860   0.211   0.693   6.381
 3321SOL     OW10861   3.249   4.080   3.052
 3321SOL    HW110862   3.307   4.102   2.974
 3321SOL    HW210863   3.175   4.019   3.023
 3322SOL     OW10864   4.402   1.829   0.779
 3322SOL    HW110865   4.362   1.748   0.822
 3322SOL    HW210866   4.363   1.841   0.688
 3323SOL     OW10867   2.559   4.901   0.107
 3323SOL    HW110868   2.504   4.985   0.107
 3323SOL    HW210869   2.655   4.923   0.124
 3324SOL     OW10870   0.439   1.961   0.895
 3324SOL    HW110871   0.536   1.939   0.886
 3324SOL    HW210872   0.427   2.025   0.972
 3325SOL     OW10873   1.820   3.044   0.416
 3325SOL    HW110874   1.778   3.133   0.433
 3325SOL    HW210875   1.748   2.975   0.409
 3326SOL     OW10876   6.347   1.509   1.252
 3326SOL    HW110877   6.443   1.521   1.229
 3326SOL    HW210878   6.330   1.413   1.273
 3327SOL     OW10879   3.436   6.455   2.475
 3327SOL    HW110880   3.436   6.433   2.572
 3327SOL    HW210881   3.530   6.456   2.441
 3328SOL     OW10882   4.445   0.867   2.820
 3328SOL    HW110883   4.425   0.960   2.789
 3328SOL    HW210884   4.448   0.805   2.741
 3329SOL     OW10885   5.013   0.259   5.375
 3329SOL    HW110886   5.076   0.185   5.354
 3329SOL    HW210887   5.017   0.280   5.473
 3330SOL     OW10888   6.866   5.671   2.397
 3330SOL    HW110889   6.770   5.700   2.388
 3330SOL    HW210890   6.875   5.576   2.366
 3331SOL     OW10891   2.067   3.254   3.241
 3331SOL    HW110892   2.100   3.180   3.183
 3331SOL    HW210893   1.980   3.228   3.282
 3332SOL     OW10894   3.985   5.320   1.462
 3332SOL    HW110895   4.062   5.366   1.505
 3332SOL    HW210896   3.911   5.385   1.448
 3333SOL     OW10897   2.758   3.113   1.785
 3333SOL    HW110898   2.797   3.027   1.754
 3333SOL    HW210899   2.826   3.164   1.837
 3334SOL     OW10900   1.910   2.348   2.422
 3334SOL    HW110901   1.928   2.419   2.490
 3334SOL    HW210902   1.899   2.260   2.469
 3335SOL     OW10903   4.071   4.719   5.337
 3335SOL    HW110904   4.046   4.627   5.365
 3335SOL    HW210905   4.141   4.756   5.398
 3336SOL     OW10906   5.198   5.886   4.079
 3336SOL    HW110907   5.138   5.844   4.011
 3336SOL    HW210908   5.235   5.971   4.042
 3337SOL     OW10909   3.491   3.201   3.398
 3337SOL    HW110910   3.501   3.102   3.409
 3337SOL    HW210911   3.566   3.248   3.445
 3338SOL     OW10912   2.652   2.246   1.540
 3338SOL    HW110913   2.575   2.261   1.603
 3338SOL    HW210914   2.737   2.244   1.592
 3339SOL     OW10915   1.862   6.535   5.946
 3339SOL    HW110916   1.776   6.490   5.971
 3339SOL    HW210917   1.913   6.558   6.028
 3340SOL     OW10918   4.007   0.616   4.447
 3340SOL    HW110919   4.062   0.583   4.370
 3340SOL    HW210920   3.940   0.682   4.414
 3341SOL     OW10921   1.762   3.975   2.944
 3341SOL    HW110922   1.784   4.050   3.006
 3341SOL    HW210923   1.715   4.011   2.864
 3342SOL     OW10924   0.153   0.611   2.089
 3342SOL    HW110925   0.242   0.587   2.127
 3342SOL    HW210926   0.089   0.536   2.105
 3343SOL     OW10927   4.700   5.175   5.607
 3343SOL    HW110928   4.673   5.132   5.693
 3343SOL    HW210929   4.637   5.250   5.587
 3344SOL     OW10930   0.606   2.996   2.576
 3344SOL    HW110931   0.589   2.944   2.660
 3344SOL    HW210932   0.552   2.958   2.501
 3345SOL     OW10933   6.341   4.183   0.192
 3345SOL    HW110934   6.434   4.206   0.163
 3345SOL    HW210935   6.333   4.083   0.202
 3346SOL     OW10936   2.251   0.877   0.108
 3346SOL    HW110937   2.194   0.908   0.185
 3346SOL    HW210938   2.221   0.923   0.024
 3347SOL     OW10939   6.776   3.727   6.646
 3347SOL    HW110940   6.840   3.656   6.675
 3347SOL    HW210941   6.824   3.815   6.640
 3348SOL     OW10942   3.456   3.710   6.586
 3348SOL    HW110943   3.489   3.691   6.678
 3348SOL    HW210944   3.532   3.738   6.528
 3349SOL     OW10945   1.973   4.545   3.580
 3349SOL    HW110946   1.965   4.642   3.603
 3349SOL    HW210947   2.053   4.507   3.626
 3350SOL     OW10948   0.550   4.328   4.707
 3350SOL    HW110949   0.556   4.278   4.793
 3350SOL    HW210950   0.642   4.337   4.668
 3351SOL     OW10951   4.886   1.093   1.362
 3351SOL    HW110952   4.940   1.133   1.289
 3351SOL    HW210953   4.947   1.053   1.431
 3352SOL     OW10954   6.463   1.627   6.568
 3352SOL    HW110955   6.476   1.538   6.527
 3352SOL    HW210956   6.376   1.629   6.618
 3353SOL     OW10957   2.652   0.173   1.089
 3353SOL    HW110958   2.712   0.187   1.010
 3353SOL    HW210959   2.558   0.191   1.062
 3354SOL     OW10960   3.357   4.206   6.436
 3354SOL    HW110961   3.295   4.285   6.438
 3354SOL    HW210962   3.342   4.154   6.353
 3355SOL     OW10963   1.954   0.722   4.867
 3355SOL    HW110964   2.029   0.783   4.840
 3355SOL    HW210965   1.943   0.726   4.966
 3356SOL     OW10966   1.616   6.852   5.609
 3356SOL    HW110967   1.534   6.799   5.588
 3356SOL    HW210968   1.688   6.790   5.642
 3357SOL     OW10969   3.108   3.175   2.206
 3357SOL    HW110970   3.165   3.164   2.125
 3357SOL    HW210971   3.021   3.218   2.181
 3358SOL     OW10972   6.945   0.794   1.607
 3358SOL    HW110973   6.979   0.860   1.674
 3358SOL    HW210974   6.868   0.834   1.557
 3359SOL     OW10975   6.655   6.356   3.979
 3359SOL    HW110976   6.571   6.389   4.022
 3359SOL    HW210977   6.655   6.256   3.979
 3360SOL     OW10978   0.686   3.572   4.835
 3360SOL    HW110979   0.661   3.662   4.872
 3360SOL    HW210980   0.605   3.514   4.833
 3361SOL     OW10981   6.437   0.361   5.007
 3361SOL    HW110982   6.519   0.327   4.962
 3361SOL    HW210983   6.451   0.457   5.034
 3362SOL     OW10984   3.772   1.052   4.142
 3362SOL    HW110985   3.857   1.008   4.111
 3362SOL    HW210986   3.698   1.029   4.079
 3363SOL     OW10987   5.811   3.847   0.167
 3363SOL    HW110988   5.777   3.927   0.217
 3363SOL    HW210989   5.790   3.764   0.219
 3364SOL     OW10990   1.533   3.777   3.644
 3364SOL    HW110991   1.594   3.845   3.604
 3364SOL    HW210992   1.441   3.816   3.653
 3365SOL     OW10993   2.118   4.207   4.213
 3365SOL    HW110994   2.146   4.126   4.163
 3365SOL    HW210995   2.038   4.248   4.168
 3366SOL     OW10996   5.924   3.689   3.841
 3366SOL    HW110997   5.954   3.783   3.861
 3366SOL    HW210998   5.958   3.663   3.751
 3367SOL     OW10999   3.555   3.288   3.769
 3367SOL    HW111000   3.589   3.289   3.863
 3367SOL    HW211001   3.536   3.381   3.739
 3368SOL     OW11002   1.853   6.469   1.678
 3368SOL    HW111003   1.761   6.430   1.671
 3368SOL    HW211004   1.851   6.548   1.739
 3369SOL     OW11005   4.831   3.157   0.974
 3369SOL    HW111006   4.827   3.121   1.067
 3369SOL    HW211007   4.743   3.198   0.950
 3370SOL     OW11008   1.185   5.711   3.068
 3370SOL    HW111009   1.097   5.759   3.077
 3370SOL    HW211010   1.260   5.776   3.074
 3371SOL     OW11011   1.986   2.727   2.897
 3371SOL    HW111012   2.061   2.733   2.962
 3371SOL    HW211013   1.977   2.632   2.865
 3372SOL     OW11014   6.018   3.872   2.235
 3372SOL    HW111015   5.998   3.805   2.164
 3372SOL    HW211016   5.972   3.845   2.320
 3373SOL     OW11017   6.464   3.092   1.651
 3373SOL    HW111018   6.540   3.027   1.643
 3373SOL    HW211019   6.491   3.167   1.712
 3374SOL     OW11020   0.457   0.062   3.860
 3374SOL    HW111021   0.483   0.052   3.764
 3374SOL    HW211022   0.485   7.003   3.910
 3375SOL     OW11023   6.472   5.061   6.095
 3375SOL    HW111024   6.407   5.001   6.141
 3375SOL    HW211025   6.449   5.068   5.998
 3376SOL     OW11026   3.193   4.008   4.648
 3376SOL    HW111027   3.272   3.947   4.645
 3376SOL    HW211028   3.187   4.059   4.562
 3377SOL     OW11029   6.174   5.129   3.626
 3377SOL    HW111030   6.257   5.183   3.609
 3377SOL    HW211031   6.143   5.088   3.540
 3378SOL     OW11032   1.272   6.248   0.902
 3378SOL    HW111033   1.195   6.282   0.956
 3378SOL    HW211034   1.320   6.325   0.861
 3379SOL     OW11035   6.543   4.054   3.299
 3379SOL    HW111036   6.634   4.014   3.312
 3379SOL    HW211037   6.485   3.988   3.251
 3380SOL     OW11038   2.932   5.141   6.630
 3380SOL    HW111039   2.834   5.147   6.607
 3380SOL    HW211040   2.956   5.217   6.690
 3381SOL     OW11041   1.830   3.329   6.582
 3381SOL    HW111042   1.869   3.263   6.517
 3381SOL    HW211043   1.883   3.414   6.578
 3382SOL     OW11044   6.637   2.691   1.031
 3382SOL    HW111045   6.539   2.674   1.036
 3382SOL    HW211046   6.685   2.634   1.098
 3383SOL     OW11047   4.861   5.338   0.111
 3383SOL    HW111048   4.813   5.299   0.190
 3383SOL    HW211049   4.950   5.373   0.140
 3384SOL     OW11050   2.463   4.177   6.994
 3384SOL    HW111051   2.466   4.255   6.932
 3384SOL    HW211052   2.519   4.195   0.050
 3385SOL     OW11053   0.081   1.996   4.143
 3385SOL    HW111054   0.170   1.957   4.167
 3385SOL    HW211055   0.048   1.954   4.058
 3386SOL     OW11056   0.291   4.208   5.322
 3386SOL    HW111057   0.316   4.284   5.261
 3386SOL    HW211058   0.295   4.239   5.417
 3387SOL     OW11059   6.446   0.745   3.201
 3387SOL    HW111060   6.397   0.684   3.139
 3387SOL    HW211061   6.470   0.829   3.153
 3388SOL     OW11062   6.647   3.351   1.186
 3388SOL    HW111063   6.574   3.311   1.130
 3388SOL    HW211064   6.621   3.345   1.282
 3389SOL     OW11065   6.158   6.135   0.903
 3389SOL    HW111066   6.181   6.041   0.880
 3389SOL    HW211067   6.067   6.157   0.867
 3390SOL     OW11068   3.449   6.486   5.893
 3390SOL    HW111069   3.435   6.585   5.897
 3390SOL    HW211070   3.456   6.450   5.986
 3391SOL     OW11071   5.897   3.145   4.188
 3391SOL    HW111072   5.846   3.153   4.275
 3391SOL    HW211073   5.883   3.053   4.150
 3392SOL     OW11074   4.584   6.334   5.732
 3392SOL    HW111075   4.498   6.359   5.778
 3392SOL    HW211076   4.661   6.366   5.787
 3393SOL     OW11077   5.027   5.889   1.075
 3393SOL    HW111078   4.936   5.914   1.107
 3393SOL    HW211079   5.080   5.972   1.060
 3394SOL     OW11080   3.049   5.755   1.164
 3394SOL    HW111081   3.147   5.737   1.165
 3394SOL    HW211082   3.009   5.712   1.083
 3395SOL     OW11083   2.579   0.035   4.007
 3395SOL    HW111084   2.559   0.063   3.913
 3395SOL    HW211085   2.639   0.101   4.050
 3396SOL     OW11086   5.113   1.715   4.627
 3396SOL    HW111087   5.074   1.648   4.564
 3396SOL    HW211088   5.147   1.793   4.575
 3397SOL     OW11089   2.087   6.601   6.912
 3397SOL    HW111090   2.086   6.672   6.983
 3397SOL    HW211091   2.018   6.532   6.934
 3398SOL     OW11092   6.942   1.981   4.714
 3398SOL    HW111093   6.962   2.066   4.666
 3398SOL    HW211094   6.852   1.988   4.758
 3399SOL     OW11095   6.658   5.920   1.540
 3399SOL    HW111096   6.677   6.006   1.492
 3399SOL    HW211097   6.575   5.930   1.596
 3400SOL     OW11098   5.084   1.769   6.358
 3400SOL    HW111099   5.062   1.673   6.344
 3400SOL    HW211100   5.006   1.826   6.332
 3401SOL     OW11101   6.455   3.368   5.421
 3401SOL    HW111102   6.410   3.311   5.489
 3401SOL    HW211103   6.459   3.319   5.334
 3402SOL     OW11104   6.064   3.383   1.536
 3402SOL    HW111105   5.996   3.388   1.462
 3402SOL    HW211106   6.134   3.316   1.511
 3403SOL     OW11107   5.024   6.744   6.685
 3403SOL    HW111108   4.941   6.731   6.739
 3403SOL    HW211109   5.057   6.838   6.698
 3404SOL     OW11110   4.993   4.649   5.169
 3404SOL    HW111111   5.084   4.622   5.199
 3404SOL    HW211112   4.925   4.614   5.234
 3405SOL     OW11113   5.084   5.982   6.569
 3405SOL    HW111114   5.084   5.882   6.565
 3405SOL    HW211115   5.175   6.015   6.597
 3406SOL     OW11116   2.460   5.147   1.298
 3406SOL    HW111117   2.482   5.244   1.302
 3406SOL    HW211118   2.521   5.096   1.358
 3407SOL     OW11119   0.987   3.594   0.444
 3407SOL    HW111120   0.938   3.677   0.418
 3407SOL    HW211121   0.972   3.524   0.375
 3408SOL     OW11122   4.742   1.960   3.608
 3408SOL    HW111123   4.796   2.037   3.575
 3408SOL    HW211124   4.661   1.995   3.657
 3409SOL     OW11125   4.168   6.973   0.381
 3409SOL    HW111126   4.217   0.030   0.348
 3409SOL    HW211127   4.104   7.001   0.453
 3410SOL     OW11128   5.848   0.424   3.047
 3410SOL    HW111129   5.934   0.456   3.005
 3410SOL    HW211130   5.774   0.435   2.981
 3411SOL     OW11131   5.977   1.987   0.122
 3411SOL    HW111132   5.991   1.889   0.131
 3411SOL    HW211133   6.048   2.026   0.063
 3412SOL     OW11134   6.223   2.856   2.045
 3412SOL    HW111135   6.230   2.881   2.142
 3412SOL    HW211136   6.142   2.799   2.031
 3413SOL     OW11137   6.742   3.019   6.426
 3413SOL    HW111138   6.760   3.065   6.339
 3413SOL    HW211139   6.805   2.942   6.437
 3414SOL     OW11140   3.055   4.371   1.051
 3414SOL    HW111141   3.093   4.289   1.096
 3414SOL    HW211142   3.121   4.406   0.985
 3415SOL     OW11143   1.849   1.915   6.172
 3415SOL    HW111144   1.902   1.834   6.198
 3415SOL    HW211145   1.895   1.997   6.206
 3416SOL     OW11146   6.015   0.208   6.887
 3416SOL    HW111147   5.952   0.278   6.919
 3416SOL    HW211148   6.109   0.242   6.894
 3417SOL     OW11149   5.916   6.381   3.428
 3417SOL    HW111150   5.892   6.309   3.363
 3417SOL    HW211151   5.838   6.443   3.441
 3418SOL     OW11152   4.885   5.046   0.873
 3418SOL    HW111153   4.805   5.100   0.845
 3418SOL    HW211154   4.941   5.100   0.935
 3419SOL     OW11155   2.370   5.808   5.366
 3419SOL    HW111156   2.343   5.716   5.338
 3419SOL    HW211157   2.459   5.830   5.327
 3420SOL     OW11158   4.543   2.389   2.628
 3420SOL    HW111159   4.614   2.320   2.617
 3420SOL    HW211160   4.582   2.480   2.612
 3421SOL     OW11161   6.680   2.567   3.247
 3421SOL    HW111162   6.673   2.511   3.165
 3421SOL    HW211163   6.656   2.662   3.224
 3422SOL     OW11164   2.080   6.572   0.509
 3422SOL    HW111165   2.070   6.496   0.572
 3422SOL    HW211166   2.117   6.651   0.558
 3423SOL     OW11167   1.481   4.442   6.155
 3423SOL    HW111168   1.487   4.354   6.108
 3423SOL    HW211169   1.452   4.513   6.090
 3424SOL     OW11170   4.636   0.587   1.864
 3424SOL    HW111171   4.577   0.544   1.933
 3424SOL    HW211172   4.648   0.684   1.886
 3425SOL     OW11173   5.688   3.701   0.574
 3425SOL    HW111174   5.696   3.801   0.572
 3425SOL    HW211175   5.611   3.675   0.632
 3426SOL     OW11176   5.271   2.974   6.581
 3426SOL    HW111177   5.216   2.987   6.498
 3426SOL    HW211178   5.311   2.883   6.580
 3427SOL     OW11179   1.305   2.414   1.154
 3427SOL    HW111180   1.308   2.512   1.175
 3427SOL    HW211181   1.319   2.401   1.056
 3428SOL     OW11182   5.109   6.324   5.521
 3428SOL    HW111183   5.196   6.371   5.508
 3428SOL    HW211184   5.035   6.391   5.529
 3429SOL     OW11185   6.194   0.252   1.061
 3429SOL    HW111186   6.119   0.218   1.004
 3429SOL    HW211187   6.276   0.198   1.042
 3430SOL     OW11188   1.835   4.524   5.210
 3430SOL    HW111189   1.920   4.472   5.215
 3430SOL    HW211190   1.853   4.621   5.226
 3431SOL     OW11191   0.688   4.900   3.220
 3431SOL    HW111192   0.613   4.930   3.280
 3431SOL    HW211193   0.651   4.877   3.130
 3432SOL     OW11194   1.539   3.792   0.287
 3432SOL    HW111195   1.598   3.792   0.368
 3432SOL    HW211196   1.447   3.762   0.312
 3433SOL     OW11197   2.425   1.775   6.714
 3433SOL    HW111198   2.488   1.712   6.668
 3433SOL    HW211199   2.331   1.752   6.689
 3434SOL     OW11200   3.104   2.660   1.436
 3434SOL    HW111201   3.169   2.598   1.479
 3434SOL    HW211202   3.011   2.623   1.444
 3435SOL     OW11203   2.303   1.302   0.991
 3435SOL    HW111204   2.340   1.353   1.069
 3435SOL    HW211205   2.301   1.362   0.911
 3436SOL     OW11206   3.379   6.612   6.621
 3436SOL    HW111207   3.335   6.672   6.553
 3436SOL    HW211208   3.330   6.619   6.707
 3437SOL     OW11209   1.142   0.430   6.227
 3437SOL    HW111210   1.190   0.363   6.284
 3437SOL    HW211211   1.065   0.386   6.181
 3438SOL     OW11212   1.594   4.021   1.480
 3438SOL    HW111213   1.517   4.074   1.443
 3438SOL    HW211214   1.560   3.932   1.510
 3439SOL     OW11215   2.863   5.461   1.606
 3439SOL    HW111216   2.896   5.447   1.513
 3439SOL    HW211217   2.764   5.454   1.608
 3440SOL     OW11218   4.114   3.647   4.822
 3440SOL    HW111219   4.139   3.623   4.916
 3440SOL    HW211220   4.110   3.563   4.767
 3441SOL     OW11221   5.564   4.989   5.452
 3441SOL    HW111222   5.483   4.934   5.433
 3441SOL    HW211223   5.587   5.044   5.373
 3442SOL     OW11224   2.939   3.111   1.316
 3442SOL    HW111225   2.866   3.080   1.376
 3442SOL    HW211226   3.021   3.131   1.370
 3443SOL     OW11227   1.023   5.972   2.028
 3443SOL    HW111228   1.012   6.043   1.959
 3443SOL    HW211229   1.117   5.937   2.025
 3444SOL     OW11230   6.071   3.660   6.544
 3444SOL    HW111231   6.090   3.564   6.522
 3444SOL    HW211232   6.110   3.719   6.473
 3445SOL     OW11233   6.203   4.802   3.189
 3445SOL    HW111234   6.301   4.781   3.187
 3445SOL    HW211235   6.151   4.716   3.193
 3446SOL     OW11236   4.902   1.087   1.031
 3446SOL    HW111237   4.937   1.173   1.067
 3446SOL    HW211238   4.971   1.015   1.043
 3447SOL     OW11239   5.190   0.881   6.749
 3447SOL    HW111240   5.284   0.848   6.743
 3447SOL    HW211241   5.155   0.899   6.657
 3448SOL     OW11242   1.555   6.010   4.742
 3448SOL    HW111243   1.466   6.026   4.785
 3448SOL    HW211244   1.595   6.098   4.714
 3449SOL     OW11245   6.442   4.113   5.294
 3449SOL    HW111246   6.491   4.070   5.370
 3449SOL    HW211247   6.506   4.170   5.242
 3450SOL     OW11248   2.304   6.872   1.784
 3450SOL    HW111249   2.394   6.829   1.783
 3450SOL    HW211250   2.250   6.835   1.859
 3451SOL     OW11251   2.155   1.506   1.362
 3451SOL    HW111252   2.166   1.592   1.412
 3451SOL    HW211253   2.088   1.448   1.410
 3452SOL     OW11254   4.353   0.928   4.940
 3452SOL    HW111255   4.373   1.025   4.958
 3452SOL    HW211256   4.365   0.909   4.843
 3453SOL     OW11257   4.033   6.506   6.027
 3453SOL    HW111258   4.028   6.505   6.127
 3453SOL    HW211259   4.129   6.517   5.999
 3454SOL     OW11260   0.923   3.036   1.342
 3454SOL    HW111261   0.866   3.001   1.267
 3454SOL    HW211262   0.869   3.040   1.426
 3455SOL     OW11263   0.849   2.840   4.827
 3455SOL    HW111264   0.830   2.786   4.909
 3455SOL    HW211265   0.948   2.850   4.816
 3456SOL     OW11266   5.750   4.915   3.077
 3456SOL    HW111267   5.822   4.857   3.040
 3456SOL    HW211268   5.766   5.010   3.049
 3457SOL     OW11269   3.428   4.691   6.190
 3457SOL    HW111270   3.486   4.614   6.219
 3457SOL    HW211271   3.422   4.692   6.091
 3458SOL     OW11272   4.094   1.272   2.123
 3458SOL    HW111273   4.049   1.270   2.213
 3458SOL    HW211274   4.047   1.337   2.064
 3459SOL     OW11275   4.340   6.491   3.042
 3459SOL    HW111276   4.257   6.484   2.986
 3459SOL    HW211277   4.314   6.493   3.139
 3460SOL     OW11278   4.350   1.830   4.883
 3460SOL    HW111279   4.305   1.756   4.932
 3460SOL    HW211280   4.407   1.792   4.810
 3461SOL     OW11281   6.121   5.574   5.056
 3461SOL    HW111282   6.063   5.499   5.087
 3461SOL    HW211283   6.150   5.559   4.962
 3462SOL     OW11284   1.508   3.740   6.545
 3462SOL    HW111285   1.607   3.732   6.559
 3462SOL    HW211286   1.464   3.656   6.574
 3463SOL     OW11287   5.360   4.300   0.998
 3463SOL    HW111288   5.289   4.231   1.013
 3463SOL    HW211289   5.412   4.278   0.915
 3464SOL     OW11290   0.058   4.499   5.493
 3464SOL    HW111291   7.004   4.524   5.552
 3464SOL    HW211292   0.117   4.579   5.480
 3465SOL     OW11293   1.247   1.329   0.914
 3465SOL    HW111294   1.307   1.250   0.908
 3465SOL    HW211295   1.302   1.412   0.924
 3466SOL     OW11296   6.616   3.817   5.874
 3466SOL    HW111297   6.614   3.718   5.858
 3466SOL    HW211298   6.685   3.838   5.943
 3467SOL     OW11299   1.804   2.236   6.955
 3467SOL    HW111300   1.888   2.184   6.964
 3467SOL    HW211301   1.731   2.190   7.005
 3468SOL     OW11302   3.358   6.657   3.885
 3468SOL    HW111303   3.319   6.748   3.895
 3468SOL    HW211304   3.385   6.642   3.790
 3469SOL     OW11305   5.398   2.972   3.055
 3469SOL    HW111306   5.314   3.021   3.076
 3469SOL    HW211307   5.455   2.967   3.137
 3470SOL     OW11308   0.253   5.128   0.986
 3470SOL    HW111309   0.212   5.188   1.055
 3470SOL    HW211310   0.186   5.108   0.915
 3471SOL     OW11311   4.058   6.657   5.068
 3471SOL    HW111312   3.962   6.640   5.089
 3471SOL    HW211313   4.086   6.603   4.989
 3472SOL     OW11314   3.343   1.077   5.380
 3472SOL    HW111315   3.429   1.054   5.335
 3472SOL    HW211316   3.361   1.135   5.459
 3473SOL     OW11317   5.122   1.023   5.436
 3473SOL    HW111318   5.097   1.006   5.341
 3473SOL    HW211319   5.217   1.055   5.440
 3474SOL     OW11320   4.575   4.463   0.380
 3474SOL    HW111321   4.663   4.438   0.340
 3474SOL    HW211322   4.561   4.562   0.369
 3475SOL     OW11323   1.812   5.612   4.919
 3475SOL    HW111324   1.871   5.536   4.947
 3475SOL    HW211325   1.820   5.627   4.821
 3476SOL     OW11326   4.848   0.897   4.228
 3476SOL    HW111327   4.841   0.996   4.240
 3476SOL    HW211328   4.776   0.866   4.165
 3477SOL     OW11329   4.541   5.950   1.631
 3477SOL    HW111330   4.634   5.936   1.597
 3477SOL    HW211331   4.516   5.876   1.693
 3478SOL     OW11332   3.777   4.116   7.000
 3478SOL    HW111333   3.841   4.181   0.017
 3478SOL    HW211334   3.683   4.146   7.018
 3479SOL     OW11335   0.858   0.285   1.835
 3479SOL    HW111336   0.930   0.312   1.771
 3479SOL    HW211337   0.858   0.347   1.914
 3480SOL     OW11338   1.245   1.265   3.668
 3480SOL    HW111339   1.254   1.360   3.640
 3480SOL    HW211340   1.268   1.256   3.765
 3481SOL     OW11341   2.447   6.966   6.824
 3481SOL    HW111342   2.372   6.905   6.799
 3481SOL    HW211343   2.485   7.007   6.741
 3482SOL     OW11344   0.586   1.766   0.505
 3482SOL    HW111345   0.511   1.738   0.565
 3482SOL    HW211346   0.622   1.686   0.457
 3483SOL     OW11347   3.526   0.007   1.254
 3483SOL    HW111348   3.542   6.941   1.295
 3483SOL    HW211349   3.446   0.049   1.297
 3484SOL     OW11350   3.709   3.329   3.540
 3484SOL    HW111351   3.729   3.416   3.586
 3484SOL    HW211352   3.676   3.263   3.607
 3485SOL     OW11353   0.744   2.037   4.848
 3485SOL    HW111354   0.739   2.075   4.756
 3485SOL    HW211355   0.787   2.102   4.910
 3486SOL     OW11356   4.275   1.557   2.318
 3486SOL    HW111357   4.317   1.646   2.307
 3486SOL    HW211358   4.225   1.554   2.404
 3487SOL     OW11359   6.991   0.661   6.630
 3487SOL    HW111360   6.939   0.636   6.549
 3487SOL    HW211361   0.065   0.654   6.611
 3488SOL     OW11362   6.101   3.525   4.047
 3488SOL    HW111363   6.071   3.567   3.961
 3488SOL    HW211364   6.021   3.492   4.098
 3489SOL     OW11365   3.008   7.019   0.925
 3489SOL    HW111366   2.926   0.052   0.922
 3489SOL    HW211367   3.008   6.964   1.009
 3490SOL     OW11368   3.933   3.653   0.661
 3490SOL    HW111369   3.887   3.676   0.575
 3490SOL    HW211370   3.900   3.565   0.694
 3491SOL     OW11371   0.564   3.034   4.548
 3491SOL    HW111372   0.568   3.114   4.608
 3491SOL    HW211373   0.493   3.047   4.479
 3492SOL     OW11374   5.777   4.859   6.516
 3492SOL    HW111375   5.693   4.914   6.521
 3492SOL    HW211376   5.801   4.826   6.607
 3493SOL     OW11377   6.503   4.844   0.100
 3493SOL    HW111378   6.580   4.907   0.102
 3493SOL    HW211379   6.537   4.751   0.088
 3494SOL     OW11380   3.180   0.215   0.651
 3494SOL    HW111381   3.171   0.254   0.743
 3494SOL    HW211382   3.090   0.185   0.618
 3495SOL     OW11383   4.857   4.887   0.258
 3495SOL    HW111384   4.936   4.854   0.309
 3495SOL    HW211385   4.776   4.885   0.316
 3496SOL     OW11386   1.687   3.852   0.516
 3496SOL    HW111387   1.683   3.926   0.583
 3496SOL    HW211388   1.747   3.779   0.550
 3497SOL     OW11389   5.063   6.836   3.654
 3497SOL    HW111390   4.972   6.805   3.682
 3497SOL    HW211391   5.081   6.807   3.560
 3498SOL     OW11392   2.724   1.114   2.041
 3498SOL    HW111393   2.803   1.170   2.066
 3498SOL    HW211394   2.749   1.054   1.965
 3499SOL     OW11395   6.517   3.163   3.728
 3499SOL    HW111396   6.459   3.117   3.795
 3499SOL    HW211397   6.599   3.198   3.773
 3500SOL     OW11398   6.620   3.455   0.665
 3500SOL    HW111399   6.691   3.523   0.680
 3500SOL    HW211400   6.617   3.392   0.742
 3501SOL     OW11401   1.291   4.610   4.037
 3501SOL    HW111402   1.324   4.540   3.974
 3501SOL    HW211403   1.361   4.679   4.050
 3502SOL     OW11404   0.543   3.370   1.686
 3502SOL    HW111405   0.560   3.453   1.739
 3502SOL    HW211406   0.454   3.332   1.711
 3503SOL     OW11407   4.625   6.696   4.243
 3503SOL    HW111408   4.667   6.738   4.324
 3503SOL    HW211409   4.692   6.636   4.198
 3504SOL     OW11410   2.070   3.543   2.204
 3504SOL    HW111411   2.138   3.539   2.132
 3504SOL    HW211412   1.981   3.514   2.168
 3505SOL     OW11413   4.867   5.605   5.173
 3505SOL    HW111414   4.890   5.636   5.265
 3505SOL    HW211415   4.848   5.507   5.175
 3506SOL     OW11416   5.138   4.865   2.242
 3506SOL    HW111417   5.229   4.901   2.221
 3506SOL    HW211418   5.146   4.794   2.312
 3507SOL     OW11419   0.952   0.278   6.113
 3507SOL    HW111420   0.972   0.222   6.033
 3507SOL    HW211421   0.861   0.318   6.103
 3508SOL     OW11422   5.896   3.346   6.377
 3508SOL    HW111423   5.995   3.331   6.374
 3508SOL    HW211424   5.850   3.263   6.344
 3509SOL     OW11425   6.810   6.257   1.023
 3509SOL    HW111426   6.845   6.177   1.071
 3509SOL    HW211427   6.761   6.316   1.087
 3510SOL     OW11428   1.717   3.171   2.552
 3510SOL    HW111429   1.628   3.144   2.517
 3510SOL    HW211430   1.765   3.225   2.483
 3511SOL     OW11431   0.784   0.938   5.517
 3511SOL    HW111432   0.731   1.017   5.549
 3511SOL    HW211433   0.726   0.879   5.461
 3512SOL     OW11434   3.186   3.789   1.211
 3512SOL    HW111435   3.238   3.710   1.178
 3512SOL    HW211436   3.134   3.828   1.135
 3513SOL     OW11437   5.907   4.924   1.033
 3513SOL    HW111438   5.919   4.835   1.077
 3513SOL    HW211439   5.810   4.940   1.015
 3514SOL     OW11440   1.583   6.372   1.671
 3514SOL    HW111441   1.516   6.363   1.744
 3514SOL    HW211442   1.542   6.421   1.594
 3515SOL     OW11443   2.811   5.983   3.449
 3515SOL    HW111444   2.893   6.041   3.439
 3515SOL    HW211445   2.837   5.887   3.437
 3516SOL     OW11446   2.735   1.239   0.495
 3516SOL    HW111447   2.672   1.162   0.504
 3516SOL    HW211448   2.796   1.242   0.573
 3517SOL     OW11449   1.484   1.246   6.395
 3517SOL    HW111450   1.567   1.242   6.452
 3517SOL    HW211451   1.484   1.330   6.342
 3518SOL     OW11452   4.234   3.088   5.930
 3518SOL    HW111453   4.179   3.039   5.863
 3518SOL    HW211454   4.318   3.037   5.949
 3519SOL     OW11455   2.364   6.497   0.926
 3519SOL    HW111456   2.360   6.596   0.915
 3519SOL    HW211457   2.309   6.470   1.005
 3520SOL     OW11458   4.379   5.514   1.069
 3520SOL    HW111459   4.350   5.549   1.158
 3520SOL    HW211460   4.426   5.427   1.081
 3521SOL     OW11461   5.677   2.362   0.797
 3521SOL    HW111462   5.578   2.363   0.807
 3521SOL    HW211463   5.702   2.316   0.712
 3522SOL     OW11464   3.360   4.985   2.220
 3522SOL    HW111465   3.332   5.076   2.252
 3522SOL    HW211466   3.344   4.918   2.293
 3523SOL     OW11467   2.260   4.880   5.865
 3523SOL    HW111468   2.297   4.811   5.803
 3523SOL    HW211469   2.161   4.886   5.852
 3524SOL     OW11470   2.386   6.986   1.272
 3524SOL    HW111471   2.325   6.907   1.273
 3524SOL    HW211472   2.333   0.045   1.252
 3525SOL     OW11473   1.128   3.242   2.628
 3525SOL    HW111474   1.192   3.301   2.675
 3525SOL    HW211475   1.137   3.148   2.662
 3526SOL     OW11476   2.290   0.633   2.950
 3526SOL    HW111477   2.366   0.673   2.899
 3526SOL    HW211478   2.277   0.683   3.035
 3527SOL     OW11479   4.674   3.305   5.844
 3527SOL    HW111480   4.765   3.345   5.843
 3527SOL    HW211481   4.646   3.288   5.938
 3528SOL     OW11482   0.238   6.963   4.677
 3528SOL    HW111483   0.233   6.972   4.776
 3528SOL    HW211484   0.183   6.885   4.647
 3529SOL     OW11485   3.605   6.508   6.708
 3529SOL    HW111486   3.648   6.451   6.638
 3529SOL    HW211487   3.513   6.534   6.678
 3530SOL     OW11488   2.202   5.949   2.732
 3530SOL    HW111489   2.164   5.945   2.639
 3530SOL    HW211490   2.137   5.907   2.796
 3531SOL     OW11491   4.169   3.509   6.942
 3531SOL    HW111492   4.234   3.434   6.948
 3531SOL    HW211493   4.153   3.532   6.846
 3532SOL     OW11494   1.570   6.841   0.452
 3532SOL    HW111495   1.491   6.870   0.507
 3532SOL    HW211496   1.637   6.915   0.448
 3533SOL     OW11497   1.343   1.606   3.329
 3533SOL    HW111498   1.339   1.533   3.261
 3533SOL    HW211499   1.302   1.689   3.292
 3534SOL     OW11500   5.303   1.253   4.521
 3534SOL    HW111501   5.332   1.346   4.498
 3534SOL    HW211502   5.256   1.212   4.443
 3535SOL     OW11503   4.679   5.919   6.721
 3535SOL    HW111504   4.754   5.958   6.775
 3535SOL    HW211505   4.594   5.925   6.774
 3536SOL     OW11506   0.809   4.240   3.740
 3536SOL    HW111507   0.908   4.230   3.737
 3536SOL    HW211508   0.786   4.326   3.786
 3537SOL     OW11509   2.511   4.638   0.582
 3537SOL    HW111510   2.512   4.539   0.589
 3537SOL    HW211511   2.428   4.673   0.626
 3538SOL     OW11512   2.766   0.998   4.778
 3538SOL    HW111513   2.823   0.996   4.695
 3538SOL    HW211514   2.670   0.991   4.752
 3539SOL     OW11515   5.592   5.801   6.246
 3539SOL    HW111516   5.626   5.727   6.188
 3539SOL    HW211517   5.585   5.769   6.340
 3540SOL     OW11518   2.721   3.874   6.867
 3540SOL    HW111519   2.753   3.955   6.819
 3540SOL    HW211520   2.621   3.875   6.873
 3541SOL     OW11521   2.332   2.720   1.413
 3541SOL    HW111522   2.413   2.693   1.465
 3541SOL    HW211523   2.349   2.807   1.367
 3542SOL     OW11524   5.379   1.550   6.240
 3542SOL    HW111525   5.304   1.487   6.221
 3542SOL    HW211526   5.394   1.608   6.160
 3543SOL     OW11527   0.462   2.357   2.983
 3543SOL    HW111528   0.537   2.375   3.046
 3543SOL    HW211529   0.493   2.299   2.909
 3544SOL     OW11530   2.887   4.035   6.689
 3544SOL    HW111531   2.986   4.030   6.703
 3544SOL    HW211532   2.859   4.131   6.684
 3545SOL     OW11533   3.354   6.409   1.597
 3545SOL    HW111534   3.447   6.376   1.612
 3545SOL    HW211535   3.334   6.408   1.500
 3546SOL     OW11536   0.098   4.506   3.093
 3546SOL    HW111537   0.025   4.563   3.131
 3546SOL    HW211538   0.090   4.504   2.993
 3547SOL     OW11539   0.971   4.075   5.508
 3547SOL    HW111540   0.941   4.144   5.441
 3547SOL    HW211541   0.926   3.988   5.488
 3548SOL     OW11542   5.396   0.592   5.047
 3548SOL    HW111543   5.369   0.514   5.103
 3548SOL    HW211544   5.490   0.617   5.068
 3549SOL     OW11545   2.678   6.406   0.036
 3549SOL    HW111546   2.661   6.406   6.962
 3549SOL    HW211547   2.633   6.484   0.079
 3550SOL     OW11548   5.464   1.076   5.180
 3550SOL    HW111549   5.404   1.001   5.152
 3550SOL    HW211550   5.422   1.124   5.258
 3551SOL     OW11551   4.720   2.369   4.190
 3551SOL    HW111552   4.759   2.371   4.282
 3551SOL    HW211553   4.689   2.277   4.169
 3552SOL     OW11554   0.218   0.124   2.789
 3552SOL    HW111555   0.249   0.071   2.867
 3552SOL    HW211556   0.130   0.167   2.810
 3553SOL     OW11557   5.401   5.701   0.016
 3553SOL    HW111558   5.326   5.748   0.063
 3553SOL    HW211559   5.464   5.768   7.001
 3554SOL     OW11560   5.473   2.874   0.985
 3554SOL    HW111561   5.557   2.904   0.940
 3554SOL    HW211562   5.437   2.948   1.041
 3555SOL     OW11563   3.075   2.200   4.787
 3555SOL    HW111564   3.109   2.225   4.878
 3555SOL    HW211565   3.009   2.269   4.757
 3556SOL     OW11566   5.360   1.176   5.409
 3556SOL    HW111567   5.321   1.267   5.424
 3556SOL    HW211568   5.431   1.159   5.478
 3557SOL     OW11569   6.079   0.729   0.700
 3557SOL    HW111570   6.159   0.689   0.654
 3557SOL    HW211571   6.096   0.826   0.716
 3558SOL     OW11572   3.632   6.166   2.265
 3558SOL    HW111573   3.707   6.116   2.307
 3558SOL    HW211574   3.555   6.105   2.248
 3559SOL     OW11575   4.782   6.472   5.846
 3559SOL    HW111576   4.766   6.566   5.815
 3559SOL    HW211577   4.879   6.461   5.866
 3560SOL     OW11578   1.931   5.188   4.104
 3560SOL    HW111579   1.861   5.152   4.042
 3560SOL    HW211580   1.889   5.254   4.167
 3561SOL     OW11581   4.816   3.669   5.376
 3561SOL    HW111582   4.805   3.647   5.279
 3561SOL    HW211583   4.749   3.737   5.403
 3562SOL     OW11584   1.839   1.444   5.849
 3562SOL    HW111585   1.852   1.489   5.760
 3562SOL    HW211586   1.741   1.434   5.867
 3563SOL     OW11587   5.923   2.910   5.201
 3563SOL    HW111588   5.880   2.834   5.250
 3563SOL    HW211589   5.956   2.878   5.112
 3564SOL     OW11590   6.004   3.774   1.636
 3564SOL    HW111591   6.047   3.835   1.703
 3564SOL    HW211592   5.980   3.687   1.680
 3565SOL     OW11593   3.769   5.767   3.668
 3565SOL    HW111594   3.799   5.682   3.710
 3565SOL    HW211595   3.688   5.802   3.716
 3566SOL     OW11596   1.060   0.116   5.363
 3566SOL    HW111597   1.119   0.038   5.382
 3566SOL    HW211598   1.013   0.102   5.275
 3567SOL     OW11599   6.509   3.671   6.718
 3567SOL    HW111600   6.595   3.683   6.669
 3567SOL    HW211601   6.434   3.706   6.662
 3568SOL     OW11602   5.459   3.808   5.905
 3568SOL    HW111603   5.483   3.804   5.808
 3568SOL    HW211604   5.519   3.873   5.951
 3569SOL     OW11605   2.185   1.170   4.821
 3569SOL    HW111606   2.110   1.104   4.826
 3569SOL    HW211607   2.236   1.169   4.907
 3570SOL     OW11608   6.369   1.676   3.100
 3570SOL    HW111609   6.455   1.714   3.135
 3570SOL    HW211610   6.357   1.583   3.135
 3571SOL     OW11611   6.497   6.341   5.882
 3571SOL    HW111612   6.580   6.293   5.912
 3571SOL    HW211613   6.513   6.440   5.887
 3572SOL     OW11614   6.227   6.028   4.466
 3572SOL    HW111615   6.199   5.950   4.521
 3572SOL    HW211616   6.192   6.112   4.507
 3573SOL     OW11617   0.787   2.640   3.269
 3573SOL    HW111618   0.871   2.594   3.299
 3573SOL    HW211619   0.730   2.574   3.220
 3574SOL     OW11620   6.900   3.708   0.681
 3574SOL    HW111621   6.927   3.723   0.777
 3574SOL    HW211622   6.951   3.630   0.644
 3575SOL     OW11623   6.401   4.869   1.868
 3575SOL    HW111624   6.435   4.775   1.865
 3575SOL    HW211625   6.476   4.932   1.888
 3576SOL     OW11626   0.807   1.707   5.831
 3576SOL    HW111627   0.858   1.657   5.901
 3576SOL    HW211628   0.736   1.762   5.875
 3577SOL     OW11629   1.512   3.078   0.110
 3577SOL    HW111630   1.545   3.171   0.093
 3577SOL    HW211631   1.491   3.033   0.023
 3578SOL     OW11632   3.852   5.500   0.832
 3578SOL    HW111633   3.926   5.567   0.829
 3578SOL    HW211634   3.816   5.487   0.739
 3579SOL     OW11635   0.125   4.662   4.449
 3579SOL    HW111636   0.065   4.583   4.458
 3579SOL    HW211637   0.073   4.746   4.464
 3580SOL     OW11638   6.406   2.364   2.253
 3580SOL    HW111639   6.324   2.420   2.247
 3580SOL    HW211640   6.482   2.411   2.209
 3581SOL     OW11641   6.794   0.509   2.876
 3581SOL    HW111642   6.746   0.445   2.936
 3581SOL    HW211643   6.824   0.462   2.793
 3582SOL     OW11644   1.373   1.106   6.184
 3582SOL    HW111645   1.441   1.142   6.248
 3582SOL    HW211646   1.399   1.014   6.155
 3583SOL     OW11647   1.671   5.440   0.511
 3583SOL    HW111648   1.696   5.353   0.468
 3583SOL    HW211649   1.597   5.424   0.577
 3584SOL     OW11650   4.626   5.906   6.292
 3584SOL    HW111651   4.613   5.808   6.282
 3584SOL    HW211652   4.690   5.924   6.367
 3585SOL     OW11653   2.758   4.933   3.779
 3585SOL    HW111654   2.690   4.865   3.753
 3585SOL    HW211655   2.790   4.915   3.872
 3586SOL     OW11656   6.303   2.701   6.335
 3586SOL    HW111657   6.306   2.800   6.353
 3586SOL    HW211658   6.389   2.660   6.363
 3587SOL     OW11659   4.240   6.968   6.659
 3587SOL    HW111660   4.316   0.008   6.673
 3587SOL    HW211661   4.277   6.876   6.643
 3588SOL     OW11662   1.596   1.616   5.552
 3588SOL    HW111663   1.502   1.649   5.555
 3588SOL    HW211664   1.616   1.579   5.461
 3589SOL     OW11665   3.191   0.758   5.243
 3589SOL    HW111666   3.276   0.796   5.206
 3589SOL    HW211667   3.157   0.687   5.182
 3590SOL     OW11668   1.926   5.398   6.871
 3590SOL    HW111669   1.905   5.363   6.780
 3590SOL    HW211670   2.010   5.452   6.868
 3591SOL     OW11671   5.106   2.486   5.693
 3591SOL    HW111672   5.101   2.583   5.671
 3591SOL    HW211673   5.056   2.433   5.624
 3592SOL     OW11674   4.822   2.976   2.349
 3592SOL    HW111675   4.742   2.942   2.299
 3592SOL    HW211676   4.903   2.924   2.323
 3593SOL     OW11677   1.911   5.881   3.859
 3593SOL    HW111678   1.882   5.912   3.768
 3593SOL    HW211679   1.858   5.928   3.929
 3594SOL     OW11680   2.943   1.293   3.971
 3594SOL    HW111681   2.953   1.249   3.881
 3594SOL    HW211682   2.847   1.300   3.994
 3595SOL     OW11683   3.045   6.175   5.839
 3595SOL    HW111684   3.020   6.128   5.754
 3595SOL    HW211685   3.087   6.264   5.817
 3596SOL     OW11686   6.934   2.378   2.878
 3596SOL    HW111687   7.006   2.411   2.816
 3596SOL    HW211688   6.961   2.290   2.917
 3597SOL     OW11689   3.626   5.453   4.055
 3597SOL    HW111690   3.654   5.396   3.978
 3597SOL    HW211691   3.569   5.528   4.021
 3598SOL     OW11692   1.065   0.241   6.607
 3598SOL    HW111693   1.140   0.298   6.573
 3598SOL    HW211694   1.101   0.150   6.631
 3599SOL     OW11695   0.338   1.290   4.487
 3599SOL    HW111696   0.268   1.341   4.536
 3599SOL    HW211697   0.401   1.247   4.552
 3600SOL     OW11698   6.093   1.709   0.818
 3600SOL    HW111699   6.105   1.654   0.735
 3600SOL    HW211700   6.000   1.744   0.821
 3601SOL     OW11701   6.355   3.874   6.550
 3601SOL    HW111702   6.369   3.950   6.486
 3601SOL    HW211703   6.321   3.910   6.637
 3602SOL     OW11704   2.128   0.963   0.343
 3602SOL    HW111705   2.073   1.035   0.386
 3602SOL    HW211706   2.096   0.874   0.376
 3603SOL     OW11707   4.316   5.013   4.006
 3603SOL    HW111708   4.329   5.093   4.065
 3603SOL    HW211709   4.224   4.976   4.020
 3604SOL     OW11710   0.391   2.930   2.768
 3604SOL    HW111711   0.431   3.008   2.719
 3604SOL    HW211712   0.293   2.945   2.779
 3605SOL     OW11713   5.663   3.413   6.823
 3605SOL    HW111714   5.668   3.497   6.876
 3605SOL    HW211715   5.582   3.361   6.849
 3606SOL     OW11716   0.726   4.473   4.969
 3606SOL    HW111717   0.822   4.451   4.952
 3606SOL    HW211718   0.705   4.563   4.930
 3607SOL     OW11719   5.476   6.945   0.158
 3607SOL    HW111720   5.514   7.022   0.209
 3607SOL    HW211721   5.550   6.887   0.124
 3608SOL     OW11722   0.552   2.305   2.174
 3608SOL    HW111723   0.596   2.227   2.218
 3608SOL    HW211724   0.537   2.286   2.077
 3609SOL     OW11725   6.500   0.371   4.362
 3609SOL    HW111726   6.548   0.385   4.275
 3609SOL    HW211727   6.411   0.416   4.359
 3610SOL     OW11728   1.348   6.601   6.011
 3610SOL    HW111729   1.339   6.516   6.064
 3610SOL    HW211730   1.424   6.591   5.947
 3611SOL     OW11731   3.556   4.936   5.577
 3611SOL    HW111732   3.608   4.861   5.618
 3611SOL    HW211733   3.506   4.903   5.497
 3612SOL     OW11734   1.079   6.949   1.133
 3612SOL    HW111735   1.031   6.979   1.216
 3612SOL    HW211736   1.013   6.915   1.067
 3613SOL     OW11737   5.600   5.329   6.618
 3613SOL    HW111738   5.605   5.378   6.705
 3613SOL    HW211739   5.646   5.241   6.627
 3614SOL     OW11740   3.605   2.948   3.458
 3614SOL    HW111741   3.594   2.977   3.553
 3614SOL    HW211742   3.698   2.968   3.428
 3615SOL     OW11743   6.273   5.934   6.302
 3615SOL    HW111744   6.306   5.876   6.377
 3615SOL    HW211745   6.305   5.896   6.215
 3616SOL     OW11746   0.121   2.425   5.242
 3616SOL    HW111747   0.075   2.341   5.271
 3616SOL    HW211748   0.097   2.445   5.147
 3617SOL     OW11749   0.182   1.350   6.410
 3617SOL    HW111750   0.113   1.408   6.367
 3617SOL    HW211751   0.140   1.264   6.441
 3618SOL     OW11752   2.049   2.105   7.003
 3618SOL    HW111753   2.042   2.018   0.029
 3618SOL    HW211754   2.134   2.105   6.950
 3619SOL     OW11755   6.071   2.361   4.415
 3619SOL    HW111756   6.033   2.306   4.490
 3619SOL    HW211757   6.088   2.302   4.336
 3620SOL     OW11758   5.894   6.913   5.252
 3620SOL    HW111759   5.991   6.915   5.276
 3620SOL    HW211760   5.860   7.007   5.240
 3621SOL     OW11761   2.350   3.516   5.624
 3621SOL    HW111762   2.290   3.594   5.606
 3621SOL    HW211763   2.304   3.453   5.687
 3622SOL     OW11764   0.802   2.529   1.877
 3622SOL    HW111765   0.722   2.515   1.818
 3622SOL    HW211766   0.793   2.616   1.926
 3623SOL     OW11767   5.458   4.936   3.399
 3623SOL    HW111768   5.401   4.887   3.465
 3623SOL    HW211769   5.423   5.030   3.388
 3624SOL     OW11770   2.394   6.450   2.245
 3624SOL    HW111771   2.429   6.525   2.300
 3624SOL    HW211772   2.444   6.446   2.158
 3625SOL     OW11773   6.260   3.522   5.067
 3625SOL    HW111774   6.296   3.430   5.081
 3625SOL    HW211775   6.179   3.536   5.124
 3626SOL     OW11776   2.209   3.739   5.217
 3626SOL    HW111777   2.262   3.822   5.200
 3626SOL    HW211778   2.123   3.762   5.262
 3627SOL     OW11779   3.017   3.783   3.737
 3627SOL    HW111780   2.976   3.715   3.676
 3627SOL    HW211781   3.109   3.754   3.762
 3628SOL     OW11782   2.977   5.277   2.302
 3628SOL    HW111783   2.969   5.359   2.245
 3628SOL    HW211784   2.990   5.197   2.243
 3629SOL     OW11785   6.035   1.814   5.308
 3629SOL    HW111786   6.053   1.873   5.230
 3629SOL    HW211787   6.115   1.811   5.367
 3630SOL     OW11788   6.707   2.038   4.470
 3630SOL    HW111789   6.796   2.002   4.442
 3630SOL    HW211790   6.721   2.112   4.536
 3631SOL     OW11791   2.436   0.926   4.759
 3631SOL    HW111792   2.445   1.017   4.718
 3631SOL    HW211793   2.466   0.930   4.854
 3632SOL     OW11794   4.800   0.768   0.616
 3632SOL    HW111795   4.702   0.765   0.594
 3632SOL    HW211796   4.838   0.855   0.585
 3633SOL     OW11797   2.453   2.799   6.087
 3633SOL    HW111798   2.476   2.749   6.003
 3633SOL    HW211799   2.502   2.759   6.164
 3634SOL     OW11800   1.798   5.853   4.745
 3634SOL    HW111801   1.731   5.922   4.720
 3634SOL    HW211802   1.765   5.802   4.825
 3635SOL     OW11803   2.538   1.516   5.635
 3635SOL    HW111804   2.588   1.432   5.654
 3635SOL    HW211805   2.530   1.529   5.536
 3636SOL     OW11806   0.478   5.099   5.666
 3636SOL    HW111807   0.421   5.099   5.747
 3636SOL    HW211808   0.573   5.083   5.692
 3637SOL     OW11809   5.318   1.094   1.308
 3637SOL    HW111810   5.249   1.047   1.362
 3637SOL    HW211811   5.371   1.028   1.255
 3638SOL     OW11812   0.004   4.591   3.527
 3638SOL    HW111813   0.058   4.614   3.608
 3638SOL    HW211814   0.039   4.506   3.487
 3639SOL     OW11815   2.362   4.897   0.980
 3639SOL    HW111816   2.336   4.884   1.075
 3639SOL    HW211817   2.392   4.992   0.966
 3640SOL     OW11818   3.716   6.007   1.243
 3640SOL    HW111819   3.639   5.954   1.207
 3640SOL    HW211820   3.776   5.946   1.296
 3641SOL     OW11821   2.979   1.301   4.849
 3641SOL    HW111822   2.905   1.363   4.876
 3641SOL    HW211823   2.961   1.266   4.757
 3642SOL     OW11824   5.415   0.563   4.002
 3642SOL    HW111825   5.496   0.507   3.986
 3642SOL    HW211826   5.443   0.657   4.021
 3643SOL     OW11827   2.823   4.909   4.780
 3643SOL    HW111828   2.772   4.891   4.696
 3643SOL    HW211829   2.761   4.903   4.858
 3644SOL     OW11830   6.688   1.200   0.760
 3644SOL    HW111831   6.774   1.250   0.768
 3644SOL    HW211832   6.644   1.224   0.673
 3645SOL     OW11833   4.617   1.572   3.836
 3645SOL    HW111834   4.594   1.591   3.931
 3645SOL    HW211835   4.536   1.582   3.778
 3646SOL     OW11836   0.041   5.150   5.563
 3646SOL    HW111837   0.032   5.245   5.591
 3646SOL    HW211838   0.129   5.135   5.519
 3647SOL     OW11839   1.731   2.967   0.805
 3647SOL    HW111840   1.715   2.959   0.903
 3647SOL    HW211841   1.679   2.896   0.757
 3648SOL     OW11842   3.713   5.575   1.956
 3648SOL    HW111843   3.646   5.577   2.029
 3648SOL    HW211844   3.791   5.519   1.984
 3649SOL     OW11845   4.324   3.477   0.866
 3649SOL    HW111846   4.369   3.438   0.786
 3649SOL    HW211847   4.384   3.468   0.945
 3650SOL     OW11848   0.651   5.889   1.514
 3650SOL    HW111849   0.574   5.827   1.529
 3650SOL    HW211850   0.734   5.848   1.552
 3651SOL     OW11851   0.921   6.049   2.639
 3651SOL    HW111852   0.878   6.137   2.620
 3651SOL    HW211853   0.889   6.015   2.727
 3652SOL     OW11854   4.640   6.138   3.775
 3652SOL    HW111855   4.738   6.130   3.794
 3652SOL    HW211856   4.598   6.047   3.782
 3653SOL     OW11857   6.820   1.583   3.155
 3653SOL    HW111858   6.845   1.626   3.068
 3653SOL    HW211859   6.754   1.510   3.138
 3654SOL     OW11860   1.686   6.589   0.888
 3654SOL    HW111861   1.693   6.678   0.932
 3654SOL    HW211862   1.652   6.521   0.954
 3655SOL     OW11863   1.837   0.307   4.517
 3655SOL    HW111864   1.807   0.223   4.562
 3655SOL    HW211865   1.877   0.369   4.584
 3656SOL     OW11866   1.932   2.725   2.231
 3656SOL    HW111867   1.918   2.818   2.265
 3656SOL    HW211868   1.855   2.668   2.259
 3657SOL     OW11869   3.817   5.672   1.048
 3657SOL    HW111870   3.898   5.694   1.103
 3657SOL    HW211871   3.836   5.592   0.992
 3658SOL     OW11872   0.835   6.080   5.605
 3658SOL    HW111873   0.766   6.129   5.658
 3658SOL    HW211874   0.823   5.981   5.619
 3659SOL     OW11875   2.363   4.703   7.021
 3659SOL    HW111876   2.411   4.754   0.069
 3659SOL    HW211877   2.290   4.649   0.038
 3660SOL     OW11878   4.529   5.714   2.263
 3660SOL    HW111879   4.525   5.617   2.236
 3660SOL    HW211880   4.442   5.740   2.304
 3661SOL     OW11881   4.644   1.235   0.698
 3661SOL    HW111882   4.668   1.139   0.688
 3661SOL    HW211883   4.544   1.245   0.692
 3662SOL     OW11884   3.350   0.502   5.313
 3662SOL    HW111885   3.276   0.535   5.372
 3662SOL    HW211886   3.431   0.559   5.327
 3663SOL     OW11887   1.315   2.167   0.162
 3663SOL    HW111888   1.349   2.092   0.219
 3663SOL    HW211889   1.366   2.250   0.183
 3664SOL     OW11890   5.334   1.783   0.993
 3664SOL    HW111891   5.270   1.828   1.055
 3664SOL    HW211892   5.422   1.772   1.039
 3665SOL     OW11893   0.661   0.023   5.298
 3665SOL    HW111894   0.633   7.000   5.214
 3665SOL    HW211895   0.625   0.116   5.298
 3666SOL     OW11896   1.469   3.595   4.492
 3666SOL    HW111897   1.423   3.673   4.451
 3666SOL    HW211898   1.472   3.520   4.426
 3667SOL     OW11899   6.609   0.811   6.162
 3667SOL    HW111900   6.642   0.905   6.155
 3667SOL    HW211901   6.605   0.770   6.071
 3668SOL     OW11902   1.795   0.092   2.791
 3668SOL    HW111903   1.788   0.177   2.843
 3668SOL    HW211904   1.704   0.062   2.763
 3669SOL     OW11905   6.687   2.121   3.483
 3669SOL    HW111906   6.693   2.163   3.393
 3669SOL    HW211907   6.592   2.097   3.503
 3670SOL     OW11908   2.067   5.714   5.798
 3670SOL    HW111909   2.061   5.715   5.698
 3670SOL    HW211910   2.039   5.803   5.834
 3671SOL     OW11911   1.018   0.274   2.886
 3671SOL    HW111912   0.927   0.271   2.844
 3671SOL    HW211913   1.012   0.244   2.981
 3672SOL     OW11914   6.554   1.478   6.870
 3672SOL    HW111915   6.591   1.483   6.962
 3672SOL    HW211916   6.539   1.570   6.834
 3673SOL     OW11917   4.570   1.309   6.753
 3673SOL    HW111918   4.549   1.406   6.742
 3673SOL    HW211919   4.585   1.267   6.664
 3674SOL     OW11920   0.921   0.107   0.094
 3674SOL    HW111921   0.887   0.014   0.096
 3674SOL    HW211922   0.847   0.171   0.113
 3675SOL     OW11923   1.951   2.408   5.345
 3675SOL    HW111924   1.917   2.468   5.419
 3675SOL    HW211925   2.035   2.447   5.307
 3676SOL     OW11926   3.236   5.225   4.280
 3676SOL    HW111927   3.229   5.131   4.315
 3676SOL    HW211928   3.300   5.277   4.337
 3677SOL     OW11929   6.686   6.576   3.426
 3677SOL    HW111930   6.675   6.526   3.340
 3677SOL    HW211931   6.767   6.542   3.474
 3678SOL     OW11932   1.231   1.984   4.215
 3678SOL    HW111933   1.219   2.081   4.193
 3678SOL    HW211934   1.143   1.937   4.209
 3679SOL     OW11935   0.551   0.929   1.707
 3679SOL    HW111936   0.542   0.839   1.750
 3679SOL    HW211937   0.643   0.964   1.724
 3680SOL     OW11938   6.647   2.648   3.679
 3680SOL    HW111939   6.624   2.592   3.759
 3680SOL    HW211940   6.623   2.743   3.697
 3681SOL     OW11941   0.490   0.060   6.038
 3681SOL    HW111942   0.518   6.995   6.000
 3681SOL    HW211943   0.554   0.130   6.008
 3682SOL     OW11944   6.503   2.086   5.877
 3682SOL    HW111945   6.496   1.986   5.888
 3682SOL    HW211946   6.464   2.112   5.789
 3683SOL     OW11947   6.124   6.249   4.625
 3683SOL    HW111948   6.031   6.219   4.604
 3683SOL    HW211949   6.135   6.344   4.596
 3684SOL     OW11950   1.554   3.428   2.146
 3684SOL    HW111951   1.532   3.332   2.128
 3684SOL    HW211952   1.472   3.484   2.132
 3685SOL     OW11953   6.484   6.022   6.659
 3685SOL    HW111954   6.391   6.059   6.647
 3685SOL    HW211955   6.545   6.067   6.594
 3686SOL     OW11956   6.284   4.883   1.558
 3686SOL    HW111957   6.334   4.864   1.643
 3686SOL    HW211958   6.343   4.865   1.480
 3687SOL     OW11959   2.943   0.238   6.503
 3687SOL    HW111960   3.004   0.159   6.514
 3687SOL    HW211961   2.907   0.265   6.592
 3688SOL     OW11962   0.891   3.305   6.888
 3688SOL    HW111963   0.982   3.336   6.917
 3688SOL    HW211964   0.822   3.345   6.950
 3689SOL     OW11965   1.838   1.236   4.860
 3689SOL    HW111966   1.819   1.138   4.862
 3689SOL    HW211967   1.907   1.258   4.930
 3690SOL     OW11968   5.503   0.711   5.929
 3690SOL    HW111969   5.502   0.717   6.029
 3690SOL    HW211970   5.597   0.703   5.897
 3691SOL     OW11971   3.010   3.646   0.425
 3691SOL    HW111972   3.103   3.681   0.434
 3691SOL    HW211973   2.992   3.581   0.498
 3692SOL     OW11974   1.574   6.681   5.212
 3692SOL    HW111975   1.638   6.748   5.249
 3692SOL    HW211976   1.595   6.591   5.249
 3693SOL     OW11977   2.958   2.153   3.324
 3693SOL    HW111978   3.043   2.124   3.280
 3693SOL    HW211979   2.886   2.087   3.302
 3694SOL     OW11980   1.329   6.043   3.413
 3694SOL    HW111981   1.321   5.946   3.389
 3694SOL    HW211982   1.398   6.054   3.485
 3695SOL     OW11983   2.174   1.571   2.310
 3695SOL    HW111984   2.188   1.610   2.219
 3695SOL    HW211985   2.236   1.614   2.376
 3696SOL     OW11986   4.413   6.777   5.640
 3696SOL    HW111987   4.492   6.736   5.593
 3696SOL    HW211988   4.440   6.865   5.678
 3697SOL     OW11989   6.990   6.606   3.237
 3697SOL    HW111990   6.934   6.683   3.267
 3697SOL    HW211991   7.010   6.547   3.315
 3698SOL     OW11992   3.069   0.258   6.018
 3698SOL    HW111993   3.015   0.297   6.093
 3698SOL    HW211994   3.121   0.179   6.051
 3699SOL     OW11995   6.586   3.779   2.977
 3699SOL    HW111996   6.605   3.877   2.976
 3699SOL    HW211997   6.648   3.733   2.914
 3700SOL     OW11998   6.093   0.699   4.225
 3700SOL    HW111999   6.147   0.782   4.236
 3700SOL    HW212000   6.072   0.660   4.315
 3701SOL     OW12001   6.945   0.898   4.732
 3701SOL    HW112002   6.871   0.921   4.668
 3701SOL    HW212003   6.928   0.944   4.819
 3702SOL     OW12004   3.720   6.806   1.333
 3702SOL    HW112005   3.720   6.762   1.423
 3702SOL    HW212006   3.765   6.895   1.340
 3703SOL     OW12007   3.554   4.479   6.352
 3703SOL    HW112008   3.575   4.391   6.396
 3703SOL    HW212009   3.639   4.530   6.340
 3704SOL     OW12010   2.626   1.020   2.606
 3704SOL    HW112011   2.670   1.048   2.691
 3704SOL    HW212012   2.696   0.985   2.543
 3705SOL     OW12013   4.908   0.455   3.402
 3705SOL    HW112014   4.932   0.446   3.305
 3705SOL    HW212015   4.900   0.364   3.443
 3706SOL     OW12016   1.838   2.840   4.368
 3706SOL    HW112017   1.822   2.939   4.366
 3706SOL    HW212018   1.752   2.793   4.386
 3707SOL     OW12019   4.756   2.312   5.993
 3707SOL    HW112020   4.838   2.307   5.935
 3707SOL    HW212021   4.689   2.245   5.961
 3708SOL     OW12022   6.048   0.666   6.663
 3708SOL    HW112023   6.122   0.628   6.607
 3708SOL    HW212024   5.960   0.632   6.630
 3709SOL     OW12025   3.743   0.594   6.084
 3709SOL    HW112026   3.648   0.563   6.087
 3709SOL    HW212027   3.795   0.548   6.155
 3710SOL     OW12028   6.705   5.185   0.512
 3710SOL    HW112029   6.679   5.098   0.469
 3710SOL    HW212030   6.636   5.254   0.490
 3711SOL     OW12031   0.004   5.560   1.951
 3711SOL    HW112032   0.103   5.565   1.935
 3711SOL    HW212033   6.995   5.648   1.984
 3712SOL     OW12034   0.625   6.825   6.855
 3712SOL    HW112035   0.616   6.739   6.905
 3712SOL    HW212036   0.643   6.806   6.758
 3713SOL     OW12037   3.306   6.055   5.497
 3713SOL    HW112038   3.246   5.989   5.542
 3713SOL    HW212039   3.265   6.086   5.412
 3714SOL     OW12040   4.433   0.334   4.760
 3714SOL    HW112041   4.506   0.353   4.695
 3714SOL    HW212042   4.453   0.248   4.808
 3715SOL     OW12043   4.968   5.401   4.503
 3715SOL    HW112044   4.906   5.340   4.551
 3715SOL    HW212045   5.022   5.454   4.569
 3716SOL     OW12046   6.909   7.017   4.904
 3716SOL    HW112047   6.897   0.065   4.835
 3716SOL    HW212048   6.956   6.939   4.864
 3717SOL     OW12049   6.201   5.875   0.846
 3717SOL    HW112050   6.290   5.849   0.807
 3717SOL    HW212051   6.128   5.846   0.785
 3718SOL     OW12052   0.906   6.594   0.055
 3718SOL    HW112053   0.947   6.600   0.146
 3718SOL    HW212054   0.852   6.676   0.037
 3719SOL     OW12055   4.451   4.870   0.126
 3719SOL    HW112056   4.376   4.869   0.060
 3719SOL    HW212057   4.485   4.963   0.137
 3720SOL     OW12058   6.689   1.766   6.177
 3720SOL    HW112059   6.750   1.726   6.109
 3720SOL    HW212060   6.652   1.693   6.235
 3721SOL     OW12061   5.452   5.180   0.472
 3721SOL    HW112062   5.480   5.267   0.433
 3721SOL    HW212063   5.504   5.163   0.556
 3722SOL     OW12064   6.844   6.163   2.637
 3722SOL    HW112065   6.902   6.186   2.559
 3722SOL    HW212066   6.759   6.215   2.633
 3723SOL     OW12067   5.381   7.019   1.555
 3723SOL    HW112068   5.424   0.006   1.465
 3723SOL    HW212069   5.358   0.085   1.592
 3724SOL     OW12070   1.323   5.402   0.452
 3724SOL    HW112071   1.390   5.435   0.519
 3724SOL    HW212072   1.304   5.306   0.470
 3725SOL     OW12073   0.190   5.979   6.710
 3725SOL    HW112074   0.120   6.043   6.744
 3725SOL    HW212075   0.255   5.959   6.784
 3726SOL     OW12076   5.677   3.957   1.818
 3726SOL    HW112077   5.764   3.973   1.865
 3726SOL    HW212078   5.631   3.879   1.860
 3727SOL     OW12079   1.385   2.456   5.040
 3727SOL    HW112080   1.329   2.513   4.980
 3727SOL    HW212081   1.481   2.467   5.016
 3728SOL     OW12082   2.339   2.836   0.153
 3728SOL    HW112083   2.336   2.748   0.200
 3728SOL    HW212084   2.258   2.889   0.178
 3729SOL     OW12085   0.728   1.803   3.211
 3729SOL    HW112086   0.697   1.875   3.273
 3729SOL    HW212087   0.655   1.783   3.145
 3730SOL     OW12088   3.190   1.477   6.835
 3730SOL    HW112089   3.123   1.436   6.774
 3730SOL    HW212090   3.183   1.577   6.830
 3731SOL     OW12091   4.354   0.670   1.042
 3731SOL    HW112092   4.417   0.740   1.007
 3731SOL    HW212093   4.267   0.678   0.993
 3732SOL     OW12094   2.202   3.397   5.855
 3732SOL    HW112095   2.215   3.369   5.951
 3732SOL    HW212096   2.105   3.407   5.836
 3733SOL     OW12097   2.738   4.104   1.630
 3733SOL    HW112098   2.697   4.099   1.539
 3733SOL    HW212099   2.679   4.159   1.690
 3734SOL     OW12100   4.374   1.117   2.757
 3734SOL    HW112101   4.290   1.102   2.705
 3734SOL    HW212102   4.437   1.172   2.702
 3735SOL     OW12103   2.294   2.415   2.706
 3735SOL    HW112104   2.300   2.515   2.706
 3735SOL    HW212105   2.302   2.382   2.612
 3736SOL     OW12106   6.439   2.248   0.839
 3736SOL    HW112107   6.512   2.182   0.860
 3736SOL    HW212108   6.354   2.198   0.820
 3737SOL     OW12109   5.015   0.194   3.025
 3737SOL    HW112110   4.999   0.270   3.088
 3737SOL    HW212111   4.935   0.181   2.967
 3738SOL     OW12112   6.337   6.646   3.781
 3738SOL    HW112113   6.296   6.556   3.762
 3738SOL    HW212114   6.429   6.648   3.744
 3739SOL     OW12115   0.952   3.920   2.585
 3739SOL    HW112116   0.875   3.878   2.631
 3739SOL    HW212117   0.919   3.974   2.507
 3740SOL     OW12118   5.137   1.375   6.678
 3740SOL    HW112119   5.213   1.311   6.677
 3740SOL    HW212120   5.129   1.417   6.768
 3741SOL     OW12121   4.569   3.453   1.042
 3741SOL    HW112122   4.607   3.397   0.968
 3741SOL    HW212123   4.541   3.393   1.118
 3742SOL     OW12124   3.703   2.458   5.841
 3742SOL    HW112125   3.627   2.450   5.776
 3742SOL    HW212126   3.789   2.442   5.793
 3743SOL     OW12127   6.553   4.978   6.703
 3743SOL    HW112128   6.555   5.017   6.796
 3743SOL    HW212129   6.644   4.980   6.664
 3744SOL     OW12130   0.083   5.133   3.706
 3744SOL    HW112131   0.122   5.225   3.705
 3744SOL    HW212132   0.156   5.065   3.699
 3745SOL     OW12133   3.468   5.636   2.424
 3745SOL    HW112134   3.491   5.606   2.332
 3745SOL    HW212135   3.447   5.734   2.423
 3746SOL     OW12136   4.500   2.082   1.779
 3746SOL    HW112137   4.418   2.025   1.775
 3746SOL    HW212138   4.560   2.060   1.702
 3747SOL     OW12139   3.386   0.594   6.924
 3747SOL    HW112140   3.456   0.561   6.861
 3747SOL    HW212141   3.407   0.561   7.016
 3748SOL     OW12142   5.875   0.743   1.750
 3748SOL    HW112143   5.957   0.704   1.709
 3748SOL    HW212144   5.897   0.778   1.841
 3749SOL     OW12145   1.512   6.678   4.582
 3749SOL    HW112146   1.608   6.700   4.566
 3749SOL    HW212147   1.459   6.700   4.500
 3750SOL     OW12148   0.159   3.689   0.868
 3750SOL    HW112149   0.169   3.752   0.946
 3750SOL    HW212150   0.170   3.595   0.900
 3751SOL     OW12151   0.307   4.670   2.994
 3751SOL    HW112152   0.282   4.705   2.903
 3751SOL    HW212153   0.242   4.600   3.022
 3752SOL     OW12154   6.575   0.804   5.879
 3752SOL    HW112155   6.502   0.780   5.815
 3752SOL    HW212156   6.647   0.853   5.829
 3753SOL     OW12157   6.641   0.599   3.846
 3753SOL    HW112158   6.647   0.641   3.755
 3753SOL    HW212159   6.717   0.535   3.858
 3754SOL     OW12160   1.719   1.749   1.476
 3754SOL    HW112161   1.778   1.806   1.533
 3754SOL    HW212162   1.708   1.791   1.386
 3755SOL     OW12163   2.330   4.503   4.358
 3755SOL    HW112164   2.320   4.426   4.422
 3755SOL    HW212165   2.262   4.573   4.380
 3756SOL     OW12166   2.715   6.307   6.443
 3756SOL    HW112167   2.755   6.244   6.510
 3756SOL    HW212168   2.779   6.383   6.427
 3757SOL     OW12169   6.345   4.560   1.258
 3757SOL    HW112170   6.364   4.508   1.174
 3757SOL    HW212171   6.251   4.595   1.255
 3758SOL     OW12172   2.337   0.175   3.406
 3758SOL    HW112173   2.326   0.092   3.461
 3758SOL    HW212174   2.366   0.150   3.314
 3759SOL     OW12175   5.372   0.575   4.308
 3759SOL    HW112176   5.371   0.633   4.226
 3759SOL    HW212177   5.325   0.623   4.383
 3760SOL     OW12178   0.057   0.456   3.675
 3760SOL    HW112179   0.147   0.413   3.677
 3760SOL    HW212180   0.063   0.543   3.626
 3761SOL     OW12181   5.090   1.117   3.943
 3761SOL    HW112182   5.126   1.103   3.850
 3761SOL    HW212183   5.116   1.039   4.000
 3762SOL     OW12184   0.938   3.418   2.508
 3762SOL    HW112185   1.038   3.417   2.512
 3762SOL    HW212186   0.903   3.332   2.547
 3763SOL     OW12187   6.861   4.759   0.174
 3763SOL    HW112188   6.783   4.709   0.138
 3763SOL    HW212189   6.893   4.716   0.259
 3764SOL     OW12190   2.009   6.735   2.685
 3764SOL    HW112191   1.928   6.692   2.644
 3764SOL    HW212192   2.068   6.664   2.723
 3765SOL     OW12193   6.325   2.015   1.827
 3765SOL    HW112194   6.424   2.006   1.811
 3765SOL    HW212195   6.275   1.982   1.747
 3766SOL     OW12196   1.051   3.922   3.501
 3766SOL    HW112197   1.043   3.840   3.557
 3766SOL    HW212198   1.073   4.000   3.558
 3767SOL     OW12199   1.964   4.915   5.862
 3767SOL    HW112200   1.962   5.014   5.870
 3767SOL    HW212201   1.904   4.875   5.931
 3768SOL     OW12202   1.674   0.143   4.986
 3768SOL    HW112203   1.590   0.118   5.035
 3768SOL    HW212204   1.728   0.205   5.042
 3769SOL     OW12205   5.318   6.140   4.394
 3769SOL    HW112206   5.352   6.147   4.488
 3769SOL    HW212207   5.383   6.089   4.338
 3770SOL     OW12208   1.195   0.736   0.664
 3770SOL    HW112209   1.164   0.670   0.732
 3770SOL    HW212210   1.126   0.744   0.592
 3771SOL     OW12211   0.220   4.966   0.237
 3771SOL    HW112212   0.274   4.902   0.291
 3771SOL    HW212213   0.130   4.926   0.219
 3772SOL     OW12214   1.692   5.963   0.605
 3772SOL    HW112215   1.789   5.950   0.588
 3772SOL    HW212216   1.641   5.881   0.578
 3773SOL     OW12217   5.452   3.374   5.943
 3773SOL    HW112218   5.502   3.295   5.979
 3773SOL    HW212219   5.446   3.444   6.014
 3774SOL     OW12220   6.026   5.876   1.071
 3774SOL    HW112221   6.082   5.866   0.988
 3774SOL    HW212222   6.019   5.788   1.117
 3775SOL     OW12223   4.524   5.351   3.971
 3775SOL    HW112224   4.525   5.384   4.065
 3775SOL    HW212225   4.588   5.274   3.962
 3776SOL     OW12226   3.358   2.878   6.575
 3776SOL    HW112227   3.454   2.852   6.577
 3776SOL    HW212228   3.302   2.801   6.545
 3777SOL     OW12229   2.650   6.401   4.120
 3777SOL    HW112230   2.653   6.441   4.028
 3777SOL    HW212231   2.741   6.405   4.160
 3778SOL     OW12232   3.000   5.304   4.893
 3778SOL    HW112233   3.001   5.226   4.830
 3778SOL    HW212234   2.934   5.287   4.966
 3779SOL     OW12235   6.717   5.294   6.665
 3779SOL    HW112236   6.755   5.363   6.726
 3779SOL    HW212237   6.765   5.296   6.577
 3780SOL     OW12238   6.103   3.913   1.418
 3780SOL    HW112239   6.079   3.844   1.486
 3780SOL    HW212240   6.181   3.881   1.364
 3781SOL     OW12241   2.250   5.898   4.893
 3781SOL    HW112242   2.310   5.853   4.960
 3781SOL    HW212243   2.306   5.938   4.821
 3782SOL     OW12244   5.295   5.741   1.670
 3782SOL    HW112245   5.350   5.667   1.708
 3782SOL    HW212246   5.350   5.824   1.664
 3783SOL     OW12247   4.972   5.326   5.099
 3783SOL    HW112248   4.904   5.252   5.103
 3783SOL    HW212249   5.009   5.341   5.191
 3784SOL     OW12250   5.883   2.176   4.080
 3784SOL    HW112251   5.815   2.126   4.027
 3784SOL    HW212252   5.974   2.142   4.059
 3785SOL     OW12253   1.325   3.871   4.453
 3785SOL    HW112254   1.241   3.845   4.406
 3785SOL    HW212255   1.304   3.936   4.526
 3786SOL     OW12256   2.631   2.284   4.667
 3786SOL    HW112257   2.600   2.377   4.688
 3786SOL    HW212258   2.719   2.288   4.619
 3787SOL     OW12259   4.490   6.875   3.068
 3787SOL    HW112260   4.446   6.855   3.156
 3787SOL    HW212261   4.488   6.794   3.010
 3788SOL     OW12262   0.069   3.481   5.691
 3788SOL    HW112263   0.120   3.395   5.689
 3788SOL    HW212264   0.129   3.556   5.663
 3789SOL     OW12265   1.706   3.066   2.800
 3789SOL    HW112266   1.687   3.094   2.706
 3789SOL    HW212267   1.769   2.988   2.799
 3790SOL     OW12268   0.586   6.361   1.098
 3790SOL    HW112269   0.506   6.383   1.155
 3790SOL    HW212270   0.557   6.353   1.003
 3791SOL     OW12271   5.539   1.151   6.330
 3791SOL    HW112272   5.569   1.089   6.402
 3791SOL    HW212273   5.457   1.114   6.285
 3792SOL     OW12274   0.678   0.904   4.064
 3792SOL    HW112275   0.709   0.814   4.032
 3792SOL    HW212276   0.605   0.937   4.004
 3793SOL     OW12277   5.512   5.461   0.280
 3793SOL    HW112278   5.412   5.459   0.288
 3793SOL    HW212279   5.539   5.476   0.185
 3794SOL     OW12280   1.994   3.550   6.652
 3794SOL    HW112281   2.025   3.569   6.745
 3794SOL    HW212282   2.071   3.553   6.589
 3795SOL     OW12283   2.886   5.800   1.619
 3795SOL    HW112284   2.973   5.767   1.584
 3795SOL    HW212285   2.833   5.840   1.544
 3796SOL     OW12286   3.946   2.209   6.572
 3796SOL    HW112287   3.998   2.142   6.520
 3796SOL    HW212288   3.937   2.178   6.667
 3797SOL     OW12289   1.170   4.576   3.023
 3797SOL    HW112290   1.232   4.572   2.944
 3797SOL    HW212291   1.152   4.672   3.046
 3798SOL     OW12292   1.978   6.675   3.190
 3798SOL    HW112293   1.899   6.670   3.128
 3798SOL    HW212294   1.967   6.752   3.252
 3799SOL     OW12295   0.123   2.441   2.728
 3799SOL    HW112296   0.115   2.501   2.648
 3799SOL    HW212297   0.188   2.367   2.707
 3800SOL     OW12298   5.951   1.963   2.390
 3800SOL    HW112299   5.961   2.060   2.413
 3800SOL    HW212300   5.905   1.915   2.465
 3801SOL     OW12301   5.124   0.489   1.813
 3801SOL    HW112302   5.125   0.406   1.868
 3801SOL    HW212303   5.030   0.521   1.802
 3802SOL     OW12304   6.214   1.967   2.052
 3802SOL    HW112305   6.227   2.020   2.136
 3802SOL    HW212306   6.246   2.020   1.973
 3803SOL     OW12307   3.201   4.018   4.114
 3803SOL    HW112308   3.285   3.977   4.079
 3803SOL    HW212309   3.134   4.024   4.040
 3804SOL     OW12310   3.275   6.466   4.060
 3804SOL    HW112311   3.294   6.554   4.016
 3804SOL    HW212312   3.357   6.436   4.110
 3805SOL     OW12313   2.357   2.590   0.246
 3805SOL    HW112314   2.298   2.619   0.321
 3805SOL    HW212315   2.436   2.540   0.283
 3806SOL     OW12316   3.754   3.875   0.545
 3806SOL    HW112317   3.691   3.866   0.621
 3806SOL    HW212318   3.703   3.882   0.459
 3807SOL     OW12319   1.521   4.482   4.338
 3807SOL    HW112320   1.549   4.572   4.373
 3807SOL    HW212321   1.421   4.476   4.337
 3808SOL     OW12322   3.814   6.855   6.593
 3808SOL    HW112323   3.839   6.761   6.573
 3808SOL    HW212324   3.768   6.859   6.682
 3809SOL     OW12325   5.152   2.202   1.471
 3809SOL    HW112326   5.117   2.115   1.437
 3809SOL    HW212327   5.144   2.271   1.399
 3810SOL     OW12328   6.597   2.581   2.065
 3810SOL    HW112329   6.539   2.605   1.987
 3810SOL    HW212330   6.674   2.526   2.032
 3811SOL     OW12331   0.199   5.886   4.801
 3811SOL    HW112332   0.115   5.859   4.849
 3811SOL    HW212333   0.218   5.982   4.818
 3812SOL     OW12334   4.381   6.882   0.148
 3812SOL    HW112335   4.413   6.818   0.218
 3812SOL    HW212336   4.443   6.960   0.143
 3813SOL     OW12337   6.236   3.915   0.530
 3813SOL    HW112338   6.184   3.923   0.445
 3813SOL    HW212339   6.189   3.852   0.592
 3814SOL     OW12340   6.348   6.917   4.688
 3814SOL    HW112341   6.444   6.924   4.716
 3814SOL    HW212342   6.291   6.967   4.753
 3815SOL     OW12343   5.165   3.617   6.852
 3815SOL    HW112344   5.251   3.567   6.843
 3815SOL    HW212345   5.110   3.603   6.769
 3816SOL     OW12346   0.688   5.573   5.927
 3816SOL    HW112347   0.756   5.522   5.981
 3816SOL    HW212348   0.665   5.658   5.974
 3817SOL     OW12349   4.898   3.343   2.270
 3817SOL    HW112350   4.891   3.363   2.368
 3817SOL    HW212351   4.811   3.363   2.225
 3818SOL     OW12352   0.412   0.646   2.261
 3818SOL    HW112353   0.443   0.740   2.274
 3818SOL    HW212354   0.472   0.600   2.196
 3819SOL     OW12355   6.433   4.627   4.051
 3819SOL    HW112356   6.397   4.667   3.967
 3819SOL    HW212357   6.467   4.535   4.031
 3820SOL     OW12358   5.274   6.948   4.246
 3820SOL    HW112359   5.327   0.007   4.227
 3820SOL    HW212360   5.329   6.884   4.299
 3821SOL     OW12361   1.316   0.133   0.266
 3821SOL    HW112362   1.317   0.189   0.348
 3821SOL    HW212363   1.344   0.188   0.187
 3822SOL     OW12364   4.311   1.567   0.808
 3822SOL    HW112365   4.369   1.509   0.864
 3822SOL    HW212366   4.335   1.556   0.712
 3823SOL     OW12367   4.865   4.807   5.816
 3823SOL    HW112368   4.869   4.753   5.900
 3823SOL    HW212369   4.802   4.765   5.752
 3824SOL     OW12370   2.075   2.889   0.274
 3824SOL    HW112371   1.990   2.932   0.305
 3824SOL    HW212372   2.054   2.807   0.221
 3825SOL     OW12373   1.915   3.950   6.188
 3825SOL    HW112374   1.923   3.940   6.287
 3825SOL    HW212375   1.938   3.864   6.143
 3826SOL     OW12376   5.865   4.291   2.870
 3826SOL    HW112377   5.822   4.246   2.792
 3826SOL    HW212378   5.831   4.385   2.878
 3827SOL     OW12379   1.401   1.312   1.566
 3827SOL    HW112380   1.364   1.299   1.474
 3827SOL    HW212381   1.338   1.274   1.633
 3828SOL     OW12382   4.032   3.887   4.633
 3828SOL    HW112383   4.011   3.951   4.707
 3828SOL    HW212384   4.069   3.803   4.671
 3829SOL     OW12385   0.665   4.091   2.873
 3829SOL    HW112386   0.724   4.101   2.953
 3829SOL    HW212387   0.590   4.156   2.879
 3830SOL     OW12388   0.171   0.767   4.994
 3830SOL    HW112389   0.135   0.774   4.901
 3830SOL    HW212390   0.129   0.689   5.041
 3831SOL     OW12391   4.551   1.738   3.335
 3831SOL    HW112392   4.575   1.666   3.399
 3831SOL    HW212393   4.457   1.725   3.304
 3832SOL     OW12394   0.863   0.603   2.325
 3832SOL    HW112395   0.800   0.532   2.294
 3832SOL    HW212396   0.956   0.578   2.298
 3833SOL     OW12397   0.793   0.063   6.269
 3833SOL    HW112398   0.811   0.089   6.364
 3833SOL    HW212399   0.851   0.116   6.208
 3834SOL     OW12400   4.583   4.083   1.053
 3834SOL    HW112401   4.539   4.077   1.143
 3834SOL    HW212402   4.593   3.991   1.015
 3835SOL     OW12403   3.916   5.649   5.400
 3835SOL    HW112404   3.890   5.743   5.420
 3835SOL    HW212405   3.984   5.648   5.327
 3836SOL     OW12406   0.000   5.551   6.453
 3836SOL    HW112407   6.931   5.556   6.491
 3836SOL    HW212408   0.042   5.464   6.478
 3837SOL     OW12409   4.209   4.844   4.862
 3837SOL    HW112410   4.161   4.925   4.895
 3837SOL    HW212411   4.152   4.795   4.797
 3838SOL     OW12412   1.655   1.606   3.356
 3838SOL    HW112413   1.568   1.653   3.340
 3838SOL    HW212414   1.727   1.650   3.303
 3839SOL     OW12415   4.096   0.526   2.851
 3839SOL    HW112416   4.125   0.543   2.757
 3839SOL    HW212417   4.123   0.433   2.878
 3840SOL     OW12418   2.627   0.520   0.351
 3840SOL    HW112419   2.569   0.572   0.413
 3840SOL    HW212420   2.705   0.577   0.322
 3841SOL     OW12421   6.326   4.698   3.491
 3841SOL    HW112422   6.238   4.745   3.501
 3841SOL    HW212423   6.376   4.703   3.577
 3842SOL     OW12424   2.253   2.935   5.338
 3842SOL    HW112425   2.211   2.893   5.257
 3842SOL    HW212426   2.327   2.995   5.309
 3843SOL     OW12427   5.392   2.412   0.793
 3843SOL    HW112428   5.375   2.504   0.828
 3843SOL    HW212429   5.315   2.353   0.817
 3844SOL     OW12430   1.635   5.181   0.134
 3844SOL    HW112431   1.587   5.152   0.052
 3844SOL    HW212432   1.658   5.278   0.127
 3845SOL     OW12433   2.262   6.349   0.423
 3845SOL    HW112434   2.230   6.419   0.360
 3845SOL    HW212435   2.242   6.377   0.517
 3846SOL     OW12436   0.943   3.078   3.891
 3846SOL    HW112437   1.033   3.119   3.897
 3846SOL    HW212438   0.932   3.011   3.964
 3847SOL     OW12439   6.321   1.099   5.607
 3847SOL    HW112440   6.227   1.102   5.641
 3847SOL    HW212441   6.330   1.160   5.528
 3848SOL     OW12442   5.272   3.679   2.088
 3848SOL    HW112443   5.192   3.634   2.130
 3848SOL    HW212444   5.308   3.621   2.015
 3849SOL     OW12445   7.000   5.768   6.220
 3849SOL    HW112446   0.055   5.821   6.188
 3849SOL    HW212447   7.018   5.734   6.312
 3850SOL     OW12448   2.702   2.102   1.248
 3850SOL    HW112449   2.737   2.121   1.156
 3850SOL    HW212450   2.641   2.176   1.277
 3851SOL     OW12451   6.941   5.572   3.802
 3851SOL    HW112452   6.870   5.507   3.827
 3851SOL    HW212453   6.992   5.538   3.723
 3852SOL     OW12454   3.077   6.479   4.777
 3852SOL    HW112455   3.057   6.552   4.712
 3852SOL    HW212456   3.068   6.390   4.731
 3853SOL     OW12457   1.842   1.262   3.697
 3853SOL    HW112458   1.851   1.163   3.691
 3853SOL    HW212459   1.877   1.304   3.613
 3854SOL     OW12460   1.350   2.482   2.699
 3854SOL    HW112461   1.398   2.504   2.614
 3854SOL    HW212462   1.368   2.387   2.724
 3855SOL     OW12463   4.536   6.736   0.348
 3855SOL    HW112464   4.543   6.638   0.331
 3855SOL    HW212465   4.622   6.770   0.385
 3856SOL     OW12466   0.233   2.093   6.171
 3856SOL    HW112467   0.295   2.148   6.226
 3856SOL    HW212468   0.146   2.143   6.159
 3857SOL     OW12469   2.013   0.548   6.032
 3857SOL    HW112470   1.958   0.612   5.978
 3857SOL    HW212471   2.013   0.577   6.128
 3858SOL     OW12472   3.415   1.511   5.181
 3858SOL    HW112473   3.432   1.434   5.119
 3858SOL    HW212474   3.382   1.589   5.129
 3859SOL     OW12475   5.559   0.261   1.245
 3859SOL    HW112476   5.566   0.351   1.201
 3859SOL    HW212477   5.638   0.247   1.305
 3860SOL     OW12478   1.850   0.551   4.664
 3860SOL    HW112479   1.892   0.612   4.731
 3860SOL    HW212480   1.809   0.605   4.591
 3861SOL     OW12481   4.269   5.309   2.144
 3861SOL    HW112482   4.180   5.294   2.187
 3861SOL    HW212483   4.322   5.224   2.148
 3862SOL     OW12484   0.524   6.634   4.090
 3862SOL    HW112485   0.460   6.556   4.091
 3862SOL    HW212486   0.610   6.606   4.047
 3863SOL     OW12487   4.462   0.857   0.520
 3863SOL    HW112488   4.420   0.767   0.529
 3863SOL    HW212489   4.412   0.910   0.451
 3864SOL     OW12490   2.115   0.888   4.720
 3864SOL    HW112491   2.081   0.924   4.634
 3864SOL    HW212492   2.213   0.909   4.729
 3865SOL     OW12493   4.387   0.620   0.060
 3865SOL    HW112494   4.365   0.705   0.108
 3865SOL    HW212495   4.404   0.640   6.988
 3866SOL     OW12496   3.122   2.387   0.014
 3866SOL    HW112497   3.152   2.467   0.066
 3866SOL    HW212498   3.056   2.415   6.968
 3867SOL     OW12499   1.163   4.317   2.956
 3867SOL    HW112500   1.159   4.355   2.864
 3867SOL    HW212501   1.132   4.386   3.022
 3868SOL     OW12502   3.494   0.854   6.774
 3868SOL    HW112503   3.507   0.771   6.830
 3868SOL    HW212504   3.451   0.829   6.688
 3869SOL     OW12505   6.922   3.262   3.741
 3869SOL    HW112506   7.009   3.307   3.763
 3869SOL    HW212507   6.858   3.273   3.817
 3870SOL     OW12508   6.693   0.030   3.244
 3870SOL    HW112509   6.673   0.119   3.286
 3870SOL    HW212510   6.612   6.996   3.247
 3871SOL     OW12511   3.351   6.098   3.997
 3871SOL    HW112512   3.260   6.137   3.985
 3871SOL    HW212513   3.372   6.037   3.921
 3872SOL     OW12514   3.499   3.208   4.372
 3872SOL    HW112515   3.596   3.206   4.350
 3872SOL    HW212516   3.448   3.250   4.296
 3873SOL     OW12517   5.281   3.394   0.196
 3873SOL    HW112518   5.292   3.301   0.231
 3873SOL    HW212519   5.362   3.448   0.221
 3874SOL     OW12520   4.324   6.721   0.996
 3874SOL    HW112521   4.242   6.708   1.051
 3874SOL    HW212522   4.316   6.807   0.945
 3875SOL     OW12523   1.999   2.535   4.564
 3875SOL    HW112524   2.023   2.450   4.518
 3875SOL    HW212525   2.060   2.549   4.642
 3876SOL     OW12526   4.344   6.952   0.799
 3876SOL    HW112527   4.324   6.887   0.725
 3876SOL    HW212528   4.280   0.004   0.795
 3877SOL     OW12529   6.661   2.040   0.555
 3877SOL    HW112530   6.675   2.117   0.493
 3877SOL    HW212531   6.646   2.075   0.648
 3878SOL     OW12532   5.011   0.348   4.323
 3878SOL    HW112533   4.938   0.281   4.334
 3878SOL    HW212534   5.059   0.361   4.410
 3879SOL     OW12535   5.452   4.919   6.922
 3879SOL    HW112536   5.391   4.911   6.843
 3879SOL    HW212537   5.404   4.890   7.004
 3880SOL     OW12538   5.553   4.784   5.189
 3880SOL    HW112539   5.621   4.718   5.221
 3880SOL    HW212540   5.548   4.780   5.089
 3881SOL     OW12541   1.220   3.360   0.612
 3881SOL    HW112542   1.317   3.367   0.636
 3881SOL    HW212543   1.175   3.447   0.628
 3882SOL     OW12544   1.319   1.019   0.254
 3882SOL    HW112545   1.247   1.088   0.259
 3882SOL    HW212546   1.360   1.020   0.163
 3883SOL     OW12547   4.662   0.367   2.972
 3883SOL    HW112548   4.725   0.360   2.894
 3883SOL    HW212549   4.596   0.440   2.955
 3884SOL     OW12550   0.492   6.089   3.391
 3884SOL    HW112551   0.479   6.031   3.472
 3884SOL    HW212552   0.493   6.033   3.309
 3885SOL     OW12553   5.896   6.847   2.829
 3885SOL    HW112554   5.984   6.801   2.830
 3885SOL    HW212555   5.904   6.936   2.874
 3886SOL     OW12556   4.390   6.239   6.060
 3886SOL    HW112557   4.402   6.312   6.128
 3886SOL    HW212558   4.376   6.280   5.970
 3887SOL     OW12559   1.018   6.298   0.732
 3887SOL    HW112560   1.050   6.377   0.680
 3887SOL    HW212561   1.037   6.214   0.681
 3888SOL     OW12562   5.471   6.608   4.689
 3888SOL    HW112563   5.390   6.587   4.744
 3888SOL    HW212564   5.442   6.636   4.597
 3889SOL     OW12565   5.697   2.363   6.850
 3889SOL    HW112566   5.614   2.311   6.873
 3889SOL    HW212567   5.691   2.454   6.890
 3890SOL     OW12568   5.501   4.476   4.532
 3890SOL    HW112569   5.551   4.506   4.450
 3890SOL    HW212570   5.540   4.389   4.563
 3891SOL     OW12571   5.062   4.309   3.595
 3891SOL    HW112572   4.994   4.367   3.641
 3891SOL    HW212573   5.144   4.363   3.575
 3892SOL     OW12574   0.400   2.886   1.246
 3892SOL    HW112575   0.467   2.813   1.238
 3892SOL    HW212576   0.331   2.876   1.173
 3893SOL     OW12577   4.653   3.301   1.440
 3893SOL    HW112578   4.594   3.354   1.501
 3893SOL    HW212579   4.604   3.277   1.357
 3894SOL     OW12580   5.109   0.644   6.876
 3894SOL    HW112581   5.145   0.719   6.822
 3894SOL    HW212582   5.062   0.680   6.957
 3895SOL     OW12583   1.555   0.308   5.290
 3895SOL    HW112584   1.479   0.369   5.309
 3895SOL    HW212585   1.588   0.268   5.376
 3896SOL     OW12586   0.905   0.767   6.737
 3896SOL    HW112587   0.826   0.819   6.771
 3896SOL    HW212588   0.915   0.683   6.791
 3897SOL     OW12589   4.663   5.849   2.484
 3897SOL    HW112590   4.652   5.852   2.584
 3897SOL    HW212591   4.638   5.759   2.450
 3898SOL     OW12592   3.983   2.759   7.023
 3898SOL    HW112593   4.020   2.749   6.930
 3898SOL    HW212594   3.892   2.717   0.004
 3899SOL     OW12595   4.470   6.844   6.425
 3899SOL    HW112596   4.499   6.774   6.491
 3899SOL    HW212597   4.416   6.802   6.353
 3900SOL     OW12598   5.634   3.020   3.877
 3900SOL    HW112599   5.724   3.024   3.920
 3900SOL    HW212600   5.640   3.052   3.782
 3901SOL     OW12601   3.443   0.320   5.724
 3901SOL    HW112602   3.346   0.296   5.712
 3901SOL    HW212603   3.450   0.415   5.754
 3902SOL     OW12604   6.146   3.190   2.119
 3902SOL    HW112605   6.183   3.194   2.026
 3902SOL    HW212606   6.195   3.120   2.171
 3903SOL     OW12607   4.090   6.736   0.606
 3903SOL    HW112608   4.187   6.759   0.598
 3903SOL    HW212609   4.051   6.782   0.685
 3904SOL     OW12610   1.475   0.350   6.559
 3904SOL    HW112611   1.489   0.326   6.655
 3904SOL    HW212612   1.558   0.331   6.508
 3905SOL     OW12613   6.901   0.330   6.594
 3905SOL    HW112614   6.896   0.426   6.565
 3905SOL    HW212615   6.975   0.319   6.660
 3906SOL     OW12616   5.689   6.535   5.988
 3906SOL    HW112617   5.667   6.554   5.892
 3906SOL    HW212618   5.624   6.469   6.025
 3907SOL     OW12619   5.728   0.973   3.994
 3907SOL    HW112620   5.787   0.944   3.919
 3907SOL    HW212621   5.770   0.948   4.081
 3908SOL     OW12622   0.876   2.682   0.276
 3908SOL    HW112623   0.913   2.598   0.238
 3908SOL    HW212624   0.840   2.665   0.368
 3909SOL     OW12625   5.246   6.335   4.630
 3909SOL    HW112626   5.344   6.338   4.649
 3909SOL    HW212627   5.229   6.371   4.538
 3910SOL     OW12628   3.661   4.116   2.651
 3910SOL    HW112629   3.742   4.090   2.704
 3910SOL    HW212630   3.690   4.153   2.562
 3911SOL     OW12631   6.107   2.026   5.146
 3911SOL    HW112632   6.172   1.968   5.097
 3911SOL    HW212633   6.074   2.099   5.085
 3912SOL     OW12634   5.290   1.346   4.797
 3912SOL    HW112635   5.294   1.315   4.702
 3912SOL    HW212636   5.332   1.277   4.857
 3913SOL     OW12637   1.898   0.114   6.414
 3913SOL    HW112638   1.872   0.049   6.486
 3913SOL    HW212639   1.990   0.148   6.432
 3914SOL     OW12640   3.006   0.582   0.805
 3914SOL    HW112641   3.068   0.519   0.852
 3914SOL    HW212642   3.060   0.650   0.755
 3915SOL     OW12643   5.400   5.974   1.054
 3915SOL    HW112644   5.419   6.056   1.001
 3915SOL    HW212645   5.461   5.970   1.133
 3916SOL     OW12646   1.244   6.945   3.160
 3916SOL    HW112647   1.150   6.950   3.126
 3916SOL    HW212648   1.250   6.993   3.248
 3917SOL     OW12649   0.505   6.605   7.002
 3917SOL    HW112650   0.515   6.680   0.043
 3917SOL    HW212651   0.410   6.574   7.000
 3918SOL     OW12652   5.780   5.450   1.740
 3918SOL    HW112653   5.787   5.396   1.656
 3918SOL    HW212654   5.791   5.547   1.718
 3919SOL     OW12655   4.531   0.140   0.448
 3919SOL    HW112656   4.554   0.115   0.542
 3919SOL    HW212657   4.432   0.155   0.441
 3920SOL     OW12658   2.566   3.657   0.554
 3920SOL    HW112659   2.621   3.664   0.470
 3920SOL    HW212660   2.538   3.748   0.583
 3921SOL     OW12661   0.092   3.636   1.252
 3921SOL    HW112662   0.082   3.584   1.337
 3921SOL    HW212663   0.015   3.700   1.243
 3922SOL     OW12664   6.929   4.136   1.849
 3922SOL    HW112665   6.846   4.082   1.862
 3922SOL    HW212666   6.968   4.158   1.938
 3923SOL     OW12667   6.784   0.712   0.510
 3923SOL    HW112668   6.877   0.737   0.481
 3923SOL    HW212669   6.787   0.677   0.604
 3924SOL     OW12670   5.609   5.272   3.883
 3924SOL    HW112671   5.633   5.181   3.847
 3924SOL    HW212672   5.587   5.265   3.980
 3925SOL     OW12673   1.516   4.910   1.403
 3925SOL    HW112674   1.494   4.899   1.306
 3925SOL    HW212675   1.475   4.835   1.455
 3926SOL     OW12676   4.974   4.789   2.632
 3926SOL    HW112677   4.983   4.821   2.727
 3926SOL    HW212678   4.891   4.827   2.592
 3927SOL     OW12679   6.201   2.785   5.391
 3927SOL    HW112680   6.200   2.765   5.293
 3927SOL    HW212681   6.285   2.835   5.413
 3928SOL     OW12682   4.293   6.441   6.984
 3928SOL    HW112683   4.268   6.438   6.888
 3928SOL    HW212684   4.251   6.521   0.003
 3929SOL     OW12685   0.714   0.589   4.515
 3929SOL    HW112686   0.633   0.584   4.457
 3929SOL    HW212687   0.689   0.623   4.605
 3930SOL     OW12688   2.900   2.083   4.593
 3930SOL    HW112689   2.992   2.087   4.633
 3930SOL    HW212690   2.833   2.062   4.665
 3931SOL     OW12691   1.594   1.593   1.999
 3931SOL    HW112692   1.635   1.635   1.918
 3931SOL    HW212693   1.663   1.539   2.047
 3932SOL     OW12694   0.984   3.826   3.862
 3932SOL    HW112695   1.009   3.781   3.948
 3932SOL    HW212696   1.034   3.782   3.786
 3933SOL     OW12697   1.842   6.831   6.296
 3933SOL    HW112698   1.840   6.889   6.377
 3933SOL    HW212699   1.780   6.754   6.308
 3934SOL     OW12700   6.481   0.415   6.839
 3934SOL    HW112701   6.462   0.395   6.742
 3934SOL    HW212702   6.530   0.501   6.846
 3935SOL     OW12703   3.094   0.091   6.946
 3935SOL    HW112704   3.018   0.054   6.998
 3935SOL    HW212705   3.149   0.151   7.004
 3936SOL     OW12706   6.527   5.086   5.217
 3936SOL    HW112707   6.527   5.022   5.294
 3936SOL    HW212708   6.553   5.037   5.134
 3937SOL     OW12709   0.503   1.783   3.041
 3937SOL    HW112710   0.440   1.716   3.004
 3937SOL    HW212711   0.485   1.873   3.001
 3938SOL     OW12712   1.250   1.914   3.312
 3938SOL    HW112713   1.165   1.875   3.278
 3938SOL    HW212714   1.289   1.973   3.242
 3939SOL     OW12715   2.404   2.663   2.962
 3939SOL    HW112716   2.471   2.629   3.028
 3939SOL    HW212717   2.320   2.688   3.010
 3940SOL     OW12718   4.462   4.436   0.763
 3940SOL    HW112719   4.420   4.464   0.676
 3940SOL    HW212720   4.542   4.379   0.744
 3941SOL     OW12721   5.264   3.996   5.657
 3941SOL    HW112722   5.352   3.987   5.702
 3941SOL    HW212723   5.218   4.079   5.689
 3942SOL     OW12724   0.401   6.417   0.228
 3942SOL    HW112725   0.487   6.367   0.240
 3942SOL    HW212726   0.359   6.433   0.317
 3943SOL     OW12727   0.210   2.618   3.771
 3943SOL    HW112728   0.245   2.525   3.777
 3943SOL    HW212729   0.209   2.659   3.862
 3944SOL     OW12730   4.932   2.802   4.942
 3944SOL    HW112731   4.946   2.812   5.041
 3944SOL    HW212732   4.873   2.875   4.909
 3945SOL     OW12733   6.832   1.988   0.171
 3945SOL    HW112734   6.822   2.073   0.120
 3945SOL    HW212735   6.900   1.930   0.125
 3946SOL     OW12736   5.283   4.361   4.876
 3946SOL    HW112737   5.322   4.446   4.839
 3946SOL    HW212738   5.261   4.300   4.800
 3947SOL     OW12739   4.691   6.244   6.830
 3947SOL    HW112740   4.656   6.265   6.921
 3947SOL    HW212741   4.761   6.173   6.837
 3948SOL     OW12742   0.164   4.758   1.726
 3948SOL    HW112743   0.095   4.819   1.685
 3948SOL    HW212744   0.255   4.797   1.711
 3949SOL     OW12745   4.928   6.635   3.494
 3949SOL    HW112746   4.988   6.566   3.455
 3949SOL    HW212747   4.908   6.705   3.426
 3950SOL     OW12748   1.472   4.522   0.589
 3950SOL    HW112749   1.431   4.598   0.538
 3950SOL    HW212750   1.401   4.473   0.639
 3951SOL     OW12751   4.511   6.989   1.688
 3951SOL    HW112752   4.573   6.918   1.655
 3951SOL    HW212753   4.439   7.004   1.620
 3952SOL     OW12754   6.914   2.427   1.503
 3952SOL    HW112755   6.990   2.382   1.456
 3952SOL    HW212756   6.949   2.503   1.557
 3953SOL     OW12757   3.947   4.645   1.322
 3953SOL    HW112758   4.036   4.605   1.302
 3953SOL    HW212759   3.878   4.572   1.327
 3954SOL     OW12760   4.106   5.241   5.916
 3954SOL    HW112761   4.070   5.285   5.998
 3954SOL    HW212762   4.094   5.142   5.923
 3955SOL     OW12763   2.987   0.857   6.158
 3955SOL    HW112764   2.931   0.779   6.186
 3955SOL    HW212765   2.985   0.866   6.058
 3956SOL     OW12766   1.422   0.619   2.493
 3956SOL    HW112767   1.456   0.675   2.569
 3956SOL    HW212768   1.471   0.532   2.491
 3957SOL     OW12769   4.097   7.023   4.604
 3957SOL    HW112770   4.030   0.047   4.660
 3957SOL    HW212771   4.167   0.063   4.572
 3958SOL     OW12772   5.740   1.651   4.253
 3958SOL    HW112773   5.791   1.584   4.306
 3958SOL    HW212774   5.724   1.616   4.161
 3959SOL     OW12775   5.362   5.956   0.214
 3959SOL    HW112776   5.277   5.905   0.208
 3959SOL    HW212777   5.433   5.898   0.254
 3960SOL     OW12778   5.061   0.889   6.486
 3960SOL    HW112779   4.969   0.914   6.514
 3960SOL    HW212780   5.112   0.970   6.458
 3961SOL     OW12781   4.332   0.867   3.079
 3961SOL    HW112782   4.399   0.872   3.004
 3961SOL    HW212783   4.335   0.776   3.120
 3962SOL     OW12784   1.833   5.050   6.266
 3962SOL    HW112785   1.925   5.021   6.239
 3962SOL    HW212786   1.794   5.109   6.195
 3963SOL     OW12787   4.336   5.196   2.537
 3963SOL    HW112788   4.267   5.125   2.551
 3963SOL    HW212789   4.344   5.216   2.439
 3964SOL     OW12790   4.955   4.672   3.756
 3964SOL    HW112791   4.955   4.756   3.702
 3964SOL    HW212792   4.909   4.599   3.704
 3965SOL     OW12793   4.967   3.517   4.180
 3965SOL    HW112794   4.960   3.556   4.088
 3965SOL    HW212795   4.943   3.420   4.176
 3966SOL     OW12796   4.172   6.177   6.365
 3966SOL    HW112797   4.110   6.100   6.384
 3966SOL    HW212798   4.260   6.142   6.333
 3967SOL     OW12799   1.928   4.349   2.120
 3967SOL    HW112800   1.900   4.333   2.214
 3967SOL    HW212801   1.909   4.268   2.064
 3968SOL     OW12802   4.162   0.500   0.895
 3968SOL    HW112803   4.093   0.573   0.889
 3968SOL    HW212804   4.157   0.457   0.985
 3969SOL     OW12805   1.153   4.885   2.148
 3969SOL    HW112806   1.233   4.875   2.207
 3969SOL    HW212807   1.070   4.870   2.202
 3970SOL     OW12808   4.907   6.025   3.009
 3970SOL    HW112809   4.909   5.975   2.923
 3970SOL    HW212810   4.812   6.034   3.040
 3971SOL     OW12811   3.177   5.377   4.079
 3971SOL    HW112812   3.214   5.315   4.148
 3971SOL    HW212813   3.220   5.467   4.087
 3972SOL     OW12814   1.797   3.944   6.934
 3972SOL    HW112815   1.729   3.886   6.980
 3972SOL    HW212816   1.883   3.941   6.985
 3973SOL     OW12817   1.179   5.571   0.307
 3973SOL    HW112818   1.211   5.487   0.351
 3973SOL    HW212819   1.208   5.650   0.361
 3974SOL     OW12820   1.778   0.068   5.866
 3974SOL    HW112821   1.847   0.020   5.812
 3974SOL    HW212822   1.789   0.167   5.855
 3975SOL     OW12823   5.202   1.108   6.420
 3975SOL    HW112824   5.252   1.142   6.500
 3975SOL    HW212825   5.253   1.129   6.337
 3976SOL     OW12826   2.087   5.925   3.098
 3976SOL    HW112827   2.136   5.857   3.043
 3976SOL    HW212828   2.153   5.975   3.154
 3977SOL     OW12829   1.273   2.892   6.450
 3977SOL    HW112830   1.320   2.970   6.408
 3977SOL    HW212831   1.327   2.810   6.437
 3978SOL     OW12832   5.541   5.220   3.554
 3978SOL    HW112833   5.612   5.176   3.609
 3978SOL    HW212834   5.457   5.227   3.609
 3979SOL     OW12835   3.747   0.865   6.551
 3979SOL    HW112836   3.782   0.773   6.538
 3979SOL    HW212837   3.703   0.896   6.467
 3980SOL     OW12838   5.533   6.808   6.573
 3980SOL    HW112839   5.522   6.871   6.649
 3980SOL    HW212840   5.596   6.735   6.599
 3981SOL     OW12841   4.406   5.747   0.533
 3981SOL    HW112842   4.412   5.701   0.621
 3981SOL    HW212843   4.487   5.725   0.478
 3982SOL     OW12844   2.586   6.691   2.948
 3982SOL    HW112845   2.503   6.741   2.920
 3982SOL    HW212846   2.661   6.715   2.886
 3983SOL     OW12847   5.160   5.195   4.081
 3983SOL    HW112848   5.061   5.205   4.072
 3983SOL    HW212849   5.195   5.264   4.144
 3984SOL     OW12850   6.458   0.799   1.675
 3984SOL    HW112851   6.476   0.701   1.666
 3984SOL    HW212852   6.544   0.846   1.698
 3985SOL     OW12853   3.254   5.636   6.822
 3985SOL    HW112854   3.338   5.583   6.821
 3985SOL    HW212855   3.265   5.719   6.767
 3986SOL     OW12856   5.066   1.770   2.586
 3986SOL    HW112857   5.022   1.696   2.636
 3986SOL    HW212858   5.012   1.792   2.504
 3987SOL     OW12859   3.525   4.969   4.169
 3987SOL    HW112860   3.547   4.964   4.072
 3987SOL    HW212861   3.551   5.060   4.204
 3988SOL     OW12862   3.772   5.281   6.895
 3988SOL    HW112863   3.771   5.306   6.992
 3988SOL    HW212864   3.690   5.228   6.874
 3989SOL     OW12865   7.020   2.173   6.804
 3989SOL    HW112866   6.927   2.175   6.840
 3989SOL    HW212867   0.036   2.265   6.809
 3990SOL     OW12868   5.046   2.779   2.326
 3990SOL    HW112869   5.102   2.744   2.251
 3990SOL    HW212870   5.073   2.736   2.412
 3991SOL     OW12871   6.569   1.388   1.678
 3991SOL    HW112872   6.502   1.451   1.717
 3991SOL    HW212873   6.525   1.332   1.608
 3992SOL     OW12874   2.788   2.319   0.595
 3992SOL    HW112875   2.790   2.224   0.627
 3992SOL    HW212876   2.878   2.360   0.606
 3993SOL     OW12877   1.504   2.834   2.555
 3993SOL    HW112878   1.514   2.933   2.542
 3993SOL    HW212879   1.446   2.817   2.634
 3994SOL     OW12880   2.882   0.235   5.807
 3994SOL    HW112881   2.889   0.192   5.896
 3994SOL    HW212882   2.966   0.286   5.787
 3995SOL     OW12883   1.948   3.461   5.761
 3995SOL    HW112884   1.977   3.495   5.672
 3995SOL    HW212885   1.862   3.506   5.788
 3996SOL     OW12886   7.019   6.523   5.397
 3996SOL    HW112887   6.968   6.607   5.413
 3996SOL    HW212888   0.088   6.532   5.434
 3997SOL     OW12889   5.405   1.800   3.682
 3997SOL    HW112890   5.479   1.750   3.638
 3997SOL    HW212891   5.352   1.737   3.739
 3998SOL     OW12892   3.651   1.002   4.607
 3998SOL    HW112893   3.642   1.048   4.519
 3998SOL    HW212894   3.573   1.026   4.665
 3999SOL     OW12895   5.969   2.199   3.741
 3999SOL    HW112896   5.958   2.239   3.650
 3999SOL    HW212897   6.041   2.130   3.739
 4000SOL     OW12898   2.798   6.731   4.215
 4000SOL    HW112899   2.794   6.770   4.307
 4000SOL    HW212900   2.712   6.751   4.167
 4001SOL     OW12901   2.776   1.729   4.308
 4001SOL    HW112902   2.801   1.633   4.320
 4001SOL    HW212903   2.858   1.782   4.289
 4002SOL     OW12904   2.613   3.625   1.700
 4002SOL    HW112905   2.541   3.585   1.757
 4002SOL    HW212906   2.615   3.579   1.611
 4003SOL     OW12907   3.236   0.244   4.001
 4003SOL    HW112908   3.249   0.209   3.908
 4003SOL    HW212909   3.301   0.199   4.062
 4004SOL     OW12910   6.393   2.176   4.370
 4004SOL    HW112911   6.308   2.163   4.318
 4004SOL    HW212912   6.391   2.267   4.413
 4005SOL     OW12913   4.610   5.580   5.981
 4005SOL    HW112914   4.606   5.480   5.978
 4005SOL    HW212915   4.535   5.618   5.927
 4006SOL     OW12916   3.920   5.113   2.033
 4006SOL    HW112917   3.883   5.203   2.010
 4006SOL    HW212918   3.964   5.074   1.952
 4007SOL     OW12919   0.207   2.833   6.946
 4007SOL    HW112920   0.259   2.863   0.002
 4007SOL    HW212921   0.125   2.889   6.935
 4008SOL     OW12922   2.693   2.387   4.945
 4008SOL    HW112923   2.624   2.329   4.987
 4008SOL    HW212924   2.655   2.431   4.863
 4009SOL     OW12925   3.944   3.094   2.170
 4009SOL    HW112926   3.857   3.134   2.142
 4009SOL    HW212927   3.992   3.157   2.231
 4010SOL     OW12928   2.487   2.899   1.699
 4010SOL    HW112929   2.508   2.997   1.697
 4010SOL    HW212930   2.541   2.852   1.629
 4011SOL     OW12931   0.955   1.918   2.170
 4011SOL    HW112932   0.883   1.867   2.216
 4011SOL    HW212933   1.044   1.876   2.189
 4012SOL     OW12934   6.814   4.284   2.565
 4012SOL    HW112935   6.719   4.262   2.585
 4012SOL    HW212936   6.819   4.371   2.517
 4013SOL     OW12937   3.868   2.120   4.670
 4013SOL    HW112938   3.949   2.164   4.709
 4013SOL    HW212939   3.886   2.099   4.574
 4014SOL     OW12940   6.190   6.723   2.469
 4014SOL    HW112941   6.138   6.763   2.393
 4014SOL    HW212942   6.152   6.634   2.492
 4015SOL     OW12943   4.357   4.364   6.291
 4015SOL    HW112944   4.418   4.313   6.352
 4015SOL    HW212945   4.277   4.395   6.343
 4016SOL     OW12946   2.542   6.216   6.042
 4016SOL    HW112947   2.595   6.288   5.997
 4016SOL    HW212948   2.602   6.161   6.099
 4017SOL     OW12949   0.038   5.438   0.250
 4017SOL    HW112950   0.114   5.415   0.190
 4017SOL    HW212951   0.073   5.475   0.336
 4018SOL     OW12952   4.555   5.710   1.800
 4018SOL    HW112953   4.612   5.737   1.878
 4018SOL    HW212954   4.504   5.628   1.823
 4019SOL     OW12955   5.331   4.248   2.503
 4019SOL    HW112956   5.325   4.263   2.405
 4019SOL    HW212957   5.239   4.234   2.540
 4020SOL     OW12958   4.644   2.701   5.113
 4020SOL    HW112959   4.743   2.684   5.107
 4020SOL    HW212960   4.597   2.635   5.054
 4021SOL     OW12961   3.014   5.319   6.013
 4021SOL    HW112962   3.066   5.326   5.927
 4021SOL    HW212963   3.017   5.224   6.045
 4022SOL     OW12964   4.870   1.618   0.208
 4022SOL    HW112965   4.835   1.688   0.269
 4022SOL    HW212966   4.936   1.659   0.145
 4023SOL     OW12967   6.531   2.125   5.035
 4023SOL    HW112968   6.570   2.078   5.114
 4023SOL    HW212969   6.445   2.080   5.009
 4024SOL     OW12970   3.855   5.620   4.151
 4024SOL    HW112971   3.788   5.555   4.116
 4024SOL    HW212972   3.927   5.634   4.082
 4025SOL     OW12973   0.457   3.459   4.105
 4025SOL    HW112974   0.551   3.425   4.114
 4025SOL    HW212975   0.396   3.382   4.087
 4026SOL     OW12976   4.913   6.124   3.887
 4026SOL    HW112977   4.923   6.133   3.986
 4026SOL    HW212978   4.984   6.178   3.841
 4027SOL     OW12979   4.321   4.719   1.601
 4027SOL    HW112980   4.231   4.679   1.580
 4027SOL    HW212981   4.371   4.658   1.662
 4028SOL     OW12982   2.306   1.722   3.419
 4028SOL    HW112983   2.295   1.668   3.501
 4028SOL    HW212984   2.400   1.713   3.385
 4029SOL     OW12985   1.798   4.300   5.928
 4029SOL    HW112986   1.866   4.256   5.869
 4029SOL    HW212987   1.817   4.398   5.933
 4030SOL     OW12988   0.819   1.820   5.146
 4030SOL    HW112989   0.882   1.789   5.074
 4030SOL    HW212990   0.868   1.823   5.233
 4031SOL     OW12991   4.047   5.869   4.234
 4031SOL    HW112992   3.982   5.797   4.211
 4031SOL    HW212993   4.035   5.896   4.330
 4032SOL     OW12994   5.564   0.174   3.826
 4032SOL    HW112995   5.551   0.075   3.821
 4032SOL    HW212996   5.517   0.218   3.749
 4033SOL     OW12997   3.119   3.271   4.895
 4033SOL    HW112998   3.148   3.184   4.856
 4033SOL    HW212999   3.126   3.267   4.995
 4034SOL     OW13000   6.840   2.178   4.013
 4034SOL    HW113001   6.761   2.117   4.018
 4034SOL    HW213002   6.841   2.224   3.924
 4035SOL     OW13003   0.671   4.510   6.883
 4035SOL    HW113004   0.738   4.477   6.949
 4035SOL    HW213005   0.718   4.537   6.798
 4036SOL     OW13006   6.218   0.031   2.861
 4036SOL    HW113007   6.225   0.016   2.960
 4036SOL    HW213008   6.195   6.969   2.816
 4037SOL     OW13009   0.688   3.537   6.800
 4037SOL    HW113010   0.665   3.547   6.703
 4037SOL    HW213011   0.761   3.469   6.809
 4038SOL     OW13012   5.292   4.477   3.667
 4038SOL    HW113013   5.377   4.445   3.626
 4038SOL    HW213014   5.310   4.513   3.758
 4039SOL     OW13015   5.317   6.644   0.142
 4039SOL    HW113016   5.313   6.636   0.242
 4039SOL    HW213017   5.354   6.560   0.103
 4040SOL     OW13018   3.210   6.792   1.361
 4040SOL    HW113019   3.147   6.806   1.285
 4040SOL    HW213020   3.216   6.694   1.382
 4041SOL     OW13021   1.473   6.097   3.627
 4041SOL    HW113022   1.499   6.192   3.645
 4041SOL    HW213023   1.431   6.057   3.708
 4042SOL     OW13024   6.199   5.039   1.889
 4042SOL    HW113025   6.276   4.977   1.873
 4042SOL    HW213026   6.169   5.078   1.802
 4043SOL     OW13027   6.157   2.201   0.771
 4043SOL    HW113028   6.118   2.277   0.718
 4043SOL    HW213029   6.085   2.135   0.790
 4044SOL     OW13030   5.795   0.148   3.388
 4044SOL    HW113031   5.792   0.085   3.311
 4044SOL    HW213032   5.743   0.110   3.464
 4045SOL     OW13033   2.384   5.494   6.291
 4045SOL    HW113034   2.364   5.409   6.340
 4045SOL    HW213035   2.462   5.480   6.230
 4046SOL     OW13036   0.985   3.199   1.619
 4046SOL    HW113037   1.035   3.277   1.657
 4046SOL    HW213038   0.900   3.232   1.578
 4047SOL     OW13039   2.948   3.921   1.652
 4047SOL    HW113040   2.860   3.968   1.653
 4047SOL    HW213041   2.977   3.907   1.557
 4048SOL     OW13042   4.795   0.466   1.044
 4048SOL    HW113043   4.823   0.373   1.067
 4048SOL    HW213044   4.802   0.480   0.945
 4049SOL     OW13045   5.234   7.003   4.598
 4049SOL    HW113046   5.254   6.960   4.686
 4049SOL    HW213047   5.136   6.997   4.579
 4050SOL     OW13048   2.254   0.388   0.863
 4050SOL    HW113049   2.308   0.323   0.916
 4050SOL    HW213050   2.265   0.371   0.765
 4051SOL     OW13051   3.585   3.997   1.723
 4051SOL    HW113052   3.522   4.056   1.674
 4051SOL    HW213053   3.570   3.902   1.697
 4052SOL     OW13054   0.743   0.459   1.069
 4052SOL    HW113055   0.709   0.386   1.011
 4052SOL    HW213056   0.794   0.525   1.014
 4053SOL     OW13057   3.897   4.916   3.511
 4053SOL    HW113058   3.941   4.852   3.574
 4053SOL    HW213059   3.962   4.943   3.440
 4054SOL     OW13060   4.211   2.540   1.154
 4054SOL    HW113061   4.166   2.480   1.221
 4054SOL    HW213062   4.257   2.615   1.201
 4055SOL     OW13063   3.968   1.478   6.591
 4055SOL    HW113064   3.935   1.470   6.497
 4055SOL    HW213065   4.055   1.526   6.592
 4056SOL     OW13066   3.937   3.369   0.726
 4056SOL    HW113067   3.977   3.412   0.807
 4056SOL    HW213068   3.874   3.297   0.754
 4057SOL     OW13069   5.134   2.729   6.815
 4057SOL    HW113070   5.067   2.803   6.809
 4057SOL    HW213071   5.211   2.758   6.871
 4058SOL     OW13072   1.643   1.007   5.246
 4058SOL    HW113073   1.555   1.001   5.293
 4058SOL    HW213074   1.655   1.099   5.208
 4059SOL     OW13075   0.293   1.412   4.252
 4059SOL    HW113076   0.313   1.352   4.174
 4059SOL    HW213077   0.324   1.368   4.336
 4060SOL     OW13078   4.358   5.206   4.188
 4060SOL    HW113079   4.424   5.274   4.219
 4060SOL    HW213080   4.268   5.249   4.179
 4061SOL     OW13081   3.278   3.213   1.362
 4061SOL    HW113082   3.252   3.123   1.396
 4061SOL    HW213083   3.196   3.271   1.356
 4062SOL     OW13084   2.608   0.500   3.677
 4062SOL    HW113085   2.530   0.563   3.677
 4062SOL    HW213086   2.599   0.434   3.602
 4063SOL     OW13087   2.916   5.206   6.353
 4063SOL    HW113088   2.947   5.164   6.439
 4063SOL    HW213089   2.936   5.143   6.277
 4064SOL     OW13090   6.881   0.473   3.879
 4064SOL    HW113091   6.912   0.439   3.968
 4064SOL    HW213092   6.958   0.479   3.816
 4065SOL     OW13093   5.786   5.595   0.057
 4065SOL    HW113094   5.824   5.647   7.004
 4065SOL    HW213095   5.702   5.549   0.028
 4066SOL     OW13096   6.147   4.183   1.541
 4066SOL    HW113097   6.161   4.088   1.512
 4066SOL    HW213098   6.088   4.185   1.622
 4067SOL     OW13099   5.950   0.896   1.987
 4067SOL    HW113100   5.999   0.983   1.991
 4067SOL    HW213101   5.854   0.911   2.008
 4068SOL     OW13102   6.416   0.554   3.693
 4068SOL    HW113103   6.411   0.457   3.671
 4068SOL    HW213104   6.486   0.569   3.764
 4069SOL     OW13105   6.344   5.432   0.987
 4069SOL    HW113106   6.430   5.474   1.016
 4069SOL    HW213107   6.284   5.423   1.067
 4070SOL     OW13108   1.510   3.204   2.922
 4070SOL    HW113109   1.454   3.142   2.977
 4070SOL    HW213110   1.578   3.151   2.871
 4071SOL     OW13111   1.590   6.445   3.981
 4071SOL    HW113112   1.597   6.544   3.994
 4071SOL    HW213113   1.641   6.398   4.053
 4072SOL     OW13114   1.366   0.352   4.507
 4072SOL    HW113115   1.381   0.325   4.602
 4072SOL    HW213116   1.404   0.283   4.446
 4073SOL     OW13117   2.175   5.543   6.500
 4073SOL    HW113118   2.094   5.551   6.442
 4073SOL    HW213119   2.160   5.595   6.584
 4074SOL     OW13120   1.816   3.403   0.603
 4074SOL    HW113121   1.841   3.470   0.673
 4074SOL    HW213122   1.884   3.329   0.603
 4075SOL     OW13123   4.661   1.531   3.527
 4075SOL    HW113124   4.754   1.494   3.523
 4075SOL    HW213125   4.643   1.568   3.618
 4076SOL     OW13126   1.559   3.160   4.056
 4076SOL    HW113127   1.488   3.092   4.071
 4076SOL    HW213128   1.519   3.240   4.011
 4077SOL     OW13129   2.991   1.531   0.277
 4077SOL    HW113130   2.975   1.433   0.274
 4077SOL    HW213131   3.086   1.549   0.304
 4078SOL     OW13132   5.959   3.490   1.764
 4078SOL    HW113133   5.984   3.440   1.681
 4078SOL    HW213134   5.860   3.484   1.777
 4079SOL     OW13135   0.767   0.703   3.875
 4079SOL    HW113136   0.852   0.714   3.824
 4079SOL    HW213137   0.689   0.713   3.814
 4080SOL     OW13138   3.099   3.113   1.725
 4080SOL    HW113139   3.028   3.047   1.747
 4080SOL    HW213140   3.058   3.202   1.704
 4081SOL     OW13141   2.376   1.992   6.035
 4081SOL    HW113142   2.342   2.084   6.053
 4081SOL    HW213143   2.462   1.996   5.985
 4082SOL     OW13144   1.268   2.380   4.561
 4082SOL    HW113145   1.210   2.321   4.617
 4082SOL    HW213146   1.344   2.413   4.616
 4083SOL     OW13147   5.589   5.352   3.125
 4083SOL    HW113148   5.507   5.322   3.075
 4083SOL    HW213149   5.668   5.299   3.095
 4084SOL     OW13150   4.747   0.844   3.739
 4084SOL    HW113151   4.765   0.750   3.709
 4084SOL    HW213152   4.817   0.872   3.805
 4085SOL     OW13153   4.055   4.791   2.529
 4085SOL    HW113154   4.100   4.749   2.608
 4085SOL    HW213155   3.968   4.832   2.559
 4086SOL     OW13156   6.120   5.147   5.964
 4086SOL    HW113157   6.153   5.174   6.055
 4086SOL    HW213158   6.044   5.083   5.974
 4087SOL     OW13159   2.386   6.735   2.619
 4087SOL    HW113160   2.369   6.782   2.706
 4087SOL    HW213161   2.481   6.704   2.616
 4088SOL     OW13162   0.552   1.879   5.318
 4088SOL    HW113163   0.457   1.888   5.349
 4088SOL    HW213164   0.563   1.926   5.231
 4089SOL     OW13165   0.817   0.460   3.179
 4089SOL    HW113166   0.840   0.435   3.085
 4089SOL    HW213167   0.717   0.465   3.189
 4090SOL     OW13168   3.157   1.448   6.081
 4090SOL    HW113169   3.249   1.445   6.120
 4090SOL    HW213170   3.109   1.363   6.104
 4091SOL     OW13171   2.827   6.200   1.490
 4091SOL    HW113172   2.857   6.251   1.570
 4091SOL    HW213173   2.889   6.217   1.414
 4092SOL     OW13174   5.625   3.009   4.245
 4092SOL    HW113175   5.658   3.095   4.283
 4092SOL    HW213176   5.697   2.966   4.191
 4093SOL     OW13177   5.083   5.081   3.539
 4093SOL    HW113178   5.128   5.118   3.458
 4093SOL    HW213179   5.131   5.114   3.621
 4094SOL     OW13180   6.854   5.520   6.776
 4094SOL    HW113181   6.918   5.444   6.789
 4094SOL    HW213182   6.897   5.605   6.805
 4095SOL     OW13183   0.954   5.087   6.797
 4095SOL    HW113184   0.873   5.058   6.849
 4095SOL    HW213185   1.018   5.010   6.790
 4096SOL     OW13186   1.235   1.240   6.960
 4096SOL    HW113187   1.238   1.330   7.003
 4096SOL    HW213188   1.171   1.241   6.883
 4097SOL     OW13189   6.800   5.016   5.465
 4097SOL    HW113190   6.761   5.055   5.381
 4097SOL    HW213191   6.884   5.065   5.488
 4098SOL     OW13192   2.329   4.536   3.284
 4098SOL    HW113193   2.339   4.538   3.185
 4098SOL    HW213194   2.249   4.481   3.309
 4099SOL     OW13195   4.242   4.503   6.076
 4099SOL    HW113196   4.272   4.427   6.134
 4099SOL    HW213197   4.174   4.558   6.125
 4100SOL     OW13198   1.676   6.967   3.831
 4100SOL    HW113199   1.740   6.891   3.837
 4100SOL    HW213200   1.716   0.024   3.876
 4101SOL     OW13201   6.094   6.118   0.101
 4101SOL    HW113202   6.062   6.180   0.029
 4101SOL    HW213203   6.191   6.136   0.118
 4102SOL     OW13204   1.439   0.988   0.511
 4102SOL    HW113205   1.395   0.999   0.422
 4102SOL    HW213206   1.527   1.036   0.509
 4103SOL     OW13207   1.525   6.266   3.160
 4103SOL    HW113208   1.616   6.308   3.165
 4103SOL    HW213209   1.472   6.290   3.241
 4104SOL     OW13210   1.518   6.007   4.377
 4104SOL    HW113211   1.566   5.926   4.411
 4104SOL    HW213212   1.432   6.017   4.426
 4105SOL     OW13213   4.839   1.321   0.876
 4105SOL    HW113214   4.858   1.238   0.928
 4105SOL    HW213215   4.762   1.305   0.814
 4106SOL     OW13216   1.004   1.798   3.245
 4106SOL    HW113217   1.009   1.775   3.342
 4106SOL    HW213218   0.911   1.827   3.222
 4107SOL     OW13219   0.674   6.443   0.125
 4107SOL    HW113220   0.764   6.487   0.120
 4107SOL    HW213221   0.611   6.486   0.061
 4108SOL     OW13222   6.885   5.941   4.624
 4108SOL    HW113223   6.962   5.961   4.563
 4108SOL    HW213224   6.879   5.842   4.637
 4109SOL     OW13225   6.253   6.227   3.037
 4109SOL    HW113226   6.321   6.282   2.989
 4109SOL    HW213227   6.198   6.286   3.096
 4110SOL     OW13228   4.871   2.827   0.425
 4110SOL    HW113229   4.965   2.843   0.455
 4110SOL    HW213230   4.858   2.864   0.333
 4111SOL     OW13231   6.807   4.092   4.168
 4111SOL    HW113232   6.767   4.173   4.124
 4111SOL    HW213233   6.838   4.116   4.260
 4112SOL     OW13234   4.961   6.734   5.414
 4112SOL    HW113235   4.969   6.706   5.318
 4112SOL    HW213236   4.901   6.814   5.420
 4113SOL     OW13237   3.938   5.313   5.180
 4113SOL    HW113238   3.838   5.305   5.181
 4113SOL    HW213239   3.976   5.250   5.247
 4114SOL     OW13240   0.076   1.826   1.896
 4114SOL    HW113241   0.073   1.926   1.897
 4114SOL    HW213242   0.129   1.796   1.817
 4115SOL     OW13243   5.075   6.017   4.317
 4115SOL    HW113244   5.146   6.074   4.358
 4115SOL    HW213245   5.108   5.978   4.231
 4116SOL     OW13246   5.339   3.125   3.533
 4116SOL    HW113247   5.329   3.196   3.604
 4116SOL    HW213248   5.364   3.168   3.446
 4117SOL     OW13249   1.481   1.918   3.430
 4117SOL    HW113250   1.537   1.871   3.363
 4117SOL    HW213251   1.384   1.905   3.410
 4118SOL     OW13252   0.534   6.027   6.219
 4118SOL    HW113253   0.473   6.091   6.265
 4118SOL    HW213254   0.610   6.076   6.178
 4119SOL     OW13255   0.901   1.018   3.692
 4119SOL    HW113256   0.957   1.035   3.611
 4119SOL    HW213257   0.860   0.927   3.686
 4120SOL     OW13258   1.895   1.293   6.248
 4120SOL    HW113259   1.891   1.225   6.175
 4120SOL    HW213260   1.848   1.376   6.219
 4121SOL     OW13261   6.250   6.772   1.967
 4121SOL    HW113262   6.236   6.852   2.026
 4121SOL    HW213263   6.233   6.688   2.020
 4122SOL     OW13264   6.466   4.317   3.207
 4122SOL    HW113265   6.407   4.379   3.259
 4122SOL    HW213266   6.471   4.229   3.255
 4123SOL     OW13267   4.393   5.178   1.898
 4123SOL    HW113268   4.303   5.221   1.896
 4123SOL    HW213269   4.392   5.098   1.838
 4124SOL     OW13270   6.070   5.640   0.059
 4124SOL    HW113271   6.016   5.556   0.063
 4124SOL    HW213272   6.095   5.669   0.151
 4125SOL     OW13273   6.361   1.972   1.390
 4125SOL    HW113274   6.277   2.023   1.367
 4125SOL    HW213275   6.436   2.036   1.404
 4126SOL     OW13276   1.862   3.285   2.367
 4126SOL    HW113277   1.956   3.302   2.396
 4126SOL    HW213278   1.843   3.336   2.283
 4127SOL     OW13279   3.924   1.710   4.429
 4127SOL    HW113280   3.964   1.780   4.488
 4127SOL    HW213281   3.874   1.754   4.354
 4128SOL     OW13282   0.576   3.329   0.282
 4128SOL    HW113283   0.654   3.338   0.344
 4128SOL    HW213284   0.539   3.236   0.287
 4129SOL     OW13285   2.408   2.635   0.702
 4129SOL    HW113286   2.500   2.628   0.739
 4129SOL    HW213287   2.354   2.557   0.732
 4130SOL     OW13288   5.800   3.162   1.115
 4130SOL    HW113289   5.866   3.088   1.101
 4130SOL    HW213290   5.724   3.152   1.052
 4131SOL     OW13291   4.730   7.006   3.004
 4131SOL    HW113292   4.663   6.934   3.021
 4131SOL    HW213293   4.706   0.032   2.921
 4132SOL     OW13294   0.616   5.120   4.099
 4132SOL    HW113295   0.698   5.070   4.072
 4132SOL    HW213296   0.536   5.079   4.056
 4133SOL     OW13297   5.669   0.463   2.832
 4133SOL    HW113298   5.708   0.380   2.791
 4133SOL    HW213299   5.673   0.537   2.765
 4134SOL     OW13300   1.602   3.400   1.421
 4134SOL    HW113301   1.517   3.374   1.467
 4134SOL    HW213302   1.610   3.500   1.419
 4135SOL     OW13303   0.250   1.615   2.109
 4135SOL    HW113304   0.344   1.646   2.119
 4135SOL    HW213305   0.204   1.671   2.040
 4136SOL     OW13306   1.422   4.399   1.736
 4136SOL    HW113307   1.481   4.476   1.764
 4136SOL    HW213308   1.423   4.391   1.636
 4137SOL     OW13309   1.156   2.698   0.431
 4137SOL    HW113310   1.169   2.633   0.356
 4137SOL    HW213311   1.198   2.786   0.406
 4138SOL     OW13312   4.843   0.154   0.874
 4138SOL    HW113313   4.843   0.183   0.969
 4138SOL    HW213314   4.796   0.222   0.818
 4139SOL     OW13315   1.755   3.568   2.435
 4139SOL    HW113316   1.777   3.471   2.429
 4139SOL    HW213317   1.832   3.622   2.401
 4140SOL     OW13318   2.053   1.342   5.978
 4140SOL    HW113319   2.103   1.344   5.892
 4140SOL    HW213320   1.957   1.365   5.962
 4141SOL     OW13321   4.488   0.114   6.406
 4141SOL    HW113322   4.492   0.018   6.377
 4141SOL    HW213323   4.570   0.162   6.375
 4142SOL     OW13324   0.052   4.197   2.500
 4142SOL    HW113325   6.986   4.202   2.544
 4142SOL    HW213326   0.069   4.282   2.449
 4143SOL     OW13327   5.245   3.108   0.792
 4143SOL    HW113328   5.200   3.197   0.787
 4143SOL    HW213329   5.193   3.048   0.853
 4144SOL     OW13330   6.244   1.575   0.535
 4144SOL    HW113331   6.216   1.495   0.481
 4144SOL    HW213332   6.343   1.588   0.526
 4145SOL     OW13333   0.053   6.834   1.311
 4145SOL    HW113334   0.137   6.806   1.266
 4145SOL    HW213335   0.064   6.823   1.410
 4146SOL     OW13336   4.603   6.393   3.650
 4146SOL    HW113337   4.545   6.432   3.722
 4146SOL    HW213338   4.629   6.300   3.675
 4147SOL     OW13339   4.416   4.373   5.815
 4147SOL    HW113340   4.400   4.425   5.731
 4147SOL    HW213341   4.342   4.393   5.880
 4148SOL     OW13342   2.495   1.696   6.147
 4148SOL    HW113343   2.421   1.761   6.133
 4148SOL    HW213344   2.526   1.661   6.059
 4149SOL     OW13345   2.597   2.822   6.676
 4149SOL    HW113346   2.630   2.911   6.708
 4149SOL    HW213347   2.508   2.802   6.718
 4150SOL     OW13348   5.565   2.093   5.963
 4150SOL    HW113349   5.634   2.021   5.960
 4150SOL    HW213350   5.493   2.073   5.896
 4151SOL     OW13351   2.201   6.622   4.404
 4151SOL    HW113352   2.153   6.563   4.340
 4151SOL    HW213353   2.276   6.572   4.447
 4152SOL     OW13354   2.959   5.103   0.824
 4152SOL    HW113355   2.887   5.065   0.881
 4152SOL    HW213356   3.009   5.172   0.876
 4153SOL     OW13357   0.076   5.270   1.165
 4153SOL    HW113358   0.037   5.229   1.248
 4153SOL    HW213359   0.019   5.346   1.136
 4154SOL     OW13360   1.057   6.162   3.419
 4154SOL    HW113361   1.068   6.259   3.438
 4154SOL    HW213362   1.135   6.111   3.454
 4155SOL     OW13363   0.409   1.262   0.755
 4155SOL    HW113364   0.342   1.228   0.820
 4155SOL    HW213365   0.397   1.217   0.667
 4156SOL     OW13366   6.961   5.546   6.067
 4156SOL    HW113367   6.948   5.620   6.133
 4156SOL    HW213368   6.982   5.585   5.977
 4157SOL     OW13369   6.740   5.909   1.882
 4157SOL    HW113370   6.743   5.962   1.797
 4157SOL    HW213371   6.827   5.861   1.894
 4158SOL     OW13372   1.217   3.221   2.096
 4158SOL    HW113373   1.192   3.225   1.999
 4158SOL    HW213374   1.176   3.299   2.144
 4159SOL     OW13375   3.482   1.335   3.926
 4159SOL    HW113376   3.564   1.322   3.870
 4159SOL    HW213377   3.401   1.306   3.873
 4160SOL     OW13378   6.184   6.586   6.616
 4160SOL    HW113379   6.218   6.550   6.703
 4160SOL    HW213380   6.228   6.673   6.596
 4161SOL     OW13381   3.313   2.897   1.656
 4161SOL    HW113382   3.313   2.892   1.556
 4161SOL    HW213383   3.232   2.947   1.687
 4162SOL     OW13384   4.816   5.959   1.715
 4162SOL    HW113385   4.804   5.991   1.810
 4162SOL    HW213386   4.902   5.910   1.707
 4163SOL     OW13387   3.721   6.593   1.157
 4163SOL    HW113388   3.738   6.678   1.208
 4163SOL    HW213389   3.686   6.523   1.220
 4164SOL     OW13390   6.596   0.361   5.342
 4164SOL    HW113391   6.518   0.424   5.338
 4164SOL    HW213392   6.567   0.276   5.385
 4165SOL     OW13393   4.071   1.181   5.265
 4165SOL    HW113394   4.121   1.267   5.257
 4165SOL    HW213395   4.133   1.109   5.296
 4166SOL     OW13396   5.685   0.920   1.633
 4166SOL    HW113397   5.679   0.995   1.699
 4166SOL    HW213398   5.767   0.866   1.652
 4167SOL     OW13399   4.083   5.105   4.815
 4167SOL    HW113400   4.000   5.073   4.861
 4167SOL    HW213401   4.059   5.178   4.751
 4168SOL     OW13402   4.445   4.252   6.900
 4168SOL    HW113403   4.402   4.171   6.938
 4168SOL    HW213404   4.477   4.311   6.974
 4169SOL     OW13405   4.990   3.625   4.892
 4169SOL    HW113406   4.945   3.617   4.803
 4169SOL    HW213407   4.920   3.624   4.964
 4170SOL     OW13408   6.572   3.613   3.729
 4170SOL    HW113409   6.543   3.555   3.805
 4170SOL    HW213410   6.628   3.558   3.666
 4171SOL     OW13411   0.828   2.956   1.090
 4171SOL    HW113412   0.780   3.035   1.051
 4171SOL    HW213413   0.925   2.960   1.066
 4172SOL     OW13414   3.050   4.779   0.277
 4172SOL    HW113415   3.009   4.751   0.364
 4172SOL    HW213416   3.149   4.784   0.287
 4173SOL     OW13417   5.252   2.984   4.934
 4173SOL    HW113418   5.276   2.889   4.953
 4173SOL    HW213419   5.332   3.033   4.900
 4174SOL     OW13420   3.875   0.531   4.878
 4174SOL    HW113421   3.885   0.541   4.778
 4174SOL    HW213422   3.891   0.619   4.922
 4175SOL     OW13423   1.673   4.443   6.716
 4175SOL    HW113424   1.731   4.364   6.694
 4175SOL    HW213425   1.658   4.497   6.633
 4176SOL     OW13426   5.122   0.111   6.191
 4176SOL    HW113427   5.029   0.085   6.218
 4176SOL    HW213428   5.188   0.065   6.250
 4177SOL     OW13429   4.525   4.527   3.487
 4177SOL    HW113430   4.486   4.617   3.505
 4177SOL    HW213431   4.568   4.526   3.396
 4178SOL     OW13432   4.443   5.461   1.864
 4178SOL    HW113433   4.464   5.365   1.846
 4178SOL    HW213434   4.352   5.469   1.904
 4179SOL     OW13435   5.438   3.095   4.755
 4179SOL    HW113436   5.471   3.015   4.705
 4179SOL    HW213437   5.407   3.164   4.690
 4180SOL     OW13438   4.900   3.959   0.007
 4180SOL    HW113439   4.997   3.939   0.016
 4180SOL    HW213440   4.886   4.058   0.005
 4181SOL     OW13441   4.652   0.277   5.629
 4181SOL    HW113442   4.731   0.281   5.567
 4181SOL    HW213443   4.588   0.207   5.598
 4182SOL     OW13444   6.915   6.820   4.220
 4182SOL    HW113445   6.854   6.791   4.146
 4182SOL    HW213446   6.964   6.741   4.256
 4183SOL     OW13447   3.763   1.979   1.313
 4183SOL    HW113448   3.730   1.971   1.407
 4183SOL    HW213449   3.862   1.966   1.311
 4184SOL     OW13450   3.288   5.274   3.434
 4184SOL    HW113451   3.311   5.276   3.337
 4184SOL    HW213452   3.199   5.316   3.448
 4185SOL     OW13453   6.498   3.610   2.650
 4185SOL    HW113454   6.590   3.635   2.680
 4185SOL    HW213455   6.435   3.616   2.727
 4186SOL     OW13456   1.604   6.076   0.325
 4186SOL    HW113457   1.629   6.010   0.254
 4186SOL    HW213458   1.613   6.033   0.415
 4187SOL     OW13459   1.779   3.751   6.568
 4187SOL    HW113460   1.852   3.694   6.605
 4187SOL    HW213461   1.818   3.834   6.529
 4188SOL     OW13462   4.968   7.008   0.034
 4188SOL    HW113463   4.977   0.083   0.019
 4188SOL    HW213464   5.024   6.981   0.112
 4189SOL     OW13465   4.856   5.181   3.217
 4189SOL    HW113466   4.947   5.155   3.249
 4189SOL    HW213467   4.827   5.118   3.144
 4190SOL     OW13468   0.317   6.164   0.775
 4190SOL    HW113469   0.278   6.240   0.723
 4190SOL    HW213470   0.405   6.191   0.814
 4191SOL     OW13471   4.257   4.709   5.830
 4191SOL    HW113472   4.265   4.664   5.919
 4191SOL    HW213473   4.165   4.694   5.794
 4192SOL     OW13474   1.204   3.187   1.835
 4192SOL    HW113475   1.181   3.127   1.758
 4192SOL    HW213476   1.168   3.279   1.818
 4193SOL     OW13477   6.854   0.183   0.436
 4193SOL    HW113478   6.906   0.253   0.387
 4193SOL    HW213479   6.772   0.159   0.385
 4194SOL     OW13480   4.522   0.698   5.038
 4194SOL    HW113481   4.438   0.742   5.009
 4194SOL    HW213482   4.530   0.703   5.138
 4195SOL     OW13483   4.343   5.673   1.305
 4195SOL    HW113484   4.404   5.651   1.381
 4195SOL    HW213485   4.340   5.772   1.293
 4196SOL     OW13486   6.974   2.116   2.641
 4196SOL    HW113487   6.983   2.140   2.737
 4196SOL    HW213488   6.914   2.036   2.632
 4197SOL     OW13489   3.435   6.323   6.129
 4197SOL    HW113490   3.391   6.233   6.127
 4197SOL    HW213491   3.533   6.311   6.148
 4198SOL     OW13492   6.109   1.151   2.487
 4198SOL    HW113493   6.195   1.120   2.527
 4198SOL    HW213494   6.033   1.118   2.543
 4199SOL     OW13495   0.885   3.635   6.370
 4199SOL    HW113496   0.952   3.571   6.333
 4199SOL    HW213497   0.895   3.723   6.324
 4200SOL     OW13498   4.795   1.351   3.770
 4200SOL    HW113499   4.797   1.280   3.842
 4200SOL    HW213500   4.739   1.428   3.801
 4201SOL     OW13501   5.411   7.022   2.946
 4201SOL    HW113502   5.425   0.082   2.895
 4201SOL    HW213503   5.445   6.944   2.893
 4202SOL     OW13504   4.421   5.054   0.873
 4202SOL    HW113505   4.328   5.022   0.857
 4202SOL    HW213506   4.472   4.986   0.926
 4203SOL     OW13507   6.050   5.391   6.893
 4203SOL    HW113508   6.131   5.439   6.928
 4203SOL    HW213509   6.059   5.293   6.912
 4204SOL     OW13510   2.790   3.538   5.797
 4204SOL    HW113511   2.831   3.612   5.850
 4204SOL    HW213512   2.789   3.454   5.852
 4205SOL     OW13513   3.813   5.681   4.922
 4205SOL    HW113514   3.789   5.727   5.007
 4205SOL    HW213515   3.794   5.583   4.930
 4206SOL     OW13516   1.663   2.012   4.355
 4206SOL    HW113517   1.713   1.927   4.338
 4206SOL    HW213518   1.579   1.991   4.406
 4207SOL     OW13519   1.479   3.123   1.495
 4207SOL    HW113520   1.427   3.206   1.515
 4207SOL    HW213521   1.493   3.071   1.579
 4208SOL     OW13522   2.061   3.670   4.984
 4208SOL    HW113523   2.117   3.713   5.055
 4208SOL    HW213524   2.018   3.588   5.021
 4209SOL     OW13525   6.882   6.104   3.094
 4209SOL    HW113526   6.935   6.129   3.175
 4209SOL    HW213527   6.937   6.120   3.012
 4210SOL     OW13528   4.200   3.510   5.057
 4210SOL    HW113529   4.289   3.509   5.103
 4210SOL    HW213530   4.135   3.563   5.112
 4211SOL     OW13531   4.205   2.379   5.380
 4211SOL    HW113532   4.193   2.449   5.310
 4211SOL    HW213533   4.248   2.419   5.461
 4212SOL     OW13534   0.097   1.778   3.108
 4212SOL    HW113535   0.152   1.695   3.102
 4212SOL    HW213536   0.075   1.796   3.204
 4213SOL     OW13537   3.431   0.626   2.833
 4213SOL    HW113538   3.503   0.604   2.899
 4213SOL    HW213539   3.412   0.546   2.777
 4214SOL     OW13540   0.890   5.091   4.382
 4214SOL    HW113541   0.856   5.179   4.350
 4214SOL    HW213542   0.817   5.022   4.373
 4215SOL     OW13543   4.899   6.470   5.509
 4215SOL    HW113544   4.858   6.419   5.434
 4215SOL    HW213545   4.914   6.565   5.480
 4216SOL     OW13546   2.479   6.371   2.696
 4216SOL    HW113547   2.427   6.452   2.670
 4216SOL    HW213548   2.424   6.289   2.680
 4217SOL     OW13549   1.169   0.764   1.942
 4217SOL    HW113550   1.231   0.760   1.864
 4217SOL    HW213551   1.222   0.773   2.027
 4218SOL     OW13552   2.808   1.012   1.545
 4218SOL    HW113553   2.727   1.055   1.584
 4218SOL    HW213554   2.787   0.917   1.520
 4219SOL     OW13555   3.986   6.499   4.047
 4219SOL    HW113556   4.065   6.493   4.107
 4219SOL    HW213557   4.008   6.554   3.967
 4220SOL     OW13558   4.775   1.889   1.589
 4220SOL    HW113559   4.709   1.876   1.515
 4220SOL    HW213560   4.781   1.805   1.643
 4221SOL     OW13561   0.513   5.557   6.630
 4221SOL    HW113562   0.580   5.492   6.666
 4221SOL    HW213563   0.541   5.650   6.655
 4222SOL     OW13564   4.682   2.275   3.345
 4222SOL    HW113565   4.711   2.339   3.274
 4222SOL    HW213566   4.583   2.272   3.349
 4223SOL     OW13567   4.064   3.782   1.997
 4223SOL    HW113568   3.983   3.831   1.965
 4223SOL    HW213569   4.142   3.805   1.937
 4224SOL     OW13570   4.889   3.593   4.647
 4224SOL    HW113571   4.941   3.531   4.588
 4224SOL    HW213572   4.794   3.598   4.616
 4225SOL     OW13573   7.015   3.193   5.181
 4225SOL    HW113574   7.021   3.263   5.251
 4225SOL    HW213575   6.941   3.215   5.117
 4226SOL     OW13576   0.613   5.370   4.502
 4226SOL    HW113577   0.710   5.371   4.478
 4226SOL    HW213578   0.561   5.329   4.426
 4227SOL     OW13579   5.508   5.470   2.028
 4227SOL    HW113580   5.501   5.549   2.090
 4227SOL    HW213581   5.605   5.449   2.012
 4228SOL     OW13582   1.047   5.428   3.616
 4228SOL    HW113583   1.130   5.387   3.577
 4228SOL    HW213584   1.070   5.518   3.655
 4229SOL     OW13585   6.077   5.094   5.521
 4229SOL    HW113586   6.008   5.136   5.580
 4229SOL    HW213587   6.032   5.056   5.440
 4230SOL     OW13588   1.328   0.844   2.164
 4230SOL    HW113589   1.350   0.920   2.103
 4230SOL    HW213590   1.356   0.865   2.257
 4231SOL     OW13591   5.391   1.222   5.725
 4231SOL    HW113592   5.423   1.128   5.730
 4231SOL    HW213593   5.388   1.261   5.818
 4232SOL     OW13594   2.315   5.239   4.216
 4232SOL    HW113595   2.263   5.154   4.214
 4232SOL    HW213596   2.258   5.311   4.256
 4233SOL     OW13597   5.492   6.472   3.789
 4233SOL    HW113598   5.540   6.486   3.702
 4233SOL    HW213599   5.397   6.503   3.780
 4234SOL     OW13600   1.694   5.511   5.715
 4234SOL    HW113601   1.756   5.526   5.792
 4234SOL    HW213602   1.732   5.444   5.653
 4235SOL     OW13603   0.167   5.002   6.093
 4235SOL    HW113604   0.094   5.069   6.079
 4235SOL    HW213605   0.245   5.026   6.035
 4236SOL     OW13606   0.810   5.256   1.431
 4236SOL    HW113607   0.753   5.204   1.495
 4236SOL    HW213608   0.891   5.289   1.479
 4237SOL     OW13609   6.498   4.295   3.689
 4237SOL    HW113610   6.590   4.328   3.666
 4237SOL    HW213611   6.480   4.209   3.641
 4238SOL     OW13612   2.444   0.567   3.225
 4238SOL    HW113613   2.536   0.549   3.192
 4238SOL    HW213614   2.437   0.662   3.255
 4239SOL     OW13615   3.752   1.181   2.630
 4239SOL    HW113616   3.745   1.276   2.599
 4239SOL    HW213617   3.692   1.167   2.709
 4240SOL     OW13618   1.243   5.116   0.505
 4240SOL    HW113619   1.199   5.108   0.595
 4240SOL    HW213620   1.179   5.156   0.440
 4241SOL     OW13621   6.315   1.809   6.892
 4241SOL    HW113622   6.254   1.766   6.825
 4241SOL    HW213623   6.339   1.901   6.861
 4242SOL     OW13624   2.338   2.236   4.044
 4242SOL    HW113625   2.317   2.291   3.963
 4242SOL    HW213626   2.323   2.290   4.127
 4243SOL     OW13627   5.620   1.068   2.792
 4243SOL    HW113628   5.696   1.050   2.729
 4243SOL    HW213629   5.560   0.988   2.796
 4244SOL     OW13630   3.891   3.658   2.405
 4244SOL    HW113631   3.973   3.619   2.363
 4244SOL    HW213632   3.915   3.740   2.457
 4245SOL     OW13633   5.758   2.674   5.682
 4245SOL    HW113634   5.811   2.696   5.600
 4245SOL    HW213635   5.661   2.686   5.663
 4246SOL     OW13636   0.186   4.236   2.180
 4246SOL    HW113637   0.174   4.138   2.168
 4246SOL    HW213638   0.283   4.258   2.183
 4247SOL     OW13639   6.627   6.143   5.427
 4247SOL    HW113640   6.575   6.154   5.343
 4247SOL    HW213641   6.724   6.161   5.409
 4248SOL     OW13642   1.387   2.602   5.689
 4248SOL    HW113643   1.340   2.617   5.776
 4248SOL    HW213644   1.470   2.548   5.705
 4249SOL     OW13645   5.451   2.935   5.448
 4249SOL    HW113646   5.465   2.921   5.350
 4249SOL    HW213647   5.501   3.017   5.477
 4250SOL     OW13648   6.351   5.367   3.667
 4250SOL    HW113649   6.271   5.426   3.653
 4250SOL    HW213650   6.416   5.382   3.592
 4251SOL     OW13651   5.777   4.273   0.503
 4251SOL    HW113652   5.865   4.226   0.493
 4251SOL    HW213653   5.749   4.310   0.415
 4252SOL     OW13654   0.072   5.583   5.480
 4252SOL    HW113655   0.096   5.520   5.406
 4252SOL    HW213656   0.055   5.531   5.564
 4253SOL     OW13657   4.147   0.943   1.712
 4253SOL    HW113658   4.139   1.041   1.692
 4253SOL    HW213659   4.237   0.924   1.750
 4254SOL     OW13660   1.835   3.578   1.294
 4254SOL    HW113661   1.924   3.560   1.251
 4254SOL    HW213662   1.763   3.569   1.226
 4255SOL     OW13663   6.275   3.282   4.240
 4255SOL    HW113664   6.254   3.245   4.149
 4255SOL    HW213665   6.305   3.377   4.231
 4256SOL     OW13666   1.908   6.878   1.425
 4256SOL    HW113667   1.860   6.824   1.355
 4256SOL    HW213668   1.993   6.833   1.450
 4257SOL     OW13669   3.403   1.729   5.027
 4257SOL    HW113670   3.343   1.801   4.991
 4257SOL    HW213671   3.483   1.771   5.069
 4258SOL     OW13672   5.928   6.598   2.090
 4258SOL    HW113673   5.900   6.683   2.045
 4258SOL    HW213674   6.022   6.577   2.065
 4259SOL     OW13675   2.712   2.092   6.852
 4259SOL    HW113676   2.710   2.169   6.916
 4259SOL    HW213677   2.765   2.118   6.771
 4260SOL     OW13678   4.682   5.972   3.473
 4260SOL    HW113679   4.609   5.998   3.410
 4260SOL    HW213680   4.655   5.995   3.567
 4261SOL     OW13681   2.581   6.438   1.991
 4261SOL    HW113682   2.496   6.462   1.944
 4261SOL    HW213683   2.573   6.346   2.028
 4262SOL     OW13684   1.746   5.113   6.554
 4262SOL    HW113685   1.650   5.102   6.582
 4262SOL    HW213686   1.757   5.081   6.460
 4263SOL     OW13687   2.657   4.892   5.335
 4263SOL    HW113688   2.734   4.919   5.393
 4263SOL    HW213689   2.655   4.793   5.325
 4264SOL     OW13690   0.181   1.631   6.988
 4264SOL    HW113691   0.183   1.568   6.910
 4264SOL    HW213692   0.262   1.690   6.984
 4265SOL     OW13693   6.587   1.956   0.288
 4265SOL    HW113694   6.674   1.977   0.244
 4265SOL    HW213695   6.593   1.981   0.385
 4266SOL     OW13696   2.339   5.306   0.226
 4266SOL    HW113697   2.260   5.364   0.248
 4266SOL    HW213698   2.412   5.324   0.292
 4267SOL     OW13699   1.908   3.478   5.113
 4267SOL    HW113700   1.920   3.385   5.147
 4267SOL    HW213701   1.840   3.526   5.169
 4268SOL     OW13702   2.036   1.018   0.823
 4268SOL    HW113703   1.959   0.961   0.851
 4268SOL    HW213704   2.049   1.011   0.724
 4269SOL     OW13705   3.284   2.967   0.390
 4269SOL    HW113706   3.302   2.878   0.432
 4269SOL    HW213707   3.232   2.954   0.305
 4270SOL     OW13708   3.487   2.847   4.922
 4270SOL    HW113709   3.415   2.778   4.934
 4270SOL    HW213710   3.541   2.853   5.005
 4271SOL     OW13711   0.605   6.820   5.933
 4271SOL    HW113712   0.687   6.763   5.924
 4271SOL    HW213713   0.561   6.831   5.843
 4272SOL     OW13714   6.431   4.639   5.425
 4272SOL    HW113715   6.336   4.671   5.436
 4272SOL    HW213716   6.439   4.547   5.463
 4273SOL     OW13717   4.557   6.873   5.361
 4273SOL    HW113718   4.653   6.899   5.375
 4273SOL    HW213719   4.499   6.928   5.421
 4274SOL     OW13720   2.027   6.480   3.521
 4274SOL    HW113721   2.100   6.474   3.453
 4274SOL    HW213722   1.942   6.509   3.476
 4275SOL     OW13723   0.154   0.628   5.551
 4275SOL    HW113724   0.151   0.533   5.520
 4275SOL    HW213725   0.219   0.637   5.626
 4276SOL     OW13726   2.159   4.766   3.247
 4276SOL    HW113727   2.195   4.675   3.268
 4276SOL    HW213728   2.167   4.784   3.149
 4277SOL     OW13729   6.732   5.091   3.698
 4277SOL    HW113730   6.767   5.057   3.611
 4277SOL    HW213731   6.783   5.172   3.726
 4278SOL     OW13732   6.820   6.193   4.783
 4278SOL    HW113733   6.869   6.151   4.707
 4278SOL    HW213734   6.723   6.171   4.776
 4279SOL     OW13735   3.014   6.318   5.178
 4279SOL    HW113736   2.973   6.275   5.098
 4279SOL    HW213737   3.059   6.403   5.152
 4280SOL     OW13738   6.755   2.259   5.709
 4280SOL    HW113739   6.799   2.296   5.628
 4280SOL    HW213740   6.686   2.324   5.742
 4281SOL     OW13741   1.910   4.779   5.260
 4281SOL    HW113742   1.960   4.804   5.343
 4281SOL    HW213743   1.932   4.843   5.187
 4282SOL     OW13744   2.346   3.036   0.866
 4282SOL    HW113745   2.370   3.004   0.775
 4282SOL    HW213746   2.260   3.088   0.862
 4283SOL     OW13747   1.919   0.329   4.218
 4283SOL    HW113748   1.873   0.330   4.306
 4283SOL    HW213749   2.017   0.311   4.232
 4284SOL     OW13750   5.653   1.034   2.136
 4284SOL    HW113751   5.579   1.060   2.197
 4284SOL    HW213752   5.740   1.040   2.184
 4285SOL     OW13753   0.836   0.477   5.616
 4285SOL    HW113754   0.894   0.523   5.684
 4285SOL    HW213755   0.849   0.378   5.623
 4286SOL     OW13756   4.598   5.747   0.263
 4286SOL    HW113757   4.696   5.749   0.284
 4286SOL    HW213758   4.560   5.658   0.285
 4287SOL     OW13759   5.524   0.334   4.733
 4287SOL    HW113760   5.560   0.241   4.720
 4287SOL    HW213761   5.596   0.393   4.769
 4288SOL     OW13762   1.522   6.904   3.433
 4288SOL    HW113763   1.493   6.816   3.396
 4288SOL    HW213764   1.453   6.973   3.412
 4289SOL     OW13765   5.636   2.334   1.329
 4289SOL    HW113766   5.602   2.359   1.239
 4289SOL    HW213767   5.561   2.294   1.382
 4290SOL     OW13768   2.250   0.589   2.474
 4290SOL    HW113769   2.192   0.655   2.522
 4290SOL    HW213770   2.273   0.514   2.536
 4291SOL     OW13771   5.362   2.972   0.571
 4291SOL    HW113772   5.344   3.033   0.648
 4291SOL    HW213773   5.409   2.890   0.604
 4292SOL     OW13774   6.266   4.132   5.511
 4292SOL    HW113775   6.233   4.037   5.516
 4292SOL    HW213776   6.322   4.143   5.429
 4293SOL     OW13777   6.317   3.438   6.584
 4293SOL    HW113778   6.298   3.388   6.668
 4293SOL    HW213779   6.369   3.521   6.604
 4294SOL     OW13780   4.380   2.318   5.723
 4294SOL    HW113781   4.355   2.400   5.671
 4294SOL    HW213782   4.337   2.322   5.813
 4295SOL     OW13783   3.714   0.145   4.370
 4295SOL    HW113784   3.658   0.107   4.296
 4295SOL    HW213785   3.701   0.244   4.375
 4296SOL     OW13786   2.288   1.752   0.869
 4296SOL    HW113787   2.246   1.824   0.813
 4296SOL    HW213788   2.316   1.791   0.957
 4297SOL     OW13789   5.339   0.152   4.995
 4297SOL    HW113790   5.288   0.231   4.961
 4297SOL    HW213791   5.433   0.179   5.014
 4298SOL     OW13792   2.639   6.060   1.186
 4298SOL    HW113793   2.568   6.128   1.171
 4298SOL    HW213794   2.627   6.017   1.275
 4299SOL     OW13795   0.633   3.556   6.216
 4299SOL    HW113796   0.552   3.610   6.241
 4299SOL    HW213797   0.712   3.587   6.268
 4300SOL     OW13798   3.313   1.119   6.593
 4300SOL    HW113799   3.231   1.113   6.536
 4300SOL    HW213800   3.368   1.037   6.581
 4301SOL     OW13801   1.915   1.793   0.531
 4301SOL    HW113802   1.907   1.752   0.621
 4301SOL    HW213803   1.939   1.889   0.540
 4302SOL     OW13804   1.058   6.383   6.973
 4302SOL    HW113805   1.024   6.451   0.016
 4302SOL    HW213806   1.141   6.341   7.008
 4303SOL     OW13807   6.617   4.063   2.925
 4303SOL    HW113808   6.523   4.093   2.911
 4303SOL    HW213809   6.663   4.126   2.988
 4304SOL     OW13810   3.311   3.329   4.206
 4304SOL    HW113811   3.277   3.324   4.112
 4304SOL    HW213812   3.235   3.337   4.269
 4305SOL     OW13813   6.167   1.210   3.775
 4305SOL    HW113814   6.124   1.176   3.859
 4305SOL    HW213815   6.150   1.147   3.700
 4306SOL     OW13816   0.009   4.345   6.257
 4306SOL    HW113817   6.952   4.310   6.303
 4306SOL    HW213818   0.003   4.325   6.159
 4307SOL     OW13819   4.426   4.092   5.808
 4307SOL    HW113820   4.432   4.190   5.823
 4307SOL    HW213821   4.352   4.072   5.743
 4308SOL     OW13822   5.489   5.894   5.290
 4308SOL    HW113823   5.491   5.794   5.289
 4308SOL    HW213824   5.450   5.925   5.377
 4309SOL     OW13825   1.628   1.193   0.525
 4309SOL    HW113826   1.575   1.277   0.522
 4309SOL    HW213827   1.692   1.190   0.448
 4310SOL     OW13828   1.844   2.414   2.886
 4310SOL    HW113829   1.825   2.430   2.983
 4310SOL    HW213830   1.764   2.371   2.843
 4311SOL     OW13831   1.045   5.753   3.383
 4311SOL    HW113832   1.013   5.707   3.301
 4311SOL    HW213833   1.143   5.773   3.374
 4312SOL     OW13834   2.303   6.035   1.906
 4312SOL    HW113835   2.370   5.961   1.903
 4312SOL    HW213836   2.224   6.010   1.849
 4313SOL     OW13837   5.473   1.071   1.544
 4313SOL    HW113838   5.502   1.148   1.488
 4313SOL    HW213839   5.545   1.001   1.546
 4314SOL     OW13840   4.667   2.765   3.067
 4314SOL    HW113841   4.685   2.701   2.993
 4314SOL    HW213842   4.603   2.835   3.036
 4315SOL     OW13843   2.446   0.562   2.080
 4315SOL    HW113844   2.375   0.495   2.059
 4315SOL    HW213845   2.404   0.651   2.097
 4316SOL     OW13846   5.255   0.371   1.099
 4316SOL    HW113847   5.186   0.314   1.054
 4316SOL    HW213848   5.299   0.430   1.031
 4317SOL     OW13849   3.323   1.544   4.644
 4317SOL    HW113850   3.229   1.569   4.668
 4317SOL    HW213851   3.335   1.553   4.545
 4318SOL     OW13852   0.738   3.808   3.812
 4318SOL    HW113853   0.704   3.891   3.858
 4318SOL    HW213854   0.838   3.808   3.816
 4319SOL     OW13855   2.642   3.064   6.783
 4319SOL    HW113856   2.721   3.125   6.789
 4319SOL    HW213857   2.624   3.025   6.873
 4320SOL     OW13858   1.194   6.726   2.727
 4320SOL    HW113859   1.227   6.802   2.671
 4320SOL    HW213860   1.237   6.729   2.817
 4321SOL     OW13861   6.346   0.544   5.348
 4321SOL    HW113862   6.296   0.608   5.289
 4321SOL    HW213863   6.297   0.457   5.352
 4322SOL     OW13864   6.691   1.090   6.488
 4322SOL    HW113865   6.676   1.098   6.587
 4322SOL    HW213866   6.675   0.996   6.459
 4323SOL     OW13867   5.730   2.725   2.741
 4323SOL    HW113868   5.646   2.723   2.687
 4323SOL    HW213869   5.725   2.801   2.806
 4324SOL     OW13870   5.662   4.003   6.337
 4324SOL    HW113871   5.674   3.916   6.384
 4324SOL    HW213872   5.582   4.051   6.375
 4325SOL     OW13873   2.217   1.083   6.675
 4325SOL    HW113874   2.273   1.158   6.639
 4325SOL    HW213875   2.175   1.033   6.600
 4326SOL     OW13876   6.350   3.098   5.282
 4326SOL    HW113877   6.367   3.083   5.185
 4326SOL    HW213878   6.255   3.128   5.296
 4327SOL     OW13879   5.609   5.355   2.365
 4327SOL    HW113880   5.537   5.393   2.422
 4327SOL    HW213881   5.568   5.299   2.292
 4328SOL     OW13882   4.819   4.636   6.026
 4328SOL    HW113883   4.749   4.650   6.096
 4328SOL    HW213884   4.778   4.591   5.947
 4329SOL     OW13885   4.000   1.656   5.262
 4329SOL    HW113886   4.008   1.755   5.269
 4329SOL    HW213887   4.085   1.618   5.226
 4330SOL     OW13888   1.792   0.377   5.936
 4330SOL    HW113889   1.873   0.401   5.989
 4330SOL    HW213890   1.807   0.401   5.840
 4331SOL     OW13891   5.152   2.793   0.454
 4331SOL    HW113892   5.230   2.853   0.472
 4331SOL    HW213893   5.152   2.717   0.520
 4332SOL     OW13894   4.955   3.148   2.110
 4332SOL    HW113895   4.872   3.097   2.087
 4332SOL    HW213896   4.933   3.220   2.176
 4333SOL     OW13897   5.635   1.490   4.735
 4333SOL    HW113898   5.591   1.491   4.825
 4333SOL    HW213899   5.723   1.442   4.741
 4334SOL     OW13900   3.083   2.097   1.914
 4334SOL    HW113901   3.057   2.001   1.926
 4334SOL    HW213902   3.038   2.152   1.985
 4335SOL     OW13903   3.037   3.847   4.484
 4335SOL    HW113904   3.074   3.927   4.530
 4335SOL    HW213905   3.073   3.764   4.528
 4336SOL     OW13906   1.529   6.405   5.309
 4336SOL    HW113907   1.480   6.387   5.224
 4336SOL    HW213908   1.477   6.368   5.386
 4337SOL     OW13909   0.537   4.925   6.670
 4337SOL    HW113910   0.475   4.848   6.655
 4337SOL    HW213911   0.485   5.011   6.670
 4338SOL     OW13912   5.878   6.202   4.492
 4338SOL    HW113913   5.899   6.155   4.406
 4338SOL    HW213914   5.789   6.247   4.484
 4339SOL     OW13915   6.807   2.327   5.070
 4339SOL    HW113916   6.785   2.391   5.144
 4339SOL    HW213917   6.742   2.339   4.995
 4340SOL     OW13918   5.594   3.712   1.971
 4340SOL    HW113919   5.667   3.701   2.038
 4340SOL    HW213920   5.533   3.633   1.975
 4341SOL     OW13921   1.725   3.793   2.013
 4341SOL    HW113922   1.721   3.747   1.924
 4341SOL    HW213923   1.812   3.842   2.021
 4342SOL     OW13924   0.208   2.944   3.020
 4342SOL    HW113925   0.273   3.010   3.057
 4342SOL    HW213926   0.254   2.856   3.004
 4343SOL     OW13927   3.213   1.083   0.281
 4343SOL    HW113928   3.235   1.119   0.190
 4343SOL    HW213929   3.194   0.985   0.275
 4344SOL     OW13930   1.456   4.033   3.181
 4344SOL    HW113931   1.363   4.000   3.195
 4344SOL    HW213932   1.521   3.964   3.212
 4345SOL     OW13933   2.170   2.519   5.607
 4345SOL    HW113934   2.227   2.582   5.555
 4345SOL    HW213935   2.075   2.526   5.576
 4346SOL     OW13936   2.130   3.084   1.799
 4346SOL    HW113937   2.159   3.032   1.880
 4346SOL    HW213938   2.056   3.036   1.753
 4347SOL     OW13939   6.504   0.196   1.969
 4347SOL    HW113940   6.418   0.185   1.920
 4347SOL    HW213941   6.523   0.113   2.022
 4348SOL     OW13942   1.067   4.132   1.696
 4348SOL    HW113943   1.093   4.226   1.718
 4348SOL    HW213944   1.085   4.074   1.776
 4349SOL     OW13945   0.307   1.223   3.617
 4349SOL    HW113946   0.212   1.242   3.641
 4349SOL    HW213947   0.366   1.297   3.650
 4350SOL     OW13948   5.139   2.286   4.693
 4350SOL    HW113949   5.156   2.376   4.734
 4350SOL    HW213950   5.180   2.283   4.602
 4351SOL     OW13951   2.879   5.886   2.513
 4351SOL    HW113952   2.868   5.789   2.490
 4351SOL    HW213953   2.976   5.908   2.519
 4352SOL     OW13954   0.528   2.220   1.914
 4352SOL    HW113955   0.602   2.158   1.941
 4352SOL    HW213956   0.457   2.169   1.867
 4353SOL     OW13957   2.285   5.961   7.011
 4353SOL    HW113958   2.247   6.053   6.995
 4353SOL    HW213959   2.221   5.908   0.043
 4354SOL     OW13960   2.122   0.153   6.958
 4354SOL    HW113961   2.051   0.128   6.892
 4354SOL    HW213962   2.211   0.153   6.914
 4355SOL     OW13963   3.995   0.723   0.951
 4355SOL    HW113964   4.045   0.808   0.935
 4355SOL    HW213965   3.902   0.744   0.979
 4356SOL     OW13966   4.252   4.151   1.050
 4356SOL    HW113967   4.157   4.141   1.020
 4356SOL    HW213968   4.288   4.239   1.017
 4357SOL     OW13969   6.187   0.191   0.428
 4357SOL    HW113970   6.095   0.151   0.429
 4357SOL    HW213971   6.191   0.263   0.359
 4358SOL     OW13972   0.813   6.136   1.558
 4358SOL    HW113973   0.762   6.219   1.581
 4358SOL    HW213974   0.753   6.073   1.509
 4359SOL     OW13975   0.667   2.201   4.075
 4359SOL    HW113976   0.718   2.118   4.097
 4359SOL    HW213977   0.572   2.177   4.051
 4360SOL     OW13978   0.759   3.722   1.416
 4360SOL    HW113979   0.743   3.642   1.358
 4360SOL    HW213980   0.853   3.720   1.450
 4361SOL     OW13981   4.563   2.549   1.919
 4361SOL    HW113982   4.551   2.624   1.854
 4361SOL    HW213983   4.528   2.464   1.880
 4362SOL     OW13984   6.206   4.151   5.135
 4362SOL    HW113985   6.283   4.119   5.190
 4362SOL    HW213986   6.200   4.097   5.051
 4363SOL     OW13987   5.020   3.095   5.319
 4363SOL    HW113988   5.081   3.093   5.239
 4363SOL    HW213989   5.067   3.055   5.398
 4364SOL     OW13990   3.508   3.980   4.352
 4364SOL    HW113991   3.517   4.006   4.256
 4364SOL    HW213992   3.533   3.884   4.363
 4365SOL     OW13993   4.133   2.203   2.607
 4365SOL    HW113994   4.038   2.178   2.625
 4365SOL    HW213995   4.137   2.268   2.531
 4366SOL     OW13996   6.438   6.335   1.377
 4366SOL    HW113997   6.453   6.258   1.438
 4366SOL    HW213998   6.375   6.400   1.420
 4367SOL     OW13999   0.959   5.268   5.686
 4367SOL    HW114000   0.868   5.238   5.716
 4367SOL    HW214001   0.948   5.336   5.613
 4368SOL     OW14002   5.350   4.524   1.577
 4368SOL    HW114003   5.386   4.493   1.665
 4368SOL    HW214004   5.383   4.465   1.504
 4369SOL     OW14005   4.774   4.385   2.354
 4369SOL    HW114006   4.868   4.351   2.351
 4369SOL    HW214007   4.737   4.389   2.261
 4370SOL     OW14008   5.787   4.208   3.812
 4370SOL    HW114009   5.820   4.301   3.802
 4370SOL    HW214010   5.775   4.186   3.909
 4371SOL     OW14011   6.171   0.401   1.729
 4371SOL    HW114012   6.181   0.437   1.822
 4371SOL    HW214013   6.163   0.478   1.665
 4372SOL     OW14014   5.007   1.694   2.976
 4372SOL    HW114015   4.979   1.749   3.055
 4372SOL    HW214016   5.065   1.619   3.007
 4373SOL     OW14017   6.702   2.090   6.597
 4373SOL    HW114018   6.649   2.016   6.557
 4373SOL    HW214019   6.796   2.086   6.562
 4374SOL     OW14020   1.655   2.042   2.350
 4374SOL    HW114021   1.740   2.075   2.392
 4374SOL    HW214022   1.677   1.997   2.263
 4375SOL     OW14023   2.523   6.220   4.281
 4375SOL    HW114024   2.607   6.193   4.328
 4375SOL    HW214025   2.542   6.296   4.219
 4376SOL     OW14026   6.619   0.586   2.492
 4376SOL    HW114027   6.706   0.545   2.464
 4376SOL    HW214028   6.567   0.613   2.411
 4377SOL     OW14029   5.779   3.716   6.957
 4377SOL    HW114030   5.863   3.733   6.906
 4377SOL    HW214031   5.768   3.785   0.004
 4378SOL     OW14032   2.147   0.421   3.934
 4378SOL    HW114033   2.116   0.327   3.943
 4378SOL    HW214034   2.068   0.482   3.929
 4379SOL     OW14035   2.608   1.232   4.820
 4379SOL    HW114036   2.688   1.173   4.823
 4379SOL    HW214037   2.594   1.273   4.911
 4380SOL     OW14038   1.320   1.605   1.591
 4380SOL    HW114039   1.373   1.531   1.550
 4380SOL    HW214040   1.378   1.657   1.653
 4381SOL     OW14041   1.652   6.061   5.263
 4381SOL    HW114042   1.678   5.973   5.225
 4381SOL    HW214043   1.677   6.065   5.360
 4382SOL     OW14044   6.687   3.648   5.045
 4382SOL    HW114045   6.680   3.651   4.946
 4382SOL    HW214046   6.596   3.663   5.085
 4383SOL     OW14047   5.369   2.608   5.813
 4383SOL    HW114048   5.435   2.656   5.755
 4383SOL    HW214049   5.410   2.525   5.849
 4384SOL     OW14050   0.215   6.601   3.100
 4384SOL    HW114051   0.265   6.605   3.186
 4384SOL    HW214052   0.119   6.625   3.115
 4385SOL     OW14053   5.638   1.836   4.416
 4385SOL    HW114054   5.664   1.770   4.345
 4385SOL    HW214055   5.552   1.806   4.458
 4386SOL     OW14056   1.557   3.340   5.869
 4386SOL    HW114057   1.554   3.394   5.785
 4386SOL    HW214058   1.624   3.267   5.859
 4387SOL     OW14059   0.256   2.629   0.674
 4387SOL    HW114060   0.199   2.559   0.716
 4387SOL    HW214061   0.336   2.585   0.631
 4388SOL     OW14062   5.001   2.081   6.086
 4388SOL    HW114063   4.964   2.160   6.036
 4388SOL    HW214064   5.099   2.075   6.071
 4389SOL     OW14065   0.113   3.479   1.497
 4389SOL    HW114066   0.102   3.382   1.477
 4389SOL    HW214067   0.201   3.495   1.542
 4390SOL     OW14068   5.420   0.503   0.882
 4390SOL    HW114069   5.359   0.502   0.803
 4390SOL    HW214070   5.515   0.513   0.851
 4391SOL     OW14071   1.664   5.554   6.198
 4391SOL    HW114072   1.633   5.509   6.282
 4391SOL    HW214073   1.596   5.621   6.169
 4392SOL     OW14074   1.250   1.445   4.077
 4392SOL    HW114075   1.305   1.528   4.078
 4392SOL    HW214076   1.173   1.457   4.014
 4393SOL     OW14077   5.508   0.271   1.594
 4393SOL    HW114078   5.525   0.297   1.499
 4393SOL    HW214079   5.595   0.248   1.639
 4394SOL     OW14080   1.762   0.184   1.252
 4394SOL    HW114081   1.831   0.133   1.200
 4394SOL    HW214082   1.689   0.122   1.280
 4395SOL     OW14083   2.799   6.428   1.147
 4395SOL    HW114084   2.818   6.502   1.083
 4395SOL    HW214085   2.712   6.385   1.123
 4396SOL     OW14086   1.698   0.770   3.461
 4396SOL    HW114087   1.722   0.854   3.510
 4396SOL    HW214088   1.599   0.756   3.466
 4397SOL     OW14089   2.944   1.759   3.841
 4397SOL    HW114090   2.998   1.715   3.770
 4397SOL    HW214091   2.847   1.739   3.827
 4398SOL     OW14092   2.102   2.958   6.316
 4398SOL    HW114093   2.113   2.860   6.331
 4398SOL    HW214094   2.172   2.991   6.253
 4399SOL     OW14095   2.891   6.471   2.487
 4399SOL    HW114096   2.860   6.389   2.535
 4399SOL    HW214097   2.962   6.516   2.542
 4400SOL     OW14098   1.877   6.317   4.186
 4400SOL    HW114099   1.934   6.244   4.148
 4400SOL    HW214100   1.784   6.284   4.198
 4401SOL     OW14101   3.414   6.309   5.514
 4401SOL    HW114102   3.475   6.313   5.594
 4401SOL    HW214103   3.371   6.218   5.510
 4402SOL     OW14104   1.371   0.344   3.002
 4402SOL    HW114105   1.404   0.383   2.916
 4402SOL    HW214106   1.359   0.246   2.993
 4403SOL     OW14107   1.166   5.317   1.262
 4403SOL    HW114108   1.246   5.307   1.203
 4403SOL    HW214109   1.169   5.405   1.308
 4404SOL     OW14110   0.903   5.706   6.100
 4404SOL    HW114111   0.837   5.661   6.161
 4404SOL    HW214112   0.914   5.801   6.129
 4405SOL     OW14113   2.358   4.676   3.587
 4405SOL    HW114114   2.332   4.583   3.613
 4405SOL    HW214115   2.400   4.674   3.496
 4406SOL     OW14116   6.226   3.723   2.033
 4406SOL    HW114117   6.182   3.666   2.102
 4406SOL    HW214118   6.324   3.728   2.050
 4407SOL     OW14119   0.149   6.431   2.169
 4407SOL    HW114120   0.211   6.459   2.095
 4407SOL    HW214121   0.059   6.474   2.154
 4408SOL     OW14122   4.068   0.144   0.687
 4408SOL    HW114123   4.101   0.225   0.639
 4408SOL    HW214124   3.983   0.166   0.735
 4409SOL     OW14125   3.785   0.934   2.211
 4409SOL    HW114126   3.769   0.849   2.161
 4409SOL    HW214127   3.753   1.011   2.156
 4410SOL     OW14128   0.947   6.132   1.102
 4410SOL    HW114129   0.924   6.066   1.174
 4410SOL    HW214130   0.962   6.083   1.016
 4411SOL     OW14131   3.254   4.723   5.444
 4411SOL    HW114132   3.318   4.793   5.413
 4411SOL    HW214133   3.167   4.734   5.396
 4412SOL     OW14134   4.372   6.588   3.363
 4412SOL    HW114135   4.466   6.559   3.378
 4412SOL    HW214136   4.370   6.681   3.327
 4413SOL     OW14137   3.638   0.311   4.005
 4413SOL    HW114138   3.662   0.406   3.983
 4413SOL    HW214139   3.549   0.308   4.051
 4414SOL     OW14140   4.673   4.564   1.517
 4414SOL    HW114141   4.771   4.544   1.509
 4414SOL    HW214142   4.642   4.615   1.437
 4415SOL     OW14143   3.205   3.440   1.640
 4415SOL    HW114144   3.223   3.515   1.576
 4415SOL    HW214145   3.125   3.388   1.609
 4416SOL     OW14146   4.102   2.269   4.227
 4416SOL    HW114147   4.031   2.221   4.176
 4416SOL    HW214148   4.085   2.368   4.224
 4417SOL     OW14149   0.338   3.584   3.837
 4417SOL    HW114150   0.413   3.547   3.892
 4417SOL    HW214151   0.359   3.575   3.740
 4418SOL     OW14152   6.276   0.581   0.555
 4418SOL    HW114153   6.368   0.580   0.518
 4418SOL    HW214154   6.258   0.495   0.602
 4419SOL     OW14155   6.417   5.399   6.183
 4419SOL    HW114156   6.501   5.373   6.134
 4419SOL    HW214157   6.442   5.431   6.275
 4420SOL     OW14158   3.610   2.205   0.858
 4420SOL    HW114159   3.621   2.304   0.849
 4420SOL    HW214160   3.604   2.181   0.955
 4421SOL     OW14161   1.345   2.602   4.419
 4421SOL    HW114162   1.285   2.675   4.386
 4421SOL    HW214163   1.291   2.536   4.471
 4422SOL     OW14164   0.336   4.740   6.617
 4422SOL    HW114165   0.388   4.658   6.591
 4422SOL    HW214166   0.274   4.766   6.543
 4423SOL     OW14167   5.476   4.038   5.247
 4423SOL    HW114168   5.505   3.969   5.313
 4423SOL    HW214169   5.512   4.128   5.275
 4424SOL     OW14170   4.864   5.896   4.495
 4424SOL    HW114171   4.952   5.934   4.466
 4424SOL    HW214172   4.879   5.829   4.568
 4425SOL     OW14173   1.977   5.891   1.268
 4425SOL    HW114174   2.000   5.875   1.172
 4425SOL    HW214175   1.974   5.989   1.286
 4426SOL     OW14176   1.124   0.053   3.619
 4426SOL    HW114177   1.037   0.009   3.641
 4426SOL    HW214178   1.198   0.003   3.663
 4427SOL     OW14179   3.415   5.906   3.266
 4427SOL    HW114180   3.406   5.813   3.231
 4427SOL    HW214181   3.504   5.917   3.309
 4428SOL     OW14182   5.728   0.970   3.661
 4428SOL    HW114183   5.809   0.930   3.705
 4428SOL    HW214184   5.646   0.923   3.694
 4429SOL     OW14185   3.104   5.974   3.702
 4429SOL    HW114186   3.143   5.998   3.613
 4429SOL    HW214187   3.101   5.874   3.712
 4430SOL     OW14188   5.444   5.015   4.889
 4430SOL    HW114189   5.520   5.070   4.924
 4430SOL    HW214190   5.468   4.918   4.892
 4431SOL     OW14191   3.651   0.733   3.774
 4431SOL    HW114192   3.643   0.699   3.680
 4431SOL    HW214193   3.560   0.752   3.811
 4432SOL     OW14194   1.569   3.130   6.151
 4432SOL    HW114195   1.564   3.230   6.147
 4432SOL    HW214196   1.609   3.095   6.067
 4433SOL     OW14197   1.144   0.980   4.850
 4433SOL    HW114198   1.232   1.015   4.818
 4433SOL    HW214199   1.075   1.052   4.846
 4434SOL     OW14200   6.822   1.562   1.638
 4434SOL    HW114201   6.843   1.577   1.735
 4434SOL    HW214202   6.755   1.489   1.629
 4435SOL     OW14203   2.388   3.965   0.384
 4435SOL    HW114204   2.430   3.955   0.294
 4435SOL    HW214205   2.298   3.923   0.384
 4436SOL     OW14206   4.489   1.911   1.443
 4436SOL    HW114207   4.418   1.980   1.429
 4436SOL    HW214208   4.491   1.849   1.364
 4437SOL     OW14209   0.522   3.604   1.876
 4437SOL    HW114210   0.569   3.682   1.836
 4437SOL    HW214211   0.517   3.615   1.976
 4438SOL     OW14212   4.026   6.983   6.489
 4438SOL    HW114213   3.954   6.929   6.531
 4438SOL    HW214214   4.106   6.985   6.549
 4439SOL     OW14215   2.514   6.676   2.362
 4439SOL    HW114216   2.613   6.671   2.355
 4439SOL    HW214217   2.487   6.764   2.401
 4440SOL     OW14218   1.712   4.664   0.631
 4440SOL    HW114219   1.642   4.593   0.627
 4440SOL    HW214220   1.728   4.690   0.727
 4441SOL     OW14221   0.702   1.380   6.939
 4441SOL    HW114222   0.626   1.393   6.875
 4441SOL    HW214223   0.771   1.451   6.924
 4442SOL     OW14224   1.913   4.490   6.879
 4442SOL    HW114225   1.957   4.580   6.873
 4442SOL    HW214226   1.816   4.500   6.856
 4443SOL     OW14227   0.359   5.120   6.636
 4443SOL    HW114228   0.331   5.175   6.715
 4443SOL    HW214229   0.284   5.058   6.610
 4444SOL     OW14230   5.500   4.081   0.088
 4444SOL    HW114231   5.524   4.068   7.016
 4444SOL    HW214232   5.456   4.170   0.101
 4445SOL     OW14233   0.402   5.896   6.902
 4445SOL    HW114234   0.493   5.887   6.944
 4445SOL    HW214235   0.335   5.920   6.972
 4446SOL     OW14236   5.044   1.218   0.725
 4446SOL    HW114237   4.965   1.262   0.767
 4446SOL    HW214238   5.061   1.259   0.635
 4447SOL     OW14239   5.345   5.266   5.549
 4447SOL    HW114240   5.434   5.291   5.511
 4447SOL    HW214241   5.310   5.342   5.605
 4448SOL     OW14242   3.350   6.473   2.197
 4448SOL    HW114243   3.368   6.420   2.280
 4448SOL    HW214244   3.252   6.484   2.185
 4449SOL     OW14245   3.593   1.172   6.443
 4449SOL    HW114246   3.585   1.134   6.535
 4449SOL    HW214247   3.627   1.266   6.448
 4450SOL     OW14248   3.393   0.621   0.486
 4450SOL    HW114249   3.297   0.643   0.471
 4450SOL    HW214250   3.405   0.522   0.484
 4451SOL     OW14251   4.583   4.378   3.727
 4451SOL    HW114252   4.537   4.409   3.644
 4451SOL    HW214253   4.596   4.455   3.789
 4452SOL     OW14254   4.976   6.285   4.451
 4452SOL    HW114255   4.915   6.363   4.452
 4452SOL    HW214256   4.971   6.236   4.538
 4453SOL     OW14257   0.650   3.184   1.174
 4453SOL    HW114258   0.631   3.168   1.077
 4453SOL    HW214259   0.680   3.279   1.186
 4454SOL     OW14260   1.017   2.268   0.538
 4454SOL    HW114261   1.026   2.358   0.580
 4454SOL    HW214262   0.950   2.214   0.590
 4455SOL     OW14263   7.005   6.131   4.975
 4455SOL    HW114264   6.941   6.155   4.902
 4455SOL    HW214265   6.971   6.166   5.062
 4456SOL     OW14266   1.670   0.000   4.326
 4456SOL    HW114267   1.758   7.005   4.283
 4456SOL    HW214268   1.680   7.017   4.426
 4457SOL     OW14269   1.025   1.897   4.857
 4457SOL    HW114270   0.937   1.930   4.890
 4457SOL    HW214271   1.025   1.797   4.852
 4458SOL     OW14272   2.129   3.712   1.307
 4458SOL    HW114273   2.103   3.717   1.211
 4458SOL    HW214274   2.082   3.784   1.358
 4459SOL     OW14275   1.555   2.635   3.837
 4459SOL    HW114276   1.527   2.644   3.741
 4459SOL    HW214277   1.474   2.631   3.895
 4460SOL     OW14278   6.964   3.358   4.107
 4460SOL    HW114279   6.938   3.433   4.168
 4460SOL    HW214280   7.005   3.396   4.024
 4461SOL     OW14281   2.713   0.816   1.178
 4461SOL    HW114282   2.777   0.757   1.128
 4461SOL    HW214283   2.626   0.768   1.190
 4462SOL     OW14284   5.968   4.666   1.749
 4462SOL    HW114285   6.059   4.638   1.718
 4462SOL    HW214286   5.922   4.587   1.791
 4463SOL     OW14287   6.210   2.266   1.118
 4463SOL    HW114288   6.196   2.242   1.022
 4463SOL    HW214289   6.170   2.356   1.136
 4464SOL     OW14290   0.643   5.862   0.419
 4464SOL    HW114291   0.660   5.875   0.517
 4464SOL    HW214292   0.659   5.766   0.396
 4465SOL     OW14293   1.957   5.686   0.457
 4465SOL    HW114294   1.874   5.651   0.414
 4465SOL    HW214295   2.037   5.657   0.405
 4466SOL     OW14296   1.913   2.188   3.674
 4466SOL    HW114297   2.006   2.153   3.679
 4466SOL    HW214298   1.854   2.136   3.736
 4467SOL     OW14299   3.649   5.659   3.065
 4467SOL    HW114300   3.691   5.644   2.975
 4467SOL    HW214301   3.713   5.707   3.125
 4468SOL     OW14302   1.337   3.579   2.029
 4468SOL    HW114303   1.271   3.526   2.082
 4468SOL    HW214304   1.346   3.671   2.068
 4469SOL     OW14305   2.583   6.928   1.435
 4469SOL    HW114306   2.516   6.987   1.392
 4469SOL    HW214307   2.647   6.893   1.366
 4470SOL     OW14308   1.351   0.500   1.956
 4470SOL    HW114309   1.407   0.581   1.975
 4470SOL    HW214310   1.355   0.480   1.859
 4471SOL     OW14311   1.789   1.535   6.159
 4471SOL    HW114312   1.851   1.609   6.187
 4471SOL    HW214313   1.777   1.538   6.060
 4472SOL     OW14314   1.666   3.405   1.148
 4472SOL    HW114315   1.586   3.380   1.093
 4472SOL    HW214316   1.651   3.379   1.243
 4473SOL     OW14317   0.248   3.368   4.768
 4473SOL    HW114318   0.178   3.297   4.784
 4473SOL    HW214319   0.203   3.456   4.757
 4474SOL     OW14320   3.213   0.041   1.633
 4474SOL    HW114321   3.283   0.041   1.704
 4474SOL    HW214322   3.125   0.068   1.672
 4475SOL     OW14323   1.023   3.949   1.909
 4475SOL    HW114324   1.020   3.958   2.008
 4475SOL    HW214325   0.985   3.860   1.883
 4476SOL     OW14326   4.966   1.556   3.930
 4476SOL    HW114327   4.898   1.495   3.971
 4476SOL    HW214328   4.921   1.617   3.864
 4477SOL     OW14329   1.880   0.192   6.146
 4477SOL    HW114330   1.820   0.114   6.129
 4477SOL    HW214331   1.895   0.201   6.244
 4478SOL     OW14332   1.369   0.373   0.002
 4478SOL    HW114333   1.430   0.349   6.950
 4478SOL    HW214334   1.275   0.348   7.002
 4479SOL     OW14335   0.887   3.012   0.404
 4479SOL    HW114336   0.954   2.967   0.464
 4479SOL    HW214337   0.866   3.103   0.440
 4480SOL     OW14338   0.339   6.501   4.463
 4480SOL    HW114339   0.318   6.417   4.412
 4480SOL    HW214340   0.302   6.493   4.556
 4481SOL     OW14341   2.504   4.840   6.370
 4481SOL    HW114342   2.445   4.773   6.326
 4481SOL    HW214343   2.448   4.904   6.423
 4482SOL     OW14344   2.892   5.494   6.463
 4482SOL    HW114345   2.895   5.402   6.424
 4482SOL    HW214346   2.979   5.514   6.509
 4483SOL     OW14347   0.711   2.809   1.665
 4483SOL    HW114348   0.768   2.871   1.719
 4483SOL    HW214349   0.666   2.860   1.592
 4484SOL     OW14350   2.351   2.385   6.643
 4484SOL    HW114351   2.426   2.448   6.660
 4484SOL    HW214352   2.388   2.295   6.617
 4485SOL     OW14353   5.525   2.880   4.601
 4485SOL    HW114354   5.468   2.799   4.613
 4485SOL    HW214355   5.612   2.853   4.560
 4486SOL     OW14356   4.577   5.058   5.245
 4486SOL    HW114357   4.531   5.114   5.313
 4486SOL    HW214358   4.646   5.112   5.197
 4487SOL     OW14359   1.119   2.635   7.021
 4487SOL    HW114360   1.153   2.712   0.052
 4487SOL    HW214361   1.135   2.550   0.047
 4488SOL     OW14362   0.441   3.908   4.220
 4488SOL    HW114363   0.453   3.976   4.148
 4488SOL    HW214364   0.344   3.899   4.242
 4489SOL     OW14365   3.942   5.400   5.529
 4489SOL    HW114366   3.907   5.492   5.511
 4489SOL    HW214367   3.962   5.353   5.443
 4490SOL     OW14368   5.238   1.955   1.184
 4490SOL    HW114369   5.253   2.050   1.159
 4490SOL    HW214370   5.164   1.949   1.251
 4491SOL     OW14371   1.167   2.697   3.141
 4491SOL    HW114372   1.116   2.616   3.170
 4491SOL    HW214373   1.137   2.725   3.050
 4492SOL     OW14374   5.580   0.729   1.492
 4492SOL    HW114375   5.633   0.805   1.530
 4492SOL    HW214376   5.567   0.659   1.562
 4493SOL     OW14377   5.025   0.678   5.286
 4493SOL    HW114378   4.944   0.733   5.303
 4493SOL    HW214379   5.084   0.678   5.367
 4494SOL     OW14380   0.469   0.693   0.537
 4494SOL    HW114381   0.404   0.757   0.578
 4494SOL    HW214382   0.425   0.643   0.463
 4495SOL     OW14383   4.414   6.004   2.033
 4495SOL    HW114384   4.391   6.076   1.967
 4495SOL    HW214385   4.331   5.976   2.082
 4496SOL     OW14386   3.582   5.712   6.531
 4496SOL    HW114387   3.647   5.687   6.603
 4496SOL    HW214388   3.623   5.781   6.471
 4497SOL     OW14389   4.042   1.688   6.211
 4497SOL    HW114390   4.004   1.725   6.127
 4497SOL    HW214391   4.121   1.742   6.239
 4498SOL     OW14392   0.666   5.583   5.651
 4498SOL    HW114393   0.679   5.581   5.750
 4498SOL    HW214394   0.568   5.587   5.630
 4499SOL     OW14395   5.904   2.069   1.880
 4499SOL    HW114396   5.879   2.033   1.970
 4499SOL    HW214397   5.915   1.992   1.817
 4500SOL     OW14398   3.680   5.910   0.014
 4500SOL    HW114399   3.635   5.874   0.095
 4500SOL    HW214400   3.758   5.967   0.040
 4501SOL     OW14401   5.378   1.184   2.235
 4501SOL    HW114402   5.280   1.194   2.220
 4501SOL    HW214403   5.425   1.268   2.208
 4502SOL     OW14404   0.218   3.503   6.706
 4502SOL    HW114405   0.286   3.480   6.776
 4502SOL    HW214406   0.257   3.486   6.615
 4503SOL     OW14407   2.934   0.384   2.518
 4503SOL    HW114408   3.029   0.415   2.509
 4503SOL    HW214409   2.926   0.327   2.600
 4504SOL     OW14410   0.692   2.119   3.208
 4504SOL    HW114411   0.599   2.136   3.238
 4504SOL    HW214412   0.691   2.070   3.121
 4505SOL     OW14413   5.570   3.597   2.622
 4505SOL    HW114414   5.521   3.601   2.535
 4505SOL    HW214415   5.639   3.524   2.617
 4506SOL     OW14416   5.098   3.070   4.712
 4506SOL    HW114417   5.160   3.051   4.788
 4506SOL    HW214418   5.118   3.006   4.637
 4507SOL     OW14419   6.482   2.985   3.131
 4507SOL    HW114420   6.442   3.061   3.181
 4507SOL    HW214421   6.574   2.967   3.166
 4508SOL     OW14422   1.049   5.190   0.358
 4508SOL    HW114423   0.972   5.139   0.396
 4508SOL    HW214424   1.039   5.287   0.383
 4509SOL     OW14425   4.602   2.636   2.517
 4509SOL    HW114426   4.504   2.618   2.505
 4509SOL    HW214427   4.643   2.652   2.428
 4510SOL     OW14428   4.766   1.204   4.555
 4510SOL    HW114429   4.718   1.176   4.638
 4510SOL    HW214430   4.706   1.259   4.499
 4511SOL     OW14431   0.648   4.443   0.942
 4511SOL    HW114432   0.555   4.408   0.953
 4511SOL    HW214433   0.678   4.429   0.848
 4512SOL     OW14434   3.270   2.577   5.690
 4512SOL    HW114435   3.263   2.576   5.789
 4512SOL    HW214436   3.196   2.523   5.650
 4513SOL     OW14437   1.366   6.206   0.350
 4513SOL    HW114438   1.358   6.301   0.320
 4513SOL    HW214439   1.447   6.164   0.309
 4514SOL     OW14440   2.849   3.687   6.669
 4514SOL    HW114441   2.768   3.655   6.620
 4514SOL    HW214442   2.822   3.758   6.735
 4515SOL     OW14443   4.537   6.822   5.960
 4515SOL    HW114444   4.594   6.791   6.037
 4515SOL    HW214445   4.441   6.822   5.987
 4516SOL     OW14446   3.737   1.598   5.190
 4516SOL    HW114447   3.725   1.539   5.110
 4516SOL    HW214448   3.834   1.610   5.208
 4517SOL     OW14449   4.225   0.575   5.862
 4517SOL    HW114450   4.133   0.615   5.867
 4517SOL    HW214451   4.233   0.520   5.779
 4518SOL     OW14452   1.886   0.619   0.863
 4518SOL    HW114453   1.840   0.571   0.937
 4518SOL    HW214454   1.867   0.717   0.868
 4519SOL     OW14455   5.359   6.585   6.684
 4519SOL    HW114456   5.416   6.506   6.663
 4519SOL    HW214457   5.362   6.649   6.607
 4520SOL     OW14458   4.239   6.397   5.248
 4520SOL    HW114459   4.145   6.383   5.277
 4520SOL    HW214460   4.289   6.444   5.321
 4521SOL     OW14461   4.593   2.710   4.742
 4521SOL    HW114462   4.533   2.664   4.807
 4521SOL    HW214463   4.587   2.809   4.755
 4522SOL     OW14464   4.828   3.952   3.094
 4522SOL    HW114465   4.777   4.015   3.153
 4522SOL    HW214466   4.902   3.910   3.146
 4523SOL     OW14467   0.391   3.504   6.488
 4523SOL    HW114468   0.361   3.514   6.393
 4523SOL    HW214469   0.490   3.494   6.490
 4524SOL     OW14470   0.571   3.310   3.140
 4524SOL    HW114471   0.654   3.343   3.095
 4524SOL    HW214472   0.548   3.371   3.216
 4525SOL     OW14473   2.620   2.034   5.138
 4525SOL    HW114474   2.705   2.040   5.084
 4525SOL    HW214475   2.642   2.032   5.235
 4526SOL     OW14476   0.424   6.848   5.729
 4526SOL    HW114477   0.342   6.841   5.787
 4526SOL    HW214478   0.404   6.908   5.651
 4527SOL     OW14479   6.428   0.406   3.174
 4527SOL    HW114480   6.437   0.473   3.248
 4527SOL    HW214481   6.331   0.397   3.149
 4528SOL     OW14482   4.009   0.905   5.379
 4528SOL    HW114483   3.929   0.965   5.380
 4528SOL    HW214484   4.044   0.895   5.472
 4529SOL     OW14485   2.547   1.039   5.448
 4529SOL    HW114486   2.615   1.020   5.377
 4529SOL    HW214487   2.587   1.098   5.518
 4530SOL     OW14488   3.041   5.921   5.390
 4530SOL    HW114489   3.015   5.830   5.421
 4530SOL    HW214490   3.028   5.987   5.464
 4531SOL     OW14491   0.843   5.071   6.037
 4531SOL    HW114492   0.889   5.157   6.060
 4531SOL    HW214493   0.911   5.002   6.013
 4532SOL     OW14494   5.929   0.761   2.726
 4532SOL    HW114495   5.961   0.686   2.669
 4532SOL    HW214496   5.962   0.749   2.820
 4533SOL     OW14497   2.411   0.776   2.339
 4533SOL    HW114498   2.375   0.866   2.361
 4533SOL    HW214499   2.355   0.706   2.385
 4534SOL     OW14500   4.794   1.651   4.224
 4534SOL    HW114501   4.765   1.665   4.319
 4534SOL    HW214502   4.883   1.694   4.211
 4535SOL     OW14503   2.655   1.772   0.386
 4535SOL    HW114504   2.652   1.672   0.387
 4535SOL    HW214505   2.628   1.806   0.296
 4536SOL     OW14506   3.083   1.431   5.809
 4536SOL    HW114507   3.050   1.338   5.821
 4536SOL    HW214508   3.095   1.474   5.899
 4537SOL     OW14509   4.051   3.458   3.820
 4537SOL    HW114510   4.065   3.386   3.752
 4537SOL    HW214511   4.074   3.422   3.911
 4538SOL     OW14512   6.811   2.554   0.574
 4538SOL    HW114513   6.876   2.483   0.599
 4538SOL    HW214514   6.842   2.601   0.491
 4539SOL     OW14515   0.862   5.472   5.486
 4539SOL    HW114516   0.796   5.507   5.552
 4539SOL    HW214517   0.885   5.543   5.419
 4540SOL     OW14518   0.458   1.057   0.072
 4540SOL    HW114519   0.476   0.999   7.016
 4540SOL    HW214520   0.545   1.092   0.108
 4541SOL     OW14521   4.376   2.462   5.977
 4541SOL    HW114522   4.446   2.469   5.906
 4541SOL    HW214523   4.409   2.506   6.060
 4542SOL     OW14524   6.982   2.680   1.217
 4542SOL    HW114525   6.982   2.652   1.121
 4542SOL    HW214526   0.053   2.681   1.251
 4543SOL     OW14527   3.391   2.308   6.923
 4543SOL    HW114528   3.483   2.311   6.964
 4543SOL    HW214529   3.324   2.334   6.992
 4544SOL     OW14530   5.997   5.849   0.628
 4544SOL    HW114531   5.960   5.926   0.578
 4544SOL    HW214532   5.962   5.764   0.591
 4545SOL     OW14533   2.017   3.032   5.439
 4545SOL    HW114534   2.109   3.028   5.398
 4545SOL    HW214535   2.024   3.071   5.531
 4546SOL     OW14536   3.052   1.323   6.657
 4546SOL    HW114537   3.038   1.400   6.595
 4546SOL    HW214538   3.097   1.249   6.609
 4547SOL     OW14539   6.470   0.430   0.206
 4547SOL    HW114540   6.534   0.375   0.153
 4547SOL    HW214541   6.511   0.456   0.292
 4548SOL     OW14542   2.233   2.957   2.827
 4548SOL    HW114543   2.320   2.920   2.860
 4548SOL    HW214544   2.251   3.019   2.750
 4549SOL     OW14545   5.893   3.598   3.321
 4549SOL    HW114546   5.822   3.646   3.373
 4549SOL    HW214547   5.932   3.526   3.378
 4550SOL     OW14548   0.762   4.441   2.983
 4550SOL    HW114549   0.663   4.446   2.980
 4550SOL    HW214550   0.796   4.491   3.063
 4551SOL     OW14551   1.141   3.848   4.826
 4551SOL    HW114552   1.198   3.922   4.789
 4551SOL    HW214553   1.184   3.760   4.807
 4552SOL     OW14554   5.616   1.024   1.156
 4552SOL    HW114555   5.641   1.049   1.063
 4552SOL    HW214556   5.553   0.947   1.154
 4553SOL     OW14557   5.936   4.958   6.037
 4553SOL    HW114558   5.905   4.887   6.101
 4553SOL    HW214559   5.887   5.043   6.056
 4554SOL     OW14560   0.638   6.221   2.280
 4554SOL    HW114561   0.565   6.235   2.346
 4554SOL    HW214562   0.606   6.158   2.209
 4555SOL     OW14563   1.054   0.983   6.616
 4555SOL    HW114564   1.036   0.899   6.668
 4555SOL    HW214565   0.978   1.000   6.553
 4556SOL     OW14566   5.820   3.563   5.880
 4556SOL    HW114567   5.747   3.609   5.929
 4556SOL    HW214568   5.869   3.502   5.942
 4557SOL     OW14569   6.139   5.034   3.012
 4557SOL    HW114570   6.049   5.041   2.968
 4557SOL    HW214571   6.146   4.947   3.060
 4558SOL     OW14572   6.835   3.342   5.537
 4558SOL    HW114573   6.879   3.428   5.510
 4558SOL    HW214574   6.819   3.286   5.455
 4559SOL     OW14575   0.155   2.710   2.522
 4559SOL    HW114576   0.102   2.683   2.442
 4559SOL    HW214577   0.107   2.781   2.573
 4560SOL     OW14578   6.034   4.888   2.510
 4560SOL    HW114579   5.967   4.863   2.581
 4560SOL    HW214580   6.065   4.807   2.462
 4561SOL     OW14581   3.638   2.027   4.574
 4561SOL    HW114582   3.660   1.930   4.579
 4561SOL    HW214583   3.707   2.080   4.623
 4562SOL     OW14584   2.525   1.114   0.927
 4562SOL    HW114585   2.554   1.098   1.022
 4562SOL    HW214586   2.457   1.188   0.925
 4563SOL     OW14587   0.469   3.061   1.683
 4563SOL    HW114588   0.474   3.065   1.783
 4563SOL    HW214589   0.442   3.150   1.647
 4564SOL     OW14590   0.395   3.867   1.710
 4564SOL    HW114591   0.316   3.850   1.769
 4564SOL    HW214592   0.363   3.902   1.622
 4565SOL     OW14593   1.887   6.260   5.196
 4565SOL    HW114594   1.798   6.214   5.197
 4565SOL    HW214595   1.885   6.336   5.261
 4566SOL     OW14596   6.509   4.311   2.075
 4566SOL    HW114597   6.482   4.358   1.990
 4566SOL    HW214598   6.536   4.217   2.054
 4567SOL     OW14599   0.230   0.637   6.530
 4567SOL    HW114600   0.294   0.565   6.503
 4567SOL    HW214601   0.280   0.717   6.563
 4568SOL     OW14602   0.529   5.477   3.394
 4568SOL    HW114603   0.547   5.387   3.353
 4568SOL    HW214604   0.526   5.546   3.322
 4569SOL     OW14605   2.621   0.841   3.361
 4569SOL    HW114606   2.674   0.860   3.278
 4569SOL    HW214607   2.524   0.860   3.343
 4570SOL     OW14608   6.061   5.556   1.814
 4570SOL    HW114609   6.155   5.585   1.796
 4570SOL    HW214610   5.999   5.632   1.799
 4571SOL     OW14611   3.279   3.280   6.407
 4571SOL    HW114612   3.219   3.217   6.358
 4571SOL    HW214613   3.284   3.367   6.359
 4572SOL     OW14614   2.847   2.867   1.692
 4572SOL    HW114615   2.796   2.831   1.614
 4572SOL    HW214616   2.901   2.794   1.733
 4573SOL     OW14617   1.955   6.201   1.298
 4573SOL    HW114618   1.865   6.204   1.254
 4573SOL    HW214619   2.026   6.192   1.229
 4574SOL     OW14620   5.854   2.064   1.106
 4574SOL    HW114621   5.939   2.010   1.106
 4574SOL    HW214622   5.843   2.108   1.195
 4575SOL     OW14623   6.527   6.741   4.472
 4575SOL    HW114624   6.446   6.747   4.530
 4575SOL    HW214625   6.574   6.829   4.470
 4576SOL     OW14626   2.403   4.770   5.076
 4576SOL    HW114627   2.488   4.816   5.051
 4576SOL    HW214628   2.393   4.769   5.175
 4577SOL     OW14629   2.115   1.442   2.966
 4577SOL    HW114630   2.122   1.538   2.940
 4577SOL    HW214631   2.027   1.405   2.934
 4578SOL     OW14632   1.198   1.171   1.685
 4578SOL    HW114633   1.115   1.171   1.629
 4578SOL    HW214634   1.174   1.153   1.780
 4579SOL     OW14635   3.654   1.258   2.314
 4579SOL    HW114636   3.651   1.290   2.219
 4579SOL    HW214637   3.737   1.204   2.328
 4580SOL     OW14638   0.047   2.790   0.194
 4580SOL    HW114639   0.142   2.789   0.163
 4580SOL    HW214640   0.044   2.808   0.293
 4581SOL     OW14641   3.611   6.981   1.693
 4581SOL    HW114642   3.556   6.904   1.660
 4581SOL    HW214643   3.570   7.019   1.775
 4582SOL     OW14644   6.095   1.074   3.040
 4582SOL    HW114645   6.146   1.159   3.057
 4582SOL    HW214646   5.997   1.094   3.034
 4583SOL     OW14647   1.868   6.950   6.578
 4583SOL    HW114648   1.772   6.962   6.607
 4583SOL    HW214649   1.896   6.856   6.595
 4584SOL     OW14650   1.489   0.656   5.869
 4584SOL    HW114651   1.472   0.661   5.770
 4584SOL    HW214652   1.479   0.561   5.900
 4585SOL     OW14653   1.198   3.649   3.288
 4585SOL    HW114654   1.119   3.607   3.243
 4585SOL    HW214655   1.201   3.621   3.384
 4586SOL     OW14656   5.162   4.647   6.877
 4586SOL    HW114657   5.233   4.576   6.878
 4586SOL    HW214658   5.095   4.626   6.805
 4587SOL     OW14659   3.217   3.773   4.268
 4587SOL    HW114660   3.202   3.857   4.216
 4587SOL    HW214661   3.140   3.757   4.329
 4588SOL     OW14662   2.703   4.158   5.731
 4588SOL    HW114663   2.719   4.241   5.678
 4588SOL    HW214664   2.783   4.140   5.789
 4589SOL     OW14665   5.153   0.028   2.451
 4589SOL    HW114666   5.100   0.035   2.367
 4589SOL    HW214667   5.216   6.974   2.444
 4590SOL     OW14668   3.280   5.485   1.751
 4590SOL    HW114669   3.357   5.548   1.750
 4590SOL    HW214670   3.312   5.394   1.777
 4591SOL     OW14671   1.798   0.365   5.169
 4591SOL    HW114672   1.702   0.375   5.195
 4591SOL    HW214673   1.810   0.396   5.074
 4592SOL     OW14674   2.166   1.510   4.195
 4592SOL    HW114675   2.204   1.552   4.278
 4592SOL    HW214676   2.144   1.415   4.213
 4593SOL     OW14677   0.701   5.958   4.126
 4593SOL    HW114678   0.733   6.001   4.211
 4593SOL    HW214679   0.630   5.891   4.147
 4594SOL     OW14680   1.936   0.539   2.594
 4594SOL    HW114681   2.023   0.538   2.644
 4594SOL    HW214682   1.938   0.610   2.524
 4595SOL     OW14683   4.835   1.876   5.996
 4595SOL    HW114684   4.869   1.791   6.035
 4595SOL    HW214685   4.902   1.949   6.011
 4596SOL     OW14686   0.978   1.132   2.209
 4596SOL    HW114687   0.993   1.124   2.307
 4596SOL    HW214688   0.930   1.218   2.190
 4597SOL     OW14689   2.767   6.136   6.654
 4597SOL    HW114690   2.803   6.126   6.747
 4597SOL    HW214691   2.667   6.135   6.657
 4598SOL     OW14692   1.914   5.666   0.084
 4598SOL    HW114693   1.852   5.601   0.127
 4598SOL    HW214694   1.947   5.629   7.021
 4599SOL     OW14695   2.081   5.204   3.097
 4599SOL    HW114696   2.146   5.187   3.023
 4599SOL    HW214697   2.131   5.226   3.181
 4600SOL     OW14698   6.795   6.247   5.918
 4600SOL    HW114699   6.880   6.291   5.888
 4600SOL    HW214700   6.807   6.148   5.916
 4601SOL     OW14701   0.982   1.219   4.885
 4601SOL    HW114702   0.939   1.299   4.841
 4601SOL    HW214703   0.913   1.170   4.938
 4602SOL     OW14704   3.001   1.992   6.921
 4602SOL    HW114705   2.990   2.064   6.852
 4602SOL    HW214706   2.928   1.925   6.910
 4603SOL     OW14707   5.092   6.141   1.035
 4603SOL    HW114708   4.999   6.178   1.036
 4603SOL    HW214709   5.153   6.202   1.084
 4604SOL     OW14710   5.094   0.312   6.001
 4604SOL    HW114711   5.146   0.301   5.917
 4604SOL    HW214712   5.108   0.232   6.060
 4605SOL     OW14713   3.444   0.192   2.255
 4605SOL    HW114714   3.484   0.111   2.210
 4605SOL    HW214715   3.401   0.164   2.341
 4606SOL     OW14716   6.631   6.713   3.666
 4606SOL    HW114717   6.638   6.647   3.592
 4606SOL    HW214718   6.709   6.775   3.663
 4607SOL     OW14719   1.638   2.929   2.083
 4607SOL    HW114720   1.722   2.977   2.108
 4607SOL    HW214721   1.559   2.986   2.104
 4608SOL     OW14722   6.789   3.623   4.710
 4608SOL    HW114723   6.707   3.667   4.746
 4608SOL    HW214724   6.765   3.565   4.633
 4609SOL     OW14725   4.552   6.339   0.018
 4609SOL    HW114726   4.551   6.286   0.103
 4609SOL    HW214727   4.459   6.369   7.020
 4610SOL     OW14728   5.334   2.661   0.876
 4610SOL    HW114729   5.249   2.691   0.833
 4610SOL    HW214730   5.372   2.736   0.930
 4611SOL     OW14731   1.224   0.523   5.976
 4611SOL    HW114732   1.214   0.622   5.967
 4611SOL    HW214733   1.207   0.496   6.071
 4612SOL     OW14734   1.876   6.864   2.064
 4612SOL    HW114735   1.826   6.946   2.091
 4612SOL    HW214736   1.917   6.822   2.145
 4613SOL     OW14737   1.447   5.086   1.836
 4613SOL    HW114738   1.539   5.071   1.872
 4613SOL    HW214739   1.416   5.178   1.860
 4614SOL     OW14740   6.406   3.754   4.613
 4614SOL    HW114741   6.435   3.819   4.544
 4614SOL    HW214742   6.407   3.661   4.574
 4615SOL     OW14743   0.756   2.761   0.566
 4615SOL    HW114744   0.699   2.842   0.574
 4615SOL    HW214745   0.700   2.679   0.585
 4616SOL     OW14746   5.803   3.110   4.681
 4616SOL    HW114747   5.775   3.015   4.670
 4616SOL    HW214748   5.860   3.119   4.762
 4617SOL     OW14749   0.703   2.112   2.520
 4617SOL    HW114750   0.769   2.168   2.470
 4617SOL    HW214751   0.655   2.052   2.457
 4618SOL     OW14752   2.737   4.388   5.479
 4618SOL    HW114753   2.734   4.470   5.421
 4618SOL    HW214754   2.830   4.375   5.513
 4619SOL     OW14755   3.581   6.177   5.342
 4619SOL    HW114756   3.532   6.230   5.412
 4619SOL    HW214757   3.644   6.237   5.293
 4620SOL     OW14758   1.466   5.534   2.624
 4620SOL    HW114759   1.540   5.594   2.593
 4620SOL    HW214760   1.393   5.532   2.556
 4621SOL     OW14761   4.892   0.478   2.041
 4621SOL    HW114762   4.814   0.482   2.102
 4621SOL    HW214763   4.861   0.482   1.946
 4622SOL     OW14764   4.654   5.596   1.071
 4622SOL    HW114765   4.554   5.598   1.077
 4622SOL    HW214766   4.692   5.554   1.154
 4623SOL     OW14767   2.840   5.178   1.128
 4623SOL    HW114768   2.836   5.128   1.214
 4623SOL    HW214769   2.813   5.118   1.053
 4624SOL     OW14770   4.181   1.074   2.552
 4624SOL    HW114771   4.195   1.091   2.454
 4624SOL    HW214772   4.135   1.152   2.593
 4625SOL     OW14773   2.156   5.582   1.398
 4625SOL    HW114774   2.103   5.656   1.355
 4625SOL    HW214775   2.249   5.614   1.416
 4626SOL     OW14776   3.976   3.933   1.653
 4626SOL    HW114777   3.913   3.960   1.725
 4626SOL    HW214778   4.062   3.984   1.664
 4627SOL     OW14779   5.983   6.682   5.104
 4627SOL    HW114780   6.006   6.656   5.197
 4627SOL    HW214781   5.903   6.741   5.104
 4628SOL     OW14782   5.465   5.180   4.129
 4628SOL    HW114783   5.442   5.138   4.041
 4628SOL    HW214784   5.383   5.217   4.171
 4629SOL     OW14785   2.059   6.156   6.361
 4629SOL    HW114786   1.992   6.209   6.309
 4629SOL    HW214787   2.103   6.215   6.429
 4630SOL     OW14788   1.444   3.933   2.392
 4630SOL    HW114789   1.497   4.015   2.414
 4630SOL    HW214790   1.394   3.903   2.473
 4631SOL     OW14791   0.324   0.390   3.657
 4631SOL    HW114792   0.372   0.463   3.608
 4631SOL    HW214793   0.353   0.389   3.753
 4632SOL     OW14794   3.507   4.910   2.599
 4632SOL    HW114795   3.456   4.996   2.602
 4632SOL    HW214796   3.557   4.903   2.513
 4633SOL     OW14797   4.977   1.492   4.514
 4633SOL    HW114798   4.984   1.425   4.588
 4633SOL    HW214799   5.034   1.464   4.438
 4634SOL     OW14800   3.355   3.825   4.882
 4634SOL    HW114801   3.277   3.882   4.908
 4634SOL    HW214802   3.387   3.852   4.792
 4635SOL     OW14803   5.268   5.870   0.732
 4635SOL    HW114804   5.356   5.829   0.759
 4635SOL    HW214805   5.285   5.958   0.688
 4636SOL     OW14806   1.748   5.852   0.226
 4636SOL    HW114807   1.794   5.792   0.161
 4636SOL    HW214808   1.713   5.798   0.303
 4637SOL     OW14809   1.948   0.244   2.218
 4637SOL    HW114810   1.946   0.228   2.120
 4637SOL    HW214811   1.961   0.342   2.236
 4638SOL     OW14812   3.389   5.408   0.078
 4638SOL    HW114813   3.405   5.423   7.005
 4638SOL    HW214814   3.327   5.330   0.090
 4639SOL     OW14815   2.176   2.173   0.951
 4639SOL    HW114816   2.130   2.252   0.911
 4639SOL    HW214817   2.229   2.126   0.880
 4640SOL     OW14818   6.652   3.094   5.831
 4640SOL    HW114819   6.645   3.024   5.759
 4640SOL    HW214820   6.562   3.135   5.847
 4641SOL     OW14821   0.614   5.496   4.228
 4641SOL    HW114822   0.693   5.477   4.169
 4641SOL    HW214823   0.574   5.410   4.259
 4642SOL     OW14824   0.655   1.672   3.557
 4642SOL    HW114825   0.734   1.615   3.581
 4642SOL    HW214826   0.596   1.624   3.493
 4643SOL     OW14827   0.438   2.037   6.975
 4643SOL    HW114828   0.501   2.004   0.021
 4643SOL    HW214829   0.488   2.093   6.909
 4644SOL     OW14830   1.452   1.103   0.785
 4644SOL    HW114831   1.423   1.064   0.697
 4644SOL    HW214832   1.549   1.126   0.780
 4645SOL     OW14833   1.360   1.555   3.616
 4645SOL    HW114834   1.381   1.591   3.525
 4645SOL    HW214835   1.439   1.504   3.650
 4646SOL     OW14836   1.793   4.858   3.590
 4646SOL    HW114837   1.821   4.841   3.496
 4646SOL    HW214838   1.703   4.902   3.590
 4647SOL     OW14839   1.499   6.677   2.989
 4647SOL    HW114840   1.405   6.652   3.014
 4647SOL    HW214841   1.516   6.772   3.014
 4648SOL     OW14842   2.538   1.637   4.422
 4648SOL    HW114843   2.448   1.661   4.388
 4648SOL    HW214844   2.608   1.679   4.364
 4649SOL     OW14845   5.762   0.453   0.550
 4649SOL    HW114846   5.803   0.540   0.523
 4649SOL    HW214847   5.674   0.441   0.504
 4650SOL     OW14848   5.538   6.130   1.262
 4650SOL    HW114849   5.625   6.094   1.296
 4650SOL    HW214850   5.553   6.173   1.172
 4651SOL     OW14851   5.994   3.132   6.145
 4651SOL    HW114852   6.023   3.227   6.152
 4651SOL    HW214853   5.935   3.121   6.065
 4652SOL     OW14854   0.366   6.378   4.107
 4652SOL    HW114855   0.423   6.297   4.098
 4652SOL    HW214856   0.294   6.376   4.037
 4653SOL     OW14857   5.474   5.737   0.910
 4653SOL    HW114858   5.421   5.807   0.958
 4653SOL    HW214859   5.420   5.654   0.900
 4654SOL     OW14860   0.382   6.589   5.263
 4654SOL    HW114861   0.436   6.504   5.259
 4654SOL    HW214862   0.438   6.665   5.232
 4655SOL     OW14863   4.472   2.593   1.319
 4655SOL    HW114864   4.476   2.592   1.419
 4655SOL    HW214865   4.415   2.670   1.289
 4656SOL     OW14866   0.802   1.047   1.323
 4656SOL    HW114867   0.721   1.097   1.293
 4656SOL    HW214868   0.802   0.955   1.284
 4657SOL     OW14869   5.204   6.660   1.878
 4657SOL    HW114870   5.264   6.699   1.808
 4657SOL    HW214871   5.241   6.572   1.909
 4658SOL     OW14872   2.619   2.340   6.028
 4658SOL    HW114873   2.677   2.421   6.017
 4658SOL    HW214874   2.674   2.265   6.065
 4659SOL     OW14875   3.622   4.900   0.737
 4659SOL    HW114876   3.711   4.873   0.775
 4659SOL    HW214877   3.572   4.953   0.804
 4660SOL     OW14878   1.424   6.659   4.129
 4660SOL    HW114879   1.375   6.716   4.195
 4660SOL    HW214880   1.359   6.602   4.079
 4661SOL     OW14881   1.110   3.191   5.579
 4661SOL    HW114882   1.153   3.153   5.661
 4661SOL    HW214883   1.140   3.141   5.499
 4662SOL     OW14884   2.652   5.987   4.858
 4662SOL    HW114885   2.693   5.989   4.766
 4662SOL    HW214886   2.553   5.976   4.850
 4663SOL     OW14887   1.374   6.966   0.044
 4663SOL    HW114888   1.354   6.869   0.029
 4663SOL    HW214889   1.334   6.995   0.131
 4664SOL     OW14890   6.460   6.359   0.045
 4664SOL    HW114891   6.412   6.275   0.070
 4664SOL    HW214892   6.558   6.348   0.064
 4665SOL     OW14893   2.478   0.727   4.586
 4665SOL    HW114894   2.468   0.792   4.661
 4665SOL    HW214895   2.397   0.732   4.527
 4666SOL     OW14896   1.944   1.993   5.573
 4666SOL    HW114897   1.974   1.911   5.524
 4666SOL    HW214898   1.953   1.978   5.672
 4667SOL     OW14899   6.636   3.847   1.303
 4667SOL    HW114900   6.604   3.771   1.360
 4667SOL    HW214901   6.573   3.924   1.312
 4668SOL     OW14902   4.493   2.367   4.466
 4668SOL    HW114903   4.476   2.337   4.560
 4668SOL    HW214904   4.468   2.294   4.402
 4669SOL     OW14905   5.535   6.960   6.785
 4669SOL    HW114906   5.546   0.018   6.842
 4669SOL    HW214907   5.517   6.881   6.844
 4670SOL     OW14908   0.853   3.302   0.724
 4670SOL    HW114909   0.799   3.321   0.807
 4670SOL    HW214910   0.931   3.244   0.748
 4671SOL     OW14911   0.203   3.981   0.281
 4671SOL    HW114912   0.263   3.905   0.308
 4671SOL    HW214913   0.242   4.067   0.315
 4672SOL     OW14914   3.170   3.895   5.942
 4672SOL    HW114915   3.138   3.962   5.875
 4672SOL    HW214916   3.126   3.807   5.925
 4673SOL     OW14917   5.837   0.342   0.018
 4673SOL    HW114918   5.867   0.267   0.078
 4673SOL    HW214919   5.884   0.426   0.045
 4674SOL     OW14920   0.776   1.956   0.495
 4674SOL    HW114921   0.697   1.898   0.511
 4674SOL    HW214922   0.768   2.040   0.549
 4675SOL     OW14923   2.499   6.163   0.113
 4675SOL    HW114924   2.563   6.239   0.099
 4675SOL    HW214925   2.488   6.114   0.026
 4676SOL     OW14926   0.765   5.795   3.772
 4676SOL    HW114927   0.697   5.826   3.839
 4676SOL    HW214928   0.723   5.727   3.711
 4677SOL     OW14929   4.259   0.663   6.575
 4677SOL    HW114930   4.327   0.715   6.523
 4677SOL    HW214931   4.297   0.636   6.663
 4678SOL     OW14932   2.240   4.971   0.293
 4678SOL    HW114933   2.275   5.017   0.212
 4678SOL    HW214934   2.276   4.877   0.297
 4679SOL     OW14935   2.834   0.629   6.207
 4679SOL    HW114936   2.866   0.545   6.251
 4679SOL    HW214937   2.777   0.605   6.128
 4680SOL     OW14938   1.784   4.786   0.868
 4680SOL    HW114939   1.710   4.847   0.894
 4680SOL    HW214940   1.870   4.838   0.863
 4681SOL     OW14941   0.176   5.460   5.057
 4681SOL    HW114942   0.207   5.430   5.147
 4681SOL    HW214943   0.255   5.480   4.999
 4682SOL     OW14944   4.036   6.373   0.784
 4682SOL    HW114945   4.035   6.473   0.784
 4682SOL    HW214946   4.101   6.341   0.853
 4683SOL     OW14947   5.942   4.134   2.324
 4683SOL    HW114948   5.996   4.189   2.260
 4683SOL    HW214949   5.959   4.037   2.308
 4684SOL     OW14950   1.448   2.124   4.725
 4684SOL    HW114951   1.494   2.195   4.778
 4684SOL    HW214952   1.506   2.042   4.722
 4685SOL     OW14953   5.156   5.416   4.906
 4685SOL    HW114954   5.096   5.364   4.967
 4685SOL    HW214955   5.181   5.503   4.949
 4686SOL     OW14956   4.669   5.379   6.248
 4686SOL    HW114957   4.766   5.362   6.231
 4686SOL    HW214958   4.616   5.353   6.167
 4687SOL     OW14959   6.260   5.227   4.848
 4687SOL    HW114960   6.303   5.171   4.778
 4687SOL    HW214961   6.166   5.195   4.864
 4688SOL     OW14962   0.315   3.176   6.517
 4688SOL    HW114963   0.376   3.102   6.488
 4688SOL    HW214964   0.277   3.221   6.437
 4689SOL     OW14965   0.240   6.143   4.883
 4689SOL    HW114966   0.148   6.141   4.922
 4689SOL    HW214967   0.289   6.224   4.917
 4690SOL     OW14968   1.619   1.602   6.957
 4690SOL    HW114969   1.629   1.578   6.861
 4690SOL    HW214970   1.524   1.626   6.976
 4691SOL     OW14971   2.658   5.284   0.889
 4691SOL    HW114972   2.584   5.351   0.893
 4691SOL    HW214973   2.632   5.201   0.939
 4692SOL     OW14974   0.052   5.214   3.403
 4692SOL    HW114975   0.074   5.301   3.449
 4692SOL    HW214976   6.979   5.213   3.379
 4693SOL     OW14977   0.631   1.097   4.301
 4693SOL    HW114978   0.650   1.037   4.223
 4693SOL    HW214979   0.562   1.055   4.360
 4694SOL     OW14980   1.815   1.532   0.135
 4694SOL    HW114981   1.762   1.582   0.066
 4694SOL    HW214982   1.913   1.541   0.115
 4695SOL     OW14983   3.823   2.928   2.360
 4695SOL    HW114984   3.883   2.976   2.297
 4695SOL    HW214985   3.876   2.863   2.414
 4696SOL     OW14986   6.848   3.433   6.375
 4696SOL    HW114987   6.935   3.474   6.345
 4696SOL    HW214988   6.773   3.492   6.347
 4697SOL     OW14989   0.979   4.814   0.130
 4697SOL    HW114990   0.973   4.751   0.053
 4697SOL    HW214991   0.892   4.862   0.140
 4698SOL     OW14992   5.250   3.915   0.842
 4698SOL    HW114993   5.277   3.819   0.835
 4698SOL    HW214994   5.247   3.956   0.750
 4699SOL     OW14995   0.062   0.641   2.363
 4699SOL    HW114996   0.133   0.629   2.294
 4699SOL    HW214997   0.103   0.630   2.454
 4700SOL     OW14998   4.720   1.447   1.141
 4700SOL    HW114999   4.705   1.540   1.108
 4700SOL    HW215000   4.759   1.392   1.067
 4701SOL     OW15001   0.714   1.198   0.576
 4701SOL    HW115002   0.721   1.258   0.496
 4701SOL    HW215003   0.771   1.233   0.649
 4702SOL     OW15004   3.513   3.605   0.538
 4702SOL    HW115005   3.610   3.583   0.533
 4702SOL    HW215006   3.501   3.687   0.594
 4703SOL     OW15007   1.543   0.785   2.661
 4703SOL    HW115008   1.491   0.871   2.657
 4703SOL    HW215009   1.525   0.740   2.749
 4704SOL     OW15010   6.592   6.548   0.810
 4704SOL    HW115011   6.588   6.455   0.775
 4704SOL    HW215012   6.550   6.551   0.901
 4705SOL     OW15013   3.552   3.619   3.892
 4705SOL    HW115014   3.632   3.677   3.910
 4705SOL    HW215015   3.513   3.588   3.978
 4706SOL     OW15016   4.307   6.374   6.726
 4706SOL    HW115017   4.402   6.356   6.699
 4706SOL    HW215018   4.252   6.292   6.712
 4707SOL     OW15019   1.926   5.396   1.215
 4707SOL    HW115020   1.903   5.299   1.227
 4707SOL    HW215021   1.874   5.451   1.280
 4708SOL     OW15022   2.534   2.565   1.542
 4708SOL    HW115023   2.613   2.509   1.514
 4708SOL    HW215024   2.513   2.548   1.638
 4709SOL     OW15025   4.002   5.112   5.380
 4709SOL    HW115026   4.035   5.123   5.474
 4709SOL    HW215027   4.079   5.086   5.321
 4710SOL     OW15028   4.357   1.431   6.941
 4710SOL    HW115029   4.417   1.510   6.928
 4710SOL    HW215030   4.411   1.351   6.967
 4711SOL     OW15031   3.679   0.090   2.495
 4711SOL    HW115032   3.730   0.166   2.454
 4711SOL    HW215033   3.614   0.126   2.563
 4712SOL     OW15034   2.246   4.237   0.756
 4712SOL    HW115035   2.224   4.304   0.827
 4712SOL    HW215036   2.162   4.212   0.707
 4713SOL     OW15037   1.728   5.559   0.842
 4713SOL    HW115038   1.734   5.659   0.846
 4713SOL    HW215039   1.809   5.522   0.797
 4714SOL     OW15040   3.142   2.393   1.168
 4714SOL    HW115041   3.125   2.357   1.076
 4714SOL    HW215042   3.140   2.493   1.166
 4715SOL     OW15043   6.965   2.692   3.258
 4715SOL    HW115044   0.015   2.628   3.282
 4715SOL    HW215045   6.877   2.646   3.267
 4716SOL     OW15046   3.398   5.828   0.369
 4716SOL    HW115047   3.365   5.908   0.319
 4716SOL    HW215048   3.494   5.812   0.346
 4717SOL     OW15049   1.339   5.772   3.347
 4717SOL    HW115050   1.394   5.699   3.389
 4717SOL    HW215051   1.379   5.797   3.259
 4718SOL     OW15052   5.727   1.009   6.157
 4718SOL    HW115053   5.738   1.091   6.214
 4718SOL    HW215054   5.673   1.033   6.076
 4719SOL     OW15055   4.488   3.634   1.701
 4719SOL    HW115056   4.399   3.677   1.718
 4719SOL    HW215057   4.550   3.702   1.661
 4720SOL     OW15058   2.147   0.375   5.709
 4720SOL    HW115059   2.070   0.434   5.685
 4720SOL    HW215060   2.121   0.317   5.787
 4721SOL     OW15061   2.002   1.960   1.415
 4721SOL    HW115062   1.939   2.033   1.441
 4721SOL    HW215063   2.057   1.989   1.337
 4722SOL     OW15064   2.034   7.001   0.702
 4722SOL    HW115065   2.110   6.954   0.656
 4722SOL    HW215066   2.031   0.073   0.672
 4723SOL     OW15067   3.042   6.692   7.002
 4723SOL    HW115068   3.013   6.603   6.967
 4723SOL    HW215069   2.977   6.763   6.974
 4724SOL     OW15070   4.066   6.566   1.878
 4724SOL    HW115071   4.160   6.563   1.912
 4724SOL    HW215072   4.018   6.482   1.904
 4725SOL     OW15073   5.262   6.618   3.748
 4725SOL    HW115074   5.198   6.667   3.806
 4725SOL    HW215075   5.244   6.640   3.652
 4726SOL     OW15076   0.769   4.172   6.738
 4726SOL    HW115077   0.765   4.205   6.832
 4726SOL    HW215078   0.819   4.085   6.734
 4727SOL     OW15079   6.739   5.887   0.203
 4727SOL    HW115080   6.756   5.985   0.210
 4727SOL    HW215081   6.756   5.844   0.291
 4728SOL     OW15082   0.409   1.126   6.516
 4728SOL    HW115083   0.443   1.032   6.507
 4728SOL    HW215084   0.310   1.125   6.531
 4729SOL     OW15085   3.527   0.334   1.828
 4729SOL    HW115086   3.428   0.328   1.816
 4729SOL    HW215087   3.550   0.315   1.923
 4730SOL     OW15088   2.215   6.437   5.419
 4730SOL    HW115089   2.183   6.495   5.345
 4730SOL    HW215090   2.289   6.379   5.386
 4731SOL     OW15091   6.022   1.571   5.155
 4731SOL    HW115092   5.973   1.574   5.068
 4731SOL    HW215093   5.999   1.652   5.209
 4732SOL     OW15094   0.258   3.227   0.192
 4732SOL    HW115095   0.325   3.154   0.207
 4732SOL    HW215096   0.211   3.247   0.278
 4733SOL     OW15097   6.920   3.939   3.049
 4733SOL    HW115098   7.015   3.909   3.041
 4733SOL    HW215099   6.876   3.935   2.960
 4734SOL     OW15100   3.960   4.102   6.486
 4734SOL    HW115101   3.928   4.188   6.445
 4734SOL    HW215102   3.937   4.103   6.584
 4735SOL     OW15103   1.367   4.679   3.653
 4735SOL    HW115104   1.285   4.695   3.708
 4735SOL    HW215105   1.430   4.755   3.665
 4736SOL     OW15106   0.904   0.827   0.287
 4736SOL    HW115107   0.912   0.819   0.188
 4736SOL    HW215108   0.809   0.814   0.315
 4737SOL     OW15109   2.360   5.341   1.579
 4737SOL    HW115110   2.261   5.356   1.585
 4737SOL    HW215111   2.391   5.362   1.487
 4738SOL     OW15112   0.415   6.735   2.521
 4738SOL    HW115113   0.405   6.794   2.440
 4738SOL    HW215114   0.342   6.756   2.586
 4739SOL     OW15115   4.596   0.787   1.677
 4739SOL    HW115116   4.676   0.808   1.621
 4739SOL    HW215117   4.611   0.701   1.727
 4740SOL     OW15118   1.237   1.676   2.725
 4740SOL    HW115119   1.271   1.582   2.735
 4740SOL    HW215120   1.182   1.700   2.805
 4741SOL     OW15121   4.237   3.647   1.433
 4741SOL    HW115122   4.310   3.643   1.365
 4741SOL    HW215123   4.271   3.693   1.515
 4742SOL     OW15124   2.972   6.997   0.650
 4742SOL    HW115125   2.920   6.915   0.627
 4742SOL    HW215126   2.999   6.993   0.746
 4743SOL     OW15127   2.155   4.920   1.548
 4743SOL    HW115128   2.061   4.950   1.533
 4743SOL    HW215129   2.200   4.983   1.612
 4744SOL     OW15130   2.164   6.380   0.688
 4744SOL    HW115131   2.245   6.400   0.743
 4744SOL    HW215132   2.112   6.306   0.731
 4745SOL     OW15133   1.635   4.053   0.255
 4745SOL    HW115134   1.563   4.120   0.272
 4745SOL    HW215135   1.604   3.963   0.286
 4746SOL     OW15136   4.740   5.887   4.814
 4746SOL    HW115137   4.691   5.862   4.731
 4746SOL    HW215138   4.674   5.921   4.882
 4747SOL     OW15139   1.712   2.163   1.277
 4747SOL    HW115140   1.623   2.172   1.322
 4747SOL    HW215141   1.782   2.142   1.346
 4748SOL     OW15142   1.758   6.956   3.553
 4748SOL    HW115143   1.685   6.918   3.496
 4748SOL    HW215144   1.729   6.956   3.649
 4749SOL     OW15145   2.142   0.475   0.283
 4749SOL    HW115146   2.212   0.537   0.249
 4749SOL    HW215147   2.184   0.402   0.337
 4750SOL     OW15148   5.360   3.316   5.332
 4750SOL    HW115149   5.394   3.390   5.390
 4750SOL    HW215150   5.323   3.243   5.389
 4751SOL     OW15151   4.542   0.426   3.401
 4751SOL    HW115152   4.611   0.496   3.422
 4751SOL    HW215153   4.584   0.354   3.346
 4752SOL     OW15154   4.491   1.900   0.018
 4752SOL    HW115155   4.471   1.888   6.944
 4752SOL    HW215156   4.589   1.918   0.030
 4753SOL     OW15157   3.177   6.109   5.254
 4753SOL    HW115158   3.120   6.032   5.283
 4753SOL    HW215159   3.123   6.193   5.258
 4754SOL     OW15160   4.854   5.000   6.060
 4754SOL    HW115161   4.844   4.902   6.043
 4754SOL    HW215162   4.922   5.038   5.997
 4755SOL     OW15163   1.488   1.065   1.379
 4755SOL    HW115164   1.533   0.980   1.408
 4755SOL    HW215165   1.556   1.137   1.369
 4756SOL     OW15166   5.906   3.938   6.560
 4756SOL    HW115167   5.917   4.035   6.577
 4756SOL    HW215168   5.818   3.907   6.596
 4757SOL     OW15169   1.980   3.805   1.571
 4757SOL    HW115170   2.050   3.826   1.639
 4757SOL    HW215171   1.941   3.890   1.536
 4758SOL     OW15172   2.497   6.852   3.353
 4758SOL    HW115173   2.536   6.773   3.400
 4758SOL    HW215174   2.463   6.823   3.263
 4759SOL     OW15175   1.186   4.633   0.962
 4759SOL    HW115176   1.144   4.619   1.052
 4759SOL    HW215177   1.122   4.682   0.903
 4760SOL     OW15178   1.953   6.218   0.764
 4760SOL    HW115179   1.973   6.145   0.697
 4760SOL    HW215180   1.858   6.246   0.754
 4761SOL     OW15181   6.682   6.370   1.282
 4761SOL    HW115182   6.586   6.346   1.291
 4761SOL    HW215183   6.695   6.465   1.310
 4762SOL     OW15184   2.133   6.521   2.267
 4762SOL    HW115185   2.084   6.489   2.186
 4762SOL    HW215186   2.229   6.495   2.260
 4763SOL     OW15187   5.103   5.043   1.786
 4763SOL    HW115188   5.152   4.969   1.739
 4763SOL    HW215189   5.162   5.081   1.857
 4764SOL     OW15190   3.839   4.049   6.226
 4764SOL    HW115191   3.894   4.005   6.154
 4764SOL    HW215192   3.879   4.031   6.315
 4765SOL     OW15193   3.125   1.748   4.753
 4765SOL    HW115194   3.171   1.691   4.820
 4765SOL    HW215195   3.031   1.717   4.741
 4766SOL     OW15196   0.446   6.908   4.131
 4766SOL    HW115197   0.522   6.966   4.158
 4766SOL    HW215198   0.479   6.816   4.113
 4767SOL     OW15199   1.614   4.208   4.990
 4767SOL    HW115200   1.681   4.209   5.064
 4767SOL    HW215201   1.662   4.213   4.902
 4768SOL     OW15202   4.116   2.343   6.937
 4768SOL    HW115203   4.117   2.357   0.012
 4768SOL    HW215204   4.197   2.386   6.897
 4769SOL     OW15205   3.266   5.480   1.475
 4769SOL    HW115206   3.279   5.452   1.571
 4769SOL    HW215207   3.176   5.521   1.465
 4770SOL     OW15208   0.430   1.275   5.830
 4770SOL    HW115209   0.358   1.299   5.895
 4770SOL    HW215210   0.486   1.356   5.813
 4771SOL     OW15211   2.225   6.909   5.156
 4771SOL    HW115212   2.221   6.982   5.225
 4771SOL    HW215213   2.156   6.925   5.086
 4772SOL     OW15214   2.784   6.090   2.214
 4772SOL    HW115215   2.796   6.088   2.313
 4772SOL    HW215216   2.835   6.015   2.173
 4773SOL     OW15217   2.024   4.926   5.061
 4773SOL    HW115218   2.101   4.943   5.123
 4773SOL    HW215219   2.040   4.842   5.010
 4774SOL     OW15220   1.628   3.724   0.015
 4774SOL    HW115221   1.554   3.728   6.972
 4774SOL    HW215222   1.590   3.729   0.108
 4775SOL     OW15223   5.930   6.713   4.680
 4775SOL    HW115224   5.870   6.767   4.739
 4775SOL    HW215225   5.928   6.617   4.707
 4776SOL     OW15226   0.828   0.966   6.001
 4776SOL    HW115227   0.779   0.998   6.082
 4776SOL    HW215228   0.784   1.004   5.919
 4777SOL     OW15229   1.145   6.442   1.767
 4777SOL    HW115230   1.223   6.404   1.816
 4777SOL    HW215231   1.078   6.477   1.832
 4778SOL     OW15232   1.641   2.453   5.487
 4778SOL    HW115233   1.624   2.366   5.443
 4778SOL    HW215234   1.665   2.522   5.418
 4779SOL     OW15235   4.957   1.347   3.346
 4779SOL    HW115236   4.951   1.255   3.385
 4779SOL    HW215237   4.969   1.413   3.420
 4780SOL     OW15238   6.151   3.142   4.899
 4780SOL    HW115239   6.082   3.142   4.971
 4780SOL    HW215240   6.159   3.234   4.860
 4781SOL     OW15241   2.420   6.204   2.959
 4781SOL    HW115242   2.424   6.110   2.923
 4781SOL    HW215243   2.495   6.258   2.920
 4782SOL     OW15244   6.729   5.948   4.277
 4782SOL    HW115245   6.745   6.018   4.346
 4782SOL    HW215246   6.650   5.973   4.221
 4783SOL     OW15247   6.423   3.234   1.059
 4783SOL    HW115248   6.386   3.151   1.018
 4783SOL    HW215249   6.363   3.312   1.036
 4784SOL     OW15250   5.154   2.561   6.577
 4784SOL    HW115251   5.243   2.515   6.578
 4784SOL    HW215252   5.145   2.617   6.659
 4785SOL     OW15253   0.811   5.432   4.083
 4785SOL    HW115254   0.775   5.414   3.991
 4785SOL    HW215255   0.895   5.486   4.076
 4786SOL     OW15256   1.910   6.373   6.945
 4786SOL    HW115257   1.901   6.333   6.854
 4786SOL    HW215258   1.850   6.325   7.009
 4787SOL     OW15259   3.606   1.096   4.357
 4787SOL    HW115260   3.545   1.150   4.300
 4787SOL    HW215261   3.684   1.066   4.302
 4788SOL     OW15262   5.625   6.274   6.893
 4788SOL    HW115263   5.638   6.183   6.933
 4788SOL    HW215264   5.561   6.267   6.816
 4789SOL     OW15265   5.203   0.903   2.666
 4789SOL    HW115266   5.200   0.992   2.621
 4789SOL    HW215267   5.113   0.883   2.707
 4790SOL     OW15268   6.574   2.363   4.948
 4790SOL    HW115269   6.558   2.278   4.998
 4790SOL    HW215270   6.508   2.371   4.873
 4791SOL     OW15271   6.981   1.823   0.014
 4791SOL    HW115272   0.020   1.898   7.016
 4791SOL    HW215273   7.022   1.736   7.012
 4792SOL     OW15274   1.970   2.784   3.314
 4792SOL    HW115275   1.877   2.813   3.289
 4792SOL    HW215276   2.002   2.838   3.391
 4793SOL     OW15277   0.527   4.167   5.849
 4793SOL    HW115278   0.529   4.177   5.750
 4793SOL    HW215279   0.433   4.153   5.879
 4794SOL     OW15280   4.368   0.762   4.354
 4794SOL    HW115281   4.391   0.852   4.316
 4794SOL    HW215282   4.288   0.726   4.307
 4795SOL     OW15283   0.667   0.557   5.383
 4795SOL    HW115284   0.722   0.556   5.467
 4795SOL    HW215285   0.653   0.652   5.355
 4796SOL     OW15286   3.768   1.469   4.939
 4796SOL    HW115287   3.808   1.390   4.892
 4796SOL    HW215288   3.711   1.521   4.875
 4797SOL     OW15289   0.849   5.888   4.527
 4797SOL    HW115290   0.760   5.844   4.518
 4797SOL    HW215291   0.881   5.879   4.621
 4798SOL     OW15292   4.169   4.797   6.259
 4798SOL    HW115293   4.095   4.730   6.266
 4798SOL    HW215294   4.245   4.767   6.316
 4799SOL     OW15295   3.544   3.062   6.266
 4799SOL    HW115296   3.511   3.095   6.355
 4799SOL    HW215297   3.491   2.982   6.239
 4800SOL     OW15298   0.844   4.990   0.436
 4800SOL    HW115299   0.900   4.925   0.486
 4800SOL    HW215300   0.795   5.048   0.501
 4801SOL     OW15301   4.982   2.648   1.843
 4801SOL    HW115302   4.980   2.596   1.758
 4801SOL    HW215303   4.956   2.589   1.920
 4802SOL     OW15304   6.855   6.840   3.368
 4802SOL    HW115305   6.782   6.904   3.344
 4802SOL    HW215306   6.852   6.821   3.466
 4803SOL     OW15307   5.170   3.591   6.204
 4803SOL    HW115308   5.125   3.637   6.280
 4803SOL    HW215309   5.104   3.534   6.155
 4804SOL     OW15310   5.095   1.777   0.836
 4804SOL    HW115311   5.072   1.684   0.808
 4804SOL    HW215312   5.195   1.788   0.832
 4805SOL     OW15313   6.143   1.967   1.089
 4805SOL    HW115314   6.224   1.941   1.037
 4805SOL    HW215315   6.167   2.037   1.156
 4806SOL     OW15316   0.910   0.691   2.584
 4806SOL    HW115317   0.898   0.648   2.494
 4806SOL    HW215318   0.996   0.742   2.585
 4807SOL     OW15319   0.922   3.224   6.166
 4807SOL    HW115320   0.837   3.180   6.139
 4807SOL    HW215321   0.987   3.155   6.199
 4808SOL     OW15322   3.964   5.932   0.369
 4808SOL    HW115323   4.026   5.973   0.302
 4808SOL    HW215324   4.011   5.860   0.419
 4809SOL     OW15325   3.670   4.986   1.638
 4809SOL    HW115326   3.578   4.992   1.600
 4809SOL    HW215327   3.736   5.023   1.573
 4810SOL     OW15328   0.346   4.164   3.438
 4810SOL    HW115329   0.288   4.103   3.383
 4810SOL    HW215330   0.435   4.174   3.394
 4811SOL     OW15331   3.252   4.073   4.394
 4811SOL    HW115332   3.203   4.100   4.312
 4811SOL    HW215333   3.347   4.052   4.371
 4812SOL     OW15334   0.231   0.165   2.494
 4812SOL    HW115335   0.329   0.159   2.476
 4812SOL    HW215336   0.212   0.136   2.588
 4813SOL     OW15337   6.206   1.540   5.943
 4813SOL    HW115338   6.204   1.515   5.846
 4813SOL    HW215339   6.282   1.493   5.988
 4814SOL     OW15340   6.728   4.312   1.746
 4814SOL    HW115341   6.765   4.226   1.781
 4814SOL    HW215342   6.720   4.307   1.646
 4815SOL     OW15343   4.835   5.296   2.869
 4815SOL    HW115344   4.768   5.352   2.917
 4815SOL    HW215345   4.927   5.317   2.902
 4816SOL     OW15346   1.510   0.712   1.978
 4816SOL    HW115347   1.541   0.781   1.912
 4816SOL    HW215348   1.478   0.757   2.061
 4817SOL     OW15349   4.196   1.550   1.166
 4817SOL    HW115350   4.102   1.580   1.150
 4817SOL    HW215351   4.251   1.567   1.084
 4818SOL     OW15352   3.492   0.015   4.807
 4818SOL    HW115353   3.411   0.073   4.799
 4818SOL    HW215354   3.479   6.974   4.882
 4819SOL     OW15355   2.701   7.008   0.805
 4819SOL    HW115356   2.687   6.991   0.708
 4819SOL    HW215357   2.746   6.929   0.847
 4820SOL     OW15358   6.529   4.005   2.078
 4820SOL    HW115359   6.487   4.002   2.169
 4820SOL    HW215360   6.468   3.960   2.012
 4821SOL     OW15361   6.473   4.428   1.686
 4821SOL    HW115362   6.526   4.465   1.610
 4821SOL    HW215363   6.520   4.348   1.723
 4822SOL     OW15364   2.161   3.903   3.080
 4822SOL    HW115365   2.172   3.806   3.060
 4822SOL    HW215366   2.114   3.948   3.003
 4823SOL     OW15367   0.933   0.886   4.260
 4823SOL    HW115368   0.857   0.822   4.253
 4823SOL    HW215369   0.941   0.938   4.175
 4824SOL     OW15370   5.468   2.723   2.643
 4824SOL    HW115371   5.439   2.808   2.686
 4824SOL    HW215372   5.458   2.730   2.544
 4825SOL     OW15373   0.797   3.567   2.668
 4825SOL    HW115374   0.823   3.517   2.585
 4825SOL    HW215375   0.835   3.521   2.748
 4826SOL     OW15376   0.068   6.048   0.663
 4826SOL    HW115377   0.154   6.097   0.675
 4826SOL    HW215378   7.021   6.088   0.721
 4827SOL     OW15379   4.652   0.923   1.207
 4827SOL    HW115380   4.715   0.984   1.256
 4827SOL    HW215381   4.705   0.852   1.160
 4828SOL     OW15382   4.978   3.968   0.929
 4828SOL    HW115383   5.053   3.921   0.881
 4828SOL    HW215384   4.952   4.049   0.877
 4829SOL     OW15385   3.115   1.071   5.923
 4829SOL    HW115386   3.208   1.038   5.904
 4829SOL    HW215387   3.050   0.997   5.908
 4830SOL     OW15388   4.478   0.077   4.905
 4830SOL    HW115389   4.463   0.051   4.810
 4830SOL    HW215390   4.487   7.018   4.961
 4831SOL     OW15391   5.875   4.040   5.476
 4831SOL    HW115392   5.892   4.118   5.417
 4831SOL    HW215393   5.954   4.027   5.537
 4832SOL     OW15394   2.489   3.422   5.958
 4832SOL    HW115395   2.563   3.355   5.949
 4832SOL    HW215396   2.401   3.376   5.950
 4833SOL     OW15397   4.082   1.324   2.630
 4833SOL    HW115398   4.163   1.382   2.642
 4833SOL    HW215399   4.011   1.352   2.694
 4834SOL     OW15400   4.866   1.672   2.178
 4834SOL    HW115401   4.891   1.700   2.085
 4834SOL    HW215402   4.908   1.584   2.199
 4835SOL     OW15403   1.918   0.140   6.774
 4835SOL    HW115404   1.900   0.083   6.693
 4835SOL    HW215405   1.964   0.224   6.745
 4836SOL     OW15406   5.339   1.916   4.223
 4836SOL    HW115407   5.376   1.889   4.134
 4836SOL    HW215408   5.400   1.983   4.265
 4837SOL     OW15409   2.324   3.044   6.995
 4837SOL    HW115410   2.230   3.079   6.997
 4837SOL    HW215411   2.332   2.967   0.035
 4838SOL     OW15412   3.703   5.379   2.221
 4838SOL    HW115413   3.739   5.329   2.299
 4838SOL    HW215414   3.618   5.335   2.189
 4839SOL     OW15415   0.366   5.387   6.024
 4839SOL    HW115416   0.442   5.365   6.086
 4839SOL    HW215417   0.285   5.411   6.078
 4840SOL     OW15418   6.885   6.229   6.980
 4840SOL    HW115419   6.815   6.284   0.000
 4840SOL    HW215420   6.844   6.176   6.905
 4841SOL     OW15421   2.958   5.163   2.540
 4841SOL    HW115422   2.971   5.190   2.445
 4841SOL    HW215423   2.871   5.114   2.549
 4842SOL     OW15424   5.273   6.257   1.223
 4842SOL    HW115425   5.350   6.199   1.249
 4842SOL    HW215426   5.189   6.221   1.265
 4843SOL     OW15427   6.616   3.593   0.270
 4843SOL    HW115428   6.556   3.599   0.350
 4843SOL    HW215429   6.683   3.667   0.273
 4844SOL     OW15430   5.897   1.987   6.442
 4844SOL    HW115431   5.970   2.053   6.462
 4844SOL    HW215432   5.817   2.035   6.407
 4845SOL     OW15433   5.728   5.700   3.641
 4845SOL    HW115434   5.817   5.744   3.626
 4845SOL    HW215435   5.739   5.621   3.702
 4846SOL     OW15436   1.508   3.129   0.799
 4846SOL    HW115437   1.426   3.071   0.794
 4846SOL    HW215438   1.589   3.074   0.780
 4847SOL     OW15439   3.640   1.875   5.089
 4847SOL    HW115440   3.679   1.792   5.129
 4847SOL    HW215441   3.681   1.891   4.999
 4848SOL     OW15442   2.529   2.107   2.311
 4848SOL    HW115443   2.519   2.182   2.246
 4848SOL    HW215444   2.618   2.114   2.356
 4849SOL     OW15445   0.713   0.027   0.535
 4849SOL    HW115446   0.750   0.113   0.571
 4849SOL    HW215447   0.754   6.974   0.583
 4850SOL     OW15448   4.295   0.666   1.949
 4850SOL    HW115449   4.367   0.607   1.987
 4850SOL    HW215450   4.337   0.744   1.903
 4851SOL     OW15451   4.599   6.226   4.854
 4851SOL    HW115452   4.598   6.320   4.886
 4851SOL    HW215453   4.545   6.169   4.917
 4852SOL     OW15454   2.075   0.806   6.822
 4852SOL    HW115455   2.049   0.834   6.729
 4852SOL    HW215456   2.025   0.862   6.888
 4853SOL     OW15457   3.353   1.434   2.237
 4853SOL    HW115458   3.354   1.352   2.294
 4853SOL    HW215459   3.444   1.447   2.195
 4854SOL     OW15460   5.270   6.780   2.430
 4854SOL    HW115461   5.362   6.779   2.391
 4854SOL    HW215462   5.206   6.742   2.363
 4855SOL     OW15463   6.405   1.792   2.477
 4855SOL    HW115464   6.357   1.845   2.547
 4855SOL    HW215465   6.338   1.756   2.411
 4856SOL     OW15466   2.805   4.927   3.490
 4856SOL    HW115467   2.809   4.936   3.590
 4856SOL    HW215468   2.871   4.989   3.449
 4857SOL     OW15469   0.159   2.392   5.846
 4857SOL    HW115470   0.077   2.439   5.814
 4857SOL    HW215471   0.232   2.403   5.779
 4858SOL     OW15472   1.752   2.254   4.332
 4858SOL    HW115473   1.831   2.236   4.273
 4858SOL    HW215474   1.723   2.170   4.376
 4859SOL     OW15475   2.124   6.141   4.862
 4859SOL    HW115476   2.163   6.051   4.880
 4859SOL    HW215477   2.162   6.178   4.777
 4860SOL     OW15478   4.791   4.724   1.316
 4860SOL    HW115479   4.825   4.777   1.394
 4860SOL    HW215480   4.863   4.663   1.283
 4861SOL     OW15481   4.728   4.210   5.192
 4861SOL    HW115482   4.772   4.248   5.110
 4861SOL    HW215483   4.796   4.195   5.263
 4862SOL     OW15484   2.168   6.138   2.117
 4862SOL    HW115485   2.231   6.097   2.051
 4862SOL    HW215486   2.192   6.234   2.131
 4863SOL     OW15487   5.698   4.064   0.276
 4863SOL    HW115488   5.619   4.045   0.218
 4863SOL    HW215489   5.719   4.162   0.273
 4864SOL     OW15490   3.124   1.193   3.404
 4864SOL    HW115491   3.143   1.278   3.354
 4864SOL    HW215492   3.034   1.200   3.448
 4865SOL     OW15493   2.795   5.749   4.668
 4865SOL    HW115494   2.816   5.711   4.577
 4865SOL    HW215495   2.849   5.701   4.737
 4866SOL     OW15496   6.655   4.157   1.118
 4866SOL    HW115497   6.657   4.253   1.145
 4866SOL    HW215498   6.600   4.105   1.183
 4867SOL     OW15499   4.524   6.663   2.896
 4867SOL    HW115500   4.447   6.617   2.940
 4867SOL    HW215501   4.604   6.603   2.899
 4868SOL     OW15502   6.511   4.618   1.879
 4868SOL    HW115503   6.601   4.587   1.911
 4868SOL    HW215504   6.480   4.559   1.805
 4869SOL     OW15505   0.803   1.434   6.158
 4869SOL    HW115506   0.747   1.509   6.193
 4869SOL    HW215507   0.763   1.399   6.073
 4870SOL     OW15508   0.899   5.741   1.900
 4870SOL    HW115509   0.958   5.800   1.956
 4870SOL    HW215510   0.803   5.761   1.920
 4871SOL     OW15511   1.464   0.915   4.089
 4871SOL    HW115512   1.403   0.950   4.160
 4871SOL    HW215513   1.415   0.848   4.033
 4872SOL     OW15514   6.193   0.051   3.173
 4872SOL    HW115515   6.149   0.001   3.248
 4872SOL    HW215516   6.174   0.148   3.182
 4873SOL     OW15517   6.748   6.580   5.440
 4873SOL    HW115518   6.695   6.623   5.367
 4873SOL    HW215519   6.760   6.483   5.419
 4874SOL     OW15520   4.707   2.875   3.325
 4874SOL    HW115521   4.801   2.908   3.336
 4874SOL    HW215522   4.696   2.835   3.234
 4875SOL     OW15523   5.456   6.331   6.579
 4875SOL    HW115524   5.543   6.313   6.533
 4875SOL    HW215525   5.413   6.245   6.603
 4876SOL     OW15526   1.706   1.614   2.793
 4876SOL    HW115527   1.703   1.708   2.758
 4876SOL    HW215528   1.777   1.563   2.744
 4877SOL     OW15529   1.167   1.244   4.292
 4877SOL    HW115530   1.094   1.188   4.254
 4877SOL    HW215531   1.179   1.327   4.236
 4878SOL     OW15532   6.650   1.569   2.902
 4878SOL    HW115533   6.602   1.548   2.816
 4878SOL    HW215534   6.685   1.662   2.898
 4879SOL     OW15535   4.764   1.838   3.130
 4879SOL    HW115536   4.727   1.790   3.051
 4879SOL    HW215537   4.707   1.819   3.210
 4880SOL     OW15538   6.075   2.995   6.598
 4880SOL    HW115539   6.016   3.036   6.667
 4880SOL    HW215540   6.171   3.011   6.622
 4881SOL     OW15541   1.619   3.067   1.784
 4881SOL    HW115542   1.567   3.056   1.869
 4881SOL    HW215543   1.667   3.155   1.785
 4882SOL     OW15544   4.497   2.541   4.937
 4882SOL    HW115545   4.529   2.483   4.862
 4882SOL    HW215546   4.402   2.518   4.958
 4883SOL     OW15547   5.531   3.594   0.808
 4883SOL    HW115548   5.432   3.587   0.795
 4883SOL    HW215549   5.551   3.649   0.889
 4884SOL     OW15550   2.197   6.061   1.566
 4884SOL    HW115551   2.148   6.003   1.632
 4884SOL    HW215552   2.134   6.130   1.530
 4885SOL     OW15553   1.583   4.954   0.944
 4885SOL    HW115554   1.564   4.925   1.038
 4885SOL    HW215555   1.531   5.037   0.923
 4886SOL     OW15556   3.354   1.138   1.997
 4886SOL    HW115557   3.374   1.135   1.899
 4886SOL    HW215558   3.280   1.204   2.013
 4887SOL     OW15559   0.900   6.541   1.879
 4887SOL    HW115560   0.802   6.547   1.859
 4887SOL    HW215561   0.920   6.585   1.966
 4888SOL     OW15562   3.260   6.712   2.742
 4888SOL    HW115563   3.187   6.688   2.678
 4888SOL    HW215564   3.348   6.709   2.695
 4889SOL     OW15565   6.482   2.143   3.861
 4889SOL    HW115566   6.498   2.056   3.816
 4889SOL    HW215567   6.458   2.128   3.957
 4890SOL     OW15568   0.592   0.683   4.745
 4890SOL    HW115569   0.527   0.736   4.800
 4890SOL    HW215570   0.654   0.634   4.806
 4891SOL     OW15571   2.280   5.173   5.861
 4891SOL    HW115572   2.289   5.076   5.836
 4891SOL    HW215573   2.233   5.180   5.949
 4892SOL     OW15574   5.732   6.628   2.902
 4892SOL    HW115575   5.779   6.709   2.866
 4892SOL    HW215576   5.705   6.569   2.826
 4893SOL     OW15577   0.292   3.580   1.751
 4893SOL    HW115578   0.232   3.656   1.776
 4893SOL    HW215579   0.384   3.598   1.785
 4894SOL     OW15580   4.084   6.697   2.243
 4894SOL    HW115581   4.140   6.659   2.169
 4894SOL    HW215582   4.144   6.733   2.315
 4895SOL     OW15583   6.716   4.845   3.201
 4895SOL    HW115584   6.721   4.870   3.297
 4895SOL    HW215585   6.781   4.771   3.182
 4896SOL     OW15586   1.434   4.942   3.722
 4896SOL    HW115587   1.439   5.008   3.796
 4896SOL    HW215588   1.473   4.981   3.639
 4897SOL     OW15589   1.510   6.146   5.044
 4897SOL    HW115590   1.567   6.187   4.972
 4897SOL    HW215591   1.566   6.129   5.125
 4898SOL     OW15592   3.726   2.105   4.313
 4898SOL    HW115593   3.661   2.151   4.252
 4898SOL    HW215594   3.677   2.065   4.390
 4899SOL     OW15595   0.360   5.285   1.794
 4899SOL    HW115596   0.362   5.278   1.894
 4899SOL    HW215597   0.450   5.315   1.761
 4900SOL     OW15598   4.032   5.981   5.694
 4900SOL    HW115599   4.104   5.921   5.729
 4900SOL    HW215600   4.002   5.949   5.604
 4901SOL     OW15601   0.643   1.474   5.927
 4901SOL    HW115602   0.585   1.516   5.996
 4901SOL    HW215603   0.629   1.519   5.839
 4902SOL     OW15604   2.237   0.746   6.291
 4902SOL    HW115605   2.322   0.770   6.338
 4902SOL    HW215606   2.210   0.652   6.315
 4903SOL     OW15607   5.591   4.957   1.607
 4903SOL    HW115608   5.653   4.905   1.548
 4903SOL    HW215609   5.609   5.055   1.596
 4904SOL     OW15610   1.439   0.690   0.097
 4904SOL    HW115611   1.354   0.717   0.142
 4904SOL    HW215612   1.494   0.634   0.159
 4905SOL     OW15613   3.262   6.517   2.929
 4905SOL    HW115614   3.261   6.591   2.862
 4905SOL    HW215615   3.357   6.496   2.953
 4906SOL     OW15616   5.655   2.937   4.896
 4906SOL    HW115617   5.664   2.837   4.892
 4906SOL    HW215618   5.574   2.965   4.844
 4907SOL     OW15619   4.583   1.616   6.781
 4907SOL    HW115620   4.620   1.603   6.873
 4907SOL    HW215621   4.542   1.707   6.774
 4908SOL     OW15622   5.013   0.326   0.052
 4908SOL    HW115623   5.015   0.356   6.980
 4908SOL    HW215624   4.940   0.373   0.100
 4909SOL     OW15625   5.688   4.212   3.546
 4909SOL    HW115626   5.707   4.194   3.643
 4909SOL    HW215627   5.753   4.161   3.490
 4910SOL     OW15628   4.784   1.101   6.188
 4910SOL    HW115629   4.707   1.123   6.128
 4910SOL    HW215630   4.792   1.171   6.259
 4911SOL     OW15631   1.259   2.182   2.100
 4911SOL    HW115632   1.329   2.124   2.059
 4911SOL    HW215633   1.278   2.278   2.077
 4912SOL     OW15634   6.403   2.497   5.147
 4912SOL    HW115635   6.479   2.460   5.093
 4912SOL    HW215636   6.411   2.466   5.241
 4913SOL     OW15637   6.511   2.764   4.801
 4913SOL    HW115638   6.554   2.738   4.715
 4913SOL    HW215639   6.453   2.844   4.786
 4914SOL     OW15640   4.399   1.047   4.274
 4914SOL    HW115641   4.429   1.055   4.179
 4914SOL    HW215642   4.477   1.017   4.330
 4915SOL     OW15643   3.463   5.550   5.385
 4915SOL    HW115644   3.539   5.566   5.447
 4915SOL    HW215645   3.493   5.492   5.309
 4916SOL     OW15646   6.390   1.376   3.930
 4916SOL    HW115647   6.382   1.471   3.902
 4916SOL    HW215648   6.306   1.327   3.908
 4917SOL     OW15649   4.541   6.346   0.621
 4917SOL    HW115650   4.523   6.417   0.689
 4917SOL    HW215651   4.460   6.288   0.612
 4918SOL     OW15652   6.629   5.463   1.774
 4918SOL    HW115653   6.546   5.477   1.827
 4918SOL    HW215654   6.654   5.549   1.729
 4919SOL     OW15655   4.006   3.481   2.062
 4919SOL    HW115656   4.055   3.552   2.011
 4919SOL    HW215657   3.908   3.497   2.056
 4920SOL     OW15658   6.062   1.275   4.804
 4920SOL    HW115659   6.033   1.368   4.826
 4920SOL    HW215660   5.982   1.215   4.801
 4921SOL     OW15661   0.286   0.139   2.030
 4921SOL    HW115662   0.240   0.064   1.981
 4921SOL    HW215663   0.303   0.111   2.124
 4922SOL     OW15664   3.936   2.007   5.597
 4922SOL    HW115665   4.002   1.934   5.581
 4922SOL    HW215666   3.970   2.092   5.557
 4923SOL     OW15667   3.853   1.792   2.853
 4923SOL    HW115668   3.903   1.820   2.772
 4923SOL    HW215669   3.762   1.760   2.827
 4924SOL     OW15670   2.742   1.602   5.819
 4924SOL    HW115671   2.835   1.610   5.785
 4924SOL    HW215672   2.690   1.541   5.759
 4925SOL     OW15673   4.380   6.876   3.332
 4925SOL    HW115674   4.303   6.939   3.323
 4925SOL    HW215675   4.458   6.925   3.371
 4926SOL     OW15676   5.566   2.175   1.747
 4926SOL    HW115677   5.665   2.190   1.737
 4926SOL    HW215678   5.549   2.123   1.831
 4927SOL     OW15679   3.391   1.507   6.620
 4927SOL    HW115680   3.338   1.495   6.704
 4927SOL    HW215681   3.488   1.516   6.642
 4928SOL     OW15682   0.753   2.464   0.860
 4928SOL    HW115683   0.814   2.385   0.866
 4928SOL    HW215684   0.806   2.548   0.874
 4929SOL     OW15685   6.525   6.625   4.080
 4929SOL    HW115686   6.526   6.613   4.179
 4929SOL    HW215687   6.430   6.637   4.049
 4930SOL     OW15688   5.674   6.862   1.738
 4930SOL    HW115689   5.583   6.820   1.741
 4930SOL    HW215690   5.740   6.794   1.705
 4931SOL     OW15691   6.406   6.337   1.799
 4931SOL    HW115692   6.376   6.398   1.726
 4931SOL    HW215693   6.327   6.309   1.854
 4932SOL     OW15694   2.897   3.515   2.373
 4932SOL    HW115695   2.918   3.611   2.356
 4932SOL    HW215696   2.871   3.504   2.469
 4933SOL     OW15697   3.225   6.055   4.887
 4933SOL    HW115698   3.295   6.042   4.957
 4933SOL    HW215699   3.140   6.087   4.930
 4934SOL     OW15700   3.617   5.267   3.406
 4934SOL    HW115701   3.716   5.274   3.419
 4934SOL    HW215702   3.571   5.341   3.456
 4935SOL     OW15703   0.726   2.020   6.413
 4935SOL    HW115704   0.747   2.109   6.373
 4935SOL    HW215705   0.810   1.978   6.448
 4936SOL     OW15706   2.836   3.810   1.104
 4936SOL    HW115707   2.763   3.878   1.117
 4936SOL    HW215708   2.923   3.856   1.090
 4937SOL     OW15709   5.174   3.429   5.015
 4937SOL    HW115710   5.244   3.498   5.034
 4937SOL    HW215711   5.098   3.471   4.966
 4938SOL     OW15712   3.718   5.735   6.120
 4938SOL    HW115713   3.619   5.749   6.112
 4938SOL    HW215714   3.750   5.676   6.046
 4939SOL     OW15715   4.625   3.093   5.661
 4939SOL    HW115716   4.636   3.182   5.705
 4939SOL    HW215717   4.691   3.028   5.701
 4940SOL     OW15718   2.416   6.022   4.698
 4940SOL    HW115719   2.397   6.115   4.667
 4940SOL    HW215720   2.387   5.957   4.629
 4941SOL     OW15721   4.929   1.107   0.314
 4941SOL    HW115722   4.916   1.200   0.280
 4941SOL    HW215723   4.851   1.050   0.286
 4942SOL     OW15724   4.964   3.444   5.195
 4942SOL    HW115725   5.040   3.425   5.134
 4942SOL    HW215726   4.895   3.497   5.145
 4943SOL     OW15727   3.944   2.576   1.043
 4943SOL    HW115728   4.031   2.555   1.086
 4943SOL    HW215729   3.939   2.531   0.954
 4944SOL     OW15730   2.216   4.725   2.233
 4944SOL    HW115731   2.195   4.662   2.308
 4944SOL    HW215732   2.207   4.677   2.145
 4945SOL     OW15733   0.155   6.384   3.966
 4945SOL    HW115734   0.119   6.446   3.896
 4945SOL    HW215735   0.080   6.354   4.026
 4946SOL     OW15736   1.479   3.547   2.574
 4946SOL    HW115737   1.497   3.586   2.483
 4946SOL    HW215738   1.562   3.553   2.629
 4947SOL     OW15739   0.740   6.637   0.911
 4947SOL    HW115740   0.794   6.674   0.986
 4947SOL    HW215741   0.759   6.540   0.900
 4948SOL     OW15742   2.443   1.064   2.011
 4948SOL    HW115743   2.535   1.089   2.043
 4948SOL    HW215744   2.412   0.982   2.059
 4949SOL     OW15745   5.554   1.538   5.022
 4949SOL    HW115746   5.597   1.460   5.067
 4949SOL    HW215747   5.456   1.537   5.040
 4950SOL     OW15748   2.917   5.563   4.810
 4950SOL    HW115749   2.939   5.468   4.786
 4950SOL    HW215750   2.892   5.568   4.907
 4951SOL     OW15751   4.280   2.162   4.590
 4951SOL    HW115752   4.371   2.140   4.625
 4951SOL    HW215753   4.261   2.105   4.510
 4952SOL     OW15754   0.318   6.530   5.733
 4952SOL    HW115755   0.247   6.599   5.751
 4952SOL    HW215756   0.375   6.520   5.814
 4953SOL     OW15757   2.181   5.290   2.080
 4953SOL    HW115758   2.213   5.353   2.009
 4953SOL    HW215759   2.209   5.197   2.057
 4954SOL     OW15760   5.633   5.662   6.694
 4954SOL    HW115761   5.697   5.592   6.725
 4954SOL    HW215762   5.582   5.697   6.773
 4955SOL     OW15763   1.538   0.004   1.299
 4955SOL    HW115764   1.573   0.016   1.392
 4955SOL    HW215765   1.438   0.009   1.300
 4956SOL     OW15766   4.356   6.699   5.049
 4956SOL    HW115767   4.395   6.789   5.069
 4956SOL    HW215768   4.256   6.703   5.059
 4957SOL     OW15769   0.661   0.294   3.690
 4957SOL    HW115770   0.627   0.363   3.754
 4957SOL    HW215771   0.745   0.326   3.647
 4958SOL     OW15772   0.781   5.595   6.930
 4958SOL    HW115773   0.812   5.555   6.844
 4958SOL    HW215774   0.816   5.688   6.939
 4959SOL     OW15775   0.976   1.417   1.415
 4959SOL    HW115776   0.985   1.344   1.483
 4959SOL    HW215777   0.905   1.393   1.349
 4960SOL     OW15778   4.098   6.523   4.821
 4960SOL    HW115779   4.160   6.494   4.749
 4960SOL    HW215780   4.057   6.611   4.797
 4961SOL     OW15781   5.103   0.784   4.298
 4961SOL    HW115782   5.007   0.809   4.295
 4961SOL    HW215783   5.120   0.727   4.379
 4962SOL     OW15784   6.974   2.277   0.623
 4962SOL    HW115785   7.018   2.257   0.536
 4962SOL    HW215786   6.961   2.193   0.675
 4963SOL     OW15787   0.606   5.030   1.515
 4963SOL    HW115788   0.518   5.071   1.537
 4963SOL    HW215789   0.608   5.004   1.419
 4964SOL     OW15790   3.244   6.475   3.256
 4964SOL    HW115791   3.293   6.446   3.173
 4964SOL    HW215792   3.148   6.446   3.250
 4965SOL     OW15793   6.049   0.423   4.686
 4965SOL    HW115794   6.110   0.360   4.732
 4965SOL    HW215795   5.958   0.417   4.726
 4966SOL     OW15796   2.790   5.102   4.323
 4966SOL    HW115797   2.845   5.030   4.366
 4966SOL    HW215798   2.802   5.188   4.372
 4967SOL     OW15799   3.958   2.664   5.652
 4967SOL    HW115800   3.887   2.731   5.676
 4967SOL    HW215801   3.960   2.653   5.552
 4968SOL     OW15802   6.100   3.210   5.215
 4968SOL    HW115803   6.043   3.129   5.207
 4968SOL    HW215804   6.054   3.288   5.172
 4969SOL     OW15805   1.443   1.122   2.312
 4969SOL    HW115806   1.534   1.099   2.345
 4969SOL    HW215807   1.444   1.125   2.212
 4970SOL     OW15808   0.831   2.116   5.149
 4970SOL    HW115809   0.795   2.023   5.154
 4970SOL    HW215810   0.917   2.121   5.199
 4971SOL     OW15811   5.388   6.764   3.527
 4971SOL    HW115812   5.443   6.799   3.602
 4971SOL    HW215813   5.376   6.836   3.458
 4972SOL     OW15814   1.804   3.282   6.876
 4972SOL    HW115815   1.794   3.294   6.777
 4972SOL    HW215816   1.836   3.189   6.894
 4973SOL     OW15817   5.818   6.328   2.549
 4973SOL    HW115818   5.738   6.383   2.575
 4973SOL    HW215819   5.803   6.288   2.458
 4974SOL     OW15820   5.642   6.512   2.651
 4974SOL    HW115821   5.546   6.536   2.663
 4974SOL    HW215822   5.693   6.592   2.618
 4975SOL     OW15823   6.149   5.671   0.305
 4975SOL    HW115824   6.105   5.645   0.391
 4975SOL    HW215825   6.248   5.665   0.315
 4976SOL     OW15826   3.862   0.215   5.391
 4976SOL    HW115827   3.839   0.118   5.394
 4976SOL    HW215828   3.784   0.270   5.420
 4977SOL     OW15829   3.201   3.123   0.925
 4977SOL    HW115830   3.253   3.078   0.852
 4977SOL    HW215831   3.180   3.217   0.898
 4978SOL     OW15832   5.181   2.919   6.059
 4978SOL    HW115833   5.154   2.927   5.963
 4978SOL    HW215834   5.261   2.860   6.066
 4979SOL     OW15835   1.287   0.410   5.584
 4979SOL    HW115836   1.224   0.395   5.508
 4979SOL    HW215837   1.312   0.506   5.588
 4980SOL     OW15838   3.514   5.621   2.136
 4980SOL    HW115839   3.461   5.539   2.113
 4980SOL    HW215840   3.454   5.701   2.132
 4981SOL     OW15841   3.964   6.361   5.637
 4981SOL    HW115842   3.947   6.459   5.646
 4981SOL    HW215843   3.955   6.317   5.727
 4982SOL     OW15844   2.462   3.195   0.547
 4982SOL    HW115845   2.550   3.156   0.574
 4982SOL    HW215846   2.388   3.139   0.583
 4983SOL     OW15847   5.279   3.183   4.276
 4983SOL    HW115848   5.211   3.178   4.349
 4983SOL    HW215849   5.328   3.096   4.270
 4984SOL     OW15850   5.023   3.770   3.244
 4984SOL    HW115851   4.987   3.677   3.247
 4984SOL    HW215852   5.093   3.776   3.173
 4985SOL     OW15853   5.409   4.850   2.261
 4985SOL    HW115854   5.399   4.766   2.315
 4985SOL    HW215855   5.499   4.890   2.279
 4986SOL     OW15856   5.207   4.633   2.663
 4986SOL    HW115857   5.204   4.581   2.749
 4986SOL    HW215858   5.133   4.699   2.660
 4987SOL     OW15859   0.004   2.879   1.583
 4987SOL    HW115860   6.944   2.873   1.529
 4987SOL    HW215861   0.082   2.899   1.522
 4988SOL     OW15862   0.630   1.388   4.227
 4988SOL    HW115863   0.627   1.296   4.265
 4988SOL    HW215864   0.620   1.455   4.300
 4989SOL     OW15865   0.270   1.135   0.320
 4989SOL    HW115866   0.348   1.102   0.373
 4989SOL    HW215867   0.272   1.093   0.229
 4990SOL     OW15868   1.429   1.857   5.324
 4990SOL    HW115869   1.517   1.904   5.330
 4990SOL    HW215870   1.408   1.837   5.228
 4991SOL     OW15871   0.893   2.926   4.121
 4991SOL    HW115872   0.796   2.947   4.136
 4991SOL    HW215873   0.934   2.897   4.207
 4992SOL     OW15874   3.548   0.701   5.313
 4992SOL    HW115875   3.642   0.718   5.283
 4992SOL    HW215876   3.500   0.789   5.322
 4993SOL     OW15877   2.988   6.037   3.946
 4993SOL    HW115878   3.019   6.127   3.975
 4993SOL    HW215879   3.021   6.019   3.854
 4994SOL     OW15880   0.588   0.046   2.697
 4994SOL    HW115881   0.488   0.054   2.694
 4994SOL    HW215882   0.613   6.990   2.752
 4995SOL     OW15883   5.744   2.352   6.473
 4995SOL    HW115884   5.772   2.309   6.559
 4995SOL    HW215885   5.732   2.282   6.403
 4996SOL     OW15886   0.985   1.300   3.100
 4996SOL    HW115887   0.910   1.340   3.152
 4996SOL    HW215888   1.055   1.266   3.163
 4997SOL     OW15889   0.458   3.079   3.372
 4997SOL    HW115890   0.536   3.085   3.434
 4997SOL    HW215891   0.412   2.991   3.385
 4998SOL     OW15892   1.269   5.592   4.711
 4998SOL    HW115893   1.243   5.512   4.766
 4998SOL    HW215894   1.325   5.562   4.634
 4999SOL     OW15895   5.963   5.522   0.906
 4999SOL    HW115896   5.866   5.546   0.903
 4999SOL    HW215897   5.972   5.423   0.917
 5000SOL     OW15898   0.219   6.537   4.754
 5000SOL    HW115899   0.168   6.459   4.717
 5000SOL    HW215900   0.174   6.622   4.728
 5001SOL     OW15901   3.357   4.461   5.317
 5001SOL    HW115902   3.340   4.557   5.340
 5001SOL    HW215903   3.275   4.422   5.276
 5002SOL     OW15904   1.985   1.019   2.134
 5002SOL    HW115905   1.966   0.921   2.133
 5002SOL    HW215906   1.923   1.063   2.199
 5003SOL     OW15907   6.329   5.774   2.764
 5003SOL    HW115908   6.363   5.867   2.781
 5003SOL    HW215909   6.298   5.734   2.850
 5004SOL     OW15910   3.317   5.986   0.039
 5004SOL    HW115911   3.296   6.079   0.008
 5004SOL    HW215912   3.391   5.989   0.106
 5005SOL     OW15913   4.748   2.935   0.192
 5005SOL    HW115914   4.743   2.859   0.127
 5005SOL    HW215915   4.763   3.020   0.142
 5006SOL     OW15916   5.077   5.889   4.775
 5006SOL    HW115917   5.162   5.909   4.823
 5006SOL    HW215918   5.001   5.890   4.841
 5007SOL     OW15919   3.808   1.138   5.382
 5007SOL    HW115920   3.878   1.199   5.346
 5007SOL    HW215921   3.776   1.172   5.471
 5008SOL     OW15922   5.946   0.894   3.801
 5008SOL    HW115923   5.986   0.802   3.797
 5008SOL    HW215924   5.992   0.947   3.872
 5009SOL     OW15925   1.137   6.223   3.042
 5009SOL    HW115926   1.144   6.164   2.962
 5009SOL    HW215927   1.204   6.194   3.111
 5010SOL     OW15928   3.919   3.828   4.232
 5010SOL    HW115929   3.950   3.744   4.275
 5010SOL    HW215930   3.929   3.905   4.296
 5011SOL     OW15931   0.867   2.899   3.038
 5011SOL    HW115932   0.777   2.928   3.008
 5011SOL    HW215933   0.909   2.841   2.968
 5012SOL     OW15934   6.900   2.405   6.427
 5012SOL    HW115935   6.825   2.436   6.486
 5012SOL    HW215936   6.918   2.308   6.444
 5013SOL     OW15937   4.267   1.794   6.332
 5013SOL    HW115938   4.281   1.723   6.401
 5013SOL    HW215939   4.356   1.829   6.301
 5014SOL     OW15940   5.990   6.360   0.262
 5014SOL    HW115941   6.039   6.277   0.237
 5014SOL    HW215942   6.056   6.435   0.271
 5015SOL     OW15943   4.584   2.624   3.770
 5015SOL    HW115944   4.604   2.695   3.703
 5015SOL    HW215945   4.644   2.545   3.755
 5016SOL     OW15946   2.453   0.156   3.157
 5016SOL    HW115947   2.553   0.153   3.157
 5016SOL    HW215948   2.422   0.233   3.102
 5017SOL     OW15949   2.462   2.616   1.136
 5017SOL    HW115950   2.404   2.688   1.098
 5017SOL    HW215951   2.533   2.657   1.194
 5018SOL     OW15952   5.967   5.297   3.745
 5018SOL    HW115953   6.030   5.371   3.767
 5018SOL    HW215954   6.020   5.216   3.718
 5019SOL     OW15955   2.022   4.724   6.977
 5019SOL    HW115956   2.021   4.793   0.026
 5019SOL    HW215957   2.086   4.652   7.000
 5020SOL     OW15958   5.393   4.859   6.463
 5020SOL    HW115959   5.327   4.851   6.538
 5020SOL    HW215960   5.436   4.949   6.466
 5021SOL     OW15961   1.628   4.417   6.415
 5021SOL    HW115962   1.570   4.448   6.338
 5021SOL    HW215963   1.715   4.465   6.412
 5022SOL     OW15964   1.637   5.713   0.469
 5022SOL    HW115965   1.666   5.624   0.503
 5022SOL    HW215966   1.566   5.702   0.400
 5023SOL     OW15967   6.292   3.023   2.262
 5023SOL    HW115968   6.343   3.097   2.306
 5023SOL    HW215969   6.250   2.965   2.332
 5024SOL     OW15970   6.069   4.023   4.399
 5024SOL    HW115971   6.042   3.969   4.319
 5024SOL    HW215972   5.987   4.053   4.448
 5025SOL     OW15973   5.273   1.116   3.126
 5025SOL    HW115974   5.245   1.199   3.175
 5025SOL    HW215975   5.334   1.141   3.051
 5026SOL     OW15976   0.161   6.600   4.167
 5026SOL    HW115977   0.224   6.642   4.232
 5026SOL    HW215978   0.192   6.508   4.144
 5027SOL     OW15979   1.066   6.723   3.333
 5027SOL    HW115980   1.066   6.822   3.337
 5027SOL    HW215981   1.145   6.691   3.280
 5028SOL     OW15982   0.258   0.697   3.154
 5028SOL    HW115983   0.177   0.666   3.204
 5028SOL    HW215984   0.290   0.623   3.094
 5029SOL     OW15985   0.063   1.398   1.017
 5029SOL    HW115986   0.137   1.464   1.013
 5029SOL    HW215987   0.100   1.306   1.029
 5030SOL     OW15988   1.009   6.494   0.281
 5030SOL    HW115989   1.031   6.566   0.347
 5030SOL    HW215990   1.000   6.406   0.329
 5031SOL     OW15991   5.646   0.736   4.332
 5031SOL    HW115992   5.631   0.642   4.301
 5031SOL    HW215993   5.715   0.780   4.275
 5032SOL     OW15994   2.099   5.509   1.039
 5032SOL    HW115995   2.042   5.468   1.110
 5032SOL    HW215996   2.074   5.605   1.027
 5033SOL     OW15997   2.035   4.143   5.507
 5033SOL    HW115998   2.036   4.098   5.596
 5033SOL    HW215999   2.128   4.148   5.471
 5034SOL     OW16000   6.343   2.784   0.796
 5034SOL    HW116001   6.431   2.787   0.749
 5034SOL    HW216002   6.329   2.693   0.834
 5035SOL     OW16003   5.063   4.553   0.221
 5035SOL    HW116004   5.153   4.509   0.209
 5035SOL    HW216005   5.023   4.572   0.132
 5036SOL     OW16006   1.198   0.218   1.148
 5036SOL    HW116007   1.187   0.118   1.147
 5036SOL    HW216008   1.111   0.262   1.166
 5037SOL     OW16009   4.372   2.277   4.159
 5037SOL    HW116010   4.284   2.299   4.202
 5037SOL    HW216011   4.384   2.333   4.077
 5038SOL     OW16012   1.992   6.493   5.568
 5038SOL    HW116013   2.081   6.487   5.522
 5038SOL    HW216014   1.993   6.435   5.649
 5039SOL     OW16015   2.192   2.144   5.127
 5039SOL    HW116016   2.191   2.046   5.106
 5039SOL    HW216017   2.261   2.162   5.197
 5040SOL     OW16018   3.150   4.107   5.677
 5040SOL    HW116019   3.102   4.044   5.615
 5040SOL    HW216020   3.221   4.156   5.626
 5041SOL     OW16021   1.324   4.021   1.020
 5041SOL    HW116022   1.407   3.967   1.035
 5041SOL    HW216023   1.322   4.053   0.925
 5042SOL     OW16024   5.157   2.578   6.002
 5042SOL    HW116025   5.223   2.550   5.932
 5042SOL    HW216026   5.205   2.593   6.089
 5043SOL     OW16027   3.645   1.071   3.473
 5043SOL    HW116028   3.705   1.149   3.493
 5043SOL    HW216029   3.573   1.066   3.543
 5044SOL     OW16030   6.152   4.885   3.741
 5044SOL    HW116031   6.054   4.869   3.754
 5044SOL    HW216032   6.169   4.983   3.729
 5045SOL     OW16033   5.899   2.224   6.718
 5045SOL    HW116034   5.968   2.185   6.779
 5045SOL    HW216035   5.823   2.259   6.772
 5046SOL     OW16036   3.610   2.855   5.178
 5046SOL    HW116037   3.651   2.941   5.207
 5046SOL    HW216038   3.551   2.820   5.251
 5047SOL     OW16039   0.838   0.858   2.034
 5047SOL    HW116040   0.876   0.943   2.070
 5047SOL    HW216041   0.891   0.829   1.954
 5048SOL     OW16042   6.411   2.796   1.241
 5048SOL    HW116043   6.402   2.722   1.175
 5048SOL    HW216044   6.484   2.774   1.306
 5049SOL     OW16045   0.976   2.301   2.589
 5049SOL    HW116046   1.023   2.216   2.614
 5049SOL    HW216047   0.947   2.297   2.494
 5050SOL     OW16048   1.122   3.461   2.181
 5050SOL    HW116049   1.172   3.466   2.267
 5050SOL    HW216050   1.025   3.480   2.197
 5051SOL     OW16051   3.044   5.463   0.597
 5051SOL    HW116052   2.966   5.403   0.614
 5051SOL    HW216053   3.100   5.470   0.680
 5052SOL     OW16054   5.849   4.647   1.073
 5052SOL    HW116055   5.828   4.609   0.983
 5052SOL    HW216056   5.791   4.603   1.142
 5053SOL     OW16057   2.483   4.366   0.652
 5053SOL    HW116058   2.416   4.314   0.707
 5053SOL    HW216059   2.569   4.373   0.703
 5054SOL     OW16060   3.877   5.847   4.710
 5054SOL    HW116061   3.860   5.789   4.790
 5054SOL    HW216062   3.886   5.942   4.738
 5055SOL     OW16063   1.073   1.476   5.172
 5055SOL    HW116064   1.107   1.504   5.262
 5055SOL    HW216065   1.108   1.539   5.102
 5056SOL     OW16066   0.997   2.720   5.149
 5056SOL    HW116067   1.039   2.720   5.240
 5056SOL    HW216068   1.062   2.757   5.082
 5057SOL     OW16069   7.014   5.173   2.654
 5057SOL    HW116070   6.958   5.239   2.705
 5057SOL    HW216071   0.087   5.198   2.662
 5058SOL     OW16072   4.342   4.627   6.555
 5058SOL    HW116073   4.405   4.554   6.583
 5058SOL    HW216074   4.257   4.587   6.520
 5059SOL     OW16075   3.675   1.888   3.817
 5059SOL    HW116076   3.651   1.976   3.776
 5059SOL    HW216077   3.775   1.879   3.821
 5060SOL     OW16078   0.431   3.311   5.380
 5060SOL    HW116079   0.522   3.333   5.416
 5060SOL    HW216080   0.404   3.380   5.313
 5061SOL     OW16081   3.415   2.969   5.397
 5061SOL    HW116082   3.461   3.053   5.427
 5061SOL    HW216083   3.398   2.910   5.475
 5062SOL     OW16084   5.136   1.167   2.540
 5062SOL    HW116085   5.230   1.202   2.537
 5062SOL    HW216086   5.082   1.225   2.600
 5063SOL     OW16087   1.303   0.042   2.791
 5063SOL    HW116088   1.308   0.124   2.735
 5063SOL    HW216089   1.215   7.021   2.778
 5064SOL     OW16090   4.732   5.526   0.802
 5064SOL    HW116091   4.640   5.557   0.777
 5064SOL    HW216092   4.745   5.535   0.901
 5065SOL     OW16093   2.329   6.831   2.873
 5065SOL    HW116094   2.291   6.920   2.897
 5065SOL    HW216095   2.291   6.761   2.933
 5066SOL     OW16096   2.299   4.491   1.802
 5066SOL    HW116097   2.393   4.523   1.814
 5066SOL    HW216098   2.236   4.568   1.809
 5067SOL     OW16099   4.114   3.112   1.494
 5067SOL    HW116100   4.048   3.163   1.548
 5067SOL    HW216101   4.184   3.073   1.554
 5068SOL     OW16102   3.070   6.107   0.258
 5068SOL    HW116103   3.115   6.112   0.347
 5068SOL    HW216104   3.094   6.188   0.204
 5069SOL     OW16105   3.286   5.090   5.698
 5069SOL    HW116106   3.351   5.042   5.640
 5069SOL    HW216107   3.296   5.059   5.793
 5070SOL     OW16108   6.228   2.842   3.691
 5070SOL    HW116109   6.267   2.752   3.669
 5070SOL    HW216110   6.214   2.893   3.606
 5071SOL     OW16111   3.221   0.664   4.201
 5071SOL    HW116112   3.130   0.623   4.205
 5071SOL    HW216113   3.268   0.633   4.118
 5072SOL     OW16114   1.387   1.363   0.402
 5072SOL    HW116115   1.322   1.305   0.450
 5072SOL    HW216116   1.407   1.444   0.457
 5073SOL     OW16117   2.476   7.006   2.370
 5073SOL    HW116118   2.440   0.068   2.334
 5073SOL    HW216119   2.558   0.000   2.424
 5074SOL     OW16120   3.469   2.162   1.733
 5074SOL    HW116121   3.434   2.087   1.789
 5074SOL    HW216122   3.536   2.215   1.785
 5075SOL     OW16123   1.122   3.285   0.049
 5075SOL    HW116124   1.145   3.376   0.086
 5075SOL    HW216125   1.173   3.215   0.098
 5076SOL     OW16126   5.798   6.891   6.717
 5076SOL    HW116127   5.705   6.901   6.751
 5076SOL    HW216128   5.815   6.796   6.693
 5077SOL     OW16129   1.060   4.335   3.906
 5077SOL    HW116130   1.029   4.293   3.991
 5077SOL    HW216131   1.000   4.412   3.882
 5078SOL     OW16132   0.309   1.313   3.974
 5078SOL    HW116133   0.328   1.392   3.917
 5078SOL    HW216134   0.384   1.247   3.965
 5079SOL     OW16135   1.583   2.299   6.119
 5079SOL    HW116136   1.513   2.355   6.075
 5079SOL    HW216137   1.673   2.335   6.096
 5080SOL     OW16138   5.778   5.201   6.101
 5080SOL    HW116139   5.825   5.233   6.183
 5080SOL    HW216140   5.680   5.190   6.120
 5081SOL     OW16141   3.034   5.465   5.537
 5081SOL    HW116142   3.048   5.381   5.486
 5081SOL    HW216143   3.087   5.539   5.496
 5082SOL     OW16144   5.968   6.131   1.788
 5082SOL    HW116145   5.956   6.183   1.872
 5082SOL    HW216146   5.884   6.082   1.767
 5083SOL     OW16147   2.295   6.915   3.526
 5083SOL    HW116148   2.324   6.869   3.443
 5083SOL    HW216149   2.361   6.897   3.599
 5084SOL     OW16150   1.322   4.835   5.362
 5084SOL    HW116151   1.320   4.852   5.263
 5084SOL    HW216152   1.414   4.849   5.396
 5085SOL     OW16153   0.125   4.039   6.170
 5085SOL    HW116154   0.080   3.962   6.214
 5085SOL    HW216155   0.217   4.051   6.207
 5086SOL     OW16156   2.472   5.118   2.302
 5086SOL    HW116157   2.375   5.097   2.293
 5086SOL    HW216158   2.521   5.037   2.333
 5087SOL     OW16159   6.594   5.095   2.196
 5087SOL    HW116160   6.612   5.000   2.170
 5087SOL    HW216161   6.497   5.114   2.188
 5088SOL     OW16162   4.884   5.994   2.002
 5088SOL    HW116163   4.795   5.956   2.025
 5088SOL    HW216164   4.953   5.922   2.006
 5089SOL     OW16165   5.622   5.033   4.609
 5089SOL    HW116166   5.683   5.101   4.568
 5089SOL    HW216167   5.657   4.941   4.589
 5090SOL     OW16168   3.246   0.232   4.882
 5090SOL    HW116169   3.267   0.321   4.922
 5090SOL    HW216170   3.227   0.167   4.955
 5091SOL     OW16171   6.344   6.912   0.253
 5091SOL    HW116172   6.369   6.961   0.337
 5091SOL    HW216173   6.245   6.918   0.241
 5092SOL     OW16174   3.141   3.586   4.597
 5092SOL    HW116175   3.064   3.543   4.643
 5092SOL    HW216176   3.216   3.597   4.663
 5093SOL     OW16177   2.089   1.865   2.216
 5093SOL    HW116178   2.011   1.927   2.202
 5093SOL    HW216179   2.115   1.866   2.313
 5094SOL     OW16180   2.299   5.751   6.260
 5094SOL    HW116181   2.386   5.782   6.298
 5094SOL    HW216182   2.288   5.653   6.277
 5095SOL     OW16183   0.013   0.599   2.996
 5095SOL    HW116184   6.945   0.574   2.965
 5095SOL    HW216185   0.049   0.673   2.938
 5096SOL     OW16186   4.952   2.714   5.864
 5096SOL    HW116187   4.988   2.719   5.771
 5096SOL    HW216188   5.018   2.670   5.924
 5097SOL     OW16189   0.851   6.339   6.800
 5097SOL    HW116190   0.917   6.288   6.745
 5097SOL    HW216191   0.900   6.400   6.863
 5098SOL     OW16192   3.842   2.157   1.749
 5098SOL    HW116193   3.827   2.200   1.659
 5098SOL    HW216194   3.776   2.194   1.814
 5099SOL     OW16195   1.456   6.880   1.687
 5099SOL    HW116196   1.454   6.938   1.769
 5099SOL    HW216197   1.364   6.847   1.668
 5100SOL     OW16198   4.935   3.766   2.472
 5100SOL    HW116199   4.937   3.792   2.375
 5100SOL    HW216200   4.890   3.677   2.481
 5101SOL     OW16201   4.042   6.832   5.777
 5101SOL    HW116202   3.969   6.899   5.783
 5101SOL    HW216203   4.083   6.835   5.686
 5102SOL     OW16204   5.069   5.109   4.592
 5102SOL    HW116205   5.098   5.135   4.684
 5102SOL    HW216206   5.114   5.170   4.526
 5103SOL     OW16207   1.361   0.357   5.847
 5103SOL    HW116208   1.322   0.348   5.755
 5103SOL    HW216209   1.313   0.429   5.897
 5104SOL     OW16210   3.658   4.567   1.534
 5104SOL    HW116211   3.704   4.512   1.464
 5104SOL    HW216212   3.598   4.509   1.588
 5105SOL     OW16213   3.806   2.512   6.633
 5105SOL    HW116214   3.721   2.565   6.625
 5105SOL    HW216215   3.807   2.439   6.565
 5106SOL     OW16216   4.471   3.027   1.153
 5106SOL    HW116217   4.475   3.081   1.069
 5106SOL    HW216218   4.563   2.992   1.174
 5107SOL     OW16219   5.112   3.387   0.527
 5107SOL    HW116220   5.199   3.367   0.572
 5107SOL    HW216221   5.071   3.303   0.494
 5108SOL     OW16222   4.514   4.442   6.593
 5108SOL    HW116223   4.491   4.357   6.642
 5108SOL    HW216224   4.566   4.420   6.510
 5109SOL     OW16225   1.772   2.476   1.387
 5109SOL    HW116226   1.870   2.480   1.365
 5109SOL    HW216227   1.738   2.383   1.372
 5110SOL     OW16228   5.440   0.348   6.494
 5110SOL    HW116229   5.396   0.326   6.581
 5110SOL    HW216230   5.371   0.353   6.422
 5111SOL     OW16231   0.949   6.496   5.271
 5111SOL    HW116232   0.854   6.525   5.262
 5111SOL    HW216233   0.958   6.432   5.347
 5112SOL     OW16234   0.386   0.461   3.006
 5112SOL    HW116235   0.405   0.477   2.909
 5112SOL    HW216236   0.305   0.403   3.014
 5113SOL     OW16237   2.154   4.673   0.375
 5113SOL    HW116238   2.154   4.625   0.287
 5113SOL    HW216239   2.248   4.683   0.407
 5114SOL     OW16240   4.496   6.085   1.015
 5114SOL    HW116241   4.454   6.079   1.105
 5114SOL    HW216242   4.566   6.014   1.005
 5115SOL     OW16243   1.617   3.683   1.124
 5115SOL    HW116244   1.628   3.611   1.054
 5115SOL    HW216245   1.627   3.773   1.081
 5116SOL     OW16246   1.956   6.666   6.639
 5116SOL    HW116247   1.982   6.621   6.725
 5116SOL    HW216248   2.019   6.638   6.567
 5117SOL     OW16249   1.226   2.385   4.059
 5117SOL    HW116250   1.314   2.337   4.047
 5117SOL    HW216251   1.185   2.357   4.145
 5118SOL     OW16252   5.564   5.873   6.901
 5118SOL    HW116253   5.559   5.946   6.833
 5118SOL    HW216254   5.640   5.890   6.964
 5119SOL     OW16255   4.886   1.529   0.506
 5119SOL    HW116256   4.884   1.579   0.419
 5119SOL    HW216257   4.824   1.451   0.501
 5120SOL     OW16258   5.148   0.100   5.191
 5120SOL    HW116259   5.219   0.102   5.121
 5120SOL    HW216260   5.086   0.024   5.174
 5121SOL     OW16261   2.224   3.796   6.628
 5121SOL    HW116262   2.151   3.779   6.694
 5121SOL    HW216263   2.263   3.887   6.643
 5122SOL     OW16264   5.080   5.583   3.546
 5122SOL    HW116265   5.151   5.600   3.615
 5122SOL    HW216266   5.025   5.666   3.534
 5123SOL     OW16267   4.806   2.639   2.276
 5123SOL    HW116268   4.895   2.682   2.294
 5123SOL    HW216269   4.761   2.687   2.201
 5124SOL     OW16270   2.278   6.677   3.756
 5124SOL    HW116271   2.225   6.762   3.750
 5124SOL    HW216272   2.217   6.600   3.772
 5125SOL     OW16273   7.023   1.858   3.904
 5125SOL    HW116274   0.043   1.769   3.893
 5125SOL    HW216275   6.934   1.857   3.858
 5126SOL     OW16276   2.202   6.785   0.637
 5126SOL    HW116277   2.272   6.815   0.573
 5126SOL    HW216278   2.237   6.793   0.730
 5127SOL     OW16279   1.814   5.448   0.246
 5127SOL    HW116280   1.744   5.456   0.175
 5127SOL    HW216281   1.770   5.436   0.335
 5128SOL     OW16282   6.431   5.907   1.656
 5128SOL    HW116283   6.364   5.947   1.719
 5128SOL    HW216284   6.383   5.856   1.584
 5129SOL     OW16285   5.837   6.982   1.173
 5129SOL    HW116286   5.776   6.990   1.093
 5129SOL    HW216287   5.931   6.996   1.145
 5130SOL     OW16288   5.883   5.074   3.283
 5130SOL    HW116289   5.907   5.150   3.344
 5130SOL    HW216290   5.801   5.098   3.231
 5131SOL     OW16291   2.180   2.656   3.895
 5131SOL    HW116292   2.097   2.641   3.841
 5131SOL    HW216293   2.235   2.727   3.852
 5132SOL     OW16294   2.903   5.165   5.779
 5132SOL    HW116295   2.941   5.257   5.790
 5132SOL    HW216296   2.976   5.097   5.788
 5133SOL     OW16297   3.849   6.301   6.624
 5133SOL    HW116298   3.789   6.230   6.585
 5133SOL    HW216299   3.828   6.312   6.721
 5134SOL     OW16300   0.486   3.878   1.151
 5134SOL    HW116301   0.495   3.822   1.234
 5134SOL    HW216302   0.390   3.901   1.136
 5135SOL     OW16303   6.647   1.418   5.115
 5135SOL    HW116304   6.728   1.466   5.083
 5135SOL    HW216305   6.578   1.418   5.042
 5136SOL     OW16306   4.746   1.384   4.165
 5136SOL    HW116307   4.777   1.478   4.175
 5136SOL    HW216308   4.679   1.363   4.236
 5137SOL     OW16309   3.952   4.621   6.281
 5137SOL    HW116310   3.924   4.587   6.191
 5137SOL    HW216311   3.889   4.693   6.310
 5138SOL     OW16312   2.549   4.077   5.488
 5138SOL    HW116313   2.605   4.061   5.570
 5138SOL    HW216314   2.537   3.991   5.439
 5139SOL     OW16315   1.354   6.685   3.614
 5139SOL    HW116316   1.299   6.603   3.632
 5139SOL    HW216317   1.314   6.763   3.662
 5140SOL     OW16318   3.335   2.887   1.089
 5140SOL    HW116319   3.337   2.966   1.028
 5140SOL    HW216320   3.417   2.889   1.147
 5141SOL     OW16321   5.587   2.987   6.881
 5141SOL    HW116322   5.571   2.936   6.966
 5141SOL    HW216323   5.685   2.999   6.866
 5142SOL     OW16324   5.458   3.921   4.986
 5142SOL    HW116325   5.437   3.981   5.064
 5142SOL    HW216326   5.373   3.886   4.947
 5143SOL     OW16327   6.654   5.618   4.194
 5143SOL    HW116328   6.751   5.630   4.215
 5143SOL    HW216329   6.599   5.661   4.265
 5144SOL     OW16330   1.450   1.020   5.641
 5144SOL    HW116331   1.473   1.117   5.635
 5144SOL    HW216332   1.449   0.979   5.550
 5145SOL     OW16333   2.076   5.491   6.116
 5145SOL    HW116334   2.167   5.527   6.096
 5145SOL    HW216335   2.008   5.537   6.059
 5146SOL     OW16336   3.015   4.784   6.888
 5146SOL    HW116337   3.112   4.773   6.910
 5146SOL    HW216338   2.960   4.755   6.967
 5147SOL     OW16339   5.950   4.208   6.616
 5147SOL    HW116340   5.903   4.276   6.560
 5147SOL    HW216341   6.018   4.253   6.674
 5148SOL     OW16342   6.860   6.022   1.131
 5148SOL    HW116343   6.780   5.970   1.103
 5148SOL    HW216344   6.942   5.965   1.123
 5149SOL     OW16345   6.392   1.703   4.228
 5149SOL    HW116346   6.404   1.608   4.255
 5149SOL    HW216347   6.482   1.749   4.228
 5150SOL     OW16348   1.762   5.495   4.164
 5150SOL    HW116349   1.790   5.521   4.071
 5150SOL    HW216350   1.663   5.486   4.168
 5151SOL     OW16351   4.861   1.227   6.684
 5151SOL    HW116352   4.789   1.253   6.748
 5151SOL    HW216353   4.942   1.282   6.700
 5152SOL     OW16354   1.137   4.191   0.211
 5152SOL    HW116355   1.208   4.130   0.176
 5152SOL    HW216356   1.098   4.244   0.136
 5153SOL     OW16357   1.294   2.066   0.775
 5153SOL    HW116358   1.305   1.973   0.738
 5153SOL    HW216359   1.233   2.063   0.854
 5154SOL     OW16360   1.895   2.632   5.503
 5154SOL    HW116361   1.931   2.695   5.433
 5154SOL    HW216362   1.871   2.684   5.585
 5155SOL     OW16363   3.890   0.101   2.074
 5155SOL    HW116364   3.854   0.047   1.999
 5155SOL    HW216365   3.853   0.194   2.069
 5156SOL     OW16366   6.426   2.388   5.396
 5156SOL    HW116367   6.401   2.432   5.483
 5156SOL    HW216368   6.521   2.409   5.374
 5157SOL     OW16369   4.961   2.913   3.380
 5157SOL    HW116370   4.983   2.879   3.471
 5157SOL    HW216371   4.992   3.008   3.371
 5158SOL     OW16372   3.917   1.422   1.155
 5158SOL    HW116373   3.919   1.516   1.188
 5158SOL    HW216374   3.836   1.408   1.099
 5159SOL     OW16375   1.116   3.303   4.436
 5159SOL    HW116376   1.059   3.376   4.473
 5159SOL    HW216377   1.157   3.334   4.350
 5160SOL     OW16378   1.854   3.672   4.800
 5160SOL    HW116379   1.941   3.652   4.844
 5160SOL    HW216380   1.820   3.589   4.754
 5161SOL     OW16381   1.265   2.877   5.174
 5161SOL    HW116382   1.277   2.777   5.174
 5161SOL    HW216383   1.302   2.915   5.090
 5162SOL     OW16384   6.449   6.341   3.770
 5162SOL    HW116385   6.507   6.423   3.763
 5162SOL    HW216386   6.381   6.355   3.842
 5163SOL     OW16387   5.434   4.673   1.341
 5163SOL    HW116388   5.419   4.672   1.440
 5163SOL    HW216389   5.465   4.764   1.313
 5164SOL     OW16390   5.819   3.505   5.610
 5164SOL    HW116391   5.807   3.545   5.701
 5164SOL    HW216392   5.761   3.425   5.601
 5165SOL     OW16393   6.110   4.498   3.879
 5165SOL    HW116394   6.102   4.497   3.979
 5165SOL    HW216395   6.192   4.550   3.853
 5166SOL     OW16396   1.975   5.196   2.236
 5166SOL    HW116397   2.053   5.229   2.182
 5166SOL    HW216398   1.950   5.104   2.206
 5167SOL     OW16399   0.411   6.407   5.952
 5167SOL    HW116400   0.355   6.327   5.930
 5167SOL    HW216401   0.508   6.381   5.953
 5168SOL     OW16402   4.175   2.258   3.003
 5168SOL    HW116403   4.200   2.326   2.935
 5168SOL    HW216404   4.223   2.276   3.089
 5169SOL     OW16405   3.459   3.890   5.968
 5169SOL    HW116406   3.369   3.931   5.951
 5169SOL    HW216407   3.451   3.791   5.964
 5170SOL     OW16408   5.877   4.479   4.696
 5170SOL    HW116409   5.869   4.438   4.606
 5170SOL    HW216410   5.916   4.414   4.761
 5171SOL     OW16411   2.124   5.393   4.315
 5171SOL    HW116412   2.111   5.484   4.353
 5171SOL    HW216413   2.038   5.342   4.319
 5172SOL     OW16414   0.830   4.928   2.519
 5172SOL    HW116415   0.873   4.974   2.441
 5172SOL    HW216416   0.814   4.832   2.495
 5173SOL     OW16417   5.412   2.598   6.806
 5173SOL    HW116418   5.495   2.622   6.856
 5173SOL    HW216419   5.335   2.593   6.870
 5174SOL     OW16420   1.451   4.887   6.071
 5174SOL    HW116421   1.394   4.834   6.134
 5174SOL    HW216422   1.457   4.840   5.983
 5175SOL     OW16423   1.078   4.462   0.390
 5175SOL    HW116424   1.121   4.551   0.375
 5175SOL    HW216425   1.145   4.389   0.376
 5176SOL     OW16426   4.680   3.574   0.575
 5176SOL    HW116427   4.690   3.664   0.617
 5176SOL    HW216428   4.746   3.565   0.500
 5177SOL     OW16429   5.123   6.723   6.303
 5177SOL    HW116430   5.041   6.693   6.353
 5177SOL    HW216431   5.194   6.653   6.310
 5178SOL     OW16432   2.540   2.566   1.817
 5178SOL    HW116433   2.480   2.491   1.845
 5178SOL    HW216434   2.509   2.650   1.861
 5179SOL     OW16435   3.553   6.282   5.740
 5179SOL    HW116436   3.539   6.339   5.821
 5179SOL    HW216437   3.634   6.225   5.752
 5180SOL     OW16438   2.736   2.645   1.245
 5180SOL    HW116439   2.782   2.600   1.168
 5180SOL    HW216440   2.760   2.598   1.330
 5181SOL     OW16441   4.160   6.792   3.134
 5181SOL    HW116442   4.110   6.705   3.134
 5181SOL    HW216443   4.174   6.822   3.040
 5182SOL     OW16444   5.752   4.400   1.648
 5182SOL    HW116445   5.716   4.488   1.678
 5182SOL    HW216446   5.677   4.345   1.610
 5183SOL     OW16447   4.673   0.188   1.954
 5183SOL    HW116448   4.599   0.211   1.891
 5183SOL    HW216449   4.753   0.158   1.903
 5184SOL     OW16450   0.827   0.713   2.836
 5184SOL    HW116451   0.848   0.691   2.741
 5184SOL    HW216452   0.912   0.733   2.885
 5185SOL     OW16453   3.579   0.337   2.076
 5185SOL    HW116454   3.548   0.292   2.159
 5185SOL    HW216455   3.675   0.362   2.085
 5186SOL     OW16456   6.590   4.235   0.103
 5186SOL    HW116457   6.618   4.316   0.155
 5186SOL    HW216458   6.651   4.224   0.024
 5187SOL     OW16459   5.746   1.923   3.560
 5187SOL    HW116460   5.827   1.979   3.539
 5187SOL    HW216461   5.717   1.874   3.478
 5188SOL     OW16462   0.953   3.924   6.023
 5188SOL    HW116463   0.960   3.998   5.955
 5188SOL    HW216464   1.040   3.877   6.030
 5189SOL     OW16465   4.604   5.264   6.513
 5189SOL    HW116466   4.623   5.308   6.426
 5189SOL    HW216467   4.564   5.174   6.498
 5190SOL     OW16468   1.298   2.470   3.799
 5190SOL    HW116469   1.247   2.443   3.880
 5190SOL    HW216470   1.370   2.403   3.781
 5191SOL     OW16471   3.442   0.886   1.343
 5191SOL    HW116472   3.402   0.820   1.407
 5191SOL    HW216473   3.414   0.978   1.367
 5192SOL     OW16474   6.160   5.477   2.578
 5192SOL    HW116475   6.080   5.522   2.539
 5192SOL    HW216476   6.202   5.417   2.510
 5193SOL     OW16477   4.817   3.906   3.453
 5193SOL    HW116478   4.772   3.957   3.380
 5193SOL    HW216479   4.884   3.964   3.499
 5194SOL     OW16480   5.402   0.796   5.452
 5194SOL    HW116481   5.341   0.760   5.522
 5194SOL    HW216482   5.350   0.809   5.367
 5195SOL     OW16483   6.154   6.410   5.313
 5195SOL    HW116484   6.155   6.427   5.214
 5195SOL    HW216485   6.239   6.444   5.353
 5196SOL     OW16486   0.234   3.956   1.496
 5196SOL    HW116487   0.215   3.882   1.431
 5196SOL    HW216488   0.148   3.991   1.533
 5197SOL     OW16489   2.604   5.587   5.159
 5197SOL    HW116490   2.588   5.495   5.124
 5197SOL    HW216491   2.539   5.651   5.116
 5198SOL     OW16492   3.786   6.355   5.188
 5198SOL    HW116493   3.771   6.454   5.177
 5198SOL    HW216494   3.872   6.340   5.236
 5199SOL     OW16495   2.070   5.325   1.486
 5199SOL    HW116496   2.068   5.256   1.414
 5199SOL    HW216497   2.098   5.413   1.447
 5200SOL     OW16498   0.349   1.194   5.220
 5200SOL    HW116499   0.285   1.268   5.239
 5200SOL    HW216500   0.354   1.133   5.299
 5201SOL     OW16501   5.903   5.044   3.973
 5201SOL    HW116502   6.001   5.028   3.983
 5201SOL    HW216503   5.887   5.098   3.890
 5202SOL     OW16504   3.767   2.694   6.198
 5202SOL    HW116505   3.850   2.639   6.194
 5202SOL    HW216506   3.766   2.747   6.283
 5203SOL     OW16507   1.815   0.449   0.666
 5203SOL    HW116508   1.800   0.520   0.734
 5203SOL    HW216509   1.756   0.465   0.587
 5204SOL     OW16510   3.522   0.962   0.222
 5204SOL    HW116511   3.440   0.941   0.168
 5204SOL    HW216512   3.541   0.885   0.283
 5205SOL     OW16513   0.276   5.720   0.609
 5205SOL    HW116514   0.227   5.791   0.558
 5205SOL    HW216515   0.210   5.666   0.663
 5206SOL     OW16516   0.864   4.634   4.558
 5206SOL    HW116517   0.836   4.539   4.547
 5206SOL    HW216518   0.953   4.638   4.603
 5207SOL     OW16519   0.286   0.553   4.186
 5207SOL    HW116520   0.277   0.576   4.089
 5207SOL    HW216521   0.212   0.491   4.212
 5208SOL     OW16522   4.740   1.937   0.059
 5208SOL    HW116523   4.740   1.992   0.142
 5208SOL    HW216524   4.817   1.874   0.060
 5209SOL     OW16525   5.286   5.674   2.483
 5209SOL    HW116526   5.187   5.661   2.476
 5209SOL    HW216527   5.331   5.586   2.498
 5210SOL     OW16528   5.316   4.421   0.178
 5210SOL    HW116529   5.408   4.451   0.153
 5210SOL    HW216530   5.286   4.350   0.114
 5211SOL     OW16531   5.078   3.201   4.479
 5211SOL    HW116532   5.007   3.161   4.422
 5211SOL    HW216533   5.080   3.153   4.567
 5212SOL     OW16534   1.083   3.676   1.199
 5212SOL    HW116535   1.148   3.646   1.130
 5212SOL    HW216536   1.080   3.776   1.201
 5213SOL     OW16537   4.148   3.628   2.605
 5213SOL    HW116538   4.187   3.573   2.532
 5213SOL    HW216539   4.085   3.573   2.660
 5214SOL     OW16540   5.440   3.555   5.459
 5214SOL    HW116541   5.476   3.589   5.372
 5214SOL    HW216542   5.368   3.617   5.491
 5215SOL     OW16543   6.575   3.767   4.812
 5215SOL    HW116544   6.578   3.860   4.849
 5215SOL    HW216545   6.502   3.760   4.745
 5216SOL     OW16546   5.019   5.491   0.780
 5216SOL    HW116547   5.054   5.585   0.784
 5216SOL    HW216548   4.920   5.492   0.788
 5217SOL     OW16549   4.406   6.352   4.175
 5217SOL    HW116550   4.425   6.262   4.213
 5217SOL    HW216551   4.349   6.343   4.093
 5218SOL     OW16552   0.459   6.975   0.588
 5218SOL    HW116553   0.549   6.998   0.551
 5218SOL    HW216554   0.388   7.017   0.531
 5219SOL     OW16555   2.870   1.719   5.133
 5219SOL    HW116556   2.904   1.794   5.076
 5219SOL    HW216557   2.944   1.652   5.148
 5220SOL     OW16558   1.945   4.433   3.912
 5220SOL    HW116559   1.861   4.472   3.950
 5220SOL    HW216560   2.020   4.498   3.923
 5221SOL     OW16561   6.963   6.573   0.868
 5221SOL    HW116562   6.985   6.494   0.924
 5221SOL    HW216563   0.002   6.648   0.889
 5222SOL     OW16564   4.762   4.463   0.646
 5222SOL    HW116565   4.729   4.393   0.709
 5222SOL    HW216566   4.699   4.541   0.647
 5223SOL     OW16567   0.566   2.693   1.025
 5223SOL    HW116568   0.663   2.676   1.010
 5223SOL    HW216569   0.533   2.762   0.959
 5224SOL     OW16570   0.183   3.006   5.222
 5224SOL    HW116571   0.118   3.081   5.206
 5224SOL    HW216572   0.255   3.038   5.284
 5225SOL     OW16573   0.360   1.706   4.814
 5225SOL    HW116574   0.431   1.759   4.769
 5225SOL    HW216575   0.321   1.760   4.889
 5226SOL     OW16576   0.506   6.618   3.635
 5226SOL    HW116577   0.420   6.566   3.639
 5226SOL    HW216578   0.582   6.560   3.663
 5227SOL     OW16579   0.028   2.798   5.316
 5227SOL    HW116580   0.076   2.712   5.334
 5227SOL    HW216581   0.095   2.870   5.295
 5228SOL     OW16582   1.621   2.477   5.766
 5228SOL    HW116583   1.681   2.450   5.841
 5228SOL    HW216584   1.667   2.459   5.679
 5229SOL     OW16585   4.403   0.714   6.017
 5229SOL    HW116586   4.372   0.808   6.027
 5229SOL    HW216587   4.334   0.661   5.969
 5230SOL     OW16588   6.938   6.908   1.964
 5230SOL    HW116589   6.918   6.932   2.059
 5230SOL    HW216590   6.853   6.905   1.911
 5231SOL     OW16591   6.691   2.198   2.080
 5231SOL    HW116592   6.647   2.250   2.153
 5231SOL    HW216593   6.693   2.101   2.104
 5232SOL     OW16594   2.299   2.696   5.445
 5232SOL    HW116595   2.286   2.786   5.404
 5232SOL    HW216596   2.395   2.670   5.441
 5233SOL     OW16597   3.154   0.108   2.942
 5233SOL    HW116598   3.235   0.163   2.923
 5233SOL    HW216599   3.181   0.012   2.951
 5234SOL     OW16600   2.459   1.884   0.195
 5234SOL    HW116601   2.489   1.885   0.100
 5234SOL    HW216602   2.376   1.938   0.205
 5235SOL     OW16603   2.707   1.833   1.157
 5235SOL    HW116604   2.689   1.923   1.197
 5235SOL    HW216605   2.804   1.827   1.132
 5236SOL     OW16606   3.945   5.630   1.587
 5236SOL    HW116607   3.926   5.629   1.685
 5236SOL    HW216608   4.044   5.624   1.573
 5237SOL     OW16609   2.160   1.968   3.489
 5237SOL    HW116610   2.227   1.894   3.478
 5237SOL    HW216611   2.202   2.045   3.536
 5238SOL     OW16612   1.131   6.482   2.909
 5238SOL    HW116613   1.102   6.490   2.814
 5238SOL    HW216614   1.134   6.385   2.935
 5239SOL     OW16615   2.437   3.752   1.393
 5239SOL    HW116616   2.366   3.684   1.408
 5239SOL    HW216617   2.496   3.723   1.318
 5240SOL     OW16618   2.156   3.686   5.554
 5240SOL    HW116619   2.120   3.598   5.524
 5240SOL    HW216620   2.090   3.758   5.534
 5241SOL     OW16621   1.159   5.615   2.096
 5241SOL    HW116622   1.121   5.581   2.010
 5241SOL    HW216623   1.200   5.705   2.081
 5242SOL     OW16624   4.809   0.437   6.502
 5242SOL    HW116625   4.734   0.414   6.440
 5242SOL    HW216626   4.862   0.512   6.463
 5243SOL     OW16627   2.711   0.099   2.457
 5243SOL    HW116628   2.668   0.144   2.535
 5243SOL    HW216629   2.742   0.168   2.391
 5244SOL     OW16630   4.950   3.055   0.710
 5244SOL    HW116631   4.906   3.083   0.795
 5244SOL    HW216632   4.885   3.005   0.653
 5245SOL     OW16633   4.219   3.716   1.709
 5245SOL    HW116634   4.165   3.636   1.683
 5245SOL    HW216635   4.168   3.799   1.688
 5246SOL     OW16636   5.859   3.107   1.503
 5246SOL    HW116637   5.943   3.054   1.507
 5246SOL    HW216638   5.860   3.166   1.422
 5247SOL     OW16639   3.899   1.977   6.281
 5247SOL    HW116640   3.841   1.930   6.214
 5247SOL    HW216641   3.895   1.927   6.368
 5248SOL     OW16642   6.524   1.168   3.680
 5248SOL    HW116643   6.549   1.259   3.715
 5248SOL    HW216644   6.577   1.147   3.599
 5249SOL     OW16645   0.815   4.868   6.564
 5249SOL    HW116646   0.811   4.770   6.541
 5249SOL    HW216647   0.728   4.896   6.605
 5250SOL     OW16648   2.360   5.990   0.806
 5250SOL    HW116649   2.398   6.082   0.811
 5250SOL    HW216650   2.408   5.930   0.870
 5251SOL     OW16651   0.561   4.723   0.559
 5251SOL    HW116652   0.511   4.670   0.627
 5251SOL    HW216653   0.621   4.788   0.605
 5252SOL     OW16654   3.873   0.370   2.173
 5252SOL    HW116655   3.897   0.334   2.264
 5252SOL    HW216656   3.869   0.470   2.177
 5253SOL     OW16657   6.204   5.524   4.547
 5253SOL    HW116658   6.158   5.452   4.496
 5253SOL    HW216659   6.288   5.551   4.500
 5254SOL     OW16660   5.934   0.056   2.984
 5254SOL    HW116661   6.027   0.027   3.005
 5254SOL    HW216662   5.929   0.156   2.986
 5255SOL     OW16663   6.299   1.889   5.016
 5255SOL    HW116664   6.266   1.850   4.930
 5255SOL    HW216665   6.373   1.832   5.053
 5256SOL     OW16666   6.479   1.306   2.697
 5256SOL    HW116667   6.446   1.399   2.712
 5256SOL    HW216668   6.579   1.306   2.698
 5257SOL     OW16669   3.784   0.849   6.205
 5257SOL    HW116670   3.870   0.894   6.228
 5257SOL    HW216671   3.802   0.756   6.173
 5258SOL     OW16672   4.273   1.664   3.321
 5258SOL    HW116673   4.237   1.721   3.247
 5258SOL    HW216674   4.287   1.571   3.287
 5259SOL     OW16675   6.138   5.338   2.852
 5259SOL    HW116676   6.158   5.259   2.794
 5259SOL    HW216677   6.133   5.421   2.797
 5260SOL     OW16678   2.159   1.090   1.055
 5260SOL    HW116679   2.106   1.080   0.970
 5260SOL    HW216680   2.217   1.171   1.048
 5261SOL     OW16681   6.055   4.191   0.519
 5261SOL    HW116682   6.089   4.136   0.595
 5261SOL    HW216683   6.063   4.138   0.434
 5262SOL     OW16684   1.914   0.627   2.919
 5262SOL    HW116685   1.945   0.549   2.864
 5262SOL    HW216686   1.992   0.685   2.941
 5263SOL     OW16687   2.218   0.221   2.825
 5263SOL    HW116688   2.158   0.150   2.860
 5263SOL    HW216689   2.275   0.256   2.900
 5264SOL     OW16690   6.786   2.242   1.667
 5264SOL    HW116691   6.834   2.313   1.614
 5264SOL    HW216692   6.717   2.285   1.725
 5265SOL     OW16693   6.450   4.572   4.358
 5265SOL    HW116694   6.538   4.618   4.370
 5265SOL    HW216695   6.391   4.626   4.298
 5266SOL     OW16696   2.134   0.644   0.866
 5266SOL    HW116697   2.034   0.641   0.866
 5266SOL    HW216698   2.170   0.551   0.855
 5267SOL     OW16699   5.282   2.677   4.216
 5267SOL    HW116700   5.267   2.591   4.166
 5267SOL    HW216701   5.197   2.704   4.262
 5268SOL     OW16702   5.854   0.647   6.144
 5268SOL    HW116703   5.815   0.691   6.064
 5268SOL    HW216704   5.859   0.712   6.219
 5269SOL     OW16705   0.517   6.179   3.783
 5269SOL    HW116706   0.538   6.081   3.787
 5269SOL    HW216707   0.556   6.218   3.700
 5270SOL     OW16708   0.399   2.292   6.288
 5270SOL    HW116709   0.465   2.277   6.362
 5270SOL    HW216710   0.409   2.385   6.253
 5271SOL     OW16711   6.793   5.386   3.577
 5271SOL    HW116712   6.815   5.476   3.538
 5271SOL    HW216713   6.831   5.315   3.517
 5272SOL     OW16714   4.745   0.889   0.333
 5272SOL    HW116715   4.708   0.798   0.356
 5272SOL    HW216716   4.669   0.952   0.317
 5273SOL     OW16717   0.441   2.744   3.131
 5273SOL    HW116718   0.477   2.712   3.044
 5273SOL    HW216719   0.432   2.666   3.193
 5274SOL     OW16720   4.637   5.139   2.015
 5274SOL    HW116721   4.542   5.143   1.986
 5274SOL    HW216722   4.646   5.077   2.092
 5275SOL     OW16723   4.181   1.421   6.338
 5275SOL    HW116724   4.125   1.469   6.271
 5275SOL    HW216725   4.195   1.479   6.418
 5276SOL     OW16726   4.116   6.061   2.767
 5276SOL    HW116727   4.158   6.127   2.705
 5276SOL    HW216728   4.023   6.042   2.737
 5277SOL     OW16729   2.169   2.376   1.593
 5277SOL    HW116730   2.124   2.313   1.656
 5277SOL    HW216731   2.197   2.459   1.642
 5278SOL     OW16732   4.607   4.854   0.991
 5278SOL    HW116733   4.545   4.827   1.065
 5278SOL    HW216734   4.642   4.772   0.946
 5279SOL     OW16735   3.095   5.637   1.924
 5279SOL    HW116736   3.002   5.666   1.903
 5279SOL    HW216737   3.130   5.579   1.850
 5280SOL     OW16738   4.598   6.472   4.519
 5280SOL    HW116739   4.602   6.373   4.525
 5280SOL    HW216740   4.519   6.499   4.464
 5281SOL     OW16741   0.246   1.783   1.667
 5281SOL    HW116742   0.181   1.723   1.622
 5281SOL    HW216743   0.339   1.757   1.641
 5282SOL     OW16744   4.026   1.918   2.677
 5282SOL    HW116745   3.987   2.004   2.644
 5282SOL    HW216746   4.079   1.935   2.759
 5283SOL     OW16747   4.982   4.671   6.333
 5283SOL    HW116748   5.012   4.753   6.381
 5283SOL    HW216749   4.985   4.687   6.234
 5284SOL     OW16750   5.433   2.869   3.428
 5284SOL    HW116751   5.358   2.804   3.415
 5284SOL    HW216752   5.404   2.942   3.490
 5285SOL     OW16753   3.362   5.610   3.219
 5285SOL    HW116754   3.271   5.569   3.223
 5285SOL    HW216755   3.406   5.584   3.133
 5286SOL     OW16756   2.196   4.673   1.416
 5286SOL    HW116757   2.102   4.642   1.408
 5286SOL    HW216758   2.199   4.755   1.473
 5287SOL     OW16759   1.633   1.878   1.233
 5287SOL    HW116760   1.582   1.844   1.154
 5287SOL    HW216761   1.670   1.969   1.213
 5288SOL     OW16762   3.752   0.099   1.109
 5288SOL    HW116763   3.810   0.018   1.111
 5288SOL    HW216764   3.674   0.086   1.170
 5289SOL     OW16765   1.905   5.146   1.247
 5289SOL    HW116766   1.970   5.078   1.212
 5289SOL    HW216767   1.861   5.111   1.330
 5290SOL     OW16768   4.735   6.178   0.827
 5290SOL    HW116769   4.794   6.184   0.907
 5290SOL    HW216770   4.645   6.216   0.848
 5291SOL     OW16771   1.774   5.214   6.063
 5291SOL    HW116772   1.813   5.291   6.115
 5291SOL    HW216773   1.836   5.189   5.989
 5292SOL     OW16774   4.322   2.991   6.320
 5292SOL    HW116775   4.240   2.993   6.377
 5292SOL    HW216776   4.373   2.907   6.339
 5293SOL     OW16777   0.653   0.000   4.223
 5293SOL    HW116778   0.668   0.007   4.322
 5293SOL    HW216779   0.733   0.037   4.176
 5294SOL     OW16780   5.137   1.997   5.371
 5294SOL    HW116781   5.090   1.992   5.459
 5294SOL    HW216782   5.098   1.929   5.309
 5295SOL     OW16783   6.189   1.173   1.729
 5295SOL    HW116784   6.229   1.090   1.691
 5295SOL    HW216785   6.198   1.248   1.664
 5296SOL     OW16786   0.925   4.415   0.616
 5296SOL    HW116787   0.991   4.436   0.543
 5296SOL    HW216788   0.972   4.367   0.690
 5297SOL     OW16789   2.086   2.745   1.350
 5297SOL    HW116790   2.181   2.728   1.378
 5297SOL    HW216791   2.027   2.741   1.430
 5298SOL     OW16792   1.028   5.234   1.036
 5298SOL    HW116793   1.068   5.257   1.125
 5298SOL    HW216794   0.954   5.168   1.050
 5299SOL     OW16795   2.646   0.434   2.463
 5299SOL    HW116796   2.631   0.347   2.510
 5299SOL    HW216797   2.741   0.461   2.472
 5300SOL     OW16798   6.814   5.184   3.348
 5300SOL    HW116799   6.824   5.248   3.272
 5300SOL    HW216800   6.744   5.117   3.327
 5301SOL     OW16801   4.072   1.433   0.168
 5301SOL    HW116802   3.992   1.380   0.140
 5301SOL    HW216803   4.043   1.508   0.227
 5302SOL     OW16804   6.459   4.537   3.050
 5302SOL    HW116805   6.442   4.599   3.127
 5302SOL    HW216806   6.483   4.447   3.084
 5303SOL     OW16807   0.740   4.864   3.554
 5303SOL    HW116808   0.713   4.960   3.546
 5303SOL    HW216809   0.691   4.810   3.486
 5304SOL     OW16810   5.337   1.964   5.804
 5304SOL    HW116811   5.332   1.869   5.775
 5304SOL    HW216812   5.263   2.016   5.762
 5305SOL     OW16813   2.824   1.143   3.272
 5305SOL    HW116814   2.738   1.121   3.226
 5305SOL    HW216815   2.805   1.166   3.368
 5306SOL     OW16816   2.351   0.157   5.725
 5306SOL    HW116817   2.289   0.227   5.688
 5306SOL    HW216818   2.431   0.201   5.765
 5307SOL     OW16819   5.132   7.004   6.680
 5307SOL    HW116820   5.135   0.060   6.741
 5307SOL    HW216821   5.216   7.000   6.627
 5308SOL     OW16822   0.118   0.753   2.815
 5308SOL    HW116823   0.197   0.799   2.856
 5308SOL    HW216824   0.056   0.821   2.776
 5309SOL     OW16825   3.574   3.883   3.532
 5309SOL    HW116826   3.662   3.909   3.491
 5309SOL    HW216827   3.540   3.959   3.587
 5310SOL     OW16828   4.873   2.178   1.188
 5310SOL    HW116829   4.880   2.226   1.101
 5310SOL    HW216830   4.796   2.113   1.184
 5311SOL     OW16831   1.199   5.995   0.337
 5311SOL    HW116832   1.263   6.072   0.342
 5311SOL    HW216833   1.171   5.981   0.241
 5312SOL     OW16834   0.520   3.292   2.540
 5312SOL    HW116835   0.599   3.234   2.558
 5312SOL    HW216836   0.521   3.321   2.444
 5313SOL     OW16837   1.448   5.763   0.870
 5313SOL    HW116838   1.375   5.703   0.835
 5313SOL    HW216839   1.453   5.846   0.815
 5314SOL     OW16840   3.537   5.264   0.432
 5314SOL    HW116841   3.488   5.342   0.472
 5314SOL    HW216842   3.602   5.297   0.364
 5315SOL     OW16843   5.218   2.477   2.457
 5315SOL    HW116844   5.277   2.399   2.479
 5315SOL    HW216845   5.207   2.483   2.358
 5316SOL     OW16846   6.182   5.041   4.031
 5316SOL    HW116847   6.216   5.020   4.123
 5316SOL    HW216848   6.235   4.989   3.964
 5317SOL     OW16849   5.757   5.911   2.474
 5317SOL    HW116850   5.716   5.826   2.506
 5317SOL    HW216851   5.788   5.965   2.553
 5318SOL     OW16852   0.050   2.714   4.948
 5318SOL    HW116853   0.124   2.777   4.974
 5318SOL    HW216854   0.064   2.626   4.993
 5319SOL     OW16855   4.211   7.018   1.044
 5319SOL    HW116856   4.163   6.975   0.968
 5319SOL    HW216857   4.310   7.018   1.026
 5320SOL     OW16858   5.437   3.073   5.798
 5320SOL    HW116859   5.493   3.091   5.879
 5320SOL    HW216860   5.496   3.061   5.718
 5321SOL     OW16861   1.523   5.130   5.965
 5321SOL    HW116862   1.481   5.044   5.993
 5321SOL    HW216863   1.610   5.143   6.014
 5322SOL     OW16864   3.506   6.126   0.253
 5322SOL    HW116865   3.576   6.097   0.319
 5322SOL    HW216866   3.476   6.219   0.274
 5323SOL     OW16867   5.769   3.356   0.504
 5323SOL    HW116868   5.762   3.266   0.548
 5323SOL    HW216869   5.698   3.364   0.434
 5324SOL     OW16870   3.336   3.607   1.780
 5324SOL    HW116871   3.321   3.611   1.879
 5324SOL    HW216872   3.271   3.543   1.740
 5325SOL     OW16873   4.944   6.096   3.365
 5325SOL    HW116874   4.877   6.049   3.421
 5325SOL    HW216875   4.935   6.066   3.270
 5326SOL     OW16876   6.739   6.652   2.007
 5326SOL    HW116877   6.747   6.720   1.934
 5326SOL    HW216878   6.692   6.571   1.972
 5327SOL     OW16879   6.693   0.652   4.242
 5327SOL    HW116880   6.616   0.668   4.180
 5327SOL    HW216881   6.731   0.740   4.271
 5328SOL     OW16882   3.942   5.032   1.269
 5328SOL    HW116883   3.953   4.986   1.357
 5328SOL    HW216884   3.846   5.034   1.243
 5329SOL     OW16885   6.853   4.965   6.766
 5329SOL    HW116886   6.886   5.058   6.747
 5329SOL    HW216887   6.912   4.923   6.835
 5330SOL     OW16888   4.582   4.091   0.125
 5330SOL    HW116889   4.569   4.042   0.211
 5330SOL    HW216890   4.664   4.147   0.131
 5331SOL     OW16891   4.951   2.948   6.877
 5331SOL    HW116892   4.958   2.992   6.787
 5331SOL    HW216893   4.992   3.007   6.946
 5332SOL     OW16894   5.956   2.627   0.122
 5332SOL    HW116895   5.981   2.609   0.027
 5332SOL    HW216896   5.971   2.724   0.143
 5333SOL     OW16897   1.773   2.054   4.102
 5333SOL    HW116898   1.732   2.067   4.192
 5333SOL    HW216899   1.806   1.960   4.094
 5334SOL     OW16900   4.144   5.359   1.879
 5334SOL    HW116901   4.068   5.393   1.935
 5334SOL    HW216902   4.141   5.404   1.789
 5335SOL     OW16903   6.911   4.213   1.391
 5335SOL    HW116904   6.958   4.160   1.321
 5335SOL    HW216905   6.944   4.307   1.390
 5336SOL     OW16906   1.743   3.095   4.362
 5336SOL    HW116907   1.744   3.115   4.460
 5336SOL    HW216908   1.666   3.142   4.319
 5337SOL     OW16909   5.841   5.299   0.619
 5337SOL    HW116910   5.771   5.341   0.560
 5337SOL    HW216911   5.896   5.236   0.565
 5338SOL     OW16912   6.176   3.399   0.985
 5338SOL    HW116913   6.083   3.400   1.022
 5338SOL    HW216914   6.180   3.336   0.907
 5339SOL     OW16915   5.253   3.806   2.834
 5339SOL    HW116916   5.313   3.856   2.771
 5339SOL    HW216917   5.171   3.777   2.785
 5340SOL     OW16918   6.030   2.964   2.892
 5340SOL    HW116919   6.048   2.882   2.945
 5340SOL    HW216920   5.931   2.976   2.881
 5341SOL     OW16921   4.460   5.262   3.703
 5341SOL    HW116922   4.542   5.292   3.752
 5341SOL    HW216923   4.379   5.279   3.760
 5342SOL     OW16924   5.720   6.859   4.545
 5342SOL    HW116925   5.748   6.903   4.460
 5342SOL    HW216926   5.786   6.788   4.569
 5343SOL     OW16927   3.183   3.281   6.798
 5343SOL    HW116928   3.144   3.372   6.786
 5343SOL    HW216929   3.128   3.215   6.747
 5344SOL     OW16930   1.061   2.074   6.543
 5344SOL    HW116931   1.148   2.061   6.590
 5344SOL    HW216932   1.007   1.990   6.549
 5345SOL     OW16933   4.649   1.583   0.014
 5345SOL    HW116934   4.573   1.545   0.067
 5345SOL    HW216935   4.721   1.614   0.077
 5346SOL     OW16936   3.081   6.270   4.048
 5346SOL    HW116937   3.165   6.324   4.050
 5346SOL    HW216938   3.006   6.326   4.011
 5347SOL     OW16939   6.466   2.074   4.136
 5347SOL    HW116940   6.477   2.132   4.216
 5347SOL    HW216941   6.444   1.981   4.166
 5348SOL     OW16942   5.519   2.551   3.447
 5348SOL    HW116943   5.556   2.641   3.471
 5348SOL    HW216944   5.498   2.548   3.350
 5349SOL     OW16945   0.763   3.661   2.137
 5349SOL    HW116946   0.676   3.688   2.178
 5349SOL    HW216947   0.787   3.569   2.168
 5350SOL     OW16948   1.132   6.913   0.247
 5350SOL    HW116949   1.187   6.838   0.210
 5350SOL    HW216950   1.180   6.999   0.236
 5351SOL     OW16951   6.656   6.467   3.182
 5351SOL    HW116952   6.708   6.429   3.106
 5351SOL    HW216953   6.571   6.507   3.148
 5352SOL     OW16954   1.416   3.207   5.277
 5352SOL    HW116955   1.333   3.160   5.309
 5352SOL    HW216956   1.445   3.273   5.347
 5353SOL     OW16957   3.852   5.384   3.516
 5353SOL    HW116958   3.946   5.376   3.483
 5353SOL    HW216959   3.847   5.453   3.588
 5354SOL     OW16960   4.861   5.764   0.571
 5354SOL    HW116961   4.804   5.831   0.618
 5354SOL    HW216962   4.913   5.710   0.637
 5355SOL     OW16963   5.276   4.595   5.193
 5355SOL    HW116964   5.373   4.578   5.179
 5355SOL    HW216965   5.246   4.671   5.135
 5356SOL     OW16966   0.419   5.153   0.682
 5356SOL    HW116967   0.371   5.167   0.595
 5356SOL    HW216968   0.355   5.158   0.758
 5357SOL     OW16969   5.809   3.509   2.511
 5357SOL    HW116970   5.821   3.415   2.543
 5357SOL    HW216971   5.898   3.555   2.508
 5358SOL     OW16972   4.156   1.600   6.971
 5358SOL    HW116973   4.091   1.597   0.024
 5358SOL    HW216974   4.204   1.513   6.965
 5359SOL     OW16975   3.866   2.450   6.891
 5359SOL    HW116976   3.836   2.468   6.797
 5359SOL    HW216977   3.960   2.415   6.890
 5360SOL     OW16978   5.601   4.588   3.755
 5360SOL    HW116979   5.564   4.534   3.680
 5360SOL    HW216980   5.698   4.566   3.768
 5361SOL     OW16981   2.421   5.505   2.290
 5361SOL    HW116982   2.477   5.424   2.310
 5361SOL    HW216983   2.327   5.477   2.270
 5362SOL     OW16984   5.247   0.742   2.181
 5362SOL    HW116985   5.192   0.663   2.207
 5362SOL    HW216986   5.289   0.726   2.092
 5363SOL     OW16987   5.568   5.632   3.033
 5363SOL    HW116988   5.575   5.551   3.091
 5363SOL    HW216989   5.517   5.703   3.081
 5364SOL     OW16990   4.979   1.336   2.694
 5364SOL    HW116991   5.016   1.285   2.771
 5364SOL    HW216992   4.955   1.428   2.723
 5365SOL     OW16993   3.204   3.074   3.951
 5365SOL    HW116994   3.202   3.173   3.934
 5365SOL    HW216995   3.144   3.053   4.029
 5366SOL     OW16996   6.192   5.768   2.529
 5366SOL    HW116997   6.098   5.734   2.526
 5366SOL    HW216998   6.237   5.734   2.611
 5367SOL     OW16999   6.484   6.165   1.592
 5367SOL    HW117000   6.457   6.071   1.615
 5367SOL    HW217001   6.467   6.224   1.670
 5368SOL     OW17002   6.472   5.990   4.167
 5368SOL    HW117003   6.462   6.019   4.072
 5368SOL    HW217004   6.382   5.968   4.205
 5369SOL     OW17005   3.104   5.355   2.979
 5369SOL    HW117006   3.013   5.394   2.967
 5369SOL    HW217007   3.129   5.303   2.897
 5370SOL     OW17008   1.565   3.587   0.834
 5370SOL    HW117009   1.504   3.667   0.832
 5370SOL    HW217010   1.514   3.506   0.806
 5371SOL     OW17011   5.414   5.411   4.562
 5371SOL    HW117012   5.481   5.458   4.620
 5371SOL    HW217013   5.427   5.312   4.569
 5372SOL     OW17014   1.772   6.615   3.014
 5372SOL    HW117015   1.806   6.703   2.978
 5372SOL    HW217016   1.674   6.623   3.034
 5373SOL     OW17017   3.169   1.755   6.789
 5373SOL    HW117018   3.151   1.832   6.851
 5373SOL    HW217019   3.132   1.776   6.698
 5374SOL     OW17020   1.716   4.566   2.324
 5374SOL    HW117021   1.727   4.646   2.383
 5374SOL    HW217022   1.651   4.503   2.365
 5375SOL     OW17023   2.046   4.320   4.950
 5375SOL    HW117024   2.131   4.323   5.002
 5375SOL    HW217025   2.063   4.279   4.860
 5376SOL     OW17026   0.295   0.378   5.920
 5376SOL    HW117027   0.286   0.279   5.931
 5376SOL    HW217028   0.391   0.404   5.930
 5377SOL     OW17029   2.073   1.006   3.060
 5377SOL    HW117030   1.982   0.964   3.071
 5377SOL    HW217031   2.078   1.087   3.118
 5378SOL     OW17032   4.607   0.739   2.456
 5378SOL    HW117033   4.659   0.821   2.429
 5378SOL    HW217034   4.636   0.711   2.547
 5379SOL     OW17035   1.677   1.968   5.392
 5379SOL    HW117036   1.675   1.898   5.464
 5379SOL    HW217037   1.763   2.019   5.399
 5380SOL     OW17038   4.660   6.324   1.642
 5380SOL    HW117039   4.608   6.260   1.697
 5380SOL    HW217040   4.598   6.385   1.593
 5381SOL     OW17041   4.267   0.304   4.246
 5381SOL    HW117042   4.277   0.399   4.215
 5381SOL    HW217043   4.295   0.242   4.172
 5382SOL     OW17044   4.575   1.460   1.368
 5382SOL    HW117045   4.623   1.501   1.446
 5382SOL    HW217046   4.638   1.448   1.292
 5383SOL     OW17047   2.566   2.530   4.722
 5383SOL    HW117048   2.590   2.627   4.719
 5383SOL    HW217049   2.488   2.517   4.783
 5384SOL     OW17050   5.749   5.255   4.537
 5384SOL    HW117051   5.797   5.339   4.564
 5384SOL    HW217052   5.720   5.263   4.441
 5385SOL     OW17053   3.865   3.314   6.228
 5385SOL    HW117054   3.962   3.335   6.219
 5385SOL    HW217055   3.841   3.306   6.325
 5386SOL     OW17056   5.406   4.605   4.751
 5386SOL    HW117057   5.349   4.685   4.736
 5386SOL    HW217058   5.435   4.568   4.662
 5387SOL     OW17059   1.273   1.708   3.853
 5387SOL    HW117060   1.298   1.665   3.767
 5387SOL    HW217061   1.175   1.699   3.868
 5388SOL     OW17062   0.460   6.477   2.593
 5388SOL    HW117063   0.538   6.475   2.655
 5388SOL    HW217064   0.444   6.570   2.561
 5389SOL     OW17065   4.537   2.107   4.278
 5389SOL    HW117066   4.552   2.020   4.230
 5389SOL    HW217067   4.483   2.168   4.219
 5390SOL     OW17068   0.288   2.858   3.339
 5390SOL    HW117069   0.337   2.834   3.255
 5390SOL    HW217070   0.206   2.911   3.316
 5391SOL     OW17071   3.016   3.078   0.642
 5391SOL    HW117072   3.067   3.136   0.579
 5391SOL    HW217073   3.033   3.107   0.736
 5392SOL     OW17074   5.322   1.544   3.792
 5392SOL    HW117075   5.272   1.492   3.723
 5392SOL    HW217076   5.406   1.495   3.816
 5393SOL     OW17077   4.756   1.891   4.631
 5393SOL    HW117078   4.843   1.882   4.679
 5393SOL    HW217079   4.732   1.988   4.623
 5394SOL     OW17080   1.390   1.949   1.711
 5394SOL    HW117081   1.406   1.909   1.620
 5394SOL    HW217082   1.293   1.973   1.720
 5395SOL     OW17083   6.764   1.778   0.562
 5395SOL    HW117084   6.724   1.870   0.556
 5395SOL    HW217085   6.792   1.748   0.471
 5396SOL     OW17086   4.612   3.945   0.360
 5396SOL    HW117087   4.533   3.911   0.411
 5396SOL    HW217088   4.694   3.941   0.418
 5397SOL     OW17089   0.402   1.235   2.361
 5397SOL    HW117090   0.305   1.255   2.348
 5397SOL    HW217091   0.417   1.137   2.349
 5398SOL     OW17092   6.192   1.935   2.533
 5398SOL    HW117093   6.131   1.938   2.453
 5398SOL    HW217094   6.143   1.967   2.614
 5399SOL     OW17095   1.806   1.792   0.274
 5399SOL    HW117096   1.781   1.695   0.273
 5399SOL    HW217097   1.839   1.817   0.365
 5400SOL     OW17098   4.958   3.487   1.774
 5400SOL    HW117099   5.053   3.456   1.770
 5400SOL    HW217100   4.898   3.409   1.793
 5401SOL     OW17101   5.867   2.480   1.395
 5401SOL    HW117102   5.784   2.439   1.356
 5401SOL    HW217103   5.843   2.565   1.441
 5402SOL     OW17104   1.860   6.464   2.075
 5402SOL    HW117105   1.936   6.436   2.017
 5402SOL    HW217106   1.782   6.403   2.060
 5403SOL     OW17107   5.008   3.190   0.066
 5403SOL    HW117108   5.009   3.252   0.145
 5403SOL    HW217109   5.071   3.224   7.020
 5404SOL     OW17110   5.886   0.623   0.073
 5404SOL    HW117111   5.799   0.649   0.115
 5404SOL    HW217112   5.894   0.665   7.007
 5405SOL     OW17113   0.460   5.424   0.390
 5405SOL    HW117114   0.430   5.328   0.397
 5405SOL    HW217115   0.427   5.474   0.470
 5406SOL     OW17116   2.398   0.960   5.907
 5406SOL    HW117117   2.323   0.927   5.965
 5406SOL    HW217118   2.360   1.002   5.824
 5407SOL     OW17119   2.111   6.976   3.023
 5407SOL    HW117120   2.133   0.012   3.101
 5407SOL    HW217121   2.013   6.958   3.021
 5408SOL     OW17122   3.102   1.644   4.262
 5408SOL    HW117123   3.051   1.639   4.176
 5408SOL    HW217124   3.200   1.641   4.243
 5409SOL     OW17125   0.829   3.426   2.250
 5409SOL    HW117126   0.858   3.424   2.346
 5409SOL    HW217127   0.761   3.354   2.235
 5410SOL     OW17128   0.843   2.695   1.002
 5410SOL    HW117129   0.934   2.701   0.962
 5410SOL    HW217130   0.818   2.783   1.041
 5411SOL     OW17131   3.090   5.360   0.131
 5411SOL    HW117132   3.109   5.293   0.203
 5411SOL    HW217133   3.081   5.450   0.172
 5412SOL     OW17134   0.229   2.116   5.888
 5412SOL    HW117135   0.246   2.081   5.980
 5412SOL    HW217136   0.210   2.214   5.893
 5413SOL     OW17137   0.099   6.276   4.345
 5413SOL    HW117138   0.105   6.281   4.245
 5413SOL    HW217139   0.068   6.365   4.380
 5414SOL     OW17140   5.317   4.812   5.364
 5414SOL    HW117141   5.238   4.761   5.397
 5414SOL    HW217142   5.379   4.750   5.316
 5415SOL     OW17143   4.249   0.999   0.424
 5415SOL    HW117144   4.171   1.033   0.478
 5415SOL    HW217145   4.263   1.059   0.345
 5416SOL     OW17146   3.292   5.829   6.612
 5416SOL    HW117147   3.356   5.803   6.540
 5416SOL    HW217148   3.258   5.922   6.595
 5417SOL     OW17149   4.414   7.005   4.668
 5417SOL    HW117150   4.378   6.912   4.660
 5417SOL    HW217151   4.392   0.033   4.585
 5418SOL     OW17152   6.870   3.284   4.867
 5418SOL    HW117153   6.938   3.251   4.801
 5418SOL    HW217154   6.905   3.367   4.911
 5419SOL     OW17155   4.684   0.317   5.925
 5419SOL    HW117156   4.695   0.291   5.829
 5419SOL    HW217157   4.607   0.267   5.964
 5420SOL     OW17158   0.921   1.341   1.891
 5420SOL    HW117159   0.981   1.386   1.825
 5420SOL    HW217160   0.827   1.372   1.879
 5421SOL     OW17161   3.799   4.874   2.136
 5421SOL    HW117162   3.737   4.825   2.073
 5421SOL    HW217163   3.833   4.957   2.091
 5422SOL     OW17164   2.627   5.108   3.636
 5422SOL    HW117165   2.582   5.182   3.687
 5422SOL    HW217166   2.670   5.045   3.700
 5423SOL     OW17167   5.533   6.320   2.392
 5423SOL    HW117168   5.447   6.371   2.385
 5423SOL    HW217169   5.545   6.264   2.311
 5424SOL     OW17170   4.243   3.952   5.605
 5424SOL    HW117171   4.242   4.043   5.566
 5424SOL    HW217172   4.204   3.887   5.540
 5425SOL     OW17173   1.570   4.035   5.733
 5425SOL    HW117174   1.651   3.995   5.775
 5425SOL    HW217175   1.491   4.024   5.794
 5426SOL     OW17176   6.459   5.492   1.376
 5426SOL    HW117177   6.522   5.452   1.311
 5426SOL    HW217178   6.365   5.470   1.349
 5427SOL     OW17179   4.269   2.607   6.507
 5427SOL    HW117180   4.188   2.640   6.458
 5427SOL    HW217181   4.351   2.644   6.464
 5428SOL     OW17182   5.754   5.613   2.275
 5428SOL    HW117183   5.842   5.566   2.277
 5428SOL    HW217184   5.681   5.549   2.297
 5429SOL     OW17185   3.340   0.450   5.021
 5429SOL    HW117186   3.427   0.454   4.973
 5429SOL    HW217187   3.352   0.479   5.116
 5430SOL     OW17188   2.759   3.902   5.477
 5430SOL    HW117189   2.679   3.876   5.422
 5430SOL    HW217190   2.759   3.849   5.562
 5431SOL     OW17191   3.845   4.152   0.569
 5431SOL    HW117192   3.759   4.201   0.553
 5431SOL    HW217193   3.829   4.054   0.563
 5432SOL     OW17194   0.237   5.549   6.824
 5432SOL    HW117195   0.157   5.601   6.854
 5432SOL    HW217196   0.251   5.562   6.725
 5433SOL     OW17197   2.422   0.834   1.518
 5433SOL    HW117198   2.414   0.906   1.449
 5433SOL    HW217199   2.392   0.870   1.607
 5434SOL     OW17200   5.283   0.852   5.208
 5434SOL    HW117201   5.189   0.883   5.195
 5434SOL    HW217202   5.296   0.764   5.161
 5435SOL     OW17203   6.491   4.736   0.801
 5435SOL    HW117204   6.589   4.715   0.802
 5435SOL    HW217205   6.478   4.833   0.778
 5436SOL     OW17206   0.870   4.085   3.156
 5436SOL    HW117207   0.832   4.142   3.229
 5436SOL    HW217208   0.921   4.142   3.092
 5437SOL     OW17209   4.215   5.431   1.618
 5437SOL    HW117210   4.224   5.531   1.613
 5437SOL    HW217211   4.302   5.390   1.645
 5438SOL     OW17212   4.927   5.786   2.376
 5438SOL    HW117213   4.944   5.848   2.299
 5438SOL    HW217214   4.848   5.818   2.428
 5439SOL     OW17215   0.776   4.776   1.985
 5439SOL    HW117216   0.720   4.791   2.067
 5439SOL    HW217217   0.784   4.862   1.934
 5440SOL     OW17218   6.229   6.925   3.665
 5440SOL    HW117219   6.184   6.992   3.724
 5440SOL    HW217220   6.243   6.840   3.715
 5441SOL     OW17221   5.901   3.365   3.735
 5441SOL    HW117222   5.889   3.268   3.717
 5441SOL    HW217223   5.929   3.412   3.651
 5442SOL     OW17224   3.838   7.004   5.831
 5442SOL    HW117225   3.842   0.049   5.903
 5442SOL    HW217226   3.773   6.932   5.857
 5443SOL     OW17227   4.480   1.029   3.411
 5443SOL    HW117228   4.527   1.115   3.431
 5443SOL    HW217229   4.429   1.038   3.325
 5444SOL     OW17230   6.302   1.507   5.197
 5444SOL    HW117231   6.302   1.408   5.187
 5444SOL    HW217232   6.211   1.543   5.176
 5445SOL     OW17233   6.062   6.118   4.982
 5445SOL    HW117234   6.104   6.056   5.049
 5445SOL    HW217235   6.074   6.212   5.013
 5446SOL     OW17236   7.021   4.354   5.986
 5446SOL    HW117237   0.093   4.358   5.958
 5446SOL    HW217238   6.975   4.280   5.937
 5447SOL     OW17239   0.366   2.405   1.021
 5447SOL    HW117240   0.386   2.335   1.090
 5447SOL    HW217241   0.327   2.485   1.066
 5448SOL     OW17242   4.906   4.843   2.897
 5448SOL    HW117243   4.987   4.902   2.895
 5448SOL    HW217244   4.833   4.888   2.949
 5449SOL     OW17245   3.125   0.809   1.901
 5449SOL    HW117246   3.166   0.865   1.829
 5449SOL    HW217247   3.151   0.714   1.888
 5450SOL     OW17248   4.800   5.504   1.265
 5450SOL    HW117249   4.840   5.503   1.356
 5450SOL    HW217250   4.862   5.459   1.201
 5451SOL     OW17251   6.656   0.182   2.751
 5451SOL    HW117252   6.576   0.242   2.745
 5451SOL    HW217253   6.702   0.198   2.839
 5452SOL     OW17254   2.122   4.529   2.032
 5452SOL    HW117255   2.085   4.458   2.091
 5452SOL    HW217256   2.209   4.498   1.993
 5453SOL     OW17257   5.793   3.829   2.997
 5453SOL    HW117258   5.718   3.782   3.042
 5453SOL    HW217259   5.786   3.818   2.898
 5454SOL     OW17260   6.163   4.291   2.721
 5454SOL    HW117261   6.191   4.354   2.793
 5454SOL    HW217262   6.172   4.336   2.632
 5455SOL     OW17263   2.048   1.670   4.004
 5455SOL    HW117264   2.008   1.614   3.932
 5455SOL    HW217265   2.083   1.612   4.077
 5456SOL     OW17266   5.582   1.754   1.104
 5456SOL    HW117267   5.629   1.667   1.118
 5456SOL    HW217268   5.619   1.823   1.166
 5457SOL     OW17269   5.654   1.372   6.736
 5457SOL    HW117270   5.624   1.372   6.640
 5457SOL    HW217271   5.640   1.281   6.775
 5458SOL     OW17272   5.992   3.442   0.370
 5458SOL    HW117273   5.920   3.396   0.421
 5458SOL    HW217274   6.081   3.411   0.404
 5459SOL     OW17275   1.739   3.114   5.456
 5459SOL    HW117276   1.818   3.062   5.423
 5459SOL    HW217277   1.699   3.067   5.535
 5460SOL     OW17278   1.279   1.226   1.321
 5460SOL    HW117279   1.336   1.158   1.367
 5460SOL    HW217280   1.198   1.181   1.284
 5461SOL     OW17281   6.323   1.326   5.452
 5461SOL    HW117282   6.404   1.384   5.454
 5461SOL    HW217283   6.313   1.285   5.361
 5462SOL     OW17284   4.593   3.975   6.464
 5462SOL    HW117285   4.561   3.880   6.462
 5462SOL    HW217286   4.639   3.992   6.551
 5463SOL     OW17287   0.899   2.884   6.661
 5463SOL    HW117288   0.876   2.787   6.663
 5463SOL    HW217289   0.998   2.895   6.673
 5464SOL     OW17290   1.001   5.751   5.807
 5464SOL    HW117291   1.081   5.692   5.802
 5464SOL    HW217292   0.946   5.726   5.887
 5465SOL     OW17293   6.944   6.524   4.467
 5465SOL    HW117294   6.897   6.471   4.396
 5465SOL    HW217295   6.887   6.530   4.548
 5466SOL     OW17296   5.959   2.664   5.456
 5466SOL    HW117297   6.051   2.689   5.428
 5466SOL    HW217298   5.931   2.579   5.411
 5467SOL     OW17299   4.763   2.799   4.299
 5467SOL    HW117300   4.694   2.765   4.363
 5467SOL    HW217301   4.718   2.826   4.214
 5468SOL     OW17302   6.896   1.163   1.199
 5468SOL    HW117303   6.858   1.250   1.170
 5468SOL    HW217304   6.886   1.096   1.125
 5469SOL     OW17305   3.204   0.017   5.038
 5469SOL    HW117306   3.111   7.004   5.042
 5469SOL    HW217307   3.269   6.965   5.028
 5470SOL     OW17308   3.300   5.214   3.159
 5470SOL    HW117309   3.228   5.282   3.154
 5470SOL    HW217310   3.355   5.218   3.075
 5471SOL     OW17311   4.287   0.619   3.383
 5471SOL    HW117312   4.250   0.696   3.436
 5471SOL    HW217313   4.374   0.591   3.423
 5472SOL     OW17314   2.105   2.390   6.839
 5472SOL    HW117315   2.164   2.411   6.917
 5472SOL    HW217316   2.161   2.379   6.757
 5473SOL     OW17317   2.759   4.557   1.623
 5473SOL    HW117318   2.817   4.526   1.699
 5473SOL    HW217319   2.785   4.509   1.540
 5474SOL     OW17320   0.549   5.134   2.995
 5474SOL    HW117321   0.550   5.034   2.982
 5474SOL    HW217322   0.582   5.178   2.912
 5475SOL     OW17323   0.067   1.572   5.450
 5475SOL    HW117324   0.127   1.546   5.525
 5475SOL    HW217325   0.094   1.661   5.414
 5476SOL     OW17326   2.643   6.947   5.569
 5476SOL    HW117327   2.725   6.892   5.553
 5476SOL    HW217328   2.564   6.902   5.526
 5477SOL     OW17329   1.144   4.486   4.394
 5477SOL    HW117330   1.076   4.489   4.320
 5477SOL    HW217331   1.166   4.390   4.414
 5478SOL     OW17332   5.093   4.525   5.850
 5478SOL    HW117333   5.125   4.618   5.832
 5478SOL    HW217334   5.029   4.526   5.927
 5479SOL     OW17335   4.588   1.191   4.793
 5479SOL    HW117336   4.664   1.150   4.845
 5479SOL    HW217337   4.525   1.119   4.765
 5480SOL     OW17338   0.266   4.152   3.960
 5480SOL    HW117339   0.247   4.055   3.943
 5480SOL    HW217340   0.351   4.160   4.013
 5481SOL     OW17341   4.199   1.040   6.594
 5481SOL    HW117342   4.213   1.039   6.693
 5481SOL    HW217343   4.233   0.955   6.554
 5482SOL     OW17344   4.925   2.688   1.295
 5482SOL    HW117345   4.890   2.699   1.389
 5482SOL    HW217346   4.900   2.768   1.241
 5483SOL     OW17347   6.836   3.194   6.225
 5483SOL    HW117348   6.904   3.192   6.152
 5483SOL    HW217349   6.843   3.281   6.275
 5484SOL     OW17350   6.213   0.073   4.415
 5484SOL    HW117351   6.309   0.069   4.390
 5484SOL    HW217352   6.180   7.006   4.439
 5485SOL     OW17353   3.248   6.913   5.329
 5485SOL    HW117354   3.196   6.998   5.344
 5485SOL    HW217355   3.197   6.853   5.267
 5486SOL     OW17356   0.459   0.873   3.288
 5486SOL    HW117357   0.396   0.950   3.298
 5486SOL    HW217358   0.408   0.791   3.262
 5487SOL     OW17359   5.112   5.306   0.622
 5487SOL    HW117360   5.081   5.369   0.693
 5487SOL    HW217361   5.189   5.252   0.657
 5488SOL     OW17362   5.543   1.381   6.496
 5488SOL    HW117363   5.525   1.471   6.454
 5488SOL    HW217364   5.534   1.310   6.426
 5489SOL     OW17365   1.374   3.791   2.975
 5489SOL    HW117366   1.403   3.864   2.913
 5489SOL    HW217367   1.454   3.750   3.018
 5490SOL     OW17368   2.144   1.397   0.302
 5490SOL    HW117369   2.154   1.477   0.362
 5490SOL    HW217370   2.228   1.343   0.303
 5491SOL     OW17371   1.151   4.905   0.744
 5491SOL    HW117372   1.090   4.859   0.679
 5491SOL    HW217373   1.245   4.874   0.730
 5492SOL     OW17374   0.912   1.687   6.090
 5492SOL    HW117375   0.929   1.767   6.147
 5492SOL    HW217376   0.916   1.604   6.145
 5493SOL     OW17377   3.298   3.200   0.036
 5493SOL    HW117378   3.369   3.133   0.017
 5493SOL    HW217379   3.260   3.233   6.973
 5494SOL     OW17380   5.928   2.958   2.160
 5494SOL    HW117381   5.988   3.019   2.212
 5494SOL    HW217382   5.918   2.992   2.067
 5495SOL     OW17383   3.781   3.326   2.399
 5495SOL    HW117384   3.877   3.298   2.400
 5495SOL    HW217385   3.731   3.276   2.469
 5496SOL     OW17386   4.189   5.910   1.456
 5496SOL    HW117387   4.125   5.966   1.403
 5496SOL    HW217388   4.209   5.955   1.543
 5497SOL     OW17389   6.730   0.133   1.719
 5497SOL    HW117390   6.697   0.149   1.812
 5497SOL    HW217391   6.672   0.065   1.674
 5498SOL     OW17392   4.220   1.139   5.649
 5498SOL    HW117393   4.308   1.143   5.697
 5498SOL    HW217394   4.182   1.047   5.658
 5499SOL     OW17395   6.970   1.265   3.117
 5499SOL    HW117396   6.874   1.295   3.117
 5499SOL    HW217397   0.005   1.340   3.147
 5500SOL     OW17398   2.616   5.451   1.637
 5500SOL    HW117399   2.523   5.415   1.639
 5500SOL    HW217400   2.620   5.537   1.687
 5501SOL     OW17401   2.932   6.964   2.528
 5501SOL    HW117402   2.977   6.937   2.442
 5501SOL    HW217403   2.850   7.017   2.507
 5502SOL     OW17404   5.239   3.718   5.618
 5502SOL    HW117405   5.148   3.749   5.588
 5502SOL    HW217406   5.301   3.797   5.619
 5503SOL     OW17407   1.258   5.279   3.506
 5503SOL    HW117408   1.236   5.190   3.547
 5503SOL    HW217409   1.292   5.265   3.413
 5504SOL     OW17410   3.189   2.035   5.039
 5504SOL    HW117411   3.165   2.131   5.053
 5504SOL    HW217412   3.277   2.029   4.991
 5505SOL     OW17413   2.749   5.575   5.582
 5505SOL    HW117414   2.725   5.553   5.676
 5505SOL    HW217415   2.832   5.525   5.556
 5506SOL     OW17416   5.931   0.386   5.625
 5506SOL    HW117417   5.887   0.416   5.541
 5506SOL    HW217418   6.011   0.330   5.602
 5507SOL     OW17419   2.203   6.245   3.903
 5507SOL    HW117420   2.134   6.203   3.962
 5507SOL    HW217421   2.294   6.213   3.931
 5508SOL     OW17422   3.027   0.882   6.744
 5508SOL    HW117423   3.066   0.927   6.664
 5508SOL    HW217424   3.066   0.790   6.753
 5509SOL     OW17425   5.698   6.615   6.700
 5509SOL    HW117426   5.712   6.593   6.797
 5509SOL    HW217427   5.764   6.564   6.645
 5510SOL     OW17428   5.226   0.989   5.915
 5510SOL    HW117429   5.145   0.972   5.972
 5510SOL    HW217430   5.202   0.979   5.819
 5511SOL     OW17431   0.701   0.828   2.275
 5511SOL    HW117432   0.724   0.827   2.178
 5511SOL    HW217433   0.740   0.747   2.319
 5512SOL     OW17434   1.522   0.445   0.253
 5512SOL    HW117435   1.464   0.453   0.172
 5512SOL    HW217436   1.466   0.450   0.336
 5513SOL     OW17437   4.780   4.327   4.410
 5513SOL    HW117438   4.699   4.384   4.420
 5513SOL    HW217439   4.759   4.248   4.353
 5514SOL     OW17440   5.607   4.646   2.384
 5514SOL    HW117441   5.688   4.646   2.443
 5514SOL    HW217442   5.525   4.628   2.439
 5515SOL     OW17443   6.829   2.872   1.394
 5515SOL    HW117444   6.885   2.825   1.326
 5515SOL    HW217445   6.761   2.929   1.347
 5516SOL     OW17446   1.092   3.788   6.246
 5516SOL    HW117447   1.104   3.886   6.257
 5516SOL    HW217448   1.174   3.748   6.205
 5517SOL     OW17449   2.377   1.831   1.891
 5517SOL    HW117450   2.375   1.860   1.795
 5517SOL    HW217451   2.382   1.911   1.950
 5518SOL     OW17452   6.253   4.810   5.163
 5518SOL    HW117453   6.330   4.772   5.112
 5518SOL    HW217454   6.259   4.909   5.164
 5519SOL     OW17455   5.509   4.231   4.258
 5519SOL    HW117456   5.445   4.189   4.194
 5519SOL    HW217457   5.546   4.161   4.319
 5520SOL     OW17458   1.794   4.158   1.921
 5520SOL    HW117459   1.765   4.147   1.826
 5520SOL    HW217460   1.852   4.081   1.948
 5521SOL     OW17461   6.108   5.420   1.454
 5521SOL    HW117462   6.085   5.368   1.535
 5521SOL    HW217463   6.068   5.512   1.460
 5522SOL     OW17464   2.321   3.656   1.671
 5522SOL    HW117465   2.317   3.581   1.737
 5522SOL    HW217466   2.320   3.618   1.578
 5523SOL     OW17467   2.860   0.243   2.272
 5523SOL    HW117468   2.777   0.295   2.252
 5523SOL    HW217469   2.914   0.291   2.342
 5524SOL     OW17470   0.128   5.273   6.420
 5524SOL    HW117471   0.038   5.243   6.388
 5524SOL    HW217472   0.172   5.198   6.469
 5525SOL     OW17473   6.678   5.532   5.220
 5525SOL    HW117474   6.729   5.526   5.306
 5525SOL    HW217475   6.715   5.606   5.164
 5526SOL     OW17476   6.199   3.226   4.488
 5526SOL    HW117477   6.204   3.309   4.544
 5526SOL    HW217478   6.203   3.250   4.391
 5527SOL     OW17479   1.623   3.670   1.479
 5527SOL    HW117480   1.628   3.732   1.402
 5527SOL    HW217481   1.575   3.714   1.555
 5528SOL     OW17482   0.741   3.438   4.111
 5528SOL    HW117483   0.818   3.400   4.060
 5528SOL    HW217484   0.720   3.529   4.077
 5529SOL     OW17485   2.520   1.641   5.049
 5529SOL    HW117486   2.581   1.687   4.985
 5529SOL    HW217487   2.511   1.696   5.131
 5530SOL     OW17488   1.008   2.868   0.596
 5530SOL    HW117489   0.911   2.843   0.598
 5530SOL    HW217490   1.060   2.796   0.551
 5531SOL     OW17491   3.625   2.889   5.787
 5531SOL    HW117492   3.720   2.909   5.764
 5531SOL    HW217493   3.621   2.805   5.842
 5532SOL     OW17494   2.511   1.673   1.307
 5532SOL    HW117495   2.577   1.720   1.249
 5532SOL    HW217496   2.557   1.634   1.387
 5533SOL     OW17497   3.696   1.059   1.270
 5533SOL    HW117498   3.745   1.129   1.322
 5533SOL    HW217499   3.653   0.995   1.333
 5534SOL     OW17500   6.994   4.345   6.788
 5534SOL    HW117501   7.016   4.247   6.792
 5534SOL    HW217502   0.018   4.393   6.860
 5535SOL     OW17503   6.265   3.151   2.610
 5535SOL    HW117504   6.277   3.066   2.661
 5535SOL    HW217505   6.323   3.148   2.528
 5536SOL     OW17506   2.581   0.430   3.928
 5536SOL    HW117507   2.615   0.460   3.839
 5536SOL    HW217508   2.651   0.376   3.974
 5537SOL     OW17509   4.233   0.248   5.236
 5537SOL    HW117510   4.306   0.299   5.189
 5537SOL    HW217511   4.145   0.291   5.216
 5538SOL     OW17512   4.472   1.912   6.746
 5538SOL    HW117513   4.392   1.852   6.746
 5538SOL    HW217514   4.527   1.895   6.665
 5539SOL     OW17515   2.835   6.639   0.987
 5539SOL    HW117516   2.819   6.705   1.060
 5539SOL    HW217517   2.913   6.667   0.932
 5540SOL     OW17518   5.140   1.428   0.176
 5540SOL    HW117519   5.091   1.463   0.096
 5540SOL    HW217520   5.091   1.349   0.214
 5541SOL     OW17521   4.238   3.704   6.744
 5541SOL    HW117522   4.332   3.689   6.774
 5541SOL    HW217523   4.221   3.653   6.659
 5542SOL     OW17524   5.201   4.341   6.333
 5542SOL    HW117525   5.213   4.432   6.372
 5542SOL    HW217526   5.225   4.342   6.236
 5543SOL     OW17527   1.726   0.489   1.026
 5543SOL    HW117528   1.695   0.508   1.118
 5543SOL    HW217529   1.648   0.480   0.964
 5544SOL     OW17530   4.314   5.595   6.152
 5544SOL    HW117531   4.265   5.681   6.162
 5544SOL    HW217532   4.339   5.583   6.056
 5545SOL     OW17533   4.319   0.556   3.099
 5545SOL    HW117534   4.223   0.542   3.074
 5545SOL    HW217535   4.328   0.559   3.198
 5546SOL     OW17536   0.226   6.227   5.891
 5546SOL    HW117537   0.169   6.298   5.851
 5546SOL    HW217538   0.275   6.179   5.818
 5547SOL     OW17539   5.306   1.897   5.017
 5547SOL    HW117540   5.255   1.936   4.940
 5547SOL    HW217541   5.283   1.801   5.027
 5548SOL     OW17542   0.021   4.077   4.953
 5548SOL    HW117543   7.001   4.094   5.041
 5548SOL    HW217544   0.104   4.133   4.945
 5549SOL     OW17545   3.471   3.389   1.570
 5549SOL    HW117546   3.389   3.433   1.606
 5549SOL    HW217547   3.480   3.297   1.610
 5550SOL     OW17548   1.225   3.931   3.289
 5550SOL    HW117549   1.215   3.833   3.273
 5550SOL    HW217550   1.162   3.959   3.362
 5551SOL     OW17551   2.293   5.176   3.732
 5551SOL    HW117552   2.281   5.078   3.720
 5551SOL    HW217553   2.236   5.208   3.807
 5552SOL     OW17554   6.976   0.067   6.445
 5552SOL    HW117555   6.948   0.146   6.499
 5552SOL    HW217556   6.906   7.020   6.451
 5553SOL     OW17557   4.630   0.510   6.755
 5553SOL    HW117558   4.702   0.470   6.698
 5553SOL    HW217559   4.625   0.462   6.842
 5554SOL     OW17560   5.666   2.944   1.629
 5554SOL    HW117561   5.714   2.997   1.559
 5554SOL    HW217562   5.576   2.983   1.645
 5555SOL     OW17563   1.095   4.473   2.593
 5555SOL    HW117564   1.002   4.468   2.629
 5555SOL    HW217565   1.129   4.381   2.575
 5556SOL     OW17566   6.737   0.968   4.583
 5556SOL    HW117567   6.746   0.956   4.485
 5556SOL    HW217568   6.734   1.065   4.606
 5557SOL     OW17569   3.225   5.513   2.152
 5557SOL    HW117570   3.201   5.572   2.229
 5557SOL    HW217571   3.172   5.541   2.072
 5558SOL     OW17572   3.108   4.357   0.682
 5558SOL    HW117573   3.174   4.344   0.756
 5558SOL    HW217574   3.106   4.453   0.655
 5559SOL     OW17575   1.577   6.692   2.695
 5559SOL    HW117576   1.549   6.663   2.786
 5559SOL    HW217577   1.671   6.662   2.677
 5560SOL     OW17578   0.685   5.878   2.862
 5560SOL    HW117579   0.781   5.905   2.862
 5560SOL    HW217580   0.637   5.923   2.786
 5561SOL     OW17581   3.443   1.056   3.692
 5561SOL    HW117582   3.384   1.126   3.733
 5561SOL    HW217583   3.500   1.016   3.764
 5562SOL     OW17584   3.993   4.120   0.863
 5562SOL    HW117585   4.009   4.021   0.857
 5562SOL    HW217586   4.042   4.166   0.789
 5563SOL     OW17587   3.164   4.901   2.715
 5563SOL    HW117588   3.210   4.881   2.801
 5563SOL    HW217589   3.066   4.883   2.724
 5564SOL     OW17590   5.547   0.932   5.647
 5564SOL    HW117591   5.522   0.906   5.554
 5564SOL    HW217592   5.511   0.864   5.711
 5565SOL     OW17593   3.798   3.094   0.308
 5565SOL    HW117594   3.869   3.034   0.273
 5565SOL    HW217595   3.838   3.182   0.335
 5566SOL     OW17596   1.223   3.491   0.199
 5566SOL    HW117597   1.177   3.429   0.261
 5566SOL    HW217598   1.213   3.585   0.232
 5567SOL     OW17599   6.936   3.615   1.683
 5567SOL    HW117600   6.925   3.561   1.767
 5567SOL    HW217601   6.998   3.568   1.621
 5568SOL     OW17602   4.478   6.425   2.514
 5568SOL    HW117603   4.533   6.389   2.590
 5568SOL    HW217604   4.406   6.484   2.550
 5569SOL     OW17605   2.843   2.222   3.935
 5569SOL    HW117606   2.833   2.162   4.014
 5569SOL    HW217607   2.913   2.184   3.874
 5570SOL     OW17608   6.542   3.357   3.427
 5570SOL    HW117609   6.626   3.387   3.471
 5570SOL    HW217610   6.466   3.364   3.491
 5571SOL     OW17611   0.270   5.546   1.928
 5571SOL    HW117612   0.362   5.545   1.891
 5571SOL    HW217613   0.267   5.492   2.013
 5572SOL     OW17614   0.694   3.335   5.206
 5572SOL    HW117615   0.685   3.244   5.168
 5572SOL    HW217616   0.610   3.387   5.190
 5573SOL     OW17617   1.806   4.782   4.925
 5573SOL    HW117618   1.883   4.846   4.922
 5573SOL    HW217619   1.839   4.690   4.901
 5574SOL     OW17620   0.320   2.815   6.198
 5574SOL    HW117621   0.376   2.806   6.280
 5574SOL    HW217622   0.301   2.724   6.160
 5575SOL     OW17623   0.837   0.548   1.484
 5575SOL    HW117624   0.870   0.639   1.505
 5575SOL    HW217625   0.749   0.554   1.437
 5576SOL     OW17626   2.339   4.194   3.509
 5576SOL    HW117627   2.287   4.147   3.438
 5576SOL    HW217628   2.385   4.274   3.469
 5577SOL     OW17629   1.447   3.288   6.557
 5577SOL    HW117630   1.435   3.379   6.596
 5577SOL    HW217631   1.452   3.220   6.631
 5578SOL     OW17632   3.560   3.463   3.032
 5578SOL    HW117633   3.537   3.539   3.093
 5578SOL    HW217634   3.477   3.431   2.986
 5579SOL     OW17635   0.284   2.937   1.506
 5579SOL    HW117636   0.359   2.951   1.570
 5579SOL    HW217637   0.319   2.896   1.422
 5580SOL     OW17638   4.742   1.431   6.217
 5580SOL    HW117639   4.712   1.370   6.144
 5580SOL    HW217640   4.769   1.377   6.296
 5581SOL     OW17641   0.643   1.804   1.024
 5581SOL    HW117642   0.642   1.704   1.029
 5581SOL    HW217643   0.553   1.839   1.050
 5582SOL     OW17644   2.216   3.341   6.454
 5582SOL    HW117645   2.238   3.246   6.477
 5582SOL    HW217646   2.263   3.403   6.518
 5583SOL     OW17647   4.922   0.876   2.748
 5583SOL    HW117648   4.875   0.962   2.729
 5583SOL    HW217649   4.857   0.800   2.735
 5584SOL     OW17650   6.803   4.610   4.623
 5584SOL    HW117651   6.855   4.535   4.583
 5584SOL    HW217652   6.727   4.574   4.677
 5585SOL     OW17653   4.749   5.136   2.342
 5585SOL    HW117654   4.819   5.102   2.279
 5585SOL    HW217655   4.769   5.231   2.366
 5586SOL     OW17656   6.730   3.774   6.118
 5586SOL    HW117657   6.702   3.691   6.166
 5586SOL    HW217658   6.685   3.853   6.159
 5587SOL     OW17659   4.281   1.334   6.662
 5587SOL    HW117660   4.236   1.253   6.626
 5587SOL    HW217661   4.319   1.314   6.752
 5588SOL     OW17662   2.807   6.573   2.069
 5588SOL    HW117663   2.723   6.525   2.044
 5588SOL    HW217664   2.884   6.538   2.016
 5589SOL     OW17665   5.949   4.294   6.071
 5589SOL    HW117666   5.910   4.386   6.078
 5589SOL    HW217667   5.925   4.242   6.154
 5590SOL     OW17668   5.586   5.967   3.930
 5590SOL    HW117669   5.489   5.988   3.918
 5590SOL    HW217670   5.599   5.868   3.929
 5591SOL     OW17671   6.740   1.410   2.017
 5591SOL    HW117672   6.654   1.378   1.977
 5591SOL    HW217673   6.747   1.509   2.007
 5592SOL     OW17674   1.401   4.454   3.342
 5592SOL    HW117675   1.353   4.541   3.353
 5592SOL    HW217676   1.432   4.444   3.248
 5593SOL     OW17677   6.857   2.471   6.833
 5593SOL    HW117678   6.820   2.503   6.920
 5593SOL    HW217679   6.948   2.508   6.820
 5594SOL     OW17680   5.240   1.662   5.326
 5594SOL    HW117681   5.333   1.625   5.333
 5594SOL    HW217682   5.177   1.588   5.302
 5595SOL     OW17683   0.738   2.657   5.036
 5595SOL    HW117684   0.720   2.561   5.014
 5595SOL    HW217685   0.819   2.663   5.093
 5596SOL     OW17686   3.978   6.549   3.103
 5596SOL    HW117687   3.920   6.467   3.111
 5596SOL    HW217688   3.929   6.619   3.052
 5597SOL     OW17689   4.992   2.785   3.837
 5597SOL    HW117690   5.068   2.728   3.806
 5597SOL    HW217691   5.028   2.862   3.890
 5598SOL     OW17692   4.668   2.806   4.024
 5598SOL    HW117693   4.595   2.739   4.034
 5598SOL    HW217694   4.669   2.841   3.930
 5599SOL     OW17695   1.306   0.854   4.495
 5599SOL    HW117696   1.214   0.827   4.466
 5599SOL    HW217697   1.363   0.772   4.504
 5600SOL     OW17698   1.030   2.163   3.961
 5600SOL    HW117699   0.999   2.256   3.943
 5600SOL    HW217700   1.123   2.151   3.925
 5601SOL     OW17701   2.505   0.705   5.983
 5601SOL    HW117702   2.490   0.794   5.940
 5601SOL    HW217703   2.418   0.657   5.992
 5602SOL     OW17704   0.355   1.510   1.075
 5602SOL    HW117705   0.305   1.575   1.133
 5602SOL    HW217706   0.329   1.417   1.100
 5603SOL     OW17707   5.000   1.801   0.056
 5603SOL    HW117708   5.044   1.865   0.119
 5603SOL    HW217709   5.030   1.820   6.987
 5604SOL     OW17710   6.174   2.290   5.750
 5604SOL    HW117711   6.129   2.374   5.719
 5604SOL    HW217712   6.204   2.302   5.845
 5605SOL     OW17713   0.634   1.363   4.721
 5605SOL    HW117714   0.551   1.390   4.771
 5605SOL    HW217715   0.614   1.281   4.667
 5606SOL     OW17716   5.483   6.420   1.417
 5606SOL    HW117717   5.443   6.364   1.344
 5606SOL    HW217718   5.473   6.517   1.395
 5607SOL     OW17719   4.881   1.209   1.903
 5607SOL    HW117720   4.909   1.226   1.809
 5607SOL    HW217721   4.911   1.285   1.961
 5608SOL     OW17722   4.725   0.253   4.683
 5608SOL    HW117723   4.824   0.268   4.681
 5608SOL    HW217724   4.697   0.218   4.772
 5609SOL     OW17725   2.146   5.807   0.160
 5609SOL    HW117726   2.210   5.759   0.221
 5609SOL    HW217727   2.074   5.744   0.132
 5610SOL     OW17728   5.150   0.274   0.454
 5610SOL    HW117729   5.196   0.318   0.377
 5610SOL    HW217730   5.219   0.246   0.521
 5611SOL     OW17731   1.689   4.793   2.493
 5611SOL    HW117732   1.630   4.863   2.534
 5611SOL    HW217733   1.774   4.835   2.463
 5612SOL     OW17734   3.788   1.613   6.301
 5612SOL    HW117735   3.715   1.662   6.253
 5612SOL    HW217736   3.877   1.646   6.270
 5613SOL     OW17737   4.873   4.520   2.645
 5613SOL    HW117738   4.887   4.616   2.620
 5613SOL    HW217739   4.782   4.490   2.616
 5614SOL     OW17740   4.396   2.471   3.460
 5614SOL    HW117741   4.466   2.538   3.436
 5614SOL    HW217742   4.316   2.518   3.496
 5615SOL     OW17743   0.809   0.560   6.908
 5615SOL    HW117744   0.901   0.583   6.942
 5615SOL    HW217745   0.817   0.498   6.830
 5616SOL     OW17746   2.180   0.713   5.286
 5616SOL    HW117747   2.208   0.636   5.344
 5616SOL    HW217748   2.137   0.783   5.343
 5617SOL     OW17749   2.498   0.070   6.071
 5617SOL    HW117750   2.460   0.160   6.090
 5617SOL    HW217751   2.436   7.023   6.104
 5618SOL     OW17752   6.883   4.142   4.430
 5618SOL    HW117753   6.872   4.079   4.506
 5618SOL    HW217754   6.977   4.178   4.430
 5619SOL     OW17755   3.029   3.658   6.024
 5619SOL    HW117756   2.968   3.722   5.977
 5619SOL    HW217757   2.985   3.624   6.106
 5620SOL     OW17758   4.003   2.977   0.187
 5620SOL    HW117759   4.003   2.920   0.105
 5620SOL    HW217760   4.078   3.043   0.182
 5621SOL     OW17761   1.584   1.575   5.890
 5621SOL    HW117762   1.563   1.670   5.865
 5621SOL    HW217763   1.509   1.538   5.946
 5622SOL     OW17764   4.886   0.007   6.218
 5622SOL    HW117765   4.822   6.963   6.254
 5622SOL    HW217766   4.904   7.013   6.122
 5623SOL     OW17767   2.046   6.220   6.010
 5623SOL    HW117768   2.116   6.202   6.080
 5623SOL    HW217769   1.962   6.249   6.054
 5624SOL     OW17770   1.240   4.672   3.394
 5624SOL    HW117771   1.302   4.700   3.468
 5624SOL    HW217772   1.152   4.646   3.433
 5625SOL     OW17773   6.400   2.653   4.359
 5625SOL    HW117774   6.370   2.684   4.268
 5625SOL    HW217775   6.353   2.708   4.429
 5626SOL     OW17776   2.977   6.879   4.775
 5626SOL    HW117777   2.931   6.929   4.702
 5626SOL    HW217778   2.970   6.931   4.860
 5627SOL     OW17779   1.905   5.731   1.485
 5627SOL    HW117780   1.967   5.770   1.417
 5627SOL    HW217781   1.853   5.656   1.443
 5628SOL     OW17782   1.882   2.001   5.924
 5628SOL    HW117783   1.912   1.919   5.876
 5628SOL    HW217784   1.862   1.977   6.020
 5629SOL     OW17785   3.049   3.743   1.999
 5629SOL    HW117786   3.094   3.830   1.980
 5629SOL    HW217787   2.978   3.726   1.930
 5630SOL     OW17788   1.433   4.838   0.708
 5630SOL    HW117789   1.463   4.872   0.619
 5630SOL    HW217790   1.479   4.888   0.781
 5631SOL     OW17791   4.122   1.985   0.138
 5631SOL    HW117792   4.183   2.048   0.091
 5631SOL    HW217793   4.148   1.980   0.235
 5632SOL     OW17794   4.241   4.069   6.437
 5632SOL    HW117795   4.304   4.088   6.512
 5632SOL    HW217796   4.147   4.085   6.468
 5633SOL     OW17797   6.883   2.410   3.839
 5633SOL    HW117798   6.830   2.454   3.912
 5633SOL    HW217799   6.911   2.479   3.772
 5634SOL     OW17800   3.335   5.068   4.783
 5634SOL    HW117801   3.384   5.045   4.699
 5634SOL    HW217802   3.284   5.153   4.770
 5635SOL     OW17803   2.305   2.845   4.787
 5635SOL    HW117804   2.369   2.908   4.832
 5635SOL    HW217805   2.234   2.897   4.741
 5636SOL     OW17806   4.269   5.803   2.932
 5636SOL    HW117807   4.293   5.845   3.019
 5636SOL    HW217808   4.260   5.873   2.862
 5637SOL     OW17809   6.427   6.926   4.054
 5637SOL    HW117810   6.352   6.965   3.999
 5637SOL    HW217811   6.515   6.958   4.018
 5638SOL     OW17812   5.725   2.855   1.236
 5638SOL    HW117813   5.803   2.907   1.201
 5638SOL    HW217814   5.708   2.776   1.177
 5639SOL     OW17815   0.508   1.355   6.744
 5639SOL    HW117816   0.563   1.315   6.670
 5639SOL    HW217817   0.441   1.418   6.706
 5640SOL     OW17818   2.710   0.234   4.122
 5640SOL    HW117819   2.659   0.303   4.173
 5640SOL    HW217820   2.808   0.246   4.137
 5641SOL     OW17821   6.755   4.865   5.804
 5641SOL    HW117822   6.670   4.814   5.816
 5641SOL    HW217823   6.733   4.961   5.786
 5642SOL     OW17824   2.333   0.646   0.200
 5642SOL    HW117825   2.305   0.731   0.156
 5642SOL    HW217826   2.371   0.584   0.131
 5643SOL     OW17827   5.871   2.835   4.599
 5643SOL    HW117828   5.866   2.742   4.563
 5643SOL    HW217829   5.927   2.891   4.538
 5644SOL     OW17830   3.192   0.002   6.065
 5644SOL    HW117831   3.265   6.997   6.003
 5644SOL    HW217832   3.107   6.980   6.041
 5645SOL     OW17833   6.290   3.248   3.546
 5645SOL    HW117834   6.251   3.161   3.514
 5645SOL    HW217835   6.332   3.235   3.635
 5646SOL     OW17836   2.176   4.793   2.976
 5646SOL    HW117837   2.251   4.729   2.986
 5646SOL    HW217838   2.210   4.879   2.936
 5647SOL     OW17839   5.931   6.163   2.069
 5647SOL    HW117840   5.871   6.243   2.080
 5647SOL    HW217841   5.880   6.080   2.092
 5648SOL     OW17842   2.925   5.826   2.867
 5648SOL    HW117843   2.887   5.812   2.958
 5648SOL    HW217844   3.020   5.796   2.864
 5649SOL     OW17845   0.818   5.332   3.788
 5649SOL    HW117846   0.840   5.236   3.805
 5649SOL    HW217847   0.884   5.371   3.725
 5650SOL     OW17848   0.399   4.704   0.337
 5650SOL    HW117849   0.448   4.636   0.282
 5650SOL    HW217850   0.452   4.724   0.420
 5651SOL     OW17851   1.730   0.482   0.391
 5651SOL    HW117852   1.647   0.441   0.355
 5651SOL    HW217853   1.807   0.460   0.331
 5652SOL     OW17854   0.324   4.924   2.032
 5652SOL    HW117855   0.409   4.912   2.084
 5652SOL    HW217856   0.344   4.920   1.934
 5653SOL     OW17857   0.170   6.009   1.479
 5653SOL    HW117858   0.224   6.062   1.413
 5653SOL    HW217859   0.117   5.940   1.430
 5654SOL     OW17860   1.678   6.285   4.854
 5654SOL    HW117861   1.771   6.312   4.876
 5654SOL    HW217862   1.637   6.351   4.792
 5655SOL     OW17863   6.588   3.426   4.198
 5655SOL    HW117864   6.583   3.394   4.293
 5655SOL    HW217865   6.678   3.468   4.182
 5656SOL     OW17866   0.064   3.539   6.246
 5656SOL    HW117867   0.086   3.572   6.154
 5656SOL    HW217868   0.115   3.454   6.264
 5657SOL     OW17869   4.663   4.937   4.490
 5657SOL    HW117870   4.613   4.949   4.404
 5657SOL    HW217871   4.600   4.907   4.562
 5658SOL     OW17872   1.808   2.222   5.824
 5658SOL    HW117873   1.827   2.134   5.868
 5658SOL    HW217874   1.821   2.214   5.725
 5659SOL     OW17875   3.174   4.085   6.659
 5659SOL    HW117876   3.237   4.013   6.689
 5659SOL    HW217877   3.224   4.151   6.604
 5660SOL     OW17878   4.750   6.883   6.421
 5660SOL    HW117879   4.658   6.845   6.428
 5660SOL    HW217880   4.813   6.829   6.476
 5661SOL     OW17881   0.589   5.859   5.936
 5661SOL    HW117882   0.544   5.840   5.849
 5661SOL    HW217883   0.525   5.846   6.011
 5662SOL     OW17884   2.994   6.440   3.099
 5662SOL    HW117885   3.049   6.467   3.019
 5662SOL    HW217886   2.900   6.425   3.070
 5663SOL     OW17887   1.385   3.011   1.085
 5663SOL    HW117888   1.431   2.939   1.032
 5663SOL    HW217889   1.376   2.982   1.180
 5664SOL     OW17890   5.351   4.019   4.157
 5664SOL    HW117891   5.319   4.031   4.251
 5664SOL    HW217892   5.282   3.971   4.104
 5665SOL     OW17893   1.648   0.183   0.858
 5665SOL    HW117894   1.739   0.225   0.866
 5665SOL    HW217895   1.612   0.200   0.767
 5666SOL     OW17896   6.506   1.327   4.629
 5666SOL    HW117897   6.545   1.273   4.704
 5666SOL    HW217898   6.515   1.275   4.544
 5667SOL     OW17899   1.654   5.369   4.771
 5667SOL    HW117900   1.555   5.366   4.783
 5667SOL    HW217901   1.699   5.377   4.860
 5668SOL     OW17902   5.698   2.340   3.512
 5668SOL    HW117903   5.755   2.320   3.433
 5668SOL    HW217904   5.622   2.399   3.485
 5669SOL     OW17905   5.651   3.813   6.577
 5669SOL    HW117906   5.564   3.817   6.626
 5669SOL    HW217907   5.676   3.718   6.562
 5670SOL     OW17908   0.952   2.790   2.799
 5670SOL    HW117909   0.967   2.693   2.781
 5670SOL    HW217910   0.975   2.843   2.718
 5671SOL     OW17911   0.183   6.892   4.067
 5671SOL    HW117912   0.150   6.799   4.085
 5671SOL    HW217913   0.276   6.901   4.101
 5672SOL     OW17914   4.873   4.072   4.924
 5672SOL    HW117915   4.880   4.007   5.000
 5672SOL    HW217916   4.851   4.163   4.959
 5673SOL     OW17917   0.967   0.069   1.343
 5673SOL    HW117918   0.906   0.148   1.353
 5673SOL    HW217919   0.931   7.017   1.398
 5674SOL     OW17920   0.930   5.412   5.011
 5674SOL    HW117921   0.867   5.482   4.978
 5674SOL    HW217922   0.910   5.391   5.107
 5675SOL     OW17923   2.640   1.522   0.065
 5675SOL    HW117924   2.649   1.445   0.129
 5675SOL    HW217925   2.728   1.569   0.056
 5676SOL     OW17926   2.648   2.288   1.939
 5676SOL    HW117927   2.717   2.358   1.958
 5676SOL    HW217928   2.689   2.215   1.884
 5677SOL     OW17929   7.021   0.498   0.970
 5677SOL    HW117930   0.002   0.493   1.070
 5677SOL    HW217931   7.014   0.405   0.933
 5678SOL     OW17932   3.309   1.988   1.412
 5678SOL    HW117933   3.373   1.912   1.408
 5678SOL    HW217934   3.234   1.965   1.474
 5679SOL     OW17935   5.599   3.417   4.637
 5679SOL    HW117936   5.527   3.354   4.609
 5679SOL    HW217937   5.559   3.497   4.681
 5680SOL     OW17938   1.220   5.144   5.719
 5680SOL    HW117939   1.126   5.177   5.717
 5680SOL    HW217940   1.268   5.188   5.795
 5681SOL     OW17941   0.397   4.225   2.890
 5681SOL    HW117942   0.332   4.230   2.966
 5681SOL    HW217943   0.374   4.146   2.833
 5682SOL     OW17944   1.902   4.570   2.584
 5682SOL    HW117945   1.924   4.665   2.602
 5682SOL    HW217946   1.830   4.539   2.647
 5683SOL     OW17947   4.566   2.271   6.920
 5683SOL    HW117948   4.657   2.259   6.880
 5683SOL    HW217949   4.498   2.226   6.862
 5684SOL     OW17950   2.194   2.413   5.873
 5684SOL    HW117951   2.200   2.499   5.923
 5684SOL    HW217952   2.165   2.431   5.779
 5685SOL     OW17953   2.004   2.153   3.972
 5685SOL    HW117954   2.060   2.085   3.924
 5685SOL    HW217955   1.916   2.162   3.927
 5686SOL     OW17956   3.704   0.197   5.975
 5686SOL    HW117957   3.652   0.270   6.021
 5686SOL    HW217958   3.657   0.171   5.891
 5687SOL     OW17959   1.306   6.539   5.687
 5687SOL    HW117960   1.364   6.459   5.674
 5687SOL    HW217961   1.235   6.519   5.754
 5688SOL     OW17962   2.084   3.513   3.317
 5688SOL    HW117963   2.079   3.504   3.416
 5688SOL    HW217964   2.091   3.422   3.275
 5689SOL     OW17965   1.434   1.431   1.183
 5689SOL    HW117966   1.387   1.354   1.226
 5689SOL    HW217967   1.376   1.512   1.188
 5690SOL     OW17968   0.803   5.479   0.162
 5690SOL    HW117969   0.825   5.534   0.082
 5690SOL    HW217970   0.761   5.393   0.133
 5691SOL     OW17971   3.997   1.358   2.363
 5691SOL    HW117972   3.977   1.454   2.343
 5691SOL    HW217973   4.033   1.350   2.456
 5692SOL     OW17974   5.190   5.407   1.313
 5692SOL    HW117975   5.193   5.357   1.399
 5692SOL    HW217976   5.210   5.504   1.329
 5693SOL     OW17977   3.358   0.584   0.794
 5693SOL    HW117978   3.279   0.636   0.760
 5693SOL    HW217979   3.439   0.642   0.793
 5694SOL     OW17980   0.501   0.112   2.420
 5694SOL    HW117981   0.541   0.137   2.332
 5694SOL    HW217982   0.574   0.086   2.483
 5695SOL     OW17983   0.938   0.809   1.508
 5695SOL    HW117984   0.876   0.864   1.452
 5695SOL    HW217985   1.029   0.809   1.466
 5696SOL     OW17986   1.303   6.702   4.394
 5696SOL    HW117987   1.256   6.754   4.466
 5696SOL    HW217988   1.253   6.618   4.375
 5697SOL     OW17989   6.216   2.991   1.176
 5697SOL    HW117990   6.225   3.023   1.081
 5697SOL    HW217991   6.294   2.932   1.199
 5698SOL     OW17992   1.769   3.072   3.778
 5698SOL    HW117993   1.790   3.094   3.873
 5698SOL    HW217994   1.833   3.119   3.717
 5699SOL     OW17995   2.410   2.701   3.374
 5699SOL    HW117996   2.346   2.777   3.382
 5699SOL    HW217997   2.472   2.700   3.453
 5700SOL     OW17998   6.418   0.394   2.216
 5700SOL    HW117999   6.511   0.361   2.203
 5700SOL    HW218000   6.376   0.345   2.293
 5701SOL     OW18001   6.461   0.889   0.659
 5701SOL    HW118002   6.499   0.877   0.567
 5701SOL    HW218003   6.440   0.985   0.674
 5702SOL     OW18004   2.489   0.081   4.920
 5702SOL    HW118005   2.538   0.153   4.870
 5702SOL    HW218006   2.431   0.123   4.989
 5703SOL     OW18007   6.381   3.063   6.635
 5703SOL    HW118008   6.403   3.155   6.603
 5703SOL    HW218009   6.371   3.064   6.735
 5704SOL     OW18010   5.049   4.226   3.218
 5704SOL    HW118011   4.960   4.201   3.256
 5704SOL    HW218012   5.096   4.286   3.282
 5705SOL     OW18013   5.932   6.423   6.229
 5705SOL    HW118014   5.952   6.382   6.318
 5705SOL    HW218015   5.943   6.355   6.157
 5706SOL     OW18016   5.863   1.962   0.459
 5706SOL    HW118017   5.833   1.874   0.424
 5706SOL    HW218018   5.957   1.980   0.429
 5707SOL     OW18019   5.417   6.208   1.950
 5707SOL    HW118020   5.361   6.269   2.007
 5707SOL    HW218021   5.360   6.169   1.878
 5708SOL     OW18022   4.352   5.960   4.097
 5708SOL    HW118023   4.332   6.010   4.013
 5708SOL    HW218024   4.378   6.024   4.169
 5709SOL     OW18025   0.803   1.043   1.782
 5709SOL    HW118026   0.762   1.038   1.873
 5709SOL    HW218027   0.865   0.965   1.770
 5710SOL     OW18028   2.634   2.582   0.856
 5710SOL    HW118029   2.694   2.663   0.858
 5710SOL    HW218030   2.584   2.576   0.942
 5711SOL     OW18031   5.346   1.097   1.767
 5711SOL    HW118032   5.286   1.021   1.791
 5711SOL    HW218033   5.396   1.076   1.684
 5712SOL     OW18034   6.957   6.102   1.612
 5712SOL    HW118035   0.026   6.077   1.586
 5712SOL    HW218036   6.902   6.116   1.530
 5713SOL     OW18037   2.410   5.643   0.594
 5713SOL    HW118038   2.497   5.629   0.547
 5713SOL    HW218039   2.382   5.739   0.586
 5714SOL     OW18040   6.126   6.259   1.600
 5714SOL    HW118041   6.070   6.236   1.520
 5714SOL    HW218042   6.084   6.218   1.682
 5715SOL     OW18043   1.165   0.167   0.687
 5715SOL    HW118044   1.153   0.068   0.692
 5715SOL    HW218045   1.169   0.205   0.779
 5716SOL     OW18046   0.774   4.441   6.096
 5716SOL    HW118047   0.727   4.528   6.086
 5716SOL    HW218048   0.821   4.438   6.185
 5717SOL     OW18049   1.948   5.009   2.932
 5717SOL    HW118050   1.939   4.938   3.001
 5717SOL    HW218051   1.990   5.090   2.972
 5718SOL     OW18052   0.778   3.294   0.475
 5718SOL    HW118053   0.809   3.310   0.569
 5718SOL    HW218054   0.843   3.336   0.411
 5719SOL     OW18055   2.951   3.802   1.386
 5719SOL    HW118056   2.887   3.726   1.390
 5719SOL    HW218057   3.026   3.779   1.323
 5720SOL     OW18058   1.950   5.193   5.877
 5720SOL    HW118059   2.045   5.223   5.866
 5720SOL    HW218060   1.896   5.223   5.799
 5721SOL     OW18061   5.036   4.367   6.847
 5721SOL    HW118062   5.007   4.392   6.939
 5721SOL    HW218063   4.986   4.421   6.780
 5722SOL     OW18064   0.990   0.492   5.865
 5722SOL    HW118065   0.969   0.404   5.906
 5722SOL    HW218066   1.085   0.516   5.884
 5723SOL     OW18067   4.190   3.177   6.895
 5723SOL    HW118068   4.208   3.154   6.991
 5723SOL    HW218069   4.091   3.182   6.880
 5724SOL     OW18070   5.176   1.981   3.920
 5724SOL    HW118071   5.177   1.885   3.949
 5724SOL    HW218072   5.159   1.985   3.821
 5725SOL     OW18073   5.877   4.530   3.751
 5725SOL    HW118074   5.947   4.487   3.806
 5725SOL    HW218075   5.920   4.585   3.679
 5726SOL     OW18076   4.673   4.491   3.274
 5726SOL    HW118077   4.767   4.479   3.305
 5726SOL    HW218078   4.651   4.421   3.206
 5727SOL     OW18079   0.899   2.109   4.354
 5727SOL    HW118080   0.903   2.209   4.351
 5727SOL    HW218081   0.902   2.073   4.260
 5728SOL     OW18082   5.146   6.392   5.148
 5728SOL    HW118083   5.210   6.325   5.186
 5728SOL    HW218084   5.058   6.383   5.195
 5729SOL     OW18085   2.323   1.509   5.810
 5729SOL    HW118086   2.387   1.521   5.734
 5729SOL    HW218087   2.286   1.598   5.836
 5730SOL     OW18088   6.427   4.440   6.127
 5730SOL    HW118089   6.362   4.403   6.062
 5730SOL    HW218090   6.504   4.377   6.138
 5731SOL     OW18091   0.367   6.513   1.762
 5731SOL    HW118092   0.307   6.506   1.682
 5731SOL    HW218093   0.315   6.549   1.839
 5732SOL     OW18094   1.261   6.907   3.943
 5732SOL    HW118095   1.305   6.956   3.867
 5732SOL    HW218096   1.309   6.926   4.028
 5733SOL     OW18097   3.228   0.115   4.638
 5733SOL    HW118098   3.218   0.164   4.724
 5733SOL    HW218099   3.152   0.052   4.626
 5734SOL     OW18100   1.906   5.284   3.625
 5734SOL    HW118101   1.896   5.338   3.542
 5734SOL    HW218102   1.968   5.332   3.688
 5735SOL     OW18103   3.095   1.280   1.726
 5735SOL    HW118104   3.161   1.205   1.735
 5735SOL    HW218105   3.138   1.359   1.683
 5736SOL     OW18106   1.062   5.681   6.531
 5736SOL    HW118107   1.109   5.595   6.514
 5736SOL    HW218108   0.969   5.676   6.493
 5737SOL     OW18109   4.630   4.576   6.981
 5737SOL    HW118110   4.644   4.670   7.014
 5737SOL    HW218111   4.652   4.571   6.884
 5738SOL     OW18112   1.301   3.377   6.168
 5738SOL    HW118113   1.389   3.399   6.208
 5738SOL    HW218114   1.300   3.403   6.072
 5739SOL     OW18115   0.916   1.199   0.822
 5739SOL    HW118116   0.982   1.130   0.793
 5739SOL    HW218117   0.957   1.257   0.893
 5740SOL     OW18118   4.073   5.601   6.437
 5740SOL    HW118119   4.146   5.636   6.497
 5740SOL    HW218120   4.097   5.510   6.404
 5741SOL     OW18121   0.192   5.369   4.753
 5741SOL    HW118122   0.249   5.308   4.809
 5741SOL    HW218123   0.247   5.446   4.721
 5742SOL     OW18124   6.563   6.823   3.385
 5742SOL    HW118125   6.596   6.728   3.382
 5742SOL    HW218126   6.542   6.848   3.479
 5743SOL     OW18127   1.759   6.916   5.284
 5743SOL    HW118128   1.844   6.879   5.321
 5743SOL    HW218129   1.724   6.987   5.344
 5744SOL     OW18130   6.265   0.220   1.553
 5744SOL    HW118131   6.216   0.210   1.466
 5744SOL    HW218132   6.236   0.305   1.598
 5745SOL     OW18133   1.994   1.922   3.787
 5745SOL    HW118134   2.083   1.894   3.751
 5745SOL    HW218135   1.960   1.852   3.849
 5746SOL     OW18136   5.142   2.150   6.952
 5746SOL    HW118137   5.080   2.086   6.906
 5746SOL    HW218138   5.103   2.242   6.948
 5747SOL     OW18139   0.569   5.607   3.157
 5747SOL    HW118140   0.612   5.690   3.193
 5747SOL    HW218141   0.550   5.619   3.059
 5748SOL     OW18142   2.774   6.201   3.061
 5748SOL    HW118143   2.743   6.139   3.133
 5748SOL    HW218144   2.766   6.156   2.972
 5749SOL     OW18145   2.563   2.541   3.161
 5749SOL    HW118146   2.511   2.589   3.231
 5749SOL    HW218147   2.634   2.486   3.205
 5750SOL     OW18148   6.781   5.874   2.630
 5750SOL    HW118149   6.812   5.967   2.614
 5750SOL    HW218150   6.780   5.823   2.544
 5751SOL     OW18151   2.381   3.466   5.343
 5751SOL    HW118152   2.349   3.483   5.436
 5751SOL    HW218153   2.360   3.545   5.285
 5752SOL     OW18154   6.900   0.071   6.919
 5752SOL    HW118155   6.945   7.011   6.887
 5752SOL    HW218156   6.801   0.061   6.908
 5753SOL     OW18157   3.757   2.673   0.489
 5753SOL    HW118158   3.855   2.690   0.477
 5753SOL    HW218159   3.713   2.754   0.527
 5754SOL     OW18160   6.209   4.556   1.632
 5754SOL    HW118161   6.159   4.513   1.556
 5754SOL    HW218162   6.296   4.509   1.645
 5755SOL     OW18163   3.341   4.172   0.462
 5755SOL    HW118164   3.251   4.215   0.450
 5755SOL    HW218165   3.329   4.073   0.471
 5756SOL     OW18166   6.932   5.557   4.220
 5756SOL    HW118167   6.920   5.476   4.162
 5756SOL    HW218168   6.973   5.530   4.307
 5757SOL     OW18169   0.095   5.199   0.737
 5757SOL    HW118170   0.069   5.267   0.805
 5757SOL    HW218171   0.051   5.219   0.650
 5758SOL     OW18172   1.282   2.082   5.525
 5758SOL    HW118173   1.333   2.032   5.455
 5758SOL    HW218174   1.237   2.161   5.483
 5759SOL     OW18175   5.472   1.561   5.950
 5759SOL    HW118176   5.555   1.613   5.971
 5759SOL    HW218177   5.466   1.547   5.851
 5760SOL     OW18178   1.874   5.758   2.351
 5760SOL    HW118179   1.875   5.858   2.348
 5760SOL    HW218180   1.919   5.722   2.270
 5761SOL     OW18181   4.967   7.021   4.623
 5761SOL    HW118182   4.916   0.054   4.558
 5761SOL    HW218183   4.911   6.943   4.650
 5762SOL     OW18184   5.867   5.905   1.528
 5762SOL    HW118185   5.872   5.999   1.492
 5762SOL    HW218186   5.790   5.858   1.487
 5763SOL     OW18187   1.294   0.894   1.261
 5763SOL    HW118188   1.356   0.963   1.298
 5763SOL    HW218189   1.290   0.903   1.162
 5764SOL     OW18190   4.904   3.261   5.506
 5764SOL    HW118191   4.931   3.218   5.420
 5764SOL    HW218192   4.895   3.191   5.577
 5765SOL     OW18193   5.897   4.212   0.017
 5765SOL    HW118194   5.840   4.236   6.962
 5765SOL    HW218195   5.936   4.120   0.003
 5766SOL     OW18196   3.027   1.667   2.418
 5766SOL    HW118197   3.070   1.687   2.330
 5766SOL    HW218198   3.049   1.573   2.446
 5767SOL     OW18199   0.320   6.322   1.525
 5767SOL    HW118200   0.315   6.271   1.439
 5767SOL    HW218201   0.228   6.342   1.558
 5768SOL     OW18202   6.222   1.696   2.306
 5768SOL    HW118203   6.153   1.731   2.243
 5768SOL    HW218204   6.184   1.620   2.358
 5769SOL     OW18205   2.268   5.563   4.049
 5769SOL    HW118206   2.253   5.464   4.045
 5769SOL    HW218207   2.193   5.610   4.004
 5770SOL     OW18208   6.436   0.747   1.204
 5770SOL    HW118209   6.530   0.778   1.195
 5770SOL    HW218210   6.432   0.668   1.266
 5771SOL     OW18211   1.234   1.754   1.343
 5771SOL    HW118212   1.217   1.674   1.286
 5771SOL    HW218213   1.221   1.731   1.439
 5772SOL     OW18214   6.023   3.967   6.992
 5772SOL    HW118215   6.053   3.917   6.911
 5772SOL    HW218216   5.983   3.904   0.034
 5773SOL     OW18217   5.582   6.072   4.268
 5773SOL    HW118218   5.539   6.030   4.188
 5773SOL    HW218219   5.602   6.168   4.247
 5774SOL     OW18220   2.150   5.273   3.919
 5774SOL    HW118221   2.087   5.334   3.872
 5774SOL    HW218222   2.110   5.244   4.006
 5775SOL     OW18223   0.222   0.168   6.487
 5775SOL    HW118224   0.129   0.136   6.473
 5775SOL    HW218225   0.280   0.092   6.516
 5776SOL     OW18226   5.165   0.576   5.493
 5776SOL    HW118227   5.233   0.582   5.565
 5776SOL    HW218228   5.091   0.515   5.522
 5777SOL     OW18229   0.362   0.986   5.424
 5777SOL    HW118230   0.283   0.937   5.387
 5777SOL    HW218231   0.353   0.995   5.523
 5778SOL     OW18232   1.767   6.550   3.441
 5778SOL    HW118233   1.719   6.586   3.521
 5778SOL    HW218234   1.702   6.538   3.366
 5779SOL     OW18235   4.566   1.341   2.003
 5779SOL    HW118236   4.479   1.361   2.049
 5779SOL    HW218237   4.561   1.252   1.958
 5780SOL     OW18238   5.765   4.264   1.219
 5780SOL    HW118239   5.825   4.198   1.265
 5780SOL    HW218240   5.728   4.223   1.136
 5781SOL     OW18241   1.897   5.505   4.659
 5781SOL    HW118242   1.937   5.501   4.568
 5781SOL    HW218243   1.829   5.431   4.669
 5782SOL     OW18244   3.109   1.695   2.158
 5782SOL    HW118245   3.135   1.699   2.062
 5782SOL    HW218246   3.026   1.640   2.167
 5783SOL     OW18247   1.493   0.053   1.028
 5783SOL    HW118248   1.541   0.127   0.980
 5783SOL    HW218249   1.552   0.017   1.100
 5784SOL     OW18250   1.466   5.914   0.067
 5784SOL    HW118251   1.368   5.932   0.065
 5784SOL    HW218252   1.498   5.891   6.999
 5785SOL     OW18253   1.687   2.040   0.157
 5785SOL    HW118254   1.615   2.002   0.099
 5785SOL    HW218255   1.745   1.965   0.191
 5786SOL     OW18256   1.362   3.361   1.553
 5786SOL    HW118257   1.327   3.380   1.461
 5786SOL    HW218258   1.296   3.394   1.621
 5787SOL     OW18259   6.673   3.018   5.280
 5787SOL    HW118260   6.591   2.963   5.266
 5787SOL    HW218261   6.649   3.115   5.278
 5788SOL     OW18262   2.568   1.628   2.190
 5788SOL    HW118263   2.570   1.719   2.147
 5788SOL    HW218264   2.507   1.569   2.137
 5789SOL     OW18265   3.529   4.495   6.713
 5789SOL    HW118266   3.560   4.476   6.620
 5789SOL    HW218267   3.456   4.431   6.737
 5790SOL     OW18268   5.906   5.914   4.230
 5790SOL    HW118269   5.931   6.006   4.201
 5790SOL    HW218270   5.858   5.867   4.156
 5791SOL     OW18271   4.169   1.822   1.999
 5791SOL    HW118272   4.166   1.786   2.092
 5791SOL    HW218273   4.078   1.814   1.957
 5792SOL     OW18274   5.034   2.934   3.085
 5792SOL    HW118275   5.040   2.892   3.175
 5792SOL    HW218276   5.067   2.869   3.016
 5793SOL     OW18277   4.595   2.498   5.813
 5793SOL    HW118278   4.580   2.473   5.717
 5793SOL    HW218279   4.660   2.434   5.854
 5794SOL     OW18280   4.287   0.180   0.336
 5794SOL    HW118281   4.228   0.256   0.363
 5794SOL    HW218282   4.355   0.212   0.270
 5795SOL     OW18283   2.381   5.752   1.808
 5795SOL    HW118284   2.480   5.748   1.795
 5795SOL    HW218285   2.337   5.786   1.725
 5796SOL     OW18286   4.759   2.150   6.427
 5796SOL    HW118287   4.845   2.191   6.396
 5796SOL    HW218288   4.711   2.213   6.487
 5797SOL     OW18289   5.218   2.389   1.236
 5797SOL    HW118290   5.251   2.299   1.206
 5797SOL    HW218291   5.215   2.451   1.158
 5798SOL     OW18292   1.461   3.765   5.650
 5798SOL    HW118293   1.369   3.778   5.687
 5798SOL    HW218294   1.505   3.854   5.639
 5799SOL     OW18295   2.746   6.876   3.570
 5799SOL    HW118296   2.705   6.800   3.521
 5799SOL    HW218297   2.675   6.924   3.622
 5800SOL     OW18298   0.820   6.933   0.926
 5800SOL    HW118299   0.799   6.986   1.009
 5800SOL    HW218300   0.754   6.858   0.918
 5801SOL     OW18301   2.093   1.907   2.483
 5801SOL    HW118302   2.178   1.954   2.506
 5801SOL    HW218303   2.051   1.871   2.567
 5802SOL     OW18304   0.487   1.227   1.703
 5802SOL    HW118305   0.493   1.127   1.700
 5802SOL    HW218306   0.395   1.254   1.731
 5803SOL     OW18307   0.331   5.021   3.675
 5803SOL    HW118308   0.392   5.080   3.621
 5803SOL    HW218309   0.347   4.926   3.652
 5804SOL     OW18310   5.589   1.424   3.777
 5804SOL    HW118311   5.583   1.485   3.698
 5804SOL    HW218312   5.558   1.333   3.750
 5805SOL     OW18313   1.514   2.390   2.066
 5805SOL    HW118314   1.496   2.433   2.154
 5805SOL    HW218315   1.609   2.407   2.040
 5806SOL     OW18316   6.827   4.482   1.899
 5806SOL    HW118317   6.920   4.467   1.931
 5806SOL    HW218318   6.798   4.405   1.842
 5807SOL     OW18319   1.502   0.309   1.176
 5807SOL    HW118320   1.436   0.241   1.143
 5807SOL    HW218321   1.594   0.285   1.144
 5808SOL     OW18322   6.497   6.612   5.868
 5808SOL    HW118323   6.419   6.659   5.827
 5808SOL    HW218324   6.534   6.667   5.943
 5809SOL     OW18325   0.621   1.996   5.575
 5809SOL    HW118326   0.614   1.961   5.482
 5809SOL    HW218327   0.703   1.960   5.619
 5810SOL     OW18328   3.125   6.908   5.642
 5810SOL    HW118329   3.141   6.885   5.546
 5810SOL    HW218330   3.163   6.998   5.662
 5811SOL     OW18331   2.649   3.826   6.237
 5811SOL    HW118332   2.703   3.826   6.321
 5811SOL    HW218333   2.698   3.876   6.166
 5812SOL     OW18334   6.026   2.251   0.233
 5812SOL    HW118335   6.126   2.244   0.226
 5812SOL    HW218336   5.984   2.173   0.185
 5813SOL     OW18337   5.026   6.499   0.247
 5813SOL    HW118338   5.017   6.498   0.347
 5813SOL    HW218339   5.011   6.592   0.213
 5814SOL     OW18340   5.275   1.356   1.274
 5814SOL    HW118341   5.330   1.354   1.190
 5814SOL    HW218342   5.287   1.270   1.323
 5815SOL     OW18343   6.594   1.555   4.523
 5815SOL    HW118344   6.553   1.478   4.571
 5815SOL    HW218345   6.542   1.638   4.543
 5816SOL     OW18346   0.401   3.294   2.800
 5816SOL    HW118347   0.472   3.240   2.844
 5816SOL    HW218348   0.432   3.321   2.709
 5817SOL     OW18349   6.336   3.222   3.240
 5817SOL    HW118350   6.344   3.293   3.170
 5817SOL    HW218351   6.373   3.256   3.326
 5818SOL     OW18352   2.230   0.123   5.354
 5818SOL    HW118353   2.140   0.164   5.335
 5818SOL    HW218354   2.225   0.071   5.439
 5819SOL     OW18355   4.158   5.397   0.183
 5819SOL    HW118356   4.174   5.333   0.108
 5819SOL    HW218357   4.213   5.370   0.262
 5820SOL     OW18358   5.384   6.098   2.181
 5820SOL    HW118359   5.448   6.081   2.256
 5820SOL    HW218360   5.430   6.150   2.109
 5821SOL     OW18361   0.133   6.876   0.930
 5821SOL    HW118362   0.128   6.871   1.030
 5821SOL    HW218363   0.220   6.916   0.903
 5822SOL     OW18364   1.851   3.350   2.812
 5822SOL    HW118365   1.897   3.261   2.808
 5822SOL    HW218366   1.789   3.359   2.734
 5823SOL     OW18367   2.266   5.398   3.558
 5823SOL    HW118368   2.275   5.336   3.636
 5823SOL    HW218369   2.195   5.466   3.578
 5824SOL     OW18370   1.181   0.683   2.339
 5824SOL    HW118371   1.267   0.686   2.389
 5824SOL    HW218372   1.173   0.764   2.280
 5825SOL     OW18373   5.761   0.734   4.579
 5825SOL    HW118374   5.688   0.739   4.648
 5825SOL    HW218375   5.721   0.708   4.491
 5826SOL     OW18376   0.414   6.981   5.480
 5826SOL    HW118377   0.510   7.010   5.484
 5826SOL    HW218378   0.363   0.020   5.421
 5827SOL     OW18379   2.214   4.266   4.462
 5827SOL    HW118380   2.207   4.243   4.365
 5827SOL    HW218381   2.143   4.217   4.513
 5828SOL     OW18382   3.907   0.036   5.150
 5828SOL    HW118383   4.007   0.034   5.151
 5828SOL    HW218384   3.876   0.101   5.081
 5829SOL     OW18385   2.295   0.941   4.249
 5829SOL    HW118386   2.379   0.992   4.269
 5829SOL    HW218387   2.268   0.958   4.154
 5830SOL     OW18388   3.723   5.702   4.358
 5830SOL    HW118389   3.771   5.675   4.274
 5830SOL    HW218390   3.790   5.730   4.427
 5831SOL     OW18391   1.570   2.181   5.260
 5831SOL    HW118392   1.594   2.091   5.295
 5831SOL    HW218393   1.652   2.226   5.224
 5832SOL     OW18394   2.885   5.386   1.874
 5832SOL    HW118395   2.895   5.287   1.860
 5832SOL    HW218396   2.886   5.433   1.786
 5833SOL     OW18397   3.488   4.594   6.977
 5833SOL    HW118398   3.508   4.579   6.880
 5833SOL    HW218399   3.569   4.575   0.008
 5834SOL     OW18400   5.647   2.754   6.145
 5834SOL    HW118401   5.691   2.792   6.064
 5834SOL    HW218402   5.565   2.806   6.167
 5835SOL     OW18403   5.425   2.035   2.763
 5835SOL    HW118404   5.390   1.942   2.773
 5835SOL    HW218405   5.357   2.091   2.714
 5836SOL     OW18406   4.870   6.675   3.761
 5836SOL    HW118407   4.880   6.673   3.662
 5836SOL    HW218408   4.776   6.650   3.786
 5837SOL     OW18409   3.028   5.303   6.896
 5837SOL    HW118410   3.018   5.343   6.987
 5837SOL    HW218411   3.108   5.343   6.851
 5838SOL     OW18412   3.324   2.279   1.349
 5838SOL    HW118413   3.305   2.186   1.380
 5838SOL    HW218414   3.266   2.302   1.271
 5839SOL     OW18415   1.898   1.982   0.950
 5839SOL    HW118416   1.870   1.888   0.972
 5839SOL    HW218417   1.954   2.018   1.024
 5840SOL     OW18418   0.321   3.167   3.149
 5840SOL    HW118419   0.372   3.122   3.222
 5840SOL    HW218420   0.381   3.231   3.101
 5841SOL     OW18421   5.125   1.908   0.290
 5841SOL    HW118422   5.199   1.976   0.293
 5841SOL    HW218423   5.051   1.938   0.350
 5842SOL     OW18424   2.496   2.318   1.349
 5842SOL    HW118425   2.497   2.415   1.326
 5842SOL    HW218426   2.560   2.301   1.425
 5843SOL     OW18427   2.347   3.893   1.007
 5843SOL    HW118428   2.326   3.795   1.011
 5843SOL    HW218429   2.328   3.935   1.096
 5844SOL     OW18430   0.700   6.568   5.320
 5844SOL    HW118431   0.685   6.503   5.395
 5844SOL    HW218432   0.703   6.661   5.357
 5845SOL     OW18433   1.330   6.777   2.284
 5845SOL    HW118434   1.378   6.782   2.197
 5845SOL    HW218435   1.369   6.703   2.340
 5846SOL     OW18436   6.179   4.002   5.922
 5846SOL    HW118437   6.250   3.937   5.894
 5846SOL    HW218438   6.089   3.966   5.894
 5847SOL     OW18439   2.677   4.158   0.261
 5847SOL    HW118440   2.775   4.173   0.271
 5847SOL    HW218441   2.629   4.246   0.266
 5848SOL     OW18442   1.834   5.362   2.418
 5848SOL    HW118443   1.827   5.442   2.359
 5848SOL    HW218444   1.839   5.280   2.362
 5849SOL     OW18445   3.507   5.985   5.664
 5849SOL    HW118446   3.435   6.000   5.596
 5849SOL    HW218447   3.525   6.071   5.712
 5850SOL     OW18448   1.432   1.565   2.982
 5850SOL    HW118449   1.332   1.563   2.994
 5850SOL    HW218450   1.457   1.508   2.904
 5851SOL     OW18451   6.497   3.739   4.184
 5851SOL    HW118452   6.442   3.813   4.221
 5851SOL    HW218453   6.593   3.768   4.179
 5852SOL     OW18454   4.725   4.169   2.653
 5852SOL    HW118455   4.775   4.129   2.577
 5852SOL    HW218456   4.677   4.251   2.622
 5853SOL     OW18457   3.609   4.953   5.967
 5853SOL    HW118458   3.687   4.891   5.978
 5853SOL    HW218459   3.530   4.902   5.935
 5854SOL     OW18460   2.984   4.739   5.341
 5854SOL    HW118461   2.969   4.665   5.276
 5854SOL    HW218462   2.916   4.733   5.414
 5855SOL     OW18463   2.155   3.028   3.089
 5855SOL    HW118464   2.160   2.940   3.134
 5855SOL    HW218465   2.148   3.015   2.990
 5856SOL     OW18466   1.215   6.682   3.045
 5856SOL    HW118467   1.143   6.752   3.041
 5856SOL    HW218468   1.184   6.600   2.996
 5857SOL     OW18469   5.841   4.396   6.442
 5857SOL    HW118470   5.899   4.476   6.429
 5857SOL    HW218471   5.782   4.385   6.362
 5858SOL     OW18472   1.828   0.945   3.204
 5858SOL    HW118473   1.813   1.004   3.283
 5858SOL    HW218474   1.827   0.849   3.233
 5859SOL     OW18475   6.387   6.691   1.310
 5859SOL    HW118476   6.474   6.714   1.354
 5859SOL    HW218477   6.314   6.691   1.378
 5860SOL     OW18478   0.415   4.647   3.275
 5860SOL    HW118479   0.385   4.659   3.180
 5860SOL    HW218480   0.444   4.735   3.311
 5861SOL     OW18481   4.958   0.933   6.048
 5861SOL    HW118482   4.917   1.001   6.108
 5861SOL    HW218483   4.915   0.844   6.062
 5862SOL     OW18484   6.914   5.780   2.090
 5862SOL    HW118485   6.945   5.870   2.121
 5862SOL    HW218486   6.866   5.734   2.164
 5863SOL     OW18487   4.333   6.988   6.141
 5863SOL    HW118488   4.381   0.043   6.102
 5863SOL    HW218489   4.270   7.020   6.212
 5864SOL     OW18490   3.463   3.943   2.547
 5864SOL    HW118491   3.525   3.969   2.621
 5864SOL    HW218492   3.495   3.985   2.462
 5865SOL     OW18493   6.401   0.571   5.634
 5865SOL    HW118494   6.394   0.664   5.670
 5865SOL    HW218495   6.409   0.575   5.534
 5866SOL     OW18496   3.860   2.990   3.323
 5866SOL    HW118497   3.873   2.934   3.405
 5866SOL    HW218498   3.928   3.063   3.321
 5867SOL     OW18499   3.441   1.728   1.481
 5867SOL    HW118500   3.390   1.681   1.554
 5867SOL    HW218501   3.492   1.660   1.427
 5868SOL     OW18502   1.172   1.025   5.706
 5868SOL    HW118503   1.265   0.997   5.685
 5868SOL    HW218504   1.114   1.016   5.625
 5869SOL     OW18505   0.460   5.689   3.895
 5869SOL    HW118506   0.521   5.612   3.873
 5869SOL    HW218507   0.459   5.702   3.994
 5870SOL     OW18508   4.260   5.337   4.510
 5870SOL    HW118509   4.194   5.326   4.436
 5870SOL    HW218510   4.318   5.255   4.515
 5871SOL     OW18511   2.956   3.838   4.009
 5871SOL    HW118512   2.967   3.826   3.910
 5871SOL    HW218513   2.866   3.803   4.037
 5872SOL     OW18514   4.826   5.397   1.539
 5872SOL    HW118515   4.728   5.380   1.542
 5872SOL    HW218516   4.856   5.442   1.623
 5873SOL     OW18517   4.268   5.779   2.358
 5873SOL    HW118518   4.216   5.771   2.443
 5873SOL    HW218519   4.263   5.874   2.325
 5874SOL     OW18520   2.203   4.187   5.977
 5874SOL    HW118521   2.302   4.193   5.990
 5874SOL    HW218522   2.157   4.198   6.065
 5875SOL     OW18523   2.633   1.426   0.853
 5875SOL    HW118524   2.584   1.494   0.908
 5875SOL    HW218525   2.599   1.334   0.876
 5876SOL     OW18526   3.380   3.358   2.095
 5876SOL    HW118527   3.332   3.445   2.083
 5876SOL    HW218528   3.326   3.284   2.054
 5877SOL     OW18529   5.364   4.320   0.603
 5877SOL    HW118530   5.460   4.300   0.623
 5877SOL    HW218531   5.341   4.411   0.639
 5878SOL     OW18532   2.203   4.887   2.463
 5878SOL    HW118533   2.229   4.829   2.386
 5878SOL    HW218534   2.230   4.843   2.548
 5879SOL     OW18535   0.274   4.429   5.113
 5879SOL    HW118536   0.189   4.480   5.122
 5879SOL    HW218537   0.349   4.491   5.090
 5880SOL     OW18538   2.552   5.845   0.973
 5880SOL    HW118539   2.581   5.932   1.013
 5880SOL    HW218540   2.575   5.770   1.035
 5881SOL     OW18541   0.758   6.083   4.355
 5881SOL    HW118542   0.669   6.120   4.381
 5881SOL    HW218543   0.802   6.040   4.434
 5882SOL     OW18544   4.480   1.243   1.716
 5882SOL    HW118545   4.522   1.224   1.628
 5882SOL    HW218546   4.454   1.340   1.721
 5883SOL     OW18547   0.547   3.893   5.751
 5883SOL    HW118548   0.526   3.986   5.781
 5883SOL    HW218549   0.645   3.877   5.758
 5884SOL     OW18550   1.504   1.282   3.126
 5884SOL    HW118551   1.514   1.310   3.221
 5884SOL    HW218552   1.512   1.362   3.066
 5885SOL     OW18553   6.133   6.700   1.403
 5885SOL    HW118554   6.035   6.681   1.403
 5885SOL    HW218555   6.149   6.791   1.365
 5886SOL     OW18556   1.510   1.477   6.232
 5886SOL    HW118557   1.608   1.497   6.223
 5886SOL    HW218558   1.466   1.485   6.142
 5887SOL     OW18559   3.967   7.019   4.339
 5887SOL    HW118560   3.874   0.034   4.337
 5887SOL    HW218561   4.008   0.013   4.429
 5888SOL     OW18562   2.309   0.265   3.712
 5888SOL    HW118563   2.213   0.242   3.729
 5888SOL    HW218564   2.318   0.308   3.622
 5889SOL     OW18565   2.241   0.404   0.601
 5889SOL    HW118566   2.222   0.502   0.594
 5889SOL    HW218567   2.328   0.383   0.556
 5890SOL     OW18568   3.091   4.715   6.057
 5890SOL    HW118569   3.097   4.770   5.974
 5890SOL    HW218570   3.009   4.740   6.109
 5891SOL     OW18571   2.964   3.952   7.017
 5891SOL    HW118572   2.994   3.878   0.053
 5891SOL    HW218573   2.874   3.931   6.980
 5892SOL     OW18574   0.897   7.000   1.601
 5892SOL    HW118575   0.901   0.026   1.688
 5892SOL    HW218576   0.845   6.915   1.614
 5893SOL     OW18577   1.440   0.633   3.466
 5893SOL    HW118578   1.385   0.694   3.523
 5893SOL    HW218579   1.400   0.630   3.374
 5894SOL     OW18580   1.434   3.320   3.206
 5894SOL    HW118581   1.526   3.324   3.166
 5894SOL    HW218582   1.367   3.338   3.134
 5895SOL     OW18583   5.209   3.646   3.861
 5895SOL    HW118584   5.276   3.576   3.837
 5895SOL    HW218585   5.255   3.734   3.874
 5896SOL     OW18586   3.586   2.370   6.086
 5896SOL    HW118587   3.632   2.366   5.998
 5896SOL    HW218588   3.510   2.305   6.086
 5897SOL     OW18589   4.375   0.092   1.277
 5897SOL    HW118590   4.347   0.174   1.226
 5897SOL    HW218591   4.293   0.039   1.301
 5898SOL     OW18592   2.178   0.154   2.435
 5898SOL    HW118593   2.172   0.055   2.419
 5898SOL    HW218594   2.086   0.189   2.456
 5899SOL     OW18595   5.450   0.126   4.248
 5899SOL    HW118596   5.515   0.065   4.294
 5899SOL    HW218597   5.442   0.211   4.301
 5900SOL     OW18598   4.687   4.975   3.024
 5900SOL    HW118599   4.647   4.891   3.061
 5900SOL    HW218600   4.627   5.052   3.043
 5901SOL     OW18601   3.082   6.564   5.048
 5901SOL    HW118602   3.048   6.569   4.955
 5901SOL    HW218603   3.172   6.521   5.049
 5902SOL     OW18604   6.242   1.967   6.505
 5902SOL    HW118605   6.161   1.913   6.482
 5902SOL    HW218606   6.302   1.974   6.425
 5903SOL     OW18607   5.903   3.072   6.387
 5903SOL    HW118608   5.985   3.060   6.443
 5903SOL    HW218609   5.930   3.078   6.291
 5904SOL     OW18610   0.095   3.900   2.430
 5904SOL    HW118611   0.107   3.999   2.440
 5904SOL    HW218612   0.134   3.871   2.342
 5905SOL     OW18613   0.108   5.551   2.519
 5905SOL    HW118614   0.025   5.600   2.491
 5905SOL    HW218615   0.123   5.473   2.459
 5906SOL     OW18616   5.854   1.239   3.684
 5906SOL    HW118617   5.790   1.162   3.691
 5906SOL    HW218618   5.867   1.279   3.775
 5907SOL     OW18619   2.060   5.929   1.797
 5907SOL    HW118620   1.970   5.907   1.759
 5907SOL    HW218621   2.078   5.871   1.877
 5908SOL     OW18622   6.826   3.453   5.981
 5908SOL    HW118623   6.915   3.494   6.002
 5908SOL    HW218624   6.837   3.383   5.911
 5909SOL     OW18625   6.735   4.979   0.939
 5909SOL    HW118626   6.723   5.060   0.996
 5909SOL    HW218627   6.688   4.992   0.852
 5910SOL     OW18628   2.623   1.962   3.483
 5910SOL    HW118629   2.571   1.943   3.399
 5910SOL    HW218630   2.603   2.055   3.514
 5911SOL     OW18631   6.562   6.057   6.362
 5911SOL    HW118632   6.470   6.060   6.323
 5911SOL    HW218633   6.612   6.139   6.336
 5912SOL     OW18634   0.404   0.942   3.646
 5912SOL    HW118635   0.420   1.032   3.604
 5912SOL    HW218636   0.492   0.902   3.671
 5913SOL     OW18637   5.958   1.872   6.692
 5913SOL    HW118638   5.871   1.841   6.728
 5913SOL    HW218639   5.943   1.919   6.605
 5914SOL     OW18640   0.785   6.757   0.299
 5914SOL    HW118641   0.837   6.811   0.232
 5914SOL    HW218642   0.814   6.783   0.392
 5915SOL     OW18643   4.128   1.979   6.552
 5915SOL    HW118644   4.045   1.923   6.562
 5915SOL    HW218645   4.170   1.960   6.463
 5916SOL     OW18646   1.164   6.059   2.792
 5916SOL    HW118647   1.245   6.008   2.764
 5916SOL    HW218648   1.111   6.084   2.711
 5917SOL     OW18649   3.595   4.280   0.461
 5917SOL    HW118650   3.513   4.224   0.475
 5917SOL    HW218651   3.599   4.309   0.366
 5918SOL     OW18652   2.950   6.362   5.451
 5918SOL    HW118653   2.935   6.461   5.446
 5918SOL    HW218654   2.887   6.316   5.389
 5919SOL     OW18655   3.965   3.010   3.583
 5919SOL    HW118656   3.887   2.995   3.644
 5919SOL    HW218657   4.004   3.101   3.602
 5920SOL     OW18658   6.812   0.070   5.544
 5920SOL    HW118659   6.900   0.033   5.512
 5920SOL    HW218660   6.824   0.165   5.573
 5921SOL     OW18661   2.984   4.632   6.502
 5921SOL    HW118662   3.002   4.729   6.513
 5921SOL    HW218663   2.896   4.609   6.542
 5922SOL     OW18664   5.443   3.854   3.533
 5922SOL    HW118665   5.388   3.782   3.490
 5922SOL    HW218666   5.441   3.842   3.632
 5923SOL     OW18667   6.544   0.436   1.856
 5923SOL    HW118668   6.503   0.504   1.916
 5923SOL    HW218669   6.526   0.344   1.892
 5924SOL     OW18670   5.921   0.383   3.297
 5924SOL    HW118671   5.882   0.432   3.218
 5924SOL    HW218672   5.858   0.311   3.326
 5925SOL     OW18673   5.116   6.141   1.416
 5925SOL    HW118674   5.056   6.155   1.495
 5925SOL    HW218675   5.140   6.044   1.409
 5926SOL     OW18676   4.582   5.697   3.387
 5926SOL    HW118677   4.631   5.666   3.468
 5926SOL    HW218678   4.511   5.762   3.413
 5927SOL     OW18679   0.671   4.563   1.858
 5927SOL    HW118680   0.692   4.649   1.904
 5927SOL    HW218681   0.613   4.582   1.778
 5928SOL     OW18682   3.447   0.371   0.915
 5928SOL    HW118683   3.398   0.331   0.992
 5928SOL    HW218684   3.391   0.442   0.873
 5929SOL     OW18685   1.330   1.046   6.739
 5929SOL    HW118686   1.263   1.091   6.679
 5929SOL    HW218687   1.378   1.115   6.793
 5930SOL     OW18688   1.279   3.395   2.408
 5930SOL    HW118689   1.281   3.307   2.455
 5930SOL    HW218690   1.361   3.447   2.430
 5931SOL     OW18691   5.203   6.316   3.901
 5931SOL    HW118692   5.196   6.363   3.814
 5931SOL    HW218693   5.156   6.370   3.972
 5932SOL     OW18694   2.856   1.317   6.906
 5932SOL    HW118695   2.769   1.269   6.896
 5932SOL    HW218696   2.902   1.323   6.817
 5933SOL     OW18697   6.479   6.084   3.912
 5933SOL    HW118698   6.521   6.083   3.821
 5933SOL    HW218699   6.403   6.149   3.913
 5934SOL     OW18700   2.817   3.779   5.915
 5934SOL    HW118701   2.799   3.790   5.817
 5934SOL    HW218702   2.822   3.869   5.959
 5935SOL     OW18703   0.008   6.423   5.863
 5935SOL    HW118704   6.982   6.510   5.867
 5935SOL    HW218705   0.018   6.394   5.768
 5936SOL     OW18706   3.536   3.109   1.690
 5936SOL    HW118707   3.446   3.086   1.728
 5936SOL    HW218708   3.589   3.025   1.679
 5937SOL     OW18709   6.862   3.168   1.760
 5937SOL    HW118710   6.791   3.237   1.774
 5937SOL    HW218711   6.940   3.210   1.714
 5938SOL     OW18712   0.550   5.192   5.051
 5938SOL    HW118713   0.634   5.140   5.034
 5938SOL    HW218714   0.497   5.197   4.966
 5939SOL     OW18715   3.526   0.784   4.958
 5939SOL    HW118716   3.550   0.701   4.906
 5939SOL    HW218717   3.604   0.813   5.013
 5940SOL     OW18718   4.898   5.916   2.730
 5940SOL    HW118719   4.966   5.977   2.690
 5940SOL    HW218720   4.943   5.836   2.770
 5941SOL     OW18721   6.440   1.588   2.141
 5941SOL    HW118722   6.532   1.570   2.177
 5941SOL    HW218723   6.379   1.614   2.215
 5942SOL     OW18724   5.229   3.459   5.745
 5942SOL    HW118725   5.298   3.449   5.816
 5942SOL    HW218726   5.237   3.549   5.702
 5943SOL     OW18727   3.313   4.180   1.728
 5943SOL    HW118728   3.231   4.233   1.708
 5943SOL    HW218729   3.305   4.089   1.688
 5944SOL     OW18730   0.822   3.307   6.471
 5944SOL    HW118731   0.740   3.329   6.420
 5944SOL    HW218732   0.862   3.222   6.435
 5945SOL     OW18733   6.991   5.795   5.582
 5945SOL    HW118734   6.898   5.814   5.551
 5945SOL    HW218735   0.013   5.735   5.516
 5946SOL     OW18736   3.359   4.037   0.832
 5946SOL    HW118737   3.267   3.999   0.824
 5946SOL    HW218738   3.413   3.983   0.896
 5947SOL     OW18739   3.375   2.950   4.683
 5947SOL    HW118740   3.427   2.901   4.753
 5947SOL    HW218741   3.397   2.913   4.593
 5948SOL     OW18742   5.168   3.804   1.771
 5948SOL    HW118743   5.193   3.895   1.803
 5948SOL    HW218744   5.094   3.767   1.828
 5949SOL     OW18745   0.172   4.304   1.684
 5949SOL    HW118746   0.131   4.220   1.649
 5949SOL    HW218747   0.126   4.332   1.768
 5950SOL     OW18748   4.878   1.084   5.732
 5950SOL    HW118749   4.891   1.172   5.779
 5950SOL    HW218750   4.959   1.027   5.746
 5951SOL     OW18751   1.227   4.609   6.601
 5951SOL    HW118752   1.152   4.621   6.536
 5951SOL    HW218753   1.313   4.599   6.551
 5952SOL     OW18754   4.167   5.225   1.051
 5952SOL    HW118755   4.171   5.133   1.013
 5952SOL    HW218756   4.191   5.291   0.980
 5953SOL     OW18757   6.004   2.805   4.948
 5953SOL    HW118758   5.994   2.882   4.884
 5953SOL    HW218759   6.068   2.738   4.910
 5954SOL     OW18760   1.105   6.445   4.479
 5954SOL    HW118761   1.035   6.474   4.414
 5954SOL    HW218762   1.143   6.358   4.451
 5955SOL     OW18763   5.854   3.680   1.036
 5955SOL    HW118764   5.862   3.583   1.013
 5955SOL    HW218765   5.776   3.693   1.097
 5956SOL     OW18766   4.987   2.660   4.270
 5956SOL    HW118767   4.976   2.595   4.195
 5956SOL    HW218768   4.902   2.713   4.282
 5957SOL     OW18769   0.808   1.345   2.138
 5957SOL    HW118770   0.771   1.423   2.190
 5957SOL    HW218771   0.869   1.378   2.067
 5958SOL     OW18772   3.747   6.585   2.736
 5958SOL    HW118773   3.807   6.510   2.708
 5958SOL    HW218774   3.785   6.672   2.705
 5959SOL     OW18775   5.216   2.395   4.475
 5959SOL    HW118776   5.154   2.351   4.409
 5959SOL    HW218777   5.310   2.376   4.449
 5960SOL     OW18778   4.302   6.713   6.195
 5960SOL    HW118779   4.328   6.805   6.165
 5960SOL    HW218780   4.208   6.714   6.228
 5961SOL     OW18781   3.168   1.859   2.935
 5961SOL    HW118782   3.080   1.901   2.956
 5961SOL    HW218783   3.178   1.847   2.837
 5962SOL     OW18784   5.457   6.385   0.067
 5962SOL    HW118785   5.467   6.331   0.150
 5962SOL    HW218786   5.531   6.363   0.004
 5963SOL     OW18787   3.515   4.200   6.960
 5963SOL    HW118788   3.497   4.104   6.979
 5963SOL    HW218789   3.454   4.232   6.887
 5964SOL     OW18790   2.037   6.146   2.828
 5964SOL    HW118791   2.086   6.231   2.845
 5964SOL    HW218792   2.092   6.088   2.767
 5965SOL     OW18793   1.718   0.048   0.392
 5965SOL    HW118794   1.684   0.081   0.304
 5965SOL    HW218795   1.808   0.006   0.379
 5966SOL     OW18796   2.060   1.073   5.162
 5966SOL    HW118797   2.005   1.155   5.176
 5966SOL    HW218798   2.149   1.085   5.207
 5967SOL     OW18799   2.333   1.571   3.956
 5967SOL    HW118800   2.282   1.553   4.040
 5967SOL    HW218801   2.382   1.657   3.964
 5968SOL     OW18802   5.815   2.128   1.364
 5968SOL    HW118803   5.749   2.055   1.382
 5968SOL    HW218804   5.765   2.214   1.351
 5969SOL     OW18805   5.218   0.932   0.129
 5969SOL    HW118806   5.221   0.958   0.226
 5969SOL    HW218807   5.240   0.834   0.120
 5970SOL     OW18808   6.884   3.386   0.781
 5970SOL    HW118809   6.949   3.436   0.725
 5970SOL    HW218810   6.873   3.433   0.869
 5971SOL     OW18811   0.126   6.822   3.769
 5971SOL    HW118812   0.116   6.879   3.688
 5971SOL    HW218813   0.177   6.872   3.839
 5972SOL     OW18814   5.040   4.827   0.928
 5972SOL    HW118815   5.083   4.830   1.018
 5972SOL    HW218816   4.971   4.899   0.921
 5973SOL     OW18817   1.950   2.532   2.619
 5973SOL    HW118818   1.898   2.617   2.626
 5973SOL    HW218819   1.939   2.480   2.704
 5974SOL     OW18820   4.831   1.757   5.750
 5974SOL    HW118821   4.737   1.764   5.718
 5974SOL    HW218822   4.838   1.795   5.842
 5975SOL     OW18823   5.647   5.686   0.635
 5975SOL    HW118824   5.625   5.777   0.598
 5975SOL    HW218825   5.633   5.686   0.733
 5976SOL     OW18826   2.694   3.743   5.665
 5976SOL    HW118827   2.600   3.754   5.695
 5976SOL    HW218828   2.726   3.650   5.685
 5977SOL     OW18829   0.232   5.262   6.852
 5977SOL    HW118830   0.273   5.215   6.930
 5977SOL    HW218831   0.243   5.360   6.863
 5978SOL     OW18832   3.118   5.054   0.446
 5978SOL    HW118833   3.151   5.144   0.474
 5978SOL    HW218834   3.025   5.041   0.479
 5979SOL     OW18835   6.509   0.100   1.393
 5979SOL    HW118836   6.477   0.106   1.298
 5979SOL    HW218837   6.434   0.125   1.455
 5980SOL     OW18838   3.739   3.293   1.840
 5980SOL    HW118839   3.715   3.197   1.822
 5980SOL    HW218840   3.836   3.306   1.822
 5981SOL     OW18841   2.736   2.339   7.008
 5981SOL    HW118842   2.833   2.345   6.984
 5981SOL    HW218843   2.726   2.340   0.084
 5982SOL     OW18844   6.309   2.507   1.442
 5982SOL    HW118845   6.350   2.566   1.373
 5982SOL    HW218846   6.275   2.562   1.518
 5983SOL     OW18847   0.164   0.627   3.940
 5983SOL    HW118848   0.165   0.573   3.856
 5983SOL    HW218849   0.091   0.596   4.000
 5984SOL     OW18850   6.337   6.745   3.239
 5984SOL    HW118851   6.272   6.705   3.305
 5984SOL    HW218852   6.395   6.811   3.286
 5985SOL     OW18853   5.830   2.455   2.753
 5985SOL    HW118854   5.797   2.374   2.706
 5985SOL    HW218855   5.776   2.534   2.724
 5986SOL     OW18856   4.196   3.741   5.397
 5986SOL    HW118857   4.212   3.687   5.480
 5986SOL    HW218858   4.270   3.724   5.332
 5987SOL     OW18859   6.767   0.532   5.734
 5987SOL    HW118860   6.670   0.514   5.750
 5987SOL    HW218861   6.809   0.453   5.689
 5988SOL     OW18862   1.706   2.326   6.736
 5988SOL    HW118863   1.613   2.290   6.742
 5988SOL    HW218864   1.750   2.320   6.825
 5989SOL     OW18865   0.512   5.815   0.150
 5989SOL    HW118866   0.599   5.778   0.182
 5989SOL    HW218867   0.505   5.911   0.176
 5990SOL     OW18868   3.901   4.866   1.497
 5990SOL    HW118869   3.950   4.862   1.585
 5990SOL    HW218870   3.924   4.786   1.443
 5991SOL     OW18871   4.977   6.553   1.000
 5991SOL    HW118872   4.951   6.457   1.001
 5991SOL    HW218873   4.963   6.590   0.908
 5992SOL     OW18874   3.186   0.223   2.102
 5992SOL    HW118875   3.138   0.310   2.103
 5992SOL    HW218876   3.280   0.237   2.133
 5993SOL     OW18877   6.104   1.736   0.174
 5993SOL    HW118878   6.118   1.782   0.262
 5993SOL    HW218879   6.191   1.699   0.142
 5994SOL     OW18880   0.507   3.066   0.186
 5994SOL    HW118881   0.533   3.100   0.096
 5994SOL    HW218882   0.582   3.010   0.223
 5995SOL     OW18883   4.997   3.602   1.248
 5995SOL    HW118884   5.096   3.613   1.240
 5995SOL    HW218885   4.972   3.582   1.343
 5996SOL     OW18886   2.718   5.345   1.338
 5996SOL    HW118887   2.621   5.363   1.357
 5996SOL    HW218888   2.727   5.307   1.246
 5997SOL     OW18889   6.982   0.073   3.315
 5997SOL    HW118890   6.942   0.137   3.381
 5997SOL    HW218891   6.912   0.009   3.284
 5998SOL     OW18892   6.741   0.253   1.013
 5998SOL    HW118893   6.761   0.165   0.971
 5998SOL    HW218894   6.800   0.266   1.093
 5999SOL     OW18895   4.709   2.902   1.248
 5999SOL    HW118896   4.662   2.876   1.332
 5999SOL    HW218897   4.794   2.950   1.270
 6000SOL     OW18898   0.032   4.729   0.390
 6000SOL    HW118899   0.112   4.678   0.423
 6000SOL    HW218900   6.983   4.726   0.458
 6001SOL     OW18901   5.866   6.111   5.190
 6001SOL    HW118902   5.917   6.082   5.271
 6001SOL    HW218903   5.907   6.070   5.109
 6002SOL     OW18904   5.803   5.947   4.953
 6002SOL    HW118905   5.888   5.976   4.910
 6002SOL    HW218906   5.821   5.869   5.013
 6003SOL     OW18907   0.111   3.015   4.484
 6003SOL    HW118908   0.037   2.952   4.462
 6003SOL    HW218909   0.114   3.087   4.415
 6004SOL     OW18910   5.413   2.853   3.851
 6004SOL    HW118911   5.437   2.758   3.829
 6004SOL    HW218912   5.496   2.908   3.857
 6005SOL     OW18913   3.726   5.395   6.118
 6005SOL    HW118914   3.728   5.324   6.047
 6005SOL    HW218915   3.647   5.379   6.178
 6006SOL     OW18916   3.503   5.741   5.833
 6006SOL    HW118917   3.574   5.672   5.823
 6006SOL    HW218918   3.529   5.824   5.783
 6007SOL     OW18919   1.671   5.697   5.389
 6007SOL    HW118920   1.673   5.752   5.473
 6007SOL    HW218921   1.583   5.651   5.381
 6008SOL     OW18922   3.059   4.875   5.822
 6008SOL    HW118923   3.117   4.812   5.772
 6008SOL    HW218924   2.965   4.868   5.788
 6009SOL     OW18925   4.140   5.341   3.432
 6009SOL    HW118926   4.106   5.303   3.346
 6009SOL    HW218927   4.240   5.346   3.430
 6010SOL     OW18928   0.475   5.615   5.250
 6010SOL    HW118929   0.485   5.530   5.301
 6010SOL    HW218930   0.536   5.685   5.288
 6011SOL     OW18931   6.657   1.794   1.915
 6011SOL    HW118932   6.560   1.774   1.930
 6011SOL    HW218933   6.669   1.836   1.825
 6012SOL     OW18934   0.064   0.416   5.787
 6012SOL    HW118935   0.161   0.404   5.808
 6012SOL    HW218936   0.017   0.455   5.866
 6013SOL     OW18937   5.836   1.271   2.424
 6013SOL    HW118938   5.743   1.257   2.456
 6013SOL    HW218939   5.853   1.368   2.409
 6014SOL     OW18940   4.141   3.279   4.342
 6014SOL    HW118941   4.195   3.201   4.308
 6014SOL    HW218942   4.097   3.254   4.428
 6015SOL     OW18943   6.527   1.716   4.812
 6015SOL    HW118944   6.522   1.718   4.912
 6015SOL    HW218945   6.439   1.688   4.775
 6016SOL     OW18946   5.469   1.670   4.610
 6016SOL    HW118947   5.515   1.599   4.663
 6016SOL    HW218948   5.451   1.749   4.668
 6017SOL     OW18949   6.970   2.563   5.771
 6017SOL    HW118950   6.996   2.659   5.755
 6017SOL    HW218951   6.922   2.556   5.858
 6018SOL     OW18952   3.575   1.043   6.176
 6018SOL    HW118953   3.657   0.987   6.188
 6018SOL    HW218954   3.561   1.100   6.257
 6019SOL     OW18955   6.845   3.626   0.027
 6019SOL    HW118956   6.896   3.711   0.042
 6019SOL    HW218957   6.757   3.647   7.007
 6020SOL     OW18958   0.727   4.149   0.196
 6020SOL    HW118959   0.777   4.124   0.278
 6020SOL    HW218960   0.695   4.065   0.150
 6021SOL     OW18961   4.367   0.239   3.331
 6021SOL    HW118962   4.425   0.317   3.359
 6021SOL    HW218963   4.396   0.206   3.241
 6022SOL     OW18964   6.541   2.015   1.636
 6022SOL    HW118965   6.612   2.059   1.582
 6022SOL    HW218966   6.453   2.025   1.590
 6023SOL     OW18967   4.616   1.115   1.510
 6023SOL    HW118968   4.700   1.142   1.464
 6023SOL    HW218969   4.570   1.044   1.456
 6024SOL     OW18970   0.653   5.598   0.337
 6024SOL    HW118971   0.714   5.542   0.281
 6024SOL    HW218972   0.570   5.546   0.358
 6025SOL     OW18973   2.186   1.357   4.553
 6025SOL    HW118974   2.219   1.450   4.574
 6025SOL    HW218975   2.250   1.290   4.590
 6026SOL     OW18976   6.340   4.357   4.217
 6026SOL    HW118977   6.400   4.322   4.145
 6026SOL    HW218978   6.386   4.431   4.266
 6027SOL     OW18979   6.127   3.308   5.935
 6027SOL    HW118980   6.066   3.350   6.002
 6027SOL    HW218981   6.094   3.327   5.843
 6028SOL     OW18982   5.606   4.805   6.143
 6028SOL    HW118983   5.576   4.719   6.101
 6028SOL    HW218984   5.601   4.879   6.076
 6029SOL     OW18985   2.367   0.854   3.277
 6029SOL    HW118986   2.274   0.867   3.312
 6029SOL    HW218987   2.367   0.861   3.177
 6030SOL     OW18988   5.175   3.831   4.795
 6030SOL    HW118989   5.213   3.835   4.703
 6030SOL    HW218990   5.089   3.779   4.794
 6031SOL     OW18991   0.355   6.170   5.406
 6031SOL    HW118992   0.346   6.269   5.399
 6031SOL    HW218993   0.384   6.146   5.499
 6032SOL     OW18994   3.376   5.604   3.692
 6032SOL    HW118995   3.299   5.540   3.695
 6032SOL    HW218996   3.418   5.609   3.783
 6033SOL     OW18997   2.236   1.694   2.834
 6033SOL    HW118998   2.288   1.639   2.768
 6033SOL    HW218999   2.164   1.744   2.786
 6034SOL     OW19000   1.896   0.582   0.024
 6034SOL    HW119001   1.979   0.527   0.035
 6034SOL    HW219002   1.919   0.671   7.009
 6035SOL     OW19003   1.755   0.923   2.911
 6035SOL    HW119004   1.787   0.929   3.005
 6035SOL    HW219005   1.795   0.842   2.867
 6036SOL     OW19006   6.194   2.750   0.560
 6036SOL    HW119007   6.259   2.790   0.625
 6036SOL    HW219008   6.212   2.652   0.552
 6037SOL     OW19009   4.548   2.814   0.855
 6037SOL    HW119010   4.618   2.770   0.912
 6037SOL    HW219011   4.571   2.801   0.759
 6038SOL     OW19012   0.949   2.413   6.070
 6038SOL    HW119013   0.953   2.369   5.980
 6038SOL    HW219014   1.023   2.380   6.128
 6039SOL     OW19015   3.163   4.039   3.658
 6039SOL    HW119016   3.121   3.948   3.665
 6039SOL    HW219017   3.143   4.078   3.568
 6040SOL     OW19018   0.870   1.628   6.915
 6040SOL    HW119019   0.892   1.605   6.820
 6040SOL    HW219020   0.895   1.723   6.934
 6041SOL     OW19021   3.088   3.139   6.249
 6041SOL    HW119022   2.991   3.113   6.249
 6041SOL    HW219023   3.118   3.159   6.156
 6042SOL     OW19024   3.140   5.459   3.222
 6042SOL    HW119025   3.117   5.423   3.132
 6042SOL    HW219026   3.064   5.444   3.285
 6043SOL     OW19027   1.974   0.671   3.827
 6043SOL    HW119028   1.909   0.616   3.879
 6043SOL    HW219029   1.991   0.627   3.738
 6044SOL     OW19030   0.840   2.130   1.668
 6044SOL    HW119031   0.861   2.179   1.752
 6044SOL    HW219032   0.797   2.043   1.690
 6045SOL     OW19033   5.125   2.269   3.553
 6045SOL    HW119034   5.172   2.320   3.625
 6045SOL    HW219035   5.146   2.311   3.464
 6046SOL     OW19036   3.571   3.198   2.536
 6046SOL    HW119037   3.546   3.101   2.540
 6046SOL    HW219038   3.534   3.245   2.615
 6047SOL     OW19039   5.741   1.562   0.709
 6047SOL    HW119040   5.771   1.467   0.700
 6047SOL    HW219041   5.650   1.565   0.749
 6048SOL     OW19042   5.628   5.828   4.417
 6048SOL    HW119043   5.633   5.919   4.376
 6048SOL    HW219044   5.565   5.771   4.364
 6049SOL     OW19045   4.413   4.753   5.288
 6049SOL    HW119046   4.367   4.787   5.370
 6049SOL    HW219047   4.510   4.779   5.292
 6050SOL     OW19048   3.810   5.823   1.425
 6050SOL    HW119049   3.861   5.801   1.342
 6050SOL    HW219050   3.845   5.768   1.501
 6051SOL     OW19051   1.220   1.206   3.202
 6051SOL    HW119052   1.203   1.150   3.121
 6051SOL    HW219053   1.319   1.219   3.212
 6052SOL     OW19054   5.529   0.136   0.361
 6052SOL    HW119055   5.525   0.223   0.409
 6052SOL    HW219056   5.532   0.061   0.427
 6053SOL     OW19057   4.079   2.328   5.988
 6053SOL    HW119058   4.027   2.356   5.907
 6053SOL    HW219059   4.156   2.391   6.001
 6054SOL     OW19060   3.915   4.601   0.796
 6054SOL    HW119061   3.999   4.548   0.797
 6054SOL    HW219062   3.897   4.639   0.887
 6055SOL     OW19063   3.168   4.603   0.641
 6055SOL    HW119064   3.242   4.669   0.655
 6055SOL    HW219065   3.122   4.624   0.554
 6056SOL     OW19066   6.106   4.525   4.898
 6056SOL    HW119067   6.110   4.621   4.868
 6056SOL    HW219068   6.114   4.466   4.818
 6057SOL     OW19069   5.064   0.464   3.168
 6057SOL    HW119070   5.046   0.548   3.118
 6057SOL    HW219071   5.157   0.432   3.147
 6058SOL     OW19072   5.723   2.138   6.272
 6058SOL    HW119073   5.744   2.145   6.175
 6058SOL    HW219074   5.636   2.091   6.285
 6059SOL     OW19075   4.701   4.428   6.364
 6059SOL    HW119076   4.654   4.350   6.324
 6059SOL    HW219077   4.797   4.405   6.380
 6060SOL     OW19078   2.835   2.838   0.295
 6060SOL    HW119079   2.743   2.861   0.326
 6060SOL    HW219080   2.893   2.920   0.298
 6061SOL     OW19081   3.586   4.986   0.462
 6061SOL    HW119082   3.576   4.976   0.561
 6061SOL    HW219083   3.570   5.081   0.436
 6062SOL     OW19084   2.449   2.908   0.652
 6062SOL    HW119085   2.425   2.811   0.659
 6062SOL    HW219086   2.549   2.917   0.644
 6063SOL     OW19087   3.696   5.205   5.898
 6063SOL    HW119088   3.620   5.263   5.869
 6063SOL    HW219089   3.662   5.116   5.926
 6064SOL     OW19090   0.125   6.375   0.690
 6064SOL    HW119091   0.028   6.383   0.714
 6064SOL    HW219092   0.172   6.461   0.714
 6065SOL     OW19093   1.272   5.852   2.001
 6065SOL    HW119094   1.350   5.911   2.020
 6065SOL    HW219095   1.247   5.860   1.904
 6066SOL     OW19096   4.810   6.964   3.644
 6066SOL    HW119097   4.894   7.018   3.650
 6066SOL    HW219098   4.761   6.968   3.731
 6067SOL     OW19099   6.082   0.490   6.051
 6067SOL    HW119100   6.029   0.558   6.101
 6067SOL    HW219101   6.179   0.499   6.075
 6068SOL     OW19102   4.703   1.486   5.742
 6068SOL    HW119103   4.609   1.454   5.739
 6068SOL    HW219104   4.705   1.586   5.748
 6069SOL     OW19105   6.632   3.546   6.244
 6069SOL    HW119106   6.575   3.495   6.180
 6069SOL    HW219107   6.573   3.600   6.305
 6070SOL     OW19108   3.082   1.534   0.936
 6070SOL    HW119109   3.168   1.546   0.985
 6070SOL    HW219110   3.099   1.484   0.851
 6071SOL     OW19111   5.662   7.014   5.482
 6071SOL    HW119112   5.642   0.029   5.392
 6071SOL    HW219113   5.578   6.974   5.520
 6072SOL     OW19114   0.145   2.818   0.442
 6072SOL    HW119115   0.098   2.902   0.467
 6072SOL    HW219116   0.148   2.756   0.521
 6073SOL     OW19117   5.174   2.850   1.196
 6073SOL    HW119118   5.267   2.876   1.224
 6073SOL    HW219119   5.108   2.894   1.257
 6074SOL     OW19120   0.967   5.954   2.389
 6074SOL    HW119121   0.961   6.007   2.474
 6074SOL    HW219122   0.991   6.014   2.313
 6075SOL     OW19123   4.883   6.587   6.408
 6075SOL    HW119124   4.892   6.532   6.490
 6075SOL    HW219125   4.839   6.533   6.336
 6076SOL     OW19126   2.112   5.021   4.235
 6076SOL    HW119127   2.042   5.076   4.190
 6076SOL    HW219128   2.121   4.933   4.189
 6077SOL     OW19129   6.058   6.790   1.766
 6077SOL    HW119130   6.143   6.790   1.818
 6077SOL    HW219131   5.981   6.806   1.827
 6078SOL     OW19132   4.401   3.373   6.906
 6078SOL    HW119133   4.345   3.291   6.919
 6078SOL    HW219134   4.497   3.348   6.911
 6079SOL     OW19135   3.826   4.317   6.350
 6079SOL    HW119136   3.762   4.308   6.426
 6079SOL    HW219137   3.780   4.289   6.265
 6080SOL     OW19138   0.822   4.341   0.010
 6080SOL    HW119139   0.920   4.358   0.011
 6080SOL    HW219140   0.796   4.286   0.089
 6081SOL     OW19141   1.241   3.291   4.672
 6081SOL    HW119142   1.250   3.383   4.709
 6081SOL    HW219143   1.204   3.295   4.579
 6082SOL     OW19144   4.141   1.291   1.036
 6082SOL    HW119145   4.073   1.353   1.074
 6082SOL    HW219146   4.228   1.304   1.083
 6083SOL     OW19147   4.746   6.439   6.205
 6083SOL    HW119148   4.691   6.364   6.242
 6083SOL    HW219149   4.778   6.414   6.114
 6084SOL     OW19150   0.759   6.823   2.719
 6084SOL    HW119151   0.747   6.724   2.711
 6084SOL    HW219152   0.733   6.852   2.811
 6085SOL     OW19153   0.268   6.056   0.099
 6085SOL    HW119154   0.186   6.002   0.116
 6085SOL    HW219155   0.327   6.054   0.180
 6086SOL     OW19156   3.821   3.480   6.722
 6086SOL    HW119157   3.730   3.514   6.743
 6086SOL    HW219158   3.888   3.553   6.734
 6087SOL     OW19159   5.056   6.660   0.771
 6087SOL    HW119160   5.045   6.752   0.807
 6087SOL    HW219161   5.019   6.656   0.678
 6088SOL     OW19162   5.359   0.111   3.641
 6088SOL    HW119163   5.345   0.061   3.726
 6088SOL    HW219164   5.307   0.196   3.643
 6089SOL     OW19165   6.090   2.749   3.080
 6089SOL    HW119166   6.060   2.734   3.174
 6089SOL    HW219167   6.180   2.708   3.067
 6090SOL     OW19168   3.835   6.635   4.290
 6090SOL    HW119169   3.736   6.626   4.290
 6090SOL    HW219170   3.872   6.593   4.206
 6091SOL     OW19171   2.227   1.214   1.479
 6091SOL    HW119172   2.287   1.256   1.548
 6091SOL    HW219173   2.141   1.264   1.475
 6092SOL     OW19174   4.515   6.183   1.802
 6092SOL    HW119175   4.595   6.181   1.862
 6092SOL    HW219176   4.512   6.098   1.748
 6093SOL     OW19177   2.496   1.602   2.458
 6093SOL    HW119178   2.539   1.512   2.473
 6093SOL    HW219179   2.515   1.632   2.365
 6094SOL     OW19180   0.411   6.365   4.875
 6094SOL    HW119181   0.507   6.357   4.847
 6094SOL    HW219182   0.374   6.451   4.841
 6095SOL     OW19183   4.180   6.013   0.225
 6095SOL    HW119184   4.172   6.028   0.127
 6095SOL    HW219185   4.276   6.017   0.252
 6096SOL     OW19186   6.225   6.529   2.089
 6096SOL    HW119187   6.287   6.537   2.167
 6096SOL    HW219188   6.212   6.433   2.066
 6097SOL     OW19189   1.937   5.999   2.196
 6097SOL    HW119190   2.021   6.053   2.208
 6097SOL    HW219191   1.960   5.910   2.159
 6098SOL     OW19192   6.843   1.135   4.883
 6098SOL    HW119193   6.930   1.138   4.931
 6098SOL    HW219194   6.769   1.114   4.947
 6099SOL     OW19195   4.647   6.241   6.384
 6099SOL    HW119196   4.727   6.203   6.430
 6099SOL    HW219197   4.590   6.167   6.348
 6100SOL     OW19198   6.888   6.139   3.867
 6100SOL    HW119199   6.903   6.040   3.875
 6100SOL    HW219200   6.818   6.157   3.798
 6101SOL     OW19201   6.683   2.386   1.017
 6101SOL    HW119202   6.636   2.441   0.947
 6101SOL    HW219203   6.709   2.445   1.093
 6102SOL     OW19204   4.358   6.539   2.174
 6102SOL    HW119205   4.388   6.450   2.208
 6102SOL    HW219206   4.437   6.599   2.162
 6103SOL     OW19207   0.070   1.373   1.358
 6103SOL    HW119208   0.139   1.368   1.286
 6103SOL    HW219209   7.007   1.406   1.320
 6104SOL     OW19210   6.049   1.619   4.557
 6104SOL    HW119211   5.988   1.555   4.509
 6104SOL    HW219212   6.017   1.712   4.544
 6105SOL     OW19213   2.635   5.977   5.641
 6105SOL    HW119214   2.653   6.025   5.555
 6105SOL    HW219215   2.537   5.962   5.652
 6106SOL     OW19216   0.144   4.383   7.017
 6106SOL    HW119217   0.234   4.369   6.977
 6106SOL    HW219218   0.143   4.469   0.045
 6107SOL     OW19219   4.761   5.143   5.060
 6107SOL    HW119220   4.827   5.074   5.090
 6107SOL    HW219221   4.771   5.157   4.961
 6108SOL     OW19222   1.551   1.719   1.696
 6108SOL    HW119223   1.530   1.813   1.720
 6108SOL    HW219224   1.629   1.717   1.633
 6109SOL     OW19225   6.073   6.395   3.143
 6109SOL    HW119226   6.061   6.437   3.053
 6109SOL    HW219227   5.984   6.373   3.182
 6110SOL     OW19228   1.680   1.596   5.279
 6110SOL    HW119229   1.752   1.663   5.263
 6110SOL    HW219230   1.614   1.599   5.204
 6111SOL     OW19231   1.874   4.015   1.461
 6111SOL    HW119232   1.890   4.018   1.362
 6111SOL    HW219233   1.776   4.021   1.479
 6112SOL     OW19234   4.485   0.286   2.661
 6112SOL    HW119235   4.408   0.342   2.691
 6112SOL    HW219236   4.494   0.293   2.561
 6113SOL     OW19237   2.125   5.598   6.894
 6113SOL    HW119238   2.212   5.612   6.941
 6113SOL    HW219239   2.119   5.661   6.817
 6114SOL     OW19240   5.002   1.534   0.765
 6114SOL    HW119241   4.938   1.473   0.812
 6114SOL    HW219242   4.983   1.532   0.667
 6115SOL     OW19243   1.154   0.837   5.309
 6115SOL    HW119244   1.140   0.927   5.269
 6115SOL    HW219245   1.106   0.768   5.255
 6116SOL     OW19246   4.387   2.088   4.945
 6116SOL    HW119247   4.456   2.076   5.017
 6116SOL    HW219248   4.359   1.998   4.911
 6117SOL     OW19249   1.314   1.945   2.731
 6117SOL    HW119250   1.292   1.850   2.711
 6117SOL    HW219251   1.381   1.979   2.665
 6118SOL     OW19252   5.741   0.949   0.081
 6118SOL    HW119253   5.702   0.896   0.006
 6118SOL    HW219254   5.829   0.987   0.053
 6119SOL     OW19255   6.966   1.807   0.875
 6119SOL    HW119256   0.038   1.787   0.895
 6119SOL    HW219257   6.913   1.722   0.877
 6120SOL     OW19258   2.082   0.202   5.949
 6120SOL    HW119259   2.166   0.192   6.002
 6120SOL    HW219260   2.004   0.205   6.011
 6121SOL     OW19261   1.166   2.653   4.892
 6121SOL    HW119262   1.213   2.724   4.840
 6121SOL    HW219263   1.126   2.586   4.828
 6122SOL     OW19264   5.073   5.916   5.681
 6122SOL    HW119265   5.075   5.903   5.780
 6122SOL    HW219266   4.995   5.973   5.656
 6123SOL     OW19267   5.950   1.262   5.193
 6123SOL    HW119268   5.904   1.242   5.279
 6123SOL    HW219269   5.986   1.356   5.195
 6124SOL     OW19270   2.182   0.035   4.435
 6124SOL    HW119271   2.168   0.073   4.526
 6124SOL    HW219272   2.121   6.980   4.422
 6125SOL     OW19273   1.876   2.800   6.776
 6125SOL    HW119274   1.880   2.706   6.811
 6125SOL    HW219275   1.874   2.798   6.676
 6126SOL     OW19276   6.481   2.802   5.218
 6126SOL    HW119277   6.535   2.734   5.169
 6126SOL    HW219278   6.421   2.850   5.154
 6127SOL     OW19279   4.064   1.968   1.282
 6127SOL    HW119280   4.034   1.970   1.186
 6127SOL    HW219281   4.159   1.997   1.288
 6128SOL     OW19282   5.863   6.312   0.512
 6128SOL    HW119283   5.798   6.367   0.564
 6128SOL    HW219284   5.897   6.364   0.434
 6129SOL     OW19285   1.663   4.446   3.020
 6129SOL    HW119286   1.566   4.429   3.004
 6129SOL    HW219287   1.681   4.448   3.118
 6130SOL     OW19288   5.211   3.413   1.474
 6130SOL    HW119289   5.119   3.380   1.457
 6130SOL    HW219290   5.222   3.435   1.571
 6131SOL     OW19291   0.272   1.848   2.664
 6131SOL    HW119292   0.233   1.878   2.751
 6131SOL    HW219293   0.250   1.915   2.593
 6132SOL     OW19294   3.254   2.061   6.640
 6132SOL    HW119295   3.220   2.058   6.734
 6132SOL    HW219296   3.295   1.972   6.617
 6133SOL     OW19297   1.763   2.398   3.669
 6133SOL    HW119298   1.821   2.319   3.646
 6133SOL    HW219299   1.729   2.388   3.762
 6134SOL     OW19300   5.170   6.241   6.118
 6134SOL    HW119301   5.151   6.236   6.216
 6134SOL    HW219302   5.188   6.149   6.083
 6135SOL     OW19303   5.907   0.769   6.878
 6135SOL    HW119304   5.971   0.742   6.806
 6135SOL    HW219305   5.924   0.865   6.903
 6136SOL     OW19306   1.091   2.705   2.337
 6136SOL    HW119307   1.155   2.681   2.410
 6136SOL    HW219308   1.138   2.756   2.266
 6137SOL     OW19309   0.097   4.447   2.821
 6137SOL    HW119310   0.091   4.347   2.818
 6137SOL    HW219311   0.087   4.484   2.729
 6138SOL     OW19312   2.950   0.067   2.090
 6138SOL    HW119313   3.042   0.101   2.071
 6138SOL    HW219314   2.907   0.125   2.160
 6139SOL     OW19315   1.810   6.690   5.720
 6139SOL    HW119316   1.864   6.635   5.656
 6139SOL    HW219317   1.812   6.647   5.810
 6140SOL     OW19318   2.066   0.135   3.253
 6140SOL    HW119319   2.075   0.211   3.188
 6140SOL    HW219320   2.070   0.170   3.346
 6141SOL     OW19321   0.316   0.670   5.775
 6141SOL    HW119322   0.293   0.628   5.863
 6141SOL    HW219323   0.395   0.730   5.786
 6142SOL     OW19324   7.003   0.945   0.578
 6142SOL    HW119325   0.021   1.032   0.605
 6142SOL    HW219326   6.945   0.912   0.652
 6143SOL     OW19327   5.962   3.425   6.104
 6143SOL    HW119328   5.867   3.418   6.136
 6143SOL    HW219329   6.007   3.502   6.150
 6144SOL     OW19330   4.920   4.408   2.891
 6144SOL    HW119331   4.904   4.443   2.799
 6144SOL    HW219332   4.877   4.318   2.901
 6145SOL     OW19333   5.018   3.460   4.452
 6145SOL    HW119334   4.993   3.488   4.359
 6145SOL    HW219335   5.049   3.364   4.451
 6146SOL     OW19336   4.712   0.606   4.615
 6146SOL    HW119337   4.617   0.589   4.589
 6146SOL    HW219338   4.717   0.627   4.713
 6147SOL     OW19339   2.501   2.625   3.960
 6147SOL    HW119340   2.487   2.533   3.997
 6147SOL    HW219341   2.554   2.679   4.025
 6148SOL     OW19342   3.502   5.498   6.878
 6148SOL    HW119343   3.496   5.438   6.799
 6148SOL    HW219344   3.588   5.551   6.874
 6149SOL     OW19345   2.517   0.200   1.883
 6149SOL    HW119346   2.552   0.291   1.862
 6149SOL    HW219347   2.430   0.185   1.837
 6150SOL     OW19348   5.799   3.674   6.316
 6150SOL    HW119349   5.894   3.700   6.332
 6150SOL    HW219350   5.755   3.654   6.403
 6151SOL     OW19351   5.011   4.396   4.555
 6151SOL    HW119352   5.061   4.322   4.599
 6151SOL    HW219353   4.940   4.358   4.497
 6152SOL     OW19354   0.520   4.471   3.886
 6152SOL    HW119355   0.548   4.564   3.863
 6152SOL    HW219356   0.497   4.422   3.802
 6153SOL     OW19357   5.005   5.341   1.129
 6153SOL    HW119358   5.034   5.292   1.047
 6153SOL    HW219359   5.082   5.353   1.191
 6154SOL     OW19360   5.532   3.143   2.647
 6154SOL    HW119361   5.620   3.102   2.622
 6154SOL    HW219362   5.492   3.187   2.567
 6155SOL     OW19363   2.435   0.884   3.002
 6155SOL    HW119364   2.422   0.876   2.903
 6155SOL    HW219365   2.498   0.959   3.021
 6156SOL     OW19366   5.225   4.490   1.123
 6156SOL    HW119367   5.299   4.546   1.162
 6156SOL    HW219368   5.265   4.422   1.061
 6157SOL     OW19369   1.114   2.097   2.927
 6157SOL    HW119370   1.072   2.145   2.850
 6157SOL    HW219371   1.201   2.057   2.899
 6158SOL     OW19372   2.550   2.700   5.313
 6158SOL    HW119373   2.614   2.623   5.312
 6158SOL    HW219374   2.597   2.781   5.349
 6159SOL     OW19375   6.166   1.812   0.425
 6159SOL    HW119376   6.187   1.890   0.483
 6159SOL    HW219377   6.183   1.727   0.474
 6160SOL     OW19378   0.299   6.699   6.713
 6160SOL    HW119379   0.327   6.731   6.803
 6160SOL    HW219380   0.266   6.777   6.659
 6161SOL     OW19381   5.057   2.198   6.435
 6161SOL    HW119382   5.096   2.282   6.396
 6161SOL    HW219383   5.102   2.119   6.394
 6162SOL     OW19384   6.527   6.016   2.764
 6162SOL    HW119385   6.515   6.063   2.852
 6162SOL    HW219386   6.607   5.956   2.768
 6163SOL     OW19387   6.118   6.656   2.878
 6163SOL    HW119388   6.116   6.696   2.969
 6163SOL    HW219389   6.044   6.589   2.869
 6164SOL     OW19390   4.054   3.560   4.301
 6164SOL    HW119391   4.085   3.467   4.323
 6164SOL    HW219392   4.073   3.579   4.205
 6165SOL     OW19393   4.205   2.034   0.397
 6165SOL    HW119394   4.262   2.112   0.371
 6165SOL    HW219395   4.120   2.067   0.437
 6166SOL     OW19396   0.675   2.235   6.764
 6166SOL    HW119397   0.635   2.323   6.789
 6166SOL    HW219398   0.741   2.249   6.689
 6167SOL     OW19399   1.117   3.681   3.671
 6167SOL    HW119400   1.171   3.653   3.750
 6167SOL    HW219401   1.105   3.603   3.609
 6168SOL     OW19402   6.921   2.819   4.170
 6168SOL    HW119403   6.942   2.800   4.266
 6168SOL    HW219404   6.934   2.916   4.152
 6169SOL     OW19405   1.055   6.889   6.862
 6169SOL    HW119406   1.026   6.800   6.826
 6169SOL    HW219407   1.075   6.951   6.786
 6170SOL     OW19408   3.547   4.324   0.182
 6170SOL    HW119409   3.465   4.380   0.188
 6170SOL    HW219410   3.551   4.279   0.093
 6171SOL     OW19411   1.310   4.921   2.727
 6171SOL    HW119412   1.217   4.887   2.710
 6171SOL    HW219413   1.353   4.865   2.798
 6172SOL     OW19414   1.558   6.952   2.672
 6172SOL    HW119415   1.473   6.975   2.719
 6172SOL    HW219416   1.567   6.852   2.665
 6173SOL     OW19417   1.012   4.568   3.557
 6173SOL    HW119418   1.062   4.588   3.641
 6173SOL    HW219419   0.920   4.537   3.579
 6174SOL     OW19420   5.790   4.820   2.661
 6174SOL    HW119421   5.704   4.835   2.711
 6174SOL    HW219422   5.795   4.725   2.632
 6175SOL     OW19423   5.422   6.306   2.742
 6175SOL    HW119424   5.503   6.291   2.799
 6175SOL    HW219425   5.414   6.233   2.675
 6176SOL     OW19426   5.659   3.083   6.287
 6176SOL    HW119427   5.587   3.091   6.357
 6176SOL    HW219428   5.748   3.073   6.332
 6177SOL     OW19429   5.337   2.133   2.189
 6177SOL    HW119430   5.278   2.108   2.112
 6177SOL    HW219431   5.329   2.063   2.261
 6178SOL     OW19432   4.851   3.977   0.557
 6178SOL    HW119433   4.763   3.949   0.595
 6178SOL    HW219434   4.893   4.045   0.616
 6179SOL     OW19435   0.464   3.065   5.269
 6179SOL    HW119436   0.561   3.047   5.251
 6179SOL    HW219437   0.454   3.156   5.308
 6180SOL     OW19438   3.726   6.844   0.870
 6180SOL    HW119439   3.627   6.850   0.877
 6180SOL    HW219440   3.755   6.749   0.884
 6181SOL     OW19441   5.227   6.364   6.910
 6181SOL    HW119442   5.307   6.359   6.969
 6181SOL    HW219443   5.150   6.319   6.954
 6182SOL     OW19444   5.246   5.469   5.692
 6182SOL    HW119445   5.162   5.504   5.652
 6182SOL    HW219446   5.234   5.458   5.790
 6183SOL     OW19447   2.694   0.042   2.906
 6183SOL    HW119448   2.682   0.078   2.999
 6183SOL    HW219449   2.774   7.006   2.904
 6184SOL     OW19450   0.875   0.424   6.650
 6184SOL    HW119451   0.867   0.459   6.557
 6184SOL    HW219452   0.941   0.349   6.653
 6185SOL     OW19453   6.787   4.135   6.352
 6185SOL    HW119454   6.743   4.222   6.331
 6185SOL    HW219455   6.753   4.065   6.289
 6186SOL     OW19456   5.406   0.446   3.540
 6186SOL    HW119457   5.415   0.410   3.447
 6186SOL    HW219458   5.477   0.515   3.557
 6187SOL     OW19459   4.841   4.649   4.410
 6187SOL    HW119460   4.748   4.620   4.431
 6187SOL    HW219461   4.904   4.573   4.423
 6188SOL     OW19462   2.974   6.354   1.336
 6188SOL    HW119463   3.073   6.352   1.323
 6188SOL    HW219464   2.931   6.408   1.264
 6189SOL     OW19465   5.171   5.362   3.152
 6189SOL    HW119466   5.221   5.430   3.206
 6189SOL    HW219467   5.168   5.276   3.202
 6190SOL     OW19468   4.764   2.635   6.053
 6190SOL    HW119469   4.815   2.671   5.974
 6190SOL    HW219470   4.824   2.577   6.107
 6191SOL     OW19471   5.446   1.871   0.263
 6191SOL    HW119472   5.509   1.810   0.215
 6191SOL    HW219473   5.413   1.941   0.199
 6192SOL     OW19474   2.987   3.447   0.601
 6192SOL    HW119475   3.003   3.426   0.698
 6192SOL    HW219476   2.902   3.404   0.571
 6193SOL     OW19477   5.442   0.178   2.269
 6193SOL    HW119478   5.432   0.136   2.179
 6193SOL    HW219479   5.358   0.228   2.292
 6194SOL     OW19480   2.267   0.852   1.048
 6194SOL    HW119481   2.203   0.787   1.007
 6194SOL    HW219482   2.225   0.943   1.049
 6195SOL     OW19483   3.861   6.117   6.167
 6195SOL    HW119484   3.787   6.058   6.135
 6195SOL    HW219485   3.887   6.090   6.260
 6196SOL     OW19486   1.463   2.124   5.744
 6196SOL    HW119487   1.386   2.111   5.682
 6196SOL    HW219488   1.492   2.220   5.741
 6197SOL     OW19489   2.676   4.042   1.083
 6197SOL    HW119490   2.601   4.100   1.053
 6197SOL    HW219491   2.761   4.075   1.042
 6198SOL     OW19492   3.870   4.942   2.674
 6198SOL    HW119493   3.811   4.879   2.725
 6198SOL    HW219494   3.816   5.019   2.641
 6199SOL     OW19495   1.293   0.329   0.908
 6199SOL    HW119496   1.265   0.302   1.000
 6199SOL    HW219497   1.381   0.378   0.913
 6200SOL     OW19498   3.100   1.141   6.409
 6200SOL    HW119499   3.083   1.043   6.398
 6200SOL    HW219500   3.038   1.192   6.349
 6201SOL     OW19501   2.001   3.477   5.496
 6201SOL    HW119502   1.903   3.491   5.479
 6201SOL    HW219503   2.031   3.394   5.450
 6202SOL     OW19504   3.261   1.973   1.136
 6202SOL    HW119505   3.302   2.017   1.215
 6202SOL    HW219506   3.331   1.923   1.085
 6203SOL     OW19507   5.157   1.087   4.349
 6203SOL    HW119508   5.131   0.991   4.360
 6203SOL    HW219509   5.083   1.135   4.301
 6204SOL     OW19510   1.503   5.477   5.056
 6204SOL    HW119511   1.477   5.562   5.010
 6204SOL    HW219512   1.458   5.400   5.012
 6205SOL     OW19513   5.319   5.464   6.626
 6205SOL    HW119514   5.269   5.414   6.555
 6205SOL    HW219515   5.416   5.440   6.621
 6206SOL     OW19516   6.813   0.570   1.574
 6206SOL    HW119517   6.868   0.653   1.586
 6206SOL    HW219518   6.786   0.561   1.478
 6207SOL     OW19519   1.112   4.373   5.078
 6207SOL    HW119520   1.157   4.284   5.076
 6207SOL    HW219521   1.069   4.390   4.990
 6208SOL     OW19522   6.496   0.228   6.210
 6208SOL    HW119523   6.427   0.158   6.229
 6208SOL    HW219524   6.553   0.242   6.291
 6209SOL     OW19525   4.691   6.185   0.255
 6209SOL    HW119526   4.701   6.261   0.319
 6209SOL    HW219527   4.760   6.116   0.275
 6210SOL     OW19528   5.254   3.490   2.559
 6210SOL    HW119529   5.260   3.483   2.658
 6210SOL    HW219530   5.298   3.574   2.528
 6211SOL     OW19531   2.271   0.543   5.948
 6211SOL    HW119532   2.298   0.494   5.866
 6211SOL    HW219533   2.171   0.539   5.957
 6212SOL     OW19534   6.655   6.150   3.709
 6212SOL    HW119535   6.599   6.228   3.736
 6212SOL    HW219536   6.637   6.127   3.614
 6213SOL     OW19537   5.689   0.467   6.829
 6213SOL    HW119538   5.731   0.434   6.744
 6213SOL    HW219539   5.741   0.433   6.907
 6214SOL     OW19540   5.867   4.824   2.239
 6214SOL    HW119541   5.921   4.760   2.293
 6214SOL    HW219542   5.923   4.860   2.165
 6215SOL     OW19543   3.073   2.806   0.907
 6215SOL    HW119544   3.060   2.886   0.966
 6215SOL    HW219545   3.018   2.730   0.942
 6216SOL     OW19546   5.814   1.312   2.072
 6216SOL    HW119547   5.835   1.230   2.125
 6216SOL    HW219548   5.894   1.371   2.069
 6217SOL     OW19549   4.732   2.822   1.538
 6217SOL    HW119550   4.686   2.909   1.558
 6217SOL    HW219551   4.830   2.832   1.553
 6218SOL     OW19552   2.156   4.752   4.903
 6218SOL    HW119553   2.166   4.668   4.850
 6218SOL    HW219554   2.240   4.771   4.954
 6219SOL     OW19555   1.336   2.178   5.119
 6219SOL    HW119556   1.426   2.179   5.161
 6219SOL    HW219557   1.304   2.271   5.105
 6220SOL     OW19558   2.068   4.597   5.644
 6220SOL    HW119559   2.110   4.538   5.713
 6220SOL    HW219560   1.987   4.552   5.606
 6221SOL     OW19561   4.371   5.593   4.473
 6221SOL    HW119562   4.314   5.516   4.503
 6221SOL    HW219563   4.324   5.679   4.492
 6222SOL     OW19564   6.998   0.171   1.730
 6222SOL    HW119565   7.000   0.270   1.743
 6222SOL    HW219566   6.903   0.139   1.728
 6223SOL     OW19567   5.568   4.218   4.624
 6223SOL    HW119568   5.555   4.134   4.571
 6223SOL    HW219569   5.524   4.208   4.713
 6224SOL     OW19570   1.591   1.333   5.751
 6224SOL    HW119571   1.546   1.310   5.665
 6224SOL    HW219572   1.558   1.422   5.783
 6225SOL     OW19573   3.447   3.626   1.095
 6225SOL    HW119574   3.500   3.652   1.176
 6225SOL    HW219575   3.392   3.545   1.116
 6226SOL     OW19576   5.476   0.823   3.999
 6226SOL    HW119577   5.551   0.889   3.999
 6226SOL    HW219578   5.392   0.867   4.030
 6227SOL     OW19579   3.216   4.411   5.760
 6227SOL    HW119580   3.244   4.396   5.855
 6227SOL    HW219581   3.244   4.333   5.704
 6228SOL     OW19582   6.695   1.341   3.060
 6228SOL    HW119583   6.653   1.254   3.033
 6228SOL    HW219584   6.687   1.406   2.984
 6229SOL     OW19585   2.594   2.197   3.167
 6229SOL    HW119586   2.508   2.247   3.161
 6229SOL    HW219587   2.663   2.256   3.209
 6230SOL     OW19588   2.434   1.314   4.231
 6230SOL    HW119589   2.482   1.261   4.301
 6230SOL    HW219590   2.455   1.411   4.242
 6231SOL     OW19591   0.358   4.906   1.135
 6231SOL    HW119592   0.315   4.964   1.065
 6231SOL    HW219593   0.287   4.861   1.189
 6232SOL     OW19594   0.087   1.244   6.931
 6232SOL    HW119595   0.061   1.312   6.862
 6232SOL    HW219596   0.179   1.263   6.964
 6233SOL     OW19597   4.978   1.978   6.804
 6233SOL    HW119598   5.012   1.922   6.728
 6233SOL    HW219599   4.935   2.060   6.767
 6234SOL     OW19600   1.624   1.630   4.348
 6234SOL    HW119601   1.723   1.622   4.358
 6234SOL    HW219602   1.583   1.657   4.435
 6235SOL     OW19603   2.225   6.621   3.009
 6235SOL    HW119604   2.139   6.643   3.055
 6235SOL    HW219605   2.212   6.539   2.953
 6236SOL     OW19606   0.660   5.169   1.005
 6236SOL    HW119607   0.613   5.243   0.956
 6236SOL    HW219608   0.622   5.081   0.976
 6237SOL     OW19609   4.588   0.066   0.705
 6237SOL    HW119610   4.668   0.070   0.766
 6237SOL    HW219611   4.513   0.019   0.751
 6238SOL     OW19612   4.977   5.474   1.819
 6238SOL    HW119613   4.905   5.434   1.876
 6238SOL    HW219614   5.037   5.401   1.786
 6239SOL     OW19615   3.211   0.085   2.447
 6239SOL    HW119616   3.175   0.081   2.540
 6239SOL    HW219617   3.159   0.022   2.389
 6240SOL     OW19618   2.020   3.214   0.478
 6240SOL    HW119619   2.076   3.173   0.550
 6240SOL    HW219620   1.947   3.151   0.453
 6241SOL     OW19621   2.557   0.468   1.845
 6241SOL    HW119622   2.506   0.494   1.927
 6241SOL    HW219623   2.640   0.524   1.838
 6242SOL     OW19624   4.924   1.758   3.721
 6242SOL    HW119625   5.001   1.793   3.668
 6242SOL    HW219626   4.852   1.828   3.723
 6243SOL     OW19627   5.750   6.628   3.745
 6243SOL    HW119628   5.735   6.559   3.674
 6243SOL    HW219629   5.694   6.605   3.825
 6244SOL     OW19630   2.537   2.506   2.523
 6244SOL    HW119631   2.604   2.433   2.536
 6244SOL    HW219632   2.462   2.472   2.465
 6245SOL     OW19633   2.526   4.692   1.519
 6245SOL    HW119634   2.613   4.671   1.565
 6245SOL    HW219635   2.541   4.695   1.420
 6246SOL     OW19636   2.811   1.919   5.973
 6246SOL    HW119637   2.846   1.891   5.884
 6246SOL    HW219638   2.839   1.851   6.042
 6247SOL     OW19639   0.567   6.188   4.065
 6247SOL    HW119640   0.532   6.196   3.971
 6247SOL    HW219641   0.609   6.098   4.077
 6248SOL     OW19642   0.995   4.402   1.386
 6248SOL    HW119643   0.953   4.426   1.474
 6248SOL    HW219644   1.060   4.328   1.400
 6249SOL     OW19645   0.129   4.628   0.133
 6249SOL    HW119646   0.074   4.668   0.206
 6249SOL    HW219647   0.224   4.621   0.163
 6250SOL     OW19648   6.810   6.149   0.227
 6250SOL    HW119649   6.875   6.144   0.150
 6250SOL    HW219650   6.734   6.210   0.202
 6251SOL     OW19651   4.413   1.251   1.162
 6251SOL    HW119652   4.434   1.155   1.143
 6251SOL    HW219653   4.374   1.259   1.254
 6252SOL     OW19654   2.625   5.166   4.840
 6252SOL    HW119655   2.708   5.138   4.889
 6252SOL    HW219656   2.570   5.086   4.818
 6253SOL     OW19657   2.523   4.277   1.713
 6253SOL    HW119658   2.451   4.209   1.732
 6253SOL    HW219659   2.515   4.352   1.778
 6254SOL     OW19660   6.084   6.894   0.291
 6254SOL    HW119661   6.064   6.976   0.237
 6254SOL    HW219662   5.998   6.854   0.323
 6255SOL     OW19663   1.049   1.487   1.688
 6255SOL    HW119664   1.146   1.511   1.697
 6255SOL    HW219665   1.022   1.492   1.592
 6256SOL     OW19666   4.200   4.686   2.738
 6256SOL    HW119667   4.225   4.604   2.790
 6256SOL    HW219668   4.230   4.767   2.788
 6257SOL     OW19669   5.551   2.429   1.084
 6257SOL    HW119670   5.611   2.370   1.030
 6257SOL    HW219671   5.489   2.478   1.023
 6258SOL     OW19672   4.261   1.075   2.003
 6258SOL    HW119673   4.194   1.131   2.051
 6258SOL    HW219674   4.219   1.034   1.922
 6259SOL     OW19675   2.905   1.647   0.550
 6259SOL    HW119676   2.936   1.727   0.600
 6259SOL    HW219677   2.959   1.636   0.467
 6260SOL     OW19678   4.188   3.666   0.543
 6260SOL    HW119679   4.095   3.662   0.581
 6260SOL    HW219680   4.184   3.690   0.447
 6261SOL     OW19681   3.721   0.339   0.459
 6261SOL    HW119682   3.806   0.304   0.420
 6261SOL    HW219683   3.648   0.273   0.445
 6262SOL     OW19684   1.444   4.225   0.394
 6262SOL    HW119685   1.492   4.233   0.481
 6262SOL    HW219686   1.413   4.316   0.365
 6263SOL     OW19687   0.160   6.540   6.566
 6263SOL    HW119688   0.153   6.443   6.590
 6263SOL    HW219689   0.214   6.588   6.635
 6264SOL     OW19690   2.747   1.973   0.802
 6264SOL    HW119691   2.827   1.913   0.797
 6264SOL    HW219692   2.757   2.033   0.881
 6265SOL     OW19693   3.860   4.649   1.058
 6265SOL    HW119694   3.761   4.645   1.066
 6265SOL    HW219695   3.901   4.659   1.149
 6266SOL     OW19696   3.589   1.340   3.564
 6266SOL    HW119697   3.671   1.341   3.622
 6266SOL    HW219698   3.516   1.391   3.610
 6267SOL     OW19699   2.964   0.151   0.311
 6267SOL    HW119700   3.015   0.233   0.286
 6267SOL    HW219701   2.878   0.177   0.354
 6268SOL     OW19702   3.165   5.203   2.747
 6268SOL    HW119703   3.092   5.198   2.679
 6268SOL    HW219704   3.218   5.119   2.746
 6269SOL     OW19705   6.297   5.770   1.950
 6269SOL    HW119706   6.274   5.820   2.033
 6269SOL    HW219707   6.285   5.830   1.870
 6270SOL     OW19708   1.566   1.124   4.849
 6270SOL    HW119709   1.495   1.085   4.790
 6270SOL    HW219710   1.636   1.055   4.867
 6271SOL     OW19711   6.944   2.818   6.428
 6271SOL    HW119712   6.927   2.720   6.419
 6271SOL    HW219713   0.013   2.832   6.463
 6272SOL     OW19714   2.278   3.045   4.259
 6272SOL    HW119715   2.263   3.019   4.355
 6272SOL    HW219716   2.266   2.964   4.201
 6273SOL     OW19717   1.961   1.345   1.458
 6273SOL    HW119718   1.921   1.321   1.546
 6273SOL    HW219719   1.937   1.275   1.391
 6274SOL     OW19720   3.527   5.993   6.826
 6274SOL    HW119721   3.579   5.957   6.903
 6274SOL    HW219722   3.444   5.938   6.813
 6275SOL     OW19723   2.410   0.194   5.168
 6275SOL    HW119724   2.494   0.230   5.208
 6275SOL    HW219725   2.351   0.160   5.241
 6276SOL     OW19726   0.860   5.324   3.425
 6276SOL    HW119727   0.930   5.346   3.494
 6276SOL    HW219728   0.851   5.400   3.361
 6277SOL     OW19729   5.463   2.487   2.783
 6277SOL    HW119730   5.469   2.561   2.716
 6277SOL    HW219731   5.367   2.465   2.801
 6278SOL     OW19732   4.793   0.123   4.456
 6278SOL    HW119733   4.768   0.199   4.516
 6278SOL    HW219734   4.728   0.116   4.381
 6279SOL     OW19735   3.976   1.823   0.619
 6279SOL    HW119736   3.972   1.833   0.520
 6279SOL    HW219737   3.928   1.899   0.663
 6280SOL     OW19738   0.319   3.480   5.991
 6280SOL    HW119739   0.332   3.573   5.956
 6280SOL    HW219740   0.226   3.450   5.970
 6281SOL     OW19741   2.016   0.380   5.349
 6281SOL    HW119742   1.998   0.325   5.430
 6281SOL    HW219743   1.934   0.382   5.291
 6282SOL     OW19744   2.079   6.985   4.952
 6282SOL    HW119745   2.006   6.920   4.969
 6282SOL    HW219746   2.041   0.045   4.911
 6283SOL     OW19747   0.138   2.515   5.493
 6283SOL    HW119748   0.168   2.433   5.542
 6283SOL    HW219749   0.127   2.493   5.396
 6284SOL     OW19750   1.196   5.275   5.388
 6284SOL    HW119751   1.132   5.347   5.415
 6284SOL    HW219752   1.276   5.277   5.447
 6285SOL     OW19753   1.394   2.904   4.040
 6285SOL    HW119754   1.339   2.869   3.965
 6285SOL    HW219755   1.447   2.829   4.081
 6286SOL     OW19756   5.844   1.431   2.927
 6286SOL    HW119757   5.803   1.452   2.838
 6286SOL    HW219758   5.883   1.514   2.967
 6287SOL     OW19759   4.893   4.053   1.856
 6287SOL    HW119760   4.894   4.033   1.758
 6287SOL    HW219761   4.981   4.027   1.896
 6288SOL     OW19762   5.095   3.847   0.531
 6288SOL    HW119763   5.148   3.932   0.528
 6288SOL    HW219764   4.998   3.869   0.521
 6289SOL     OW19765   2.302   2.411   3.857
 6289SOL    HW119766   2.223   2.467   3.881
 6289SOL    HW219767   2.382   2.469   3.845
 6290SOL     OW19768   5.084   4.010   3.950
 6290SOL    HW119769   5.108   4.007   3.853
 6290SOL    HW219770   5.080   4.105   3.980
 6291SOL     OW19771   3.789   3.556   3.664
 6291SOL    HW119772   3.866   3.515   3.712
 6291SOL    HW219773   3.783   3.653   3.687
 6292SOL     OW19774   0.811   1.953   3.425
 6292SOL    HW119775   0.724   1.961   3.473
 6292SOL    HW219776   0.863   1.876   3.462
 6293SOL     OW19777   5.551   0.176   6.922
 6293SOL    HW119778   5.623   0.138   6.979
 6293SOL    HW219779   5.586   0.255   6.872
 6294SOL     OW19780   3.406   5.442   2.746
 6294SOL    HW119781   3.421   5.526   2.797
 6294SOL    HW219782   3.403   5.364   2.809
 6295SOL     OW19783   5.541   5.353   5.769
 6295SOL    HW119784   5.507   5.347   5.675
 6295SOL    HW219785   5.637   5.381   5.767
 6296SOL     OW19786   6.678   0.753   3.599
 6296SOL    HW119787   6.778   0.753   3.603
 6296SOL    HW219788   6.644   0.846   3.587
 6297SOL     OW19789   5.312   6.162   5.738
 6297SOL    HW119790   5.368   6.237   5.704
 6297SOL    HW219791   5.215   6.185   5.729
 6298SOL     OW19792   0.239   3.270   5.807
 6298SOL    HW119793   0.237   3.184   5.756
 6298SOL    HW219794   0.332   3.306   5.807
 6299SOL     OW19795   6.269   2.754   6.802
 6299SOL    HW119796   6.276   2.850   6.829
 6299SOL    HW219797   6.188   2.713   6.845
 6300SOL     OW19798   5.669   1.015   4.407
 6300SOL    HW119799   5.644   1.049   4.317
 6300SOL    HW219800   5.687   0.916   4.402
 6301SOL     OW19801   2.882   6.311   0.850
 6301SOL    HW119802   2.925   6.254   0.920
 6301SOL    HW219803   2.811   6.259   0.803
 6302SOL     OW19804   1.707   0.989   3.645
 6302SOL    HW119805   1.684   0.944   3.732
 6302SOL    HW219806   1.624   1.029   3.606
 6303SOL     OW19807   2.437   6.816   5.441
 6303SOL    HW119808   2.350   6.857   5.472
 6303SOL    HW219809   2.420   6.760   5.360
 6304SOL     OW19810   2.734   1.237   0.221
 6304SOL    HW119811   2.710   1.217   0.316
 6304SOL    HW219812   2.827   1.272   0.217
 6305SOL     OW19813   0.369   6.964   1.652
 6305SOL    HW119814   0.313   7.004   1.725
 6305SOL    HW219815   0.413   0.014   1.600
 6306SOL     OW19816   6.312   3.084   3.892
 6306SOL    HW119817   6.265   3.028   3.824
 6306SOL    HW219818   6.278   3.178   3.888
 6307SOL     OW19819   2.660   5.089   5.794
 6307SOL    HW119820   2.629   5.097   5.889
 6307SOL    HW219821   2.754   5.120   5.786
 6308SOL     OW19822   2.202   1.877   5.068
 6308SOL    HW119823   2.173   1.802   5.008
 6308SOL    HW219824   2.242   1.839   5.151
 6309SOL     OW19825   5.304   2.216   3.940
 6309SOL    HW119826   5.399   2.203   3.911
 6309SOL    HW219827   5.255   2.129   3.933
 6310SOL     OW19828   1.097   4.575   4.649
 6310SOL    HW119829   1.132   4.552   4.558
 6310SOL    HW219830   1.128   4.666   4.674
 6311SOL     OW19831   6.893   0.295   4.976
 6311SOL    HW119832   6.931   0.385   4.954
 6311SOL    HW219833   6.874   0.291   5.074
 6312SOL     OW19834   4.484   5.063   6.768
 6312SOL    HW119835   4.411   5.119   6.809
 6312SOL    HW219836   4.466   5.051   6.671
 6313SOL     OW19837   2.162   5.569   3.315
 6313SOL    HW119838   2.150   5.504   3.390
 6313SOL    HW219839   2.229   5.638   3.342
 6314SOL     OW19840   2.465   5.870   2.470
 6314SOL    HW119841   2.421   5.807   2.534
 6314SOL    HW219842   2.544   5.913   2.515
 6315SOL     OW19843   3.571   3.429   7.009
 6315SOL    HW119844   3.585   3.344   0.036
 6315SOL    HW219845   3.538   3.408   6.917
 6316SOL     OW19846   4.479   1.952   6.336
 6316SOL    HW119847   4.537   1.952   6.418
 6316SOL    HW219848   4.426   2.037   6.334
 6317SOL     OW19849   5.053   6.488   2.583
 6317SOL    HW119850   4.968   6.489   2.529
 6317SOL    HW219851   5.039   6.540   2.667
 6318SOL     OW19852   2.390   2.372   5.567
 6318SOL    HW119853   2.427   2.397   5.656
 6318SOL    HW219854   2.307   2.425   5.549
 6319SOL     OW19855   0.678   3.001   3.513
 6319SOL    HW119856   0.691   2.954   3.601
 6319SOL    HW219857   0.758   2.989   3.456
 6320SOL     OW19858   6.037   3.824   3.188
 6320SOL    HW119859   5.966   3.825   3.117
 6320SOL    HW219860   6.013   3.757   3.258
 6321SOL     OW19861   3.049   5.606   0.241
 6321SOL    HW119862   3.084   5.653   0.160
 6321SOL    HW219863   3.074   5.659   0.323
 6322SOL     OW19864   1.087   1.241   6.737
 6322SOL    HW119865   1.145   1.283   6.667
 6322SOL    HW219866   1.067   1.146   6.711
 6323SOL     OW19867   3.579   2.617   1.488
 6323SOL    HW119868   3.510   2.564   1.438
 6323SOL    HW219869   3.583   2.584   1.583
 6324SOL     OW19870   4.132   0.882   5.625
 6324SOL    HW119871   4.091   0.872   5.715
 6324SOL    HW219872   4.201   0.811   5.611
 6325SOL     OW19873   0.883   2.539   2.401
 6325SOL    HW119874   0.963   2.599   2.393
 6325SOL    HW219875   0.824   2.571   2.475
 6326SOL     OW19876   5.653   5.749   1.434
 6326SOL    HW119877   5.587   5.682   1.469
 6326SOL    HW219878   5.665   5.735   1.336
 6327SOL     OW19879   5.396   5.992   5.524
 6327SOL    HW119880   5.370   5.908   5.573
 6327SOL    HW219881   5.354   6.071   5.569
 6328SOL     OW19882   2.027   3.981   0.050
 6328SOL    HW119883   1.974   4.016   0.127
 6328SOL    HW219884   2.084   4.055   0.013
 6329SOL     OW19885   1.559   1.375   3.702
 6329SOL    HW119886   1.657   1.375   3.683
 6329SOL    HW219887   1.544   1.356   3.799
 6330SOL     OW19888   4.241   0.811   0.213
 6330SOL    HW119889   4.178   0.886   0.234
 6330SOL    HW219890   4.266   0.764   0.298
 6331SOL     OW19891   6.679   2.077   0.854
 6331SOL    HW119892   6.777   2.082   0.834
 6331SOL    HW219893   6.666   2.033   0.943
 6332SOL     OW19894   6.442   5.784   1.274
 6332SOL    HW119895   6.453   5.701   1.327
 6332SOL    HW219896   6.364   5.836   1.308
 6333SOL     OW19897   3.479   4.949   3.636
 6333SOL    HW119898   3.548   4.902   3.580
 6333SOL    HW219899   3.398   4.966   3.581
 6334SOL     OW19900   2.405   0.123   2.124
 6334SOL    HW119901   2.401   0.178   2.041
 6334SOL    HW219902   2.316   0.081   2.141
 6335SOL     OW19903   6.558   0.844   6.417
 6335SOL    HW119904   6.482   0.909   6.426
 6335SOL    HW219905   6.572   0.823   6.320
 6336SOL     OW19906   0.112   2.420   4.734
 6336SOL    HW119907   0.141   2.477   4.657
 6336SOL    HW219908   0.183   2.351   4.753
 6337SOL     OW19909   4.752   3.522   6.067
 6337SOL    HW119910   4.838   3.474   6.082
 6337SOL    HW219911   4.675   3.458   6.071
 6338SOL     OW19912   2.839   1.578   2.177
 6338SOL    HW119913   2.743   1.588   2.204
 6338SOL    HW219914   2.859   1.481   2.162
 6339SOL     OW19915   0.465   2.509   3.486
 6339SOL    HW119916   0.499   2.416   3.503
 6339SOL    HW219917   0.527   2.575   3.527
 6340SOL     OW19918   2.764   5.659   3.980
 6340SOL    HW119919   2.723   5.604   4.053
 6340SOL    HW219920   2.747   5.616   3.892
 6341SOL     OW19921   6.809   4.792   3.729
 6341SOL    HW119922   6.903   4.759   3.735
 6341SOL    HW219923   6.785   4.843   3.812
 6342SOL     OW19924   2.192   2.766   2.523
 6342SOL    HW119925   2.111   2.707   2.526
 6342SOL    HW219926   2.257   2.737   2.593
 6343SOL     OW19927   3.869   1.820   6.593
 6343SOL    HW119928   3.873   1.824   6.693
 6343SOL    HW219929   3.835   1.730   6.564
 6344SOL     OW19930   0.142   3.840   5.080
 6344SOL    HW119931   0.064   3.786   5.111
 6344SOL    HW219932   0.112   3.904   5.009
 6345SOL     OW19933   3.577   1.474   2.107
 6345SOL    HW119934   3.593   1.572   2.116
 6345SOL    HW219935   3.593   1.446   2.013
 6346SOL     OW19936   0.285   3.524   3.497
 6346SOL    HW119937   0.217   3.568   3.555
 6346SOL    HW219938   0.295   3.428   3.524
 6347SOL     OW19939   2.966   0.495   1.297
 6347SOL    HW119940   2.925   0.413   1.337
 6347SOL    HW219941   2.941   0.501   1.200
 6348SOL     OW19942   0.886   3.111   4.700
 6348SOL    HW119943   0.805   3.165   4.679
 6348SOL    HW219944   0.858   3.022   4.738
 6349SOL     OW19945   2.848   0.653   1.027
 6349SOL    HW119946   2.809   0.560   1.030
 6349SOL    HW219947   2.891   0.668   0.938
 6350SOL     OW19948   1.648   5.899   2.162
 6350SOL    HW119949   1.648   5.824   2.228
 6350SOL    HW219950   1.724   5.961   2.182
 6351SOL     OW19951   0.308   1.972   2.251
 6351SOL    HW119952   0.223   2.024   2.235
 6351SOL    HW219953   0.300   1.883   2.206
 6352SOL     OW19954   1.745   5.113   2.729
 6352SOL    HW119955   1.819   5.069   2.781
 6352SOL    HW219956   1.765   5.211   2.720
 6353SOL     OW19957   0.515   0.067   0.101
 6353SOL    HW119958   0.558   0.133   0.163
 6353SOL    HW219959   0.556   7.000   0.115
 6354SOL     OW19960   1.280   6.906   2.536
 6354SOL    HW119961   1.269   7.006   2.530
 6354SOL    HW219962   1.316   6.871   2.450
 6355SOL     OW19963   1.529   3.100   3.598
 6355SOL    HW119964   1.432   3.097   3.622
 6355SOL    HW219965   1.584   3.094   3.681
 6356SOL     OW19966   4.453   4.723   1.185
 6356SOL    HW119967   4.358   4.753   1.173
 6356SOL    HW219968   4.455   4.632   1.227
 6357SOL     OW19969   4.723   2.952   0.616
 6357SOL    HW119970   4.652   3.011   0.577
 6357SOL    HW219971   4.770   2.903   0.542
 6358SOL     OW19972   0.424   2.093   4.020
 6358SOL    HW119973   0.406   2.061   4.113
 6358SOL    HW219974   0.391   2.024   3.955
 6359SOL     OW19975   6.945   0.750   5.684
 6359SOL    HW119976   0.012   0.710   5.671
 6359SOL    HW219977   6.878   0.677   5.691
 6360SOL     OW19978   2.427   4.839   4.258
 6360SOL    HW119979   2.451   4.927   4.300
 6360SOL    HW219980   2.433   4.847   4.159
 6361SOL     OW19981   4.538   5.637   6.308
 6361SOL    HW119982   4.602   5.567   6.276
 6361SOL    HW219983   4.457   5.637   6.250
 6362SOL     OW19984   5.835   4.759   6.844
 6362SOL    HW119985   5.919   4.779   6.794
 6362SOL    HW219986   5.840   4.667   6.884
 6363SOL     OW19987   1.469   5.824   4.574
 6363SOL    HW119988   1.542   5.759   4.551
 6363SOL    HW219989   1.501   5.886   4.645
 6364SOL     OW19990   2.595   2.465   5.758
 6364SOL    HW119991   2.585   2.407   5.839
 6364SOL    HW219992   2.691   2.489   5.745
 6365SOL     OW19993   4.561   6.994   3.497
 6365SOL    HW119994   4.533   0.065   3.511
 6365SOL    HW219995   4.655   6.982   3.529
 6366SOL     OW19996   0.389   5.005   5.214
 6366SOL    HW119997   0.437   5.071   5.157
 6366SOL    HW219998   0.435   4.917   5.210
 6367SOL     OW19999   5.095   0.671   3.428
 6367SOL    HW120000   5.026   0.605   3.455
 6367SOL    HW220001   5.153   0.632   3.356
 6368SOL     OW20002   2.977   0.241   4.081
 6368SOL    HW120003   2.955   0.145   4.099
 6368SOL    HW220004   3.066   0.247   4.037
 6369SOL     OW20005   2.901   5.353   4.065
 6369SOL    HW120006   2.918   5.260   4.032
 6369SOL    HW220007   2.987   5.400   4.078
 6370SOL     OW20008   6.973   2.032   1.633
 6370SOL    HW120009   6.896   2.094   1.650
 6370SOL    HW220010   0.018   2.078   1.578
 6371SOL     OW20011   5.185   3.024   2.506
 6371SOL    HW120012   5.147   2.933   2.491
 6371SOL    HW220013   5.124   3.077   2.564
 6372SOL     OW20014   3.680   6.467   2.277
 6372SOL    HW120015   3.690   6.368   2.266
 6372SOL    HW220016   3.650   6.507   2.190
 6373SOL     OW20017   4.690   4.481   5.802
 6373SOL    HW120018   4.603   4.435   5.786
 6373SOL    HW220019   4.704   4.551   5.731
 6374SOL     OW20020   3.081   3.093   3.566
 6374SOL    HW120021   3.140   3.087   3.485
 6374SOL    HW220022   3.130   3.060   3.646
 6375SOL     OW20023   1.847   0.274   3.044
 6375SOL    HW120024   1.776   0.342   3.060
 6375SOL    HW220025   1.937   0.315   3.060
 6376SOL     OW20026   6.956   2.207   4.597
 6376SOL    HW120027   7.023   2.273   4.565
 6376SOL    HW220028   6.864   2.244   4.586
 6377SOL     OW20029   0.415   1.450   4.835
 6377SOL    HW120030   0.325   1.409   4.818
 6377SOL    HW220031   0.410   1.549   4.820
 6378SOL     OW20032   4.793   4.056   4.286
 6378SOL    HW120033   4.838   4.015   4.366
 6378SOL    HW220034   4.815   4.001   4.205
 6379SOL     OW20035   2.215   4.069   3.725
 6379SOL    HW120036   2.145   4.048   3.656
 6379SOL    HW220037   2.298   4.102   3.680
 6380SOL     OW20038   0.415   1.490   6.106
 6380SOL    HW120039   0.433   1.393   6.122
 6380SOL    HW220040   0.464   1.545   6.173
 6381SOL     OW20041   3.336   3.274   3.039
 6381SOL    HW120042   3.381   3.187   3.019
 6381SOL    HW220043   3.350   3.297   3.135
 6382SOL     OW20044   1.161   2.764   5.655
 6382SOL    HW120045   1.260   2.746   5.658
 6382SOL    HW220046   1.135   2.818   5.735
 6383SOL     OW20047   2.689   1.983   4.022
 6383SOL    HW120048   2.649   2.017   4.107
 6383SOL    HW220049   2.761   1.917   4.044
 6384SOL     OW20050   5.725   5.054   2.569
 6384SOL    HW120051   5.749   4.964   2.604
 6384SOL    HW220052   5.686   5.044   2.477
 6385SOL     OW20053   6.752   5.394   3.858
 6385SOL    HW120054   6.683   5.328   3.890
 6385SOL    HW220055   6.762   5.386   3.759
 6386SOL     OW20056   2.425   5.558   1.075
 6386SOL    HW120057   2.332   5.596   1.074
 6386SOL    HW220058   2.454   5.539   0.981
 6387SOL     OW20059   0.290   2.299   5.590
 6387SOL    HW120060   0.387   2.283   5.574
 6387SOL    HW220061   0.242   2.211   5.592
 6388SOL     OW20062   3.355   4.737   1.703
 6388SOL    HW120063   3.431   4.693   1.751
 6388SOL    HW220064   3.270   4.689   1.725
 6389SOL     OW20065   1.515   5.568   3.278
 6389SOL    HW120066   1.562   5.617   3.205
 6389SOL    HW220067   1.431   5.528   3.242
 6390SOL     OW20068   0.122   2.646   3.523
 6390SOL    HW120069   0.140   2.562   3.472
 6390SOL    HW220070   0.159   2.637   3.616
 6391SOL     OW20071   3.000   2.013   0.385
 6391SOL    HW120072   2.986   2.091   0.324
 6391SOL    HW220073   2.914   1.990   0.431
 6392SOL     OW20074   2.044   6.880   3.670
 6392SOL    HW120075   2.138   6.912   3.659
 6392SOL    HW220076   2.002   6.867   3.580
 6393SOL     OW20077   6.133   6.490   0.924
 6393SOL    HW120078   6.187   6.424   0.872
 6393SOL    HW220079   6.168   6.583   0.907
 6394SOL     OW20080   2.467   5.118   0.570
 6394SOL    HW120081   2.462   5.043   0.505
 6394SOL    HW220082   2.483   5.204   0.522
 6395SOL     OW20083   5.872   1.353   1.116
 6395SOL    HW120084   5.843   1.445   1.143
 6395SOL    HW220085   5.947   1.361   1.049
 6396SOL     OW20086   4.806   2.978   5.874
 6396SOL    HW120087   4.726   3.003   5.927
 6396SOL    HW220088   4.844   2.892   5.908
 6397SOL     OW20089   0.216   2.372   6.833
 6397SOL    HW120090   0.272   2.374   6.916
 6397SOL    HW220091   0.275   2.358   6.753
 6398SOL     OW20092   2.853   1.642   1.804
 6398SOL    HW120093   2.884   1.549   1.821
 6398SOL    HW220094   2.759   1.653   1.837
 6399SOL     OW20095   1.641   5.449   0.051
 6399SOL    HW120096   1.649   5.413   6.981
 6399SOL    HW220097   1.560   5.508   0.057
 6400SOL     OW20098   2.718   5.521   3.737
 6400SOL    HW120099   2.665   5.438   3.752
 6400SOL    HW220100   2.659   5.592   3.699
 6401SOL     OW20101   6.957   4.697   3.190
 6401SOL    HW120102   6.985   4.741   3.105
 6401SOL    HW220103   7.009   4.735   3.266
 6402SOL     OW20104   2.770   0.853   3.070
 6402SOL    HW120105   2.760   0.775   3.009
 6402SOL    HW220106   2.866   0.864   3.096
 6403SOL     OW20107   1.392   4.224   6.915
 6403SOL    HW120108   1.457   4.164   6.867
 6403SOL    HW220109   1.376   4.306   6.861
 6404SOL     OW20110   4.189   2.023   3.268
 6404SOL    HW120111   4.108   2.072   3.236
 6404SOL    HW220112   4.213   1.951   3.203
 6405SOL     OW20113   2.320   2.038   2.517
 6405SOL    HW120114   2.349   2.000   2.605
 6405SOL    HW220115   2.401   2.068   2.465
 6406SOL     OW20116   2.262   1.031   3.999
 6406SOL    HW120117   2.273   1.130   3.996
 6406SOL    HW220118   2.206   1.000   3.922
 6407SOL     OW20119   3.395   6.016   5.114
 6407SOL    HW120120   3.489   6.051   5.106
 6407SOL    HW220121   3.347   6.067   5.185
 6408SOL     OW20122   5.902   1.638   6.480
 6408SOL    HW120123   5.818   1.690   6.490
 6408SOL    HW220124   5.966   1.687   6.421
 6409SOL     OW20125   6.417   3.470   3.132
 6409SOL    HW120126   6.511   3.437   3.140
 6409SOL    HW220127   6.390   3.516   3.217
 6410SOL     OW20128   1.424   1.633   0.479
 6410SOL    HW120129   1.397   1.647   0.383
 6410SOL    HW220130   1.517   1.596   0.482
 6411SOL     OW20131   0.643   1.154   3.667
 6411SOL    HW120132   0.738   1.138   3.695
 6411SOL    HW220133   0.642   1.206   3.582
 6412SOL     OW20134   6.895   2.966   5.461
 6412SOL    HW120135   6.964   2.897   5.440
 6412SOL    HW220136   6.852   2.997   5.377
 6413SOL     OW20137   6.552   5.103   1.799
 6413SOL    HW120138   6.490   5.181   1.809
 6413SOL    HW220139   6.642   5.127   1.835
 6414SOL     OW20140   6.456   0.193   1.010
 6414SOL    HW120141   6.487   0.283   0.981
 6414SOL    HW220142   6.533   0.129   1.012
 6415SOL     OW20143   1.821   2.253   1.946
 6415SOL    HW120144   1.764   2.264   1.865
 6415SOL    HW220145   1.826   2.339   1.996
 6416SOL     OW20146   1.216   7.013   6.659
 6416SOL    HW120147   1.291   0.047   6.692
 6416SOL    HW220148   1.250   6.920   6.642
 6417SOL     OW20149   0.817   6.862   3.380
 6417SOL    HW120150   0.872   6.781   3.359
 6417SOL    HW220151   0.790   6.859   3.476
 6418SOL     OW20152   6.930   5.435   2.257
 6418SOL    HW120153   7.010   5.392   2.300
 6418SOL    HW220154   6.956   5.475   2.170
 6419SOL     OW20155   3.613   5.042   1.909
 6419SOL    HW120156   3.623   4.944   1.927
 6419SOL    HW220157   3.631   5.060   1.813
 6420SOL     OW20158   2.986   3.670   6.362
 6420SOL    HW120159   3.047   3.656   6.440
 6420SOL    HW220160   2.931   3.752   6.377
 6421SOL     OW20161   5.214   0.537   1.575
 6421SOL    HW120162   5.189   0.522   1.671
 6421SOL    HW220163   5.241   0.632   1.562
 6422SOL     OW20164   6.721   0.846   3.293
 6422SOL    HW120165   6.739   0.839   3.195
 6422SOL    HW220166   6.629   0.813   3.313
 6423SOL     OW20167   5.070   3.309   0.927
 6423SOL    HW120168   5.042   3.375   0.858
 6423SOL    HW220169   4.992   3.252   0.952
 6424SOL     OW20170   6.151   3.599   6.243
 6424SOL    HW120171   6.190   3.572   6.155
 6424SOL    HW220172   6.110   3.690   6.234
 6425SOL     OW20173   0.510   4.329   2.495
 6425SOL    HW120174   0.484   4.414   2.540
 6425SOL    HW220175   0.603   4.303   2.522
 6426SOL     OW20176   1.273   2.279   3.266
 6426SOL    HW120177   1.227   2.310   3.349
 6426SOL    HW220178   1.206   2.268   3.193
 6427SOL     OW20179   1.030   3.447   5.672
 6427SOL    HW120180   1.089   3.374   5.637
 6427SOL    HW220181   1.006   3.428   5.767
 6428SOL     OW20182   6.844   3.956   2.179
 6428SOL    HW120183   6.760   3.987   2.135
 6428SOL    HW220184   6.905   4.034   2.192
 6429SOL     OW20185   1.725   0.923   4.555
 6429SOL    HW120186   1.698   1.019   4.562
 6429SOL    HW220187   1.785   0.911   4.476
 6430SOL     OW20188   5.543   1.291   1.718
 6430SOL    HW120189   5.506   1.200   1.740
 6430SOL    HW220190   5.492   1.329   1.641
 6431SOL     OW20191   4.745   6.403   3.121
 6431SOL    HW120192   4.683   6.463   3.171
 6431SOL    HW220193   4.692   6.334   3.071
 6432SOL     OW20194   4.600   3.730   0.974
 6432SOL    HW120195   4.583   3.635   1.000
 6432SOL    HW220196   4.682   3.763   1.019
 6433SOL     OW20197   2.826   4.400   1.413
 6433SOL    HW120198   2.810   4.440   1.322
 6433SOL    HW220199   2.903   4.337   1.408
 6434SOL     OW20200   1.041   3.979   0.811
 6434SOL    HW120201   1.096   3.907   0.769
 6434SOL    HW220202   0.944   3.962   0.795
 6435SOL     OW20203   4.019   4.832   0.113
 6435SOL    HW120204   3.945   4.888   0.150
 6435SOL    HW220205   4.011   4.739   0.149
 6436SOL     OW20206   1.971   3.193   3.648
 6436SOL    HW120207   2.001   3.251   3.573
 6436SOL    HW220208   2.010   3.226   3.734
 6437SOL     OW20209   1.142   0.125   6.977
 6437SOL    HW120210   1.060   0.136   0.010
 6437SOL    HW220211   1.157   0.028   6.958
 6438SOL     OW20212   1.051   3.696   4.365
 6438SOL    HW120213   0.977   3.762   4.383
 6438SOL    HW220214   1.044   3.620   4.429
 6439SOL     OW20215   1.065   6.730   0.834
 6439SOL    HW120216   1.110   6.713   0.921
 6439SOL    HW220217   1.078   6.650   0.774
 6440SOL     OW20218   1.199   1.810   2.275
 6440SOL    HW120219   1.279   1.783   2.222
 6440SOL    HW220220   1.197   1.910   2.283
 6441SOL     OW20221   2.037   1.033   3.548
 6441SOL    HW120222   1.950   1.071   3.518
 6441SOL    HW220223   2.111   1.068   3.490
 6442SOL     OW20224   2.341   2.006   4.228
 6442SOL    HW120225   2.322   2.062   4.148
 6442SOL    HW220226   2.435   2.023   4.259
 6443SOL     OW20227   2.681   3.044   0.670
 6443SOL    HW120228   2.679   3.061   0.768
 6443SOL    HW220229   2.773   3.017   0.642
 6444SOL     OW20230   0.875   1.564   2.743
 6444SOL    HW120231   0.913   1.488   2.689
 6444SOL    HW220232   0.803   1.529   2.803
 6445SOL     OW20233   4.242   2.792   5.313
 6445SOL    HW120234   4.214   2.710   5.263
 6445SOL    HW220235   4.341   2.805   5.303
 6446SOL     OW20236   6.637   1.561   6.328
 6446SOL    HW120237   6.548   1.585   6.365
 6446SOL    HW220238   6.628   1.481   6.268
 6447SOL     OW20239   2.016   6.409   2.488
 6447SOL    HW120240   2.044   6.459   2.406
 6447SOL    HW220241   1.975   6.322   2.461
 6448SOL     OW20242   6.568   3.079   2.874
 6448SOL    HW120243   6.549   3.067   2.972
 6448SOL    HW220244   6.665   3.061   2.856
 6449SOL     OW20245   3.538   3.742   1.656
 6449SOL    HW120246   3.477   3.696   1.722
 6449SOL    HW220247   3.537   3.693   1.570
 6450SOL     OW20248   6.494   3.704   1.519
 6450SOL    HW120249   6.417   3.649   1.552
 6450SOL    HW220250   6.566   3.704   1.588
 6451SOL     OW20251   2.737   6.304   5.306
 6451SOL    HW120252   2.712   6.297   5.210
 6451SOL    HW220253   2.716   6.397   5.339
 6452SOL     OW20254   3.404   0.045   4.420
 6452SOL    HW120255   3.379   0.127   4.470
 6452SOL    HW220256   3.336   6.997   4.436
 6453SOL     OW20257   1.292   6.469   0.251
 6453SOL    HW120258   1.192   6.465   0.252
 6453SOL    HW220259   1.322   6.557   0.288
 6454SOL     OW20260   2.919   1.873   4.108
 6454SOL    HW120261   2.950   1.829   4.024
 6454SOL    HW220262   2.992   1.868   4.177
 6455SOL     OW20263   6.852   2.902   5.068
 6455SOL    HW120264   6.848   2.960   5.149
 6455SOL    HW220265   6.906   2.820   5.088
 6456SOL     OW20266   1.056   0.558   3.296
 6456SOL    HW120267   0.983   0.514   3.243
 6456SOL    HW220268   1.039   0.657   3.298
 6457SOL     OW20269   6.628   2.437   1.449
 6457SOL    HW120270   6.721   2.446   1.485
 6457SOL    HW220271   6.571   2.511   1.484
 6458SOL     OW20272   1.541   5.386   2.857
 6458SOL    HW120273   1.521   5.420   2.765
 6458SOL    HW220274   1.470   5.416   2.920
 6459SOL     OW20275   6.596   4.431   0.311
 6459SOL    HW120276   6.658   4.391   0.379
 6459SOL    HW220277   6.502   4.423   0.343
 6460SOL     OW20278   4.103   4.504   6.895
 6460SOL    HW120279   4.132   4.488   6.990
 6460SOL    HW220280   4.052   4.589   6.890
 6461SOL     OW20281   2.556   5.110   5.181
 6461SOL    HW120282   2.578   5.042   5.251
 6461SOL    HW220283   2.574   5.073   5.090
 6462SOL     OW20284   1.964   3.257   5.275
 6462SOL    HW120285   2.058   3.237   5.246
 6462SOL    HW220286   1.944   3.209   5.360
 6463SOL     OW20287   2.715   4.884   6.541
 6463SOL    HW120288   2.664   4.857   6.459
 6463SOL    HW220289   2.735   4.803   6.597
 6464SOL     OW20290   0.434   5.268   3.589
 6464SOL    HW120291   0.348   5.275   3.640
 6464SOL    HW220292   0.436   5.337   3.517
 6465SOL     OW20293   5.704   1.756   3.818
 6465SOL    HW120294   5.742   1.812   3.744
 6465SOL    HW220295   5.605   1.766   3.820
 6466SOL     OW20296   0.289   2.816   5.038
 6466SOL    HW120297   0.358   2.752   5.072
 6466SOL    HW220298   0.268   2.883   5.110
 6467SOL     OW20299   2.732   1.321   6.596
 6467SOL    HW120300   2.750   1.369   6.510
 6467SOL    HW220301   2.792   1.242   6.604
 6468SOL     OW20302   4.931   6.179   1.586
 6468SOL    HW120303   4.911   6.112   1.657
 6468SOL    HW220304   4.867   6.256   1.593
 6469SOL     OW20305   6.672   0.808   5.210
 6469SOL    HW120306   6.734   0.799   5.288
 6469SOL    HW220307   6.689   0.734   5.145
 6470SOL     OW20308   6.164   6.406   5.872
 6470SOL    HW120309   6.237   6.440   5.813
 6470SOL    HW220310   6.141   6.312   5.847
 6471SOL     OW20311   6.922   5.085   6.477
 6471SOL    HW120312   6.888   5.176   6.453
 6471SOL    HW220313   6.849   5.018   6.468
 6472SOL     OW20314   0.595   6.001   1.763
 6472SOL    HW120315   0.648   6.076   1.801
 6472SOL    HW220316   0.622   5.986   1.668
 6473SOL     OW20317   2.280   1.280   6.139
 6473SOL    HW120318   2.204   1.321   6.087
 6473SOL    HW220319   2.338   1.353   6.175
 6474SOL     OW20320   1.306   3.433   5.888
 6474SOL    HW120321   1.306   3.502   5.816
 6474SOL    HW220322   1.388   3.376   5.880
 6475SOL     OW20323   5.632   6.496   3.525
 6475SOL    HW120324   5.615   6.399   3.508
 6475SOL    HW220325   5.592   6.550   3.451
 6476SOL     OW20326   4.385   4.768   3.246
 6476SOL    HW120327   4.304   4.751   3.190
 6476SOL    HW220328   4.366   4.742   3.340
 6477SOL     OW20329   6.323   5.469   6.914
 6477SOL    HW120330   6.385   5.477   6.992
 6477SOL    HW220331   6.305   5.373   6.895
 6478SOL     OW20332   4.632   5.856   2.043
 6478SOL    HW120333   4.630   5.803   2.127
 6478SOL    HW220334   4.544   5.901   2.029
 6479SOL     OW20335   4.409   5.080   2.261
 6479SOL    HW120336   4.403   4.996   2.208
 6479SOL    HW220337   4.500   5.087   2.303
 6480SOL     OW20338   3.129   2.663   6.738
 6480SOL    HW120339   3.039   2.691   6.770
 6480SOL    HW220340   3.134   2.675   6.639
 6481SOL     OW20341   3.507   1.391   1.423
 6481SOL    HW120342   3.566   1.412   1.345
 6481SOL    HW220343   3.557   1.410   1.508
 6482SOL     OW20344   6.732   6.658   0.006
 6482SOL    HW120345   6.825   6.666   6.995
 6482SOL    HW220346   6.700   6.748   0.036
 6483SOL     OW20347   1.793   6.585   2.571
 6483SOL    HW120348   1.872   6.529   2.546
 6483SOL    HW220349   1.788   6.664   2.511
 6484SOL     OW20350   4.869   0.244   2.784
 6484SOL    HW120351   4.782   0.198   2.764
 6484SOL    HW220352   4.942   0.201   2.732
 6485SOL     OW20353   1.802   2.782   3.828
 6485SOL    HW120354   1.714   2.750   3.862
 6485SOL    HW220355   1.789   2.868   3.777
 6486SOL     OW20356   1.276   3.641   3.873
 6486SOL    HW120357   1.353   3.687   3.917
 6486SOL    HW220358   1.200   3.632   3.939
 6487SOL     OW20359   6.123   6.744   3.959
 6487SOL    HW120360   6.177   6.720   3.879
 6487SOL    HW220361   6.182   6.741   4.040
 6488SOL     OW20362   2.624   5.408   6.141
 6488SOL    HW120363   2.670   5.327   6.180
 6488SOL    HW220364   2.679   5.489   6.161
 6489SOL     OW20365   2.276   1.868   6.276
 6489SOL    HW120366   2.306   1.898   6.185
 6489SOL    HW220367   2.238   1.945   6.326
 6490SOL     OW20368   3.979   2.777   0.379
 6490SOL    HW120369   4.068   2.814   0.404
 6490SOL    HW220370   3.951   2.813   0.290
 6491SOL     OW20371   4.800   1.269   6.420
 6491SOL    HW120372   4.709   1.245   6.455
 6491SOL    HW220373   4.859   1.295   6.496
 6492SOL     OW20374   6.728   6.387   0.087
 6492SOL    HW120375   6.684   6.474   0.065
 6492SOL    HW220376   6.811   6.404   0.140
 6493SOL     OW20377   2.190   6.627   6.454
 6493SOL    HW120378   2.236   6.588   6.374
 6493SOL    HW220379   2.184   6.726   6.444
 6494SOL     OW20380   1.424   6.949   3.724
 6494SOL    HW120381   1.466   6.951   3.633
 6494SOL    HW220382   1.494   6.964   3.794
 6495SOL     OW20383   5.195   5.443   2.901
 6495SOL    HW120384   5.227   5.369   2.842
 6495SOL    HW220385   5.185   5.409   2.994
 6496SOL     OW20386   0.670   6.225   1.870
 6496SOL    HW120387   0.652   6.294   1.800
 6496SOL    HW220388   0.760   6.241   1.910
 6497SOL     OW20389   2.032   3.857   0.794
 6497SOL    HW120390   2.110   3.875   0.734
 6497SOL    HW220391   1.974   3.939   0.798
 6498SOL     OW20392   1.772   3.897   4.406
 6498SOL    HW120393   1.749   3.910   4.502
 6498SOL    HW220394   1.826   3.814   4.395
 6499SOL     OW20395   4.726   0.916   4.673
 6499SOL    HW120396   4.818   0.951   4.658
 6499SOL    HW220397   4.725   0.862   4.757
 6500SOL     OW20398   5.810   4.104   3.120
 6500SOL    HW120399   5.852   4.187   3.083
 6500SOL    HW220400   5.816   4.031   3.052
 6501SOL     OW20401   5.670   3.843   1.224
 6501SOL    HW120402   5.651   3.812   1.317
 6501SOL    HW220403   5.612   3.922   1.203
 6502SOL     OW20404   0.819   4.488   3.871
 6502SOL    HW120405   0.788   4.475   3.965
 6502SOL    HW220406   0.749   4.535   3.818
 6503SOL     OW20407   6.180   6.331   3.586
 6503SOL    HW120408   6.263   6.379   3.557
 6503SOL    HW220409   6.100   6.371   3.540
 6504SOL     OW20410   3.711   1.029   0.043
 6504SOL    HW120411   3.634   1.021   0.107
 6504SOL    HW220412   3.751   0.939   0.027
 6505SOL     OW20413   6.151   4.855   0.495
 6505SOL    HW120414   6.236   4.820   0.457
 6505SOL    HW220415   6.132   4.809   0.582
 6506SOL     OW20416   1.217   3.532   0.984
 6506SOL    HW120417   1.228   3.438   0.952
 6506SOL    HW220418   1.232   3.596   0.908
 6507SOL     OW20419   2.327   5.974   1.286
 6507SOL    HW120420   2.304   6.030   1.366
 6507SOL    HW220421   2.286   6.014   1.205
 6508SOL     OW20422   2.231   2.157   3.695
 6508SOL    HW120423   2.309   2.101   3.725
 6508SOL    HW220424   2.244   2.251   3.727
 6509SOL     OW20425   1.739   2.472   4.509
 6509SOL    HW120426   1.750   2.383   4.464
 6509SOL    HW220427   1.823   2.494   4.559
 6510SOL     OW20428   6.394   4.776   6.548
 6510SOL    HW120429   6.455   4.788   6.470
 6510SOL    HW220430   6.428   4.828   6.626
 6511SOL     OW20431   6.257   6.703   5.770
 6511SOL    HW120432   6.211   6.711   5.858
 6511SOL    HW220433   6.292   6.792   5.743
 6512SOL     OW20434   4.819   6.556   2.895
 6512SOL    HW120435   4.820   6.493   2.972
 6512SOL    HW220436   4.912   6.590   2.878
 6513SOL     OW20437   4.251   6.862   3.648
 6513SOL    HW120438   4.343   6.825   3.654
 6513SOL    HW220439   4.223   6.898   3.737
 6514SOL     OW20440   4.651   0.552   4.346
 6514SOL    HW120441   4.582   0.493   4.387
 6514SOL    HW220442   4.719   0.577   4.416
 6515SOL     OW20443   6.801   6.348   4.291
 6515SOL    HW120444   6.733   6.416   4.266
 6515SOL    HW220445   6.760   6.281   4.353
 6516SOL     OW20446   1.033   2.009   5.809
 6516SOL    HW120447   0.981   2.007   5.894
 6516SOL    HW220448   0.974   1.980   5.733
 6517SOL     OW20449   0.772   1.460   0.507
 6517SOL    HW120450   0.727   1.480   0.420
 6517SOL    HW220451   0.870   1.477   0.498
 6518SOL     OW20452   0.598   6.333   1.569
 6518SOL    HW120453   0.630   6.356   1.477
 6518SOL    HW220454   0.498   6.331   1.570
 6519SOL     OW20455   1.906   1.144   4.001
 6519SOL    HW120456   1.971   1.068   3.993
 6519SOL    HW220457   1.917   1.187   4.091
 6520SOL     OW20458   6.612   5.834   2.316
 6520SOL    HW120459   6.605   5.854   2.218
 6520SOL    HW220460   6.613   5.920   2.368
 6521SOL     OW20461   0.616   1.670   5.048
 6521SOL    HW120462   0.661   1.750   5.087
 6521SOL    HW220463   0.521   1.667   5.077
 6522SOL     OW20464   2.453   5.498   6.600
 6522SOL    HW120465   2.355   5.495   6.582
 6522SOL    HW220466   2.470   5.536   6.691
 6523SOL     OW20467   2.144   1.677   6.684
 6523SOL    HW120468   2.171   1.593   6.729
 6523SOL    HW220469   2.182   1.679   6.591
 6524SOL     OW20470   3.796   3.498   4.122
 6524SOL    HW120471   3.732   3.562   4.165
 6524SOL    HW220472   3.871   3.549   4.080
 6525SOL     OW20473   0.506   2.685   2.881
 6525SOL    HW120474   0.516   2.611   2.815
 6525SOL    HW220475   0.468   2.766   2.836
 6526SOL     OW20476   1.048   5.758   4.655
 6526SOL    HW120477   1.124   5.725   4.710
 6526SOL    HW220478   1.008   5.682   4.603
 6527SOL     OW20479   1.197   6.574   5.182
 6527SOL    HW120480   1.105   6.542   5.203
 6527SOL    HW220481   1.254   6.497   5.156
 6528SOL     OW20482   1.105   1.209   4.627
 6528SOL    HW120483   1.070   1.241   4.716
 6528SOL    HW220484   1.029   1.175   4.572
 6529SOL     OW20485   5.882   1.847   1.726
 6529SOL    HW120486   5.816   1.812   1.660
 6529SOL    HW220487   5.950   1.777   1.747
 6530SOL     OW20488   6.848   2.213   0.007
 6530SOL    HW120489   6.911   2.291   0.007
 6530SOL    HW220490   6.758   2.243   6.998
 6531SOL     OW20491   5.502   2.625   3.694
 6531SOL    HW120492   5.594   2.630   3.733
 6531SOL    HW220493   5.506   2.573   3.608
 6532SOL     OW20494   6.041   1.437   6.587
 6532SOL    HW120495   5.964   1.495   6.560
 6532SOL    HW220496   6.118   1.453   6.525
 6533SOL     OW20497   4.999   6.781   0.478
 6533SOL    HW120498   5.047   6.868   0.476
 6533SOL    HW220499   4.948   6.768   0.392
 6534SOL     OW20500   2.477   3.909   1.668
 6534SOL    HW120501   2.417   3.838   1.630
 6534SOL    HW220502   2.571   3.875   1.670
 6535SOL     OW20503   0.463   3.189   5.022
 6535SOL    HW120504   0.405   3.131   4.964
 6535SOL    HW220505   0.442   3.170   5.118
 6536SOL     OW20506   5.850   1.710   0.346
 6536SOL    HW120507   5.850   1.626   0.400
 6536SOL    HW220508   5.933   1.715   0.292
 6537SOL     OW20509   0.241   6.963   0.122
 6537SOL    HW120510   0.152   6.980   0.164
 6537SOL    HW220511   0.312   7.012   0.173
 6538SOL     OW20512   3.311   4.110   0.158
 6538SOL    HW120513   3.238   4.166   0.119
 6538SOL    HW220514   3.359   4.162   0.229
 6539SOL     OW20515   2.593   1.586   6.597
 6539SOL    HW120516   2.641   1.525   6.534
 6539SOL    HW220517   2.596   1.548   6.689
 6540SOL     OW20518   3.548   0.627   4.563
 6540SOL    HW120519   3.565   0.532   4.537
 6540SOL    HW220520   3.476   0.665   4.504
 6541SOL     OW20521   2.860   2.339   5.863
 6541SOL    HW120522   2.837   2.407   5.933
 6541SOL    HW220523   2.930   2.277   5.898
 6542SOL     OW20524   6.458   5.088   3.412
 6542SOL    HW120525   6.381   5.126   3.361
 6542SOL    HW220526   6.427   5.012   3.468
 6543SOL     OW20527   6.142   5.866   6.762
 6543SOL    HW120528   6.227   5.813   6.760
 6543SOL    HW220529   6.087   5.844   6.682
 6544SOL     OW20530   6.867   6.534   3.886
 6544SOL    HW120531   6.806   6.455   3.899
 6544SOL    HW220532   6.825   6.614   3.928
 6545SOL     OW20533   5.079   1.579   5.725
 6545SOL    HW120534   5.143   1.633   5.670
 6545SOL    HW220535   4.986   1.597   5.695
 6546SOL     OW20536   3.101   5.354   5.764
 6546SOL    HW120537   3.199   5.334   5.765
 6546SOL    HW220538   3.080   5.412   5.685
 6547SOL     OW20539   5.107   2.326   6.195
 6547SOL    HW120540   5.162   2.256   6.149
 6547SOL    HW220541   5.165   2.401   6.225
 6548SOL     OW20542   6.355   4.262   5.724
 6548SOL    HW120543   6.317   4.218   5.642
 6548SOL    HW220544   6.403   4.193   5.779
 6549SOL     OW20545   3.988   2.133   0.527
 6549SOL    HW120546   4.058   2.174   0.586
 6549SOL    HW220547   3.899   2.174   0.549
 6550SOL     OW20548   1.010   5.732   3.664
 6550SOL    HW120549   0.924   5.761   3.707
 6550SOL    HW220550   0.998   5.730   3.565
 6551SOL     OW20551   1.548   4.602   1.875
 6551SOL    HW120552   1.598   4.554   1.947
 6551SOL    HW220553   1.496   4.677   1.915
 6552SOL     OW20554   2.934   4.480   5.902
 6552SOL    HW120555   2.861   4.532   5.857
 6552SOL    HW220556   3.019   4.532   5.899
 6553SOL     OW20557   0.549   3.306   2.266
 6553SOL    HW120558   0.489   3.299   2.186
 6553SOL    HW220559   0.589   3.217   2.286
 6554SOL     OW20560   6.075   1.983   6.126
 6554SOL    HW120561   6.038   2.076   6.133
 6554SOL    HW220562   6.134   1.976   6.046
 6555SOL     OW20563   1.843   1.206   2.256
 6555SOL    HW120564   1.773   1.158   2.308
 6555SOL    HW220565   1.872   1.288   2.307
 6556SOL     OW20566   4.549   5.578   4.877
 6556SOL    HW120567   4.635   5.528   4.888
 6556SOL    HW220568   4.474   5.523   4.914
 6557SOL     OW20569   6.394   5.590   0.481
 6557SOL    HW120570   6.396   5.592   0.581
 6557SOL    HW220571   6.451   5.514   0.448
 6558SOL     OW20572   5.928   5.814   6.944
 6558SOL    HW120573   5.995   5.757   6.991
 6558SOL    HW220574   5.972   5.861   6.867
 6559SOL     OW20575   4.822   3.859   1.366
 6559SOL    HW120576   4.854   3.833   1.275
 6559SOL    HW220577   4.898   3.857   1.431
 6560SOL     OW20578   3.661   3.362   1.045
 6560SOL    HW120579   3.604   3.403   1.116
 6560SOL    HW220580   3.635   3.398   0.956
 6561SOL     OW20581   3.812   3.954   2.806
 6561SOL    HW120582   3.738   3.974   2.870
 6561SOL    HW220583   3.899   3.959   2.854
 6562SOL     OW20584   6.348   4.747   5.937
 6562SOL    HW120585   6.319   4.676   5.872
 6562SOL    HW220586   6.445   4.736   5.956
 6563SOL     OW20587   0.629   5.688   1.134
 6563SOL    HW120588   0.563   5.619   1.105
 6563SOL    HW220589   0.697   5.647   1.194
 6564SOL     OW20590   1.114   4.171   2.218
 6564SOL    HW120591   1.191   4.214   2.171
 6564SOL    HW220592   1.032   4.179   2.161
 6565SOL     OW20593   6.690   2.735   4.572
 6565SOL    HW120594   6.759   2.703   4.636
 6565SOL    HW220595   6.685   2.835   4.575
 6566SOL     OW20596   3.533   6.524   0.600
 6566SOL    HW120597   3.493   6.608   0.562
 6566SOL    HW220598   3.522   6.524   0.700
 6567SOL     OW20599   5.127   2.831   0.781
 6567SOL    HW120600   5.130   2.919   0.735
 6567SOL    HW220601   5.036   2.790   0.770
 6568SOL     OW20602   4.422   4.509   1.798
 6568SOL    HW120603   4.375   4.564   1.867
 6568SOL    HW220604   4.431   4.415   1.831
 6569SOL     OW20605   2.011   4.618   0.615
 6569SOL    HW120606   1.997   4.702   0.667
 6569SOL    HW220607   2.047   4.640   0.524
 6570SOL     OW20608   5.646   1.047   1.877
 6570SOL    HW120609   5.623   1.048   1.974
 6570SOL    HW220610   5.718   1.114   1.858
 6571SOL     OW20611   2.496   6.254   3.641
 6571SOL    HW120612   2.475   6.228   3.735
 6571SOL    HW220613   2.434   6.207   3.579
 6572SOL     OW20614   0.253   3.946   5.604
 6572SOL    HW120615   0.212   3.915   5.518
 6572SOL    HW220616   0.319   4.019   5.584
 6573SOL     OW20617   2.850   0.927   1.817
 6573SOL    HW120618   2.937   0.881   1.838
 6573SOL    HW220619   2.849   0.951   1.720
 6574SOL     OW20620   2.736   5.007   2.497
 6574SOL    HW120621   2.802   4.954   2.444
 6574SOL    HW220622   2.656   4.950   2.516
 6575SOL     OW20623   1.098   1.147   1.974
 6575SOL    HW120624   1.070   1.139   2.070
 6575SOL    HW220625   1.025   1.189   1.921
 6576SOL     OW20626   0.903   5.831   6.960
 6576SOL    HW120627   0.917   5.925   6.990
 6576SOL    HW220628   0.960   5.770   7.015
 6577SOL     OW20629   0.865   1.978   3.775
 6577SOL    HW120630   0.828   2.070   3.764
 6577SOL    HW220631   0.953   1.971   3.728
 6578SOL     OW20632   6.061   5.527   3.459
 6578SOL    HW120633   6.014   5.441   3.482
 6578SOL    HW220634   6.046   5.548   3.363
 6579SOL     OW20635   6.754   4.538   3.538
 6579SOL    HW120636   6.689   4.614   3.547
 6579SOL    HW220637   6.848   4.574   3.537
 6580SOL     OW20638   5.303   0.797   1.562
 6580SOL    HW120639   5.239   0.868   1.591
 6580SOL    HW220640   5.376   0.838   1.507
 6581SOL     OW20641   4.192   2.334   6.566
 6581SOL    HW120642   4.217   2.429   6.549
 6581SOL    HW220643   4.093   2.327   6.581
 6582SOL     OW20644   6.995   6.832   2.776
 6582SOL    HW120645   7.012   6.863   2.870
 6582SOL    HW220646   6.910   6.873   2.742
 6583SOL     OW20647   5.591   1.083   5.942
 6583SOL    HW120648   5.491   1.077   5.940
 6583SOL    HW220649   5.618   1.173   5.975
 6584SOL     OW20650   6.043   1.561   6.968
 6584SOL    HW120651   6.124   1.527   6.922
 6584SOL    HW220652   6.068   1.594   0.035
 6585SOL     OW20653   0.634   1.643   6.262
 6585SOL    HW120654   0.590   1.731   6.247
 6585SOL    HW220655   0.671   1.639   6.355
 6586SOL     OW20656   6.501   1.787   5.976
 6586SOL    HW120657   6.559   1.770   6.056
 6586SOL    HW220658   6.549   1.759   5.893
 6587SOL     OW20659   2.025   5.494   3.782
 6587SOL    HW120660   1.939   5.536   3.810
 6587SOL    HW220661   2.076   5.557   3.723
 6588SOL     OW20662   1.513   2.907   6.910
 6588SOL    HW120663   1.588   2.850   6.942
 6588SOL    HW220664   1.436   2.849   6.884
 6589SOL     OW20665   4.885   1.320   5.853
 6589SOL    HW120666   4.838   1.396   5.807
 6589SOL    HW220667   4.823   1.278   5.920
 6590SOL     OW20668   0.174   1.181   4.790
 6590SOL    HW120669   0.176   1.269   4.742
 6590SOL    HW220670   0.104   1.184   4.862
 6591SOL     OW20671   5.744   6.479   3.209
 6591SOL    HW120672   5.765   6.517   3.119
 6591SOL    HW220673   5.689   6.545   3.261
 6592SOL     OW20674   4.765   6.828   4.688
 6592SOL    HW120675   4.702   6.857   4.616
 6592SOL    HW220676   4.715   6.772   4.755
 6593SOL     OW20677   3.223   2.054   3.222
 6593SOL    HW120678   3.232   2.037   3.124
 6593SOL    HW220679   3.306   2.098   3.256
 6594SOL     OW20680   4.842   0.974   6.607
 6594SOL    HW120681   4.815   0.928   6.692
 6594SOL    HW220682   4.863   1.070   6.627
 6595SOL     OW20683   1.482   3.372   0.696
 6595SOL    HW120684   1.503   3.278   0.725
 6595SOL    HW220685   1.528   3.391   0.610
 6596SOL     OW20686   4.815   6.959   5.441
 6596SOL    HW120687   4.847   7.002   5.357
 6596SOL    HW220688   4.861   7.000   5.519
 6597SOL     OW20689   6.699   6.107   4.511
 6597SOL    HW120690   6.755   6.036   4.555
 6597SOL    HW220691   6.618   6.124   4.568
 6598SOL     OW20692   1.751   5.838   5.130
 6598SOL    HW120693   1.738   5.788   5.215
 6598SOL    HW220694   1.812   5.788   5.069
 6599SOL     OW20695   4.294   5.350   6.532
 6599SOL    HW120696   4.266   5.298   6.613
 6599SOL    HW220697   4.394   5.359   6.531
 6600SOL     OW20698   4.676   5.742   4.296
 6600SOL    HW120699   4.683   5.655   4.345
 6600SOL    HW220700   4.702   5.817   4.356
 6601SOL     OW20701   0.719   1.090   0.211
 6601SOL    HW120702   0.751   1.184   0.219
 6601SOL    HW220703   0.791   1.033   0.171
 6602SOL     OW20704   0.203   1.699   1.197
 6602SOL    HW120705   0.278   1.765   1.203
 6602SOL    HW220706   0.121   1.738   1.237
 6603SOL     OW20707   2.012   3.478   2.962
 6603SOL    HW120708   2.068   3.412   3.012
 6603SOL    HW220709   1.940   3.429   2.913
 6604SOL     OW20710   3.098   5.632   2.363
 6604SOL    HW120711   3.158   5.600   2.436
 6604SOL    HW220712   3.003   5.612   2.388
 6605SOL     OW20713   5.817   5.793   0.234
 6605SOL    HW120714   5.805   5.730   0.157
 6605SOL    HW220715   5.885   5.756   0.297
 6606SOL     OW20716   5.065   0.561   2.256
 6606SOL    HW120717   5.099   0.583   2.348
 6606SOL    HW220718   4.967   0.542   2.261
 6607SOL     OW20719   2.033   1.320   1.998
 6607SOL    HW120720   2.120   1.285   1.961
 6607SOL    HW220721   2.010   1.269   2.081
 6608SOL     OW20722   5.452   3.500   3.529
 6608SOL    HW120723   5.391   3.559   3.476
 6608SOL    HW220724   5.401   3.462   3.607
 6609SOL     OW20725   5.551   1.125   6.812
 6609SOL    HW120726   5.528   1.148   6.907
 6609SOL    HW220727   5.597   1.036   6.810
 6610SOL     OW20728   1.797   0.878   0.871
 6610SOL    HW120729   1.733   0.905   0.943
 6610SOL    HW220730   1.750   0.877   0.783
 6611SOL     OW20731   6.643   2.423   3.026
 6611SOL    HW120732   6.592   2.382   2.951
 6611SOL    HW220733   6.740   2.400   3.018
 6612SOL     OW20734   1.739   6.230   0.093
 6612SOL    HW120735   1.701   6.210   0.183
 6612SOL    HW220736   1.719   6.155   0.030
 6613SOL     OW20737   5.290   5.706   3.048
 6613SOL    HW120738   5.233   5.641   2.997
 6613SOL    HW220739   5.314   5.665   3.137
 6614SOL     OW20740   5.245   5.172   6.237
 6614SOL    HW120741   5.344   5.188   6.230
 6614SOL    HW220742   5.202   5.247   6.286
 6615SOL     OW20743   0.211   3.602   5.296
 6615SOL    HW120744   0.259   3.643   5.374
 6615SOL    HW220745   0.258   3.519   5.267
 6616SOL     OW20746   4.887   1.361   5.122
 6616SOL    HW120747   4.811   1.414   5.162
 6616SOL    HW220748   4.850   1.281   5.074
 6617SOL     OW20749   2.673   6.844   4.443
 6617SOL    HW120750   2.717   6.929   4.414
 6617SOL    HW220751   2.638   6.855   4.536
 6618SOL     OW20752   0.671   4.296   1.732
 6618SOL    HW120753   0.663   4.388   1.769
 6618SOL    HW220754   0.582   4.266   1.697
 6619SOL     OW20755   4.628   6.512   3.381
 6619SOL    HW120756   4.609   6.472   3.471
 6619SOL    HW220757   4.688   6.591   3.392
 6620SOL     OW20758   1.405   2.772   6.032
 6620SOL    HW120759   1.336   2.707   6.001
 6620SOL    HW220760   1.496   2.737   6.008
 6621SOL     OW20761   2.619   3.890   0.185
 6621SOL    HW120762   2.653   3.975   0.224
 6621SOL    HW220763   2.620   3.897   0.085
 6622SOL     OW20764   6.149   6.249   0.551
 6622SOL    HW120765   6.050   6.264   0.555
 6622SOL    HW220766   6.169   6.154   0.577
 6623SOL     OW20767   3.852   3.106   3.012
 6623SOL    HW120768   3.902   3.089   2.926
 6623SOL    HW220769   3.796   3.027   3.034
 6624SOL     OW20770   4.040   5.937   4.494
 6624SOL    HW120771   4.044   6.036   4.482
 6624SOL    HW220772   3.978   5.916   4.570
 6625SOL     OW20773   6.255   0.577   6.507
 6625SOL    HW120774   6.258   0.644   6.432
 6625SOL    HW220775   6.337   0.587   6.563
 6626SOL     OW20776   3.461   5.247   2.935
 6626SOL    HW120777   3.484   5.153   2.911
 6626SOL    HW220778   3.537   5.288   2.986
 6627SOL     OW20779   2.093   1.084   6.388
 6627SOL    HW120780   2.171   1.053   6.334
 6627SOL    HW220781   2.015   1.099   6.329
 6628SOL     OW20782   4.512   5.186   3.043
 6628SOL    HW120783   4.505   5.174   2.944
 6628SOL    HW220784   4.422   5.210   3.080
 6629SOL     OW20785   3.315   5.700   1.163
 6629SOL    HW120786   3.365   5.784   1.140
 6629SOL    HW220787   3.376   5.637   1.212
 6630SOL     OW20788   3.161   1.943   0.108
 6630SOL    HW120789   3.100   1.974   0.034
 6630SOL    HW220790   3.107   1.932   0.192
 6631SOL     OW20791   5.257   0.641   2.523
 6631SOL    HW120792   5.243   0.738   2.541
 6631SOL    HW220793   5.353   0.626   2.497
 6632SOL     OW20794   6.704   1.078   6.819
 6632SOL    HW120795   6.745   0.990   6.796
 6632SOL    HW220796   6.745   1.113   6.904
 6633SOL     OW20797   1.694   6.262   0.648
 6633SOL    HW120798   1.752   6.264   0.567
 6633SOL    HW220799   1.599   6.281   0.621
 6634SOL     OW20800   6.327   2.773   5.707
 6634SOL    HW120801   6.297   2.827   5.785
 6634SOL    HW220802   6.359   2.834   5.634
 6635SOL     OW20803   4.900   5.351   3.552
 6635SOL    HW120804   4.941   5.319   3.638
 6635SOL    HW220805   4.964   5.412   3.505
 6636SOL     OW20806   1.614   2.719   4.457
 6636SOL    HW120807   1.679   2.647   4.484
 6636SOL    HW220808   1.523   2.679   4.448
 6637SOL     OW20809   0.872   0.465   0.749
 6637SOL    HW120810   0.947   0.466   0.814
 6637SOL    HW220811   0.899   0.512   0.665
 6638SOL     OW20812   1.704   5.995   5.515
 6638SOL    HW120813   1.638   5.949   5.574
 6638SOL    HW220814   1.797   5.966   5.541
 6639SOL     OW20815   6.013   4.611   6.426
 6639SOL    HW120816   6.028   4.652   6.516
 6639SOL    HW220817   6.091   4.632   6.367
 6640SOL     OW20818   6.828   2.050   3.147
 6640SOL    HW120819   6.889   2.034   3.225
 6640SOL    HW220820   6.756   2.114   3.173
 6641SOL     OW20821   2.601   3.526   6.624
 6641SOL    HW120822   2.559   3.543   6.713
 6641SOL    HW220823   2.536   3.548   6.552
 6642SOL     OW20824   1.219   5.483   6.122
 6642SOL    HW120825   1.291   5.421   6.153
 6642SOL    HW220826   1.244   5.577   6.145
 6643SOL     OW20827   5.810   3.822   6.054
 6643SOL    HW120828   5.733   3.883   6.071
 6643SOL    HW220829   5.848   3.791   6.141
 6644SOL     OW20830   2.872   4.858   1.826
 6644SOL    HW120831   2.818   4.909   1.893
 6644SOL    HW220832   2.863   4.760   1.843
 6645SOL     OW20833   6.856   4.521   6.089
 6645SOL    HW120834   6.900   4.601   6.131
 6645SOL    HW220835   6.924   4.470   6.036
 6646SOL     OW20836   3.092   5.685   4.619
 6646SOL    HW120837   3.051   5.657   4.706
 6646SOL    HW220838   3.129   5.777   4.628
 6647SOL     OW20839   3.398   0.868   2.097
 6647SOL    HW120840   3.370   0.964   2.095
 6647SOL    HW220841   3.390   0.830   2.005
 6648SOL     OW20842   4.624   5.892   2.749
 6648SOL    HW120843   4.580   5.951   2.817
 6648SOL    HW220844   4.722   5.887   2.769
 6649SOL     OW20845   4.875   1.936   6.300
 6649SOL    HW120846   4.818   2.007   6.341
 6649SOL    HW220847   4.922   1.973   6.220
 6650SOL     OW20848   3.950   1.107   4.346
 6650SOL    HW120849   3.985   1.083   4.255
 6650SOL    HW220850   3.884   1.182   4.338
 6651SOL     OW20851   0.777   2.206   7.023
 6651SOL    HW120852   0.744   2.199   6.929
 6651SOL    HW220853   0.876   2.191   0.000
 6652SOL     OW20854   0.127   5.567   1.419
 6652SOL    HW120855   0.045   5.545   1.367
 6652SOL    HW220856   0.196   5.496   1.405
 6653SOL     OW20857   3.393   4.127   2.798
 6653SOL    HW120858   3.423   4.032   2.807
 6653SOL    HW220859   3.468   4.182   2.762
 6654SOL     OW20860   2.189   3.326   1.707
 6654SOL    HW120861   2.169   3.233   1.738
 6654SOL    HW220862   2.265   3.363   1.760
 6655SOL     OW20863   3.320   6.857   2.047
 6655SOL    HW120864   3.337   6.764   2.014
 6655SOL    HW220865   3.225   6.882   2.029
 6656SOL     OW20866   6.876   1.467   1.165
 6656SOL    HW120867   6.948   1.435   1.103
 6656SOL    HW220868   6.815   1.530   1.116
 6657SOL     OW20869   3.647   6.516   6.436
 6657SOL    HW120870   3.707   6.592   6.461
 6657SOL    HW220871   3.556   6.551   6.416
 6658SOL     OW20872   5.943   1.536   4.805
 6658SOL    HW120873   5.993   1.574   4.727
 6658SOL    HW220874   5.901   1.611   4.857
 6659SOL     OW20875   2.656   3.485   0.209
 6659SOL    HW120876   2.722   3.486   0.133
 6659SOL    HW220877   2.680   3.558   0.274
 6660SOL     OW20878   6.835   6.860   2.416
 6660SOL    HW120879   6.913   6.809   2.450
 6660SOL    HW220880   6.799   6.918   2.489
 6661SOL     OW20881   6.968   5.840   4.149
 6661SOL    HW120882   6.993   5.745   4.133
 6661SOL    HW220883   6.879   5.844   4.193
 6662SOL     OW20884   2.407   1.048   0.329
 6662SOL    HW120885   2.328   1.006   0.284
 6662SOL    HW220886   2.414   1.014   0.423
 6663SOL     OW20887   0.538   5.529   1.867
 6663SOL    HW120888   0.592   5.454   1.827
 6663SOL    HW220889   0.598   5.587   1.922
 6664SOL     OW20890   1.167   0.451   2.529
 6664SOL    HW120891   1.164   0.544   2.495
 6664SOL    HW220892   1.172   0.452   2.629
 6665SOL     OW20893   1.832   5.800   3.147
 6665SOL    HW120894   1.924   5.830   3.173
 6665SOL    HW220895   1.775   5.880   3.128
 6666SOL     OW20896   6.504   1.517   5.385
 6666SOL    HW120897   6.598   1.536   5.358
 6666SOL    HW220898   6.444   1.525   5.306
 6667SOL     OW20899   6.847   5.673   4.637
 6667SOL    HW120900   6.881   5.621   4.559
 6667SOL    HW220901   6.834   5.612   4.715
 6668SOL     OW20902   0.474   5.031   2.294
 6668SOL    HW120903   0.379   5.044   2.321
 6668SOL    HW220904   0.534   5.071   2.364
 6669SOL     OW20905   2.534   5.307   3.788
 6669SOL    HW120906   2.556   5.301   3.885
 6669SOL    HW220907   2.435   5.299   3.776
 6670SOL     OW20908   3.290   4.779   7.014
 6670SOL    HW120909   3.353   4.706   6.988
 6670SOL    HW220910   3.340   4.851   0.039
 6671SOL     OW20911   6.869   4.075   6.026
 6671SOL    HW120912   6.909   4.040   5.941
 6671SOL    HW220913   6.943   4.098   6.090
 6672SOL     OW20914   1.152   0.694   5.538
 6672SOL    HW120915   1.075   0.710   5.600
 6672SOL    HW220916   1.137   0.743   5.453
 6673SOL     OW20917   4.742   5.072   2.686
 6673SOL    HW120918   4.776   5.115   2.603
 6673SOL    HW220919   4.781   5.118   2.766
 6674SOL     OW20920   0.712   6.205   5.353
 6674SOL    HW120921   0.774   6.146   5.302
 6674SOL    HW220922   0.753   6.229   5.441
 6675SOL     OW20923   5.674   4.716   0.472
 6675SOL    HW120924   5.576   4.732   0.459
 6675SOL    HW220925   5.716   4.691   0.385
 6676SOL     OW20926   0.842   3.221   5.669
 6676SOL    HW120927   0.842   3.303   5.727
 6676SOL    HW220928   0.933   3.208   5.630
 6677SOL     OW20929   0.506   3.609   0.717
 6677SOL    HW120930   0.424   3.574   0.671
 6677SOL    HW220931   0.494   3.604   0.816
 6678SOL     OW20932   1.198   2.612   5.906
 6678SOL    HW120933   1.114   2.657   5.934
 6678SOL    HW220934   1.175   2.531   5.851
 6679SOL     OW20935   1.365   2.662   5.437
 6679SOL    HW120936   1.395   2.640   5.529
 6679SOL    HW220937   1.435   2.717   5.391
 6680SOL     OW20938   4.091   6.439   6.284
 6680SOL    HW120939   4.146   6.488   6.352
 6680SOL    HW220940   4.086   6.343   6.308
 6681SOL     OW20941   5.162   5.109   0.358
 6681SOL    HW120942   5.146   5.011   0.369
 6681SOL    HW220943   5.197   5.147   0.444
 6682SOL     OW20944   0.910   5.577   2.216
 6682SOL    HW120945   1.001   5.607   2.188
 6682SOL    HW220946   0.873   5.640   2.284
 6683SOL     OW20947   4.675   1.741   5.348
 6683SOL    HW120948   4.674   1.651   5.392
 6683SOL    HW220949   4.769   1.766   5.325
 6684SOL     OW20950   1.766   6.796   2.428
 6684SOL    HW120951   1.716   6.799   2.341
 6684SOL    HW220952   1.801   6.886   2.450
 6685SOL     OW20953   5.449   2.948   6.146
 6685SOL    HW120954   5.516   2.977   6.214
 6685SOL    HW220955   5.449   3.012   6.069
 6686SOL     OW20956   6.126   3.881   3.495
 6686SOL    HW120957   6.215   3.898   3.454
 6686SOL    HW220958   6.110   3.944   3.571
 6687SOL     OW20959   1.234   1.669   0.838
 6687SOL    HW120960   1.146   1.716   0.844
 6687SOL    HW220961   1.295   1.702   0.911
 6688SOL     OW20962   0.534   4.595   2.681
 6688SOL    HW120963   0.510   4.535   2.758
 6688SOL    HW220964   0.603   4.661   2.710
 6689SOL     OW20965   5.147   4.134   0.291
 6689SOL    HW120966   5.177   4.149   0.196
 6689SOL    HW220967   5.198   4.058   0.330
 6690SOL     OW20968   1.979   3.075   1.463
 6690SOL    HW120969   2.078   3.074   1.449
 6690SOL    HW220970   1.959   3.078   1.561
 6691SOL     OW20971   2.645   5.989   1.511
 6691SOL    HW120972   2.579   6.004   1.585
 6691SOL    HW220973   2.700   6.072   1.499
 6692SOL     OW20974   3.082   4.361   5.291
 6692SOL    HW120975   3.014   4.288   5.283
 6692SOL    HW220976   3.045   4.446   5.254
 6693SOL     OW20977   4.540   3.795   5.458
 6693SOL    HW120978   4.530   3.748   5.546
 6693SOL    HW220979   4.472   3.761   5.394
 6694SOL     OW20980   4.798   6.476   0.599
 6694SOL    HW120981   4.885   6.427   0.609
 6694SOL    HW220982   4.723   6.410   0.598
 6695SOL     OW20983   0.708   1.653   6.525
 6695SOL    HW120984   0.783   1.588   6.539
 6695SOL    HW220985   0.662   1.671   6.612
 6696SOL     OW20986   1.964   3.492   1.888
 6696SOL    HW120987   2.043   3.530   1.938
 6696SOL    HW220988   1.995   3.416   1.832
 6697SOL     OW20989   4.665   1.511   2.788
 6697SOL    HW120990   4.656   1.414   2.813
 6697SOL    HW220991   4.612   1.528   2.705
 6698SOL     OW20992   4.102   2.657   6.709
 6698SOL    HW120993   4.016   2.613   6.683
 6698SOL    HW220994   4.169   2.643   6.636
 6699SOL     OW20995   3.041   4.899   6.634
 6699SOL    HW120996   3.042   4.860   6.726
 6699SOL    HW220997   2.994   4.988   6.636
 6700SOL     OW20998   0.359   5.576   0.934
 6700SOL    HW120999   0.380   5.654   0.876
 6700SOL    HW221000   0.443   5.524   0.951
 6701SOL     OW21001   0.617   1.671   0.026
 6701SOL    HW121002   0.551   1.661   6.975
 6701SOL    HW221003   0.708   1.645   7.018
 6702SOL     OW21004   2.225   1.443   0.784
 6702SOL    HW121005   2.241   1.385   0.704
 6702SOL    HW221006   2.244   1.538   0.761
 6703SOL     OW21007   7.005   1.510   6.292
 6703SOL    HW121008   6.916   1.521   6.335
 6703SOL    HW221009   0.025   1.599   6.283
 6704SOL     OW21010   4.614   2.714   2.781
 6704SOL    HW121011   4.566   2.646   2.837
 6704SOL    HW221012   4.623   2.681   2.687
 6705SOL     OW21013   6.478   2.242   1.148
 6705SOL    HW121014   6.387   2.260   1.112
 6705SOL    HW221015   6.545   2.295   1.096
 6706SOL     OW21016   0.843   3.910   6.786
 6706SOL    HW121017   0.913   3.858   6.737
 6706SOL    HW221018   0.835   3.876   6.880
 6707SOL     OW21019   0.594   5.450   3.868
 6707SOL    HW121020   0.533   5.394   3.925
 6707SOL    HW221021   0.675   5.396   3.843
 6708SOL     OW21022   2.417   6.079   2.315
 6708SOL    HW121023   2.476   6.160   2.313
 6708SOL    HW221024   2.466   6.004   2.360
 6709SOL     OW21025   3.794   0.695   1.882
 6709SOL    HW121026   3.887   0.720   1.910
 6709SOL    HW221027   3.761   0.762   1.816
 6710SOL     OW21028   3.278   2.791   6.997
 6710SOL    HW121029   3.316   2.777   6.905
 6710SOL    HW221030   3.182   2.762   6.998
 6711SOL     OW21031   4.467   3.628   6.871
 6711SOL    HW121032   4.547   3.647   6.929
 6711SOL    HW221033   4.427   3.540   6.897
 6712SOL     OW21034   3.748   6.112   0.384
 6712SOL    HW121035   3.824   6.047   0.389
 6712SOL    HW221036   3.784   6.203   0.363
 6713SOL     OW21037   1.817   2.767   1.929
 6713SOL    HW121038   1.750   2.808   1.991
 6713SOL    HW221039   1.857   2.838   1.871
 6714SOL     OW21040   5.707   0.480   4.236
 6714SOL    HW121041   5.663   0.404   4.188
 6714SOL    HW221042   5.729   0.453   4.329
 6715SOL     OW21043   0.645   1.455   0.748
 6715SOL    HW121044   0.579   1.381   0.737
 6715SOL    HW221045   0.677   1.484   0.657
 6716SOL     OW21046   2.387   5.726   1.388
 6716SOL    HW121047   2.487   5.721   1.379
 6716SOL    HW221048   2.355   5.814   1.352
 6717SOL     OW21049   4.395   2.111   0.649
 6717SOL    HW121050   4.477   2.163   0.624
 6717SOL    HW221051   4.412   2.014   0.635
 6718SOL     OW21052   3.212   0.689   0.123
 6718SOL    HW121053   3.272   0.652   0.052
 6718SOL    HW221054   3.138   0.741   0.081
 6719SOL     OW21055   0.102   6.286   5.649
 6719SOL    HW121056   0.048   6.216   5.601
 6719SOL    HW221057   0.156   6.338   5.582
 6720SOL     OW21058   2.470   5.440   1.327
 6720SOL    HW121059   2.486   5.530   1.366
 6720SOL    HW221060   2.442   5.449   1.231
 6721SOL     OW21061   5.188   6.985   3.839
 6721SOL    HW121062   5.141   6.938   3.764
 6721SOL    HW221063   5.251   6.922   3.885
 6722SOL     OW21064   4.397   3.064   6.728
 6722SOL    HW121065   4.334   3.104   6.795
 6722SOL    HW221066   4.355   3.067   6.637
 6723SOL     OW21067   3.247   6.501   3.566
 6723SOL    HW121068   3.155   6.482   3.601
 6723SOL    HW221069   3.243   6.506   3.466
 6724SOL     OW21070   2.957   4.971   5.177
 6724SOL    HW121071   3.029   4.986   5.109
 6724SOL    HW221072   2.950   4.874   5.198
 6725SOL     OW21073   0.883   5.358   2.404
 6725SOL    HW121074   0.943   5.398   2.473
 6725SOL    HW221075   0.899   5.402   2.315
 6726SOL     OW21076   2.585   2.351   3.908
 6726SOL    HW121077   2.551   2.258   3.896
 6726SOL    HW221078   2.678   2.347   3.946
 6727SOL     OW21079   4.121   3.399   6.256
 6727SOL    HW121080   4.111   3.485   6.206
 6727SOL    HW221081   4.179   3.336   6.205
 6728SOL     OW21082   4.195   1.728   3.869
 6728SOL    HW121083   4.283   1.706   3.827
 6728SOL    HW221084   4.181   1.671   3.950
 6729SOL     OW21085   6.019   0.862   2.351
 6729SOL    HW121086   6.001   0.960   2.337
 6729SOL    HW221087   5.932   0.814   2.361
 6730SOL     OW21088   2.615   1.172   6.885
 6730SOL    HW121089   2.649   1.127   6.968
 6730SOL    HW221090   2.561   1.108   6.831
 6731SOL     OW21091   2.618   4.967   1.456
 6731SOL    HW121092   2.713   4.964   1.487
 6731SOL    HW221093   2.563   4.904   1.510
 6732SOL     OW21094   2.446   6.249   0.808
 6732SOL    HW121095   2.544   6.256   0.789
 6732SOL    HW221096   2.418   6.326   0.865
 6733SOL     OW21097   5.557   5.916   5.026
 6733SOL    HW121098   5.563   5.929   5.125
 6733SOL    HW221099   5.645   5.938   4.984
 6734SOL     OW21100   2.250   3.134   5.653
 6734SOL    HW121101   2.285   3.204   5.592
 6734SOL    HW221102   2.318   3.114   5.724
 6735SOL     OW21103   6.691   5.124   5.715
 6735SOL    HW121104   6.593   5.121   5.698
 6735SOL    HW221105   6.740   5.101   5.631
 6736SOL     OW21106   2.103   3.257   2.099
 6736SOL    HW121107   2.063   3.200   2.027
 6736SOL    HW221108   2.141   3.340   2.058
 6737SOL     OW21109   1.901   1.619   1.915
 6737SOL    HW121110   2.000   1.624   1.908
 6737SOL    HW221111   1.875   1.588   2.006
 6738SOL     OW21112   2.829   0.889   2.385
 6738SOL    HW121113   2.770   0.819   2.344
 6738SOL    HW221114   2.865   0.948   2.313
 6739SOL     OW21115   3.639   6.166   5.039
 6739SOL    HW121116   3.690   6.241   5.082
 6739SOL    HW221117   3.659   6.164   4.941
 6740SOL     OW21118   1.496   1.925   3.703
 6740SOL    HW121119   1.484   1.920   3.604
 6740SOL    HW221120   1.408   1.945   3.746
 6741SOL     OW21121   6.829   0.238   5.893
 6741SOL    HW121122   6.829   0.251   5.992
 6741SOL    HW221123   6.922   0.219   5.861
 6742SOL     OW21124   6.178   5.551   5.391
 6742SOL    HW121125   6.250   5.594   5.336
 6742SOL    HW221126   6.156   5.461   5.352
 6743SOL     OW21127   4.268   3.379   1.422
 6743SOL    HW121128   4.193   3.317   1.443
 6743SOL    HW221129   4.234   3.473   1.419
 6744SOL     OW21130   4.673   4.885   5.410
 6744SOL    HW121131   4.626   4.956   5.358
 6744SOL    HW221132   4.770   4.883   5.385
 6745SOL     OW21133   1.632   4.742   3.935
 6745SOL    HW121134   1.658   4.816   3.872
 6745SOL    HW221135   1.612   4.659   3.883
 6746SOL     OW21136   0.249   2.080   0.742
 6746SOL    HW121137   0.153   2.057   0.757
 6746SOL    HW221138   0.307   2.017   0.793
 6747SOL     OW21139   5.540   6.241   4.976
 6747SOL    HW121140   5.532   6.141   4.981
 6747SOL    HW221141   5.538   6.270   4.881
 6748SOL     OW21142   1.511   0.394   2.168
 6748SOL    HW121143   1.434   0.432   2.117
 6748SOL    HW221144   1.526   0.299   2.140
 6749SOL     OW21145   4.434   0.284   0.122
 6749SOL    HW121146   4.430   0.384   0.128
 6749SOL    HW221147   4.513   0.258   0.067
 6750SOL     OW21148   2.411   2.694   5.053
 6750SOL    HW121149   2.357   2.778   5.061
 6750SOL    HW221150   2.469   2.684   5.134
 6751SOL     OW21151   2.855   2.192   5.078
 6751SOL    HW121152   2.796   2.260   5.035
 6751SOL    HW221153   2.949   2.203   5.045
 6752SOL     OW21154   5.902   2.333   0.990
 6752SOL    HW121155   5.842   2.328   0.910
 6752SOL    HW221156   5.913   2.241   1.028
 6753SOL     OW21157   4.609   2.307   6.567
 6753SOL    HW121158   4.625   2.386   6.626
 6753SOL    HW221159   4.519   2.314   6.525
 6754SOL     OW21160   6.183   0.813   6.341
 6754SOL    HW121161   6.228   0.900   6.361
 6754SOL    HW221162   6.084   0.823   6.355
 6755SOL     OW21163   5.052   1.733   4.276
 6755SOL    HW121164   4.997   1.788   4.337
 6755SOL    HW221165   5.127   1.789   4.239
 6756SOL     OW21166   5.281   5.142   4.409
 6756SOL    HW121167   5.294   5.071   4.340
 6756SOL    HW221168   5.327   5.115   4.494
 6757SOL     OW21169   5.862   5.726   1.724
 6757SOL    HW121170   5.877   5.801   1.660
 6757SOL    HW221171   5.804   5.757   1.799
 6758SOL     OW21172   4.736   2.341   2.246
 6758SOL    HW121173   4.648   2.364   2.206
 6758SOL    HW221174   4.797   2.420   2.239
 6759SOL     OW21175   0.015   4.889   2.986
 6759SOL    HW121176   6.983   4.960   2.944
 6759SOL    HW221177   0.111   4.918   2.986
 6760SOL     OW21178   6.354   3.936   4.394
 6760SOL    HW121179   6.271   3.983   4.424
 6760SOL    HW221180   6.434   3.987   4.424
 6761SOL     OW21181   5.033   2.707   5.585
 6761SOL    HW121182   5.082   2.780   5.538
 6761SOL    HW221183   4.935   2.725   5.581
 6762SOL     OW21184   6.494   4.326   4.004
 6762SOL    HW121185   6.452   4.300   3.917
 6762SOL    HW221186   6.589   4.352   3.989
 6763SOL     OW21187   6.229   6.474   6.140
 6763SOL    HW121188   6.219   6.432   6.050
 6763SOL    HW221189   6.149   6.452   6.196
 6764SOL     OW21190   2.297   4.081   6.667
 6764SOL    HW121191   2.250   4.116   6.748
 6764SOL    HW221192   2.367   4.147   6.639
 6765SOL     OW21193   5.614   4.566   2.113
 6765SOL    HW121194   5.626   4.645   2.053
 6765SOL    HW221195   5.611   4.597   2.208
 6766SOL     OW21196   2.107   0.837   5.765
 6766SOL    HW121197   2.009   0.825   5.778
 6766SOL    HW221198   2.154   0.825   5.853
 6767SOL     OW21199   6.533   2.968   0.044
 6767SOL    HW121200   6.559   2.878   0.010
 6767SOL    HW221201   6.476   2.957   0.125
 6768SOL     OW21202   6.592   0.257   4.595
 6768SOL    HW121203   6.679   0.237   4.550
 6768SOL    HW221204   6.529   0.301   4.530
 6769SOL     OW21205   2.279   2.856   5.693
 6769SOL    HW121206   2.261   2.800   5.611
 6769SOL    HW221207   2.275   2.953   5.669
 6770SOL     OW21208   0.818   1.496   3.296
 6770SOL    HW121209   0.878   1.576   3.291
 6770SOL    HW221210   0.723   1.525   3.294
 6771SOL     OW21211   3.907   2.032   3.410
 6771SOL    HW121212   3.988   1.974   3.414
 6771SOL    HW221213   3.916   2.097   3.335
 6772SOL     OW21214   6.603   1.367   1.216
 6772SOL    HW121215   6.680   1.430   1.223
 6772SOL    HW221216   6.579   1.355   1.119
 6773SOL     OW21217   1.609   6.737   1.307
 6773SOL    HW121218   1.539   6.804   1.333
 6773SOL    HW221219   1.587   6.700   1.216
 6774SOL     OW21220   2.378   2.484   4.908
 6774SOL    HW121221   2.397   2.390   4.934
 6774SOL    HW221222   2.388   2.545   4.987
 6775SOL     OW21223   0.544   1.884   4.732
 6775SOL    HW121224   0.612   1.933   4.787
 6775SOL    HW221225   0.522   1.939   4.651
 6776SOL     OW21226   3.675   4.101   3.028
 6776SOL    HW121227   3.597   4.085   2.967
 6776SOL    HW221228   3.642   4.116   3.121
 6777SOL     OW21229   5.994   5.220   0.166
 6777SOL    HW121230   5.974   5.124   0.184
 6777SOL    HW221231   6.084   5.243   0.201
 6778SOL     OW21232   5.888   5.023   2.836
 6778SOL    HW121233   5.863   4.952   2.770
 6778SOL    HW221234   5.921   5.104   2.788
 6779SOL     OW21235   5.000   3.331   5.782
 6779SOL    HW121236   4.990   3.242   5.737
 6779SOL    HW221237   5.085   3.373   5.752
 6780SOL     OW21238   3.306   2.150   2.971
 6780SOL    HW121239   3.383   2.094   3.002
 6780SOL    HW221240   3.312   2.163   2.872
 6781SOL     OW21241   0.183   1.666   3.434
 6781SOL    HW121242   0.105   1.681   3.495
 6781SOL    HW221243   0.251   1.738   3.450
 6782SOL     OW21244   6.375   0.915   2.913
 6782SOL    HW121245   6.281   0.906   2.947
 6782SOL    HW221246   6.412   0.824   2.896
 6783SOL     OW21247   1.379   4.629   5.951
 6783SOL    HW121248   1.304   4.567   5.930
 6783SOL    HW221249   1.454   4.615   5.886
 6784SOL     OW21250   2.116   3.798   1.899
 6784SOL    HW121251   2.173   3.877   1.878
 6784SOL    HW221252   2.174   3.717   1.910
 6785SOL     OW21253   5.337   5.857   4.867
 6785SOL    HW121254   5.410   5.881   4.932
 6785SOL    HW221255   5.378   5.827   4.781
 6786SOL     OW21256   5.783   1.933   5.956
 6786SOL    HW121257   5.863   1.927   6.015
 6786SOL    HW221258   5.798   1.881   5.872
 6787SOL     OW21259   3.481   1.999   6.920
 6787SOL    HW121260   3.471   2.063   6.996
 6787SOL    HW221261   3.538   2.040   6.849
 6788SOL     OW21262   0.462   4.296   2.206
 6788SOL    HW121263   0.548   4.289   2.156
 6788SOL    HW221264   0.480   4.317   2.302
 6789SOL     OW21265   5.370   4.374   3.270
 6789SOL    HW121266   5.428   4.304   3.227
 6789SOL    HW221267   5.383   4.461   3.223
 6790SOL     OW21268   0.591   5.057   6.092
 6790SOL    HW121269   0.690   5.070   6.088
 6790SOL    HW221270   0.568   5.007   6.176
 6791SOL     OW21271   3.023   0.658   3.044
 6791SOL    HW121272   3.117   0.645   3.074
 6791SOL    HW221273   3.018   0.643   2.945
 6792SOL     OW21274   3.728   6.867   5.271
 6792SOL    HW121275   3.782   6.913   5.201
 6792SOL    HW221276   3.789   6.835   5.344
 6793SOL     OW21277   1.943   3.092   6.085
 6793SOL    HW121278   1.948   3.028   6.161
 6793SOL    HW221279   1.941   3.186   6.121
 6794SOL     OW21280   5.492   1.959   5.232
 6794SOL    HW121281   5.445   1.923   5.151
 6794SOL    HW221282   5.430   1.957   5.310
 6795SOL     OW21283   0.979   0.371   1.194
 6795SOL    HW121284   1.029   0.455   1.214
 6795SOL    HW221285   0.885   0.394   1.168
 6796SOL     OW21286   5.956   1.465   2.631
 6796SOL    HW121287   6.021   1.459   2.555
 6796SOL    HW221288   5.973   1.392   2.696
 6797SOL     OW21289   0.660   2.223   1.493
 6797SOL    HW121290   0.724   2.187   1.561
 6797SOL    HW221291   0.673   2.321   1.484
 6798SOL     OW21292   6.016   0.033   1.636
 6798SOL    HW121293   6.103   0.053   1.591
 6798SOL    HW221294   6.018   6.964   1.674
 6799SOL     OW21295   6.321   0.802   3.709
 6799SOL    HW121296   6.308   0.842   3.619
 6799SOL    HW221297   6.334   0.704   3.700
 6800SOL     OW21298   6.750   2.549   1.227
 6800SOL    HW121299   6.842   2.580   1.251
 6800SOL    HW221300   6.717   2.486   1.297
 6801SOL     OW21301   0.744   6.342   6.537
 6801SOL    HW121302   0.770   6.393   6.619
 6801SOL    HW221303   0.667   6.388   6.492
 6802SOL     OW21304   3.225   4.855   1.995
 6802SOL    HW121305   3.187   4.941   1.959
 6802SOL    HW221306   3.262   4.871   2.086
 6803SOL     OW21307   5.529   4.989   5.937
 6803SOL    HW121308   5.431   4.985   5.914
 6803SOL    HW221309   5.579   5.034   5.864
 6804SOL     OW21310   3.976   4.917   2.976
 6804SOL    HW121311   3.880   4.894   2.995
 6804SOL    HW221312   3.980   4.978   2.898
 6805SOL     OW21313   6.922   5.011   4.737
 6805SOL    HW121314   6.925   4.924   4.786
 6805SOL    HW221315   6.837   5.017   4.685
 6806SOL     OW21316   6.500   2.347   1.735
 6806SOL    HW121317   6.466   2.302   1.817
 6806SOL    HW221318   6.456   2.308   1.655
 6807SOL     OW21319   3.300   3.596   2.064
 6807SOL    HW121320   3.206   3.631   2.058
 6807SOL    HW221321   3.340   3.622   2.152
 6808SOL     OW21322   3.200   1.235   4.451
 6808SOL    HW121323   3.108   1.265   4.479
 6808SOL    HW221324   3.251   1.313   4.415
 6809SOL     OW21325   5.540   3.264   0.308
 6809SOL    HW121326   5.450   3.236   0.342
 6809SOL    HW221327   5.606   3.191   0.325
 6810SOL     OW21328   2.493   0.425   4.786
 6810SOL    HW121329   2.550   0.409   4.705
 6810SOL    HW221330   2.404   0.459   4.757
 6811SOL     OW21331   6.199   1.302   0.851
 6811SOL    HW121332   6.195   1.389   0.900
 6811SOL    HW221333   6.107   1.278   0.820
 6812SOL     OW21334   3.859   4.293   5.175
 6812SOL    HW121335   3.863   4.285   5.075
 6812SOL    HW221336   3.764   4.286   5.205
 6813SOL     OW21337   6.370   3.518   2.405
 6813SOL    HW121338   6.418   3.549   2.487
 6813SOL    HW221339   6.282   3.564   2.399
 6814SOL     OW21340   5.411   0.498   6.802
 6814SOL    HW121341   5.371   0.409   6.783
 6814SOL    HW221342   5.509   0.496   6.781
 6815SOL     OW21343   1.207   5.120   6.247
 6815SOL    HW121344   1.172   5.042   6.195
 6815SOL    HW221345   1.207   5.202   6.188
 6816SOL     OW21346   6.732   0.301   3.710
 6816SOL    HW121347   6.815   0.270   3.663
 6816SOL    HW221348   6.754   0.379   3.768
 6817SOL     OW21349   4.288   2.099   1.415
 6817SOL    HW121350   4.222   2.097   1.490
 6817SOL    HW221351   4.302   2.193   1.386
 6818SOL     OW21352   1.266   6.947   5.441
 6818SOL    HW121353   1.297   6.861   5.483
 6818SOL    HW221354   1.341   6.987   5.388
 6819SOL     OW21355   4.817   4.182   2.074
 6819SOL    HW121356   4.856   4.146   1.989
 6819SOL    HW221357   4.719   4.198   2.060
 6820SOL     OW21358   3.024   5.063   1.873
 6820SOL    HW121359   3.034   5.127   1.796
 6820SOL    HW221360   2.975   4.982   1.842
 6821SOL     OW21361   3.935   2.623   5.342
 6821SOL    HW121362   3.878   2.571   5.279
 6821SOL    HW221363   4.031   2.614   5.316
 6822SOL     OW21364   6.083   2.786   5.950
 6822SOL    HW121365   6.104   2.712   6.013
 6822SOL    HW221366   6.132   2.869   5.978
 6823SOL     OW21367   6.409   2.335   4.737
 6823SOL    HW121368   6.380   2.240   4.746
 6823SOL    HW221369   6.368   2.374   4.654
 6824SOL     OW21370   0.981   0.195   5.827
 6824SOL    HW121371   0.943   0.199   5.735
 6824SOL    HW221372   1.020   0.104   5.843
 6825SOL     OW21373   4.651   4.555   0.932
 6825SOL    HW121374   4.710   4.498   0.989
 6825SOL    HW221375   4.576   4.500   0.896
 6826SOL     OW21376   6.191   5.758   3.979
 6826SOL    HW121377   6.205   5.787   4.074
 6826SOL    HW221378   6.123   5.818   3.936
 6827SOL     OW21379   5.032   6.188   4.726
 6827SOL    HW121380   5.108   6.240   4.687
 6827SOL    HW221381   5.062   6.095   4.749
 6828SOL     OW21382   2.799   2.326   2.328
 6828SOL    HW121383   2.834   2.246   2.377
 6828SOL    HW221384   2.851   2.339   2.244
 6829SOL     OW21385   3.854   0.244   3.679
 6829SOL    HW121386   3.825   0.218   3.772
 6829SOL    HW221387   3.873   0.161   3.626
 6830SOL     OW21388   4.895   5.772   3.216
 6830SOL    HW121389   4.913   5.674   3.201
 6830SOL    HW221390   4.796   5.788   3.212
 6831SOL     OW21391   2.140   2.201   6.016
 6831SOL    HW121392   2.164   2.132   5.946
 6831SOL    HW221393   2.134   2.291   5.972
 6832SOL     OW21394   3.121   3.033   0.122
 6832SOL    HW121395   3.170   3.096   0.062
 6832SOL    HW221396   3.102   2.948   0.072
 6833SOL     OW21397   3.550   5.399   5.792
 6833SOL    HW121398   3.462   5.447   5.797
 6833SOL    HW221399   3.582   5.397   5.697
 6834SOL     OW21400   6.354   6.324   0.348
 6834SOL    HW121401   6.287   6.282   0.410
 6834SOL    HW221402   6.318   6.410   0.312
 6835SOL     OW21403   2.983   1.454   5.408
 6835SOL    HW121404   2.990   1.554   5.411
 6835SOL    HW221405   3.072   1.414   5.428
 6836SOL     OW21406   2.421   4.342   6.520
 6836SOL    HW121407   2.450   4.274   6.453
 6836SOL    HW221408   2.363   4.410   6.475
 6837SOL     OW21409   0.673   1.146   2.016
 6837SOL    HW121410   0.665   1.201   1.933
 6837SOL    HW221411   0.735   1.190   2.080
 6838SOL     OW21412   3.169   4.001   4.944
 6838SOL    HW121413   3.132   4.085   4.903
 6838SOL    HW221414   3.101   3.961   5.005
 6839SOL     OW21415   6.274   3.520   4.498
 6839SOL    HW121416   6.188   3.557   4.532
 6839SOL    HW221417   6.281   3.534   4.400
 6840SOL     OW21418   2.535   6.829   4.677
 6840SOL    HW121419   2.450   6.776   4.680
 6840SOL    HW221420   2.609   6.775   4.716
 6841SOL     OW21421   4.852   6.294   1.056
 6841SOL    HW121422   4.849   6.262   1.151
 6841SOL    HW221423   4.781   6.364   1.043
 6842SOL     OW21424   0.324   3.638   4.987
 6842SOL    HW121425   0.263   3.710   5.022
 6842SOL    HW221426   0.321   3.638   4.887
 6843SOL     OW21427   3.961   1.967   1.909
 6843SOL    HW121428   3.964   1.986   2.007
 6843SOL    HW221429   3.926   2.047   1.860
 6844SOL     OW21430   4.769   5.641   3.985
 6844SOL    HW121431   4.674   5.663   4.008
 6844SOL    HW221432   4.798   5.561   4.038
 6845SOL     OW21433   4.166   4.502   1.298
 6845SOL    HW121434   4.259   4.500   1.334
 6845SOL    HW221435   4.160   4.444   1.217
 6846SOL     OW21436   3.215   3.008   2.844
 6846SOL    HW121437   3.231   2.954   2.762
 6846SOL    HW221438   3.301   3.017   2.895
 6847SOL     OW21439   5.776   3.528   2.189
 6847SOL    HW121440   5.708   3.485   2.249
 6847SOL    HW221441   5.821   3.459   2.134
 6848SOL     OW21442   0.584   6.507   3.379
 6848SOL    HW121443   0.629   6.421   3.401
 6848SOL    HW221444   0.556   6.553   3.464
 6849SOL     OW21445   3.490   6.645   3.584
 6849SOL    HW121446   3.402   6.605   3.556
 6849SOL    HW221447   3.544   6.667   3.503
 6850SOL     OW21448   5.437   2.896   2.312
 6850SOL    HW121449   5.462   2.820   2.252
 6850SOL    HW221450   5.345   2.928   2.288
 6851SOL     OW21451   0.956   5.872   5.380
 6851SOL    HW121452   0.999   5.784   5.360
 6851SOL    HW221453   0.908   5.865   5.468
 6852SOL     OW21454   0.075   5.071   1.802
 6852SOL    HW121455   0.044   5.035   1.714
 6852SOL    HW221456   0.126   5.155   1.787
 6853SOL     OW21457   0.247   3.668   5.600
 6853SOL    HW121458   0.338   3.638   5.628
 6853SOL    HW221459   0.239   3.767   5.615
 6854SOL     OW21460   6.250   1.432   6.407
 6854SOL    HW121461   6.219   1.353   6.354
 6854SOL    HW221462   6.334   1.407   6.456
 6855SOL     OW21463   3.280   5.968   1.725
 6855SOL    HW121464   3.295   5.881   1.678
 6855SOL    HW221465   3.269   6.040   1.657
 6856SOL     OW21466   6.962   3.653   5.402
 6856SOL    HW121467   6.960   3.644   5.502
 6856SOL    HW221468   0.031   3.634   5.370
 6857SOL     OW21469   4.526   1.941   5.436
 6857SOL    HW121470   4.562   1.850   5.416
 6857SOL    HW221471   4.590   2.010   5.403
 6858SOL     OW21472   4.175   3.354   4.794
 6858SOL    HW121473   4.164   3.403   4.880
 6858SOL    HW221474   4.273   3.345   4.774
 6859SOL     OW21475   4.102   6.757   1.655
 6859SOL    HW121476   4.147   6.800   1.733
 6859SOL    HW221477   4.007   6.736   1.679
 6860SOL     OW21478   4.878   3.843   6.709
 6860SOL    HW121479   4.848   3.835   6.804
 6860SOL    HW221480   4.896   3.752   6.671
 6861SOL     OW21481   6.374   4.491   6.960
 6861SOL    HW121482   6.461   4.516   6.919
 6861SOL    HW221483   6.390   4.426   0.011
 6862SOL     OW21484   3.605   5.872   4.042
 6862SOL    HW121485   3.700   5.901   4.051
 6862SOL    HW221486   3.545   5.952   4.052
 6863SOL     OW21487   6.613   3.160   4.313
 6863SOL    HW121488   6.609   3.060   4.305
 6863SOL    HW221489   6.607   3.201   4.222
 6864SOL     OW21490   3.984   6.202   4.381
 6864SOL    HW121491   3.992   6.301   4.396
 6864SOL    HW221492   4.017   6.180   4.289
 6865SOL     OW21493   6.665   4.758   4.117
 6865SOL    HW121494   6.684   4.845   4.071
 6865SOL    HW221495   6.594   4.708   4.067
 6866SOL     OW21496   0.020   3.230   2.539
 6866SOL    HW121497   6.964   3.219   2.599
 6866SOL    HW221498   0.051   3.325   2.542
 6867SOL     OW21499   2.012   4.032   2.804
 6867SOL    HW121500   2.016   4.120   2.851
 6867SOL    HW221501   1.921   3.992   2.817
 6868SOL     OW21502   1.665   5.119   5.275
 6868SOL    HW121503   1.716   5.197   5.239
 6868SOL    HW221504   1.644   5.135   5.372
 6869SOL     OW21505   6.111   3.497   5.304
 6869SOL    HW121506   6.081   3.543   5.388
 6869SOL    HW221507   6.107   3.398   5.317
 6870SOL     OW21508   5.171   3.358   2.959
 6870SOL    HW121509   5.078   3.372   2.926
 6870SOL    HW221510   5.236   3.396   2.892
 6871SOL     OW21511   5.511   5.924   1.629
 6871SOL    HW121512   5.575   5.964   1.695
 6871SOL    HW221513   5.562   5.868   1.564
 6872SOL     OW21514   2.443   3.199   6.222
 6872SOL    HW121515   2.504   3.201   6.302
 6872SOL    HW221516   2.493   3.230   6.141
 6873SOL     OW21517   5.554   3.404   5.655
 6873SOL    HW121518   5.497   3.411   5.737
 6873SOL    HW221519   5.519   3.468   5.586
 6874SOL     OW21520   0.651   2.458   5.717
 6874SOL    HW121521   0.677   2.546   5.675
 6874SOL    HW221522   0.613   2.398   5.647
 6875SOL     OW21523   3.087   2.192   3.554
 6875SOL    HW121524   3.045   2.133   3.623
 6875SOL    HW221525   3.040   2.179   3.467
 6876SOL     OW21526   4.107   6.170   6.711
 6876SOL    HW121527   4.155   6.108   6.649
 6876SOL    HW221528   4.021   6.199   6.669
 6877SOL     OW21529   2.684   4.427   0.007
 6877SOL    HW121530   2.626   4.451   6.953
 6877SOL    HW221531   2.677   4.498   0.077
 6878SOL     OW21532   1.652   1.332   5.364
 6878SOL    HW121533   1.560   1.315   5.401
 6878SOL    HW221534   1.659   1.428   5.337
 6879SOL     OW21535   1.600   2.193   6.365
 6879SOL    HW121536   1.689   2.229   6.395
 6879SOL    HW221537   1.573   2.238   6.280
 6880SOL     OW21538   1.673   3.908   5.269
 6880SOL    HW121539   1.724   3.896   5.183
 6880SOL    HW221540   1.702   3.993   5.313
 6881SOL     OW21541   0.012   4.110   1.612
 6881SOL    HW121542   6.988   4.094   1.699
 6881SOL    HW221543   6.971   4.148   1.545
 6882SOL     OW21544   1.669   0.051   5.476
 6882SOL    HW121545   1.595   0.117   5.490
 6882SOL    HW221546   1.654   6.995   5.535
 6883SOL     OW21547   3.590   6.282   1.686
 6883SOL    HW121548   3.659   6.272   1.614
 6883SOL    HW221549   3.615   6.357   1.746
 6884SOL     OW21550   2.597   4.736   3.718
 6884SOL    HW121551   2.655   4.659   3.691
 6884SOL    HW221552   2.503   4.719   3.686
 6885SOL     OW21553   2.827   5.323   4.523
 6885SOL    HW121554   2.742   5.334   4.575
 6885SOL    HW221555   2.890   5.266   4.575
 6886SOL     OW21556   5.716   1.560   2.694
 6886SOL    HW121557   5.731   1.658   2.683
 6886SOL    HW221558   5.789   1.509   2.649
 6887SOL     OW21559   6.089   1.047   5.043
 6887SOL    HW121560   6.123   1.082   4.956
 6887SOL    HW221561   6.027   1.114   5.083
 6888SOL     OW21562   5.241   6.637   4.505
 6888SOL    HW121563   5.325   6.659   4.455
 6888SOL    HW221564   5.162   6.656   4.447
 6889SOL     OW21565   1.248   4.623   6.228
 6889SOL    HW121566   1.266   4.584   6.138
 6889SOL    HW221567   1.333   4.657   6.268
 6890SOL     OW21568   2.408   0.267   1.089
 6890SOL    HW121569   2.327   0.217   1.121
 6890SOL    HW221570   2.430   0.339   1.154
 6891SOL     OW21571   1.836   4.435   4.472
 6891SOL    HW121572   1.837   4.489   4.556
 6891SOL    HW221573   1.796   4.345   4.491
 6892SOL     OW21574   4.029   0.982   3.884
 6892SOL    HW121575   3.933   1.009   3.892
 6892SOL    HW221576   4.085   1.065   3.879
 6893SOL     OW21577   5.141   5.516   2.102
 6893SOL    HW121578   5.202   5.556   2.170
 6893SOL    HW221579   5.104   5.429   2.137
 6894SOL     OW21580   6.494   4.828   6.298
 6894SOL    HW121581   6.571   4.892   6.294
 6894SOL    HW221582   6.506   4.758   6.227
 6895SOL     OW21583   3.753   5.738   6.803
 6895SOL    HW121584   3.806   5.799   6.744
 6895SOL    HW221585   3.720   5.789   6.882
 6896SOL     OW21586   3.644   0.556   2.976
 6896SOL    HW121587   3.607   0.573   3.067
 6896SOL    HW221588   3.739   0.587   2.972
 6897SOL     OW21589   3.290   2.981   0.694
 6897SOL    HW121590   3.268   2.990   0.597
 6897SOL    HW221591   3.380   2.939   0.704
 6898SOL     OW21592   4.269   2.307   2.399
 6898SOL    HW121593   4.362   2.305   2.435
 6898SOL    HW221594   4.268   2.267   2.307
 6899SOL     OW21595   4.885   6.034   6.853
 6899SOL    HW121596   4.845   6.002   6.939
 6899SOL    HW221597   4.984   6.025   6.857
 6900SOL     OW21598   4.432   0.585   6.259
 6900SOL    HW121599   4.345   0.553   6.296
 6900SOL    HW221600   4.417   0.623   6.167
 6901SOL     OW21601   1.589   0.961   6.396
 6901SOL    HW121602   1.604   1.051   6.355
 6901SOL    HW221603   1.621   0.962   6.491
 6902SOL     OW21604   6.881   5.884   0.813
 6902SOL    HW121605   6.842   5.976   0.823
 6902SOL    HW221606   6.960   5.887   0.752
 6903SOL     OW21607   4.364   4.023   0.813
 6903SOL    HW121608   4.350   3.925   0.801
 6903SOL    HW221609   4.311   4.056   0.891
 6904SOL     OW21610   0.037   1.505   3.247
 6904SOL    HW121611   6.980   1.552   3.212
 6904SOL    HW221612   0.101   1.572   3.284
 6905SOL     OW21613   5.841   6.449   0.881
 6905SOL    HW121614   5.938   6.472   0.878
 6905SOL    HW221615   5.828   6.366   0.935
 6906SOL     OW21616   4.283   0.847   3.525
 6906SOL    HW121617   4.366   0.896   3.498
 6906SOL    HW221618   4.215   0.911   3.561
 6907SOL     OW21619   4.072   1.811   1.489
 6907SOL    HW121620   4.094   1.875   1.415
 6907SOL    HW221621   3.985   1.837   1.531
 6908SOL     OW21622   0.966   6.739   6.627
 6908SOL    HW121623   0.868   6.725   6.638
 6908SOL    HW221624   0.986   6.766   6.533
 6909SOL     OW21625   3.564   3.695   6.840
 6909SOL    HW121626   3.539   3.647   6.924
 6909SOL    HW221627   3.649   3.745   6.854
 6910SOL     OW21628   6.248   1.416   1.921
 6910SOL    HW121629   6.185   1.417   1.997
 6910SOL    HW221630   6.339   1.388   1.953
 6911SOL     OW21631   3.852   1.271   4.778
 6911SOL    HW121632   3.805   1.216   4.709
 6911SOL    HW221633   3.917   1.333   4.734
 6912SOL     OW21634   4.661   4.879   0.454
 6912SOL    HW121635   4.595   4.950   0.477
 6912SOL    HW221636   4.732   4.875   0.524
 6913SOL     OW21637   5.201   5.090   5.183
 6913SOL    HW121638   5.158   5.125   5.101
 6913SOL    HW221639   5.132   5.071   5.253
 6914SOL     OW21640   6.594   4.963   0.435
 6914SOL    HW121641   6.499   4.983   0.459
 6914SOL    HW221642   6.601   4.951   0.336
 6915SOL     OW21643   0.646   5.146   2.000
 6915SOL    HW121644   0.677   5.242   2.002
 6915SOL    HW221645   0.665   5.107   1.910
 6916SOL     OW21646   6.562   1.770   0.072
 6916SOL    HW121647   6.543   1.840   0.141
 6916SOL    HW221648   6.495   1.696   0.081
 6917SOL     OW21649   4.798   5.717   6.547
 6917SOL    HW121650   4.723   5.661   6.512
 6917SOL    HW221651   4.762   5.783   6.613
 6918SOL     OW21652   1.258   3.256   4.140
 6918SOL    HW121653   1.207   3.245   4.055
 6918SOL    HW221654   1.235   3.182   4.203
 6919SOL     OW21655   1.892   6.063   3.329
 6919SOL    HW121656   1.867   6.144   3.381
 6919SOL    HW221657   1.913   6.089   3.235
 6920SOL     OW21658   5.027   6.883   4.191
 6920SOL    HW121659   4.999   6.838   4.275
 6920SOL    HW221660   5.116   6.927   4.204
 6921SOL     OW21661   0.600   0.718   3.665
 6921SOL    HW121662   0.521   0.681   3.616
 6921SOL    HW221663   0.681   0.712   3.607
 6922SOL     OW21664   2.029   6.072   0.157
 6922SOL    HW121665   2.072   5.982   0.154
 6922SOL    HW221666   1.930   6.062   0.155
 6923SOL     OW21667   4.568   0.906   4.070
 6923SOL    HW121668   4.478   0.865   4.059
 6923SOL    HW221669   4.636   0.850   4.021
 6924SOL     OW21670   0.651   5.403   1.236
 6924SOL    HW121671   0.685   5.371   1.147
 6924SOL    HW221672   0.687   5.344   1.308
 6925SOL     OW21673   5.043   5.584   2.504
 6925SOL    HW121674   4.997   5.574   2.592
 6925SOL    HW221675   4.995   5.653   2.449
 6926SOL     OW21676   3.092   3.345   4.415
 6926SOL    HW121677   3.011   3.375   4.366
 6926SOL    HW221678   3.131   3.421   4.467
 6927SOL     OW21679   4.329   4.145   6.118
 6927SOL    HW121680   4.419   4.101   6.124
 6927SOL    HW221681   4.320   4.212   6.191
 6928SOL     OW21682   5.293   0.275   6.715
 6928SOL    HW121683   5.197   0.270   6.686
 6928SOL    HW221684   5.303   0.228   6.802
 6929SOL     OW21685   3.600   5.557   0.143
 6929SOL    HW121686   3.637   5.487   0.204
 6929SOL    HW221687   3.518   5.521   0.098
 6930SOL     OW21688   1.114   0.245   3.436
 6930SOL    HW121689   1.108   0.203   3.526
 6930SOL    HW221690   1.052   0.323   3.430
 6931SOL     OW21691   1.679   1.468   1.108
 6931SOL    HW121692   1.580   1.473   1.116
 6931SOL    HW221693   1.721   1.476   1.198
 6932SOL     OW21694   2.630   2.301   0.863
 6932SOL    HW121695   2.540   2.259   0.871
 6932SOL    HW221696   2.622   2.392   0.824
 6933SOL     OW21697   4.026   5.613   5.880
 6933SOL    HW121698   4.038   5.534   5.939
 6933SOL    HW221699   4.093   5.683   5.903
 6934SOL     OW21700   5.388   3.443   6.922
 6934SOL    HW121701   5.422   3.354   6.953
 6934SOL    HW221702   5.447   3.516   6.958
 6935SOL     OW21703   4.249   5.838   3.730
 6935SOL    HW121704   4.206   5.796   3.810
 6935SOL    HW221705   4.184   5.839   3.654
 6936SOL     OW21706   1.280   4.273   1.135
 6936SOL    HW121707   1.184   4.294   1.117
 6936SOL    HW221708   1.301   4.181   1.102
 6937SOL     OW21709   4.362   6.450   5.528
 6937SOL    HW121710   4.381   6.396   5.609
 6937SOL    HW221711   4.438   6.513   5.511
 6938SOL     OW21712   4.766   2.322   4.859
 6938SOL    HW121713   4.750   2.345   4.955
 6938SOL    HW221714   4.798   2.404   4.811
 6939SOL     OW21715   0.507   4.465   2.932
 6939SOL    HW121716   0.428   4.512   2.971
 6939SOL    HW221717   0.480   4.374   2.901
 6940SOL     OW21718   5.049   0.435   5.154
 6940SOL    HW121719   5.029   0.375   5.231
 6940SOL    HW221720   5.035   0.530   5.182
 6941SOL     OW21721   4.001   3.786   3.776
 6941SOL    HW121722   3.902   3.796   3.762
 6941SOL    HW221723   4.042   3.746   3.694
 6942SOL     OW21724   6.980   2.050   6.563
 6942SOL    HW121725   6.970   2.076   6.659
 6942SOL    HW221726   6.980   1.950   6.555
 6943SOL     OW21727   4.937   5.428   6.732
 6943SOL    HW121728   4.877   5.350   6.746
 6943SOL    HW221729   5.032   5.398   6.731
 6944SOL     OW21730   1.582   5.767   5.675
 6944SOL    HW121731   1.601   5.669   5.681
 6944SOL    HW221732   1.491   5.786   5.712
 6945SOL     OW21733   6.037   2.862   5.640
 6945SOL    HW121734   6.042   2.782   5.580
 6945SOL    HW221735   6.067   2.837   5.732
 6946SOL     OW21736   5.531   4.318   2.690
 6946SOL    HW121737   5.597   4.242   2.693
 6946SOL    HW221738   5.453   4.290   2.634
 6947SOL     OW21739   3.439   6.347   3.112
 6947SOL    HW121740   3.499   6.384   3.182
 6947SOL    HW221741   3.468   6.253   3.090
 6948SOL     OW21742   4.496   0.701   5.310
 6948SOL    HW121743   4.407   0.746   5.306
 6948SOL    HW221744   4.491   0.621   5.370
 6949SOL     OW21745   5.231   0.252   2.831
 6949SOL    HW121746   5.324   0.272   2.861
 6949SOL    HW221747   5.173   0.238   2.911
 6950SOL     OW21748   2.307   0.454   3.458
 6950SOL    HW121749   2.307   0.360   3.424
 6950SOL    HW221750   2.363   0.511   3.398
 6951SOL     OW21751   6.391   5.429   5.725
 6951SOL    HW121752   6.319   5.364   5.751
 6951SOL    HW221753   6.378   5.515   5.776
 6952SOL     OW21754   0.513   4.753   5.238
 6952SOL    HW121755   0.580   4.728   5.308
 6952SOL    HW221756   0.516   4.686   5.164
 6953SOL     OW21757   4.708   1.466   5.459
 6953SOL    HW121758   4.632   1.406   5.434
 6953SOL    HW221759   4.718   1.466   5.559
 6954SOL     OW21760   6.851   3.743   3.523
 6954SOL    HW121761   6.849   3.837   3.556
 6954SOL    HW221762   6.783   3.731   3.452
 6955SOL     OW21763   0.181   5.812   1.687
 6955SOL    HW121764   0.215   5.861   1.607
 6955SOL    HW221765   0.095   5.766   1.664
 6956SOL     OW21766   4.312   4.921   1.416
 6956SOL    HW121767   4.408   4.924   1.387
 6956SOL    HW221768   4.303   4.864   1.497
 6957SOL     OW21769   0.737   4.879   0.760
 6957SOL    HW121770   0.681   4.883   0.842
 6957SOL    HW221771   0.755   4.972   0.728
 6958SOL     OW21772   2.843   3.304   6.854
 6958SOL    HW121773   2.858   3.395   6.894
 6958SOL    HW221774   2.833   3.237   6.927
 6959SOL     OW21775   3.165   0.944   4.278
 6959SOL    HW121776   3.212   0.979   4.359
 6959SOL    HW221777   3.199   0.852   4.257
 6960SOL     OW21778   0.662   4.633   6.373
 6960SOL    HW121779   0.624   4.542   6.353
 6960SOL    HW221780   0.735   4.652   6.307
 6961SOL     OW21781   0.408   0.803   2.678
 6961SOL    HW121782   0.468   0.883   2.677
 6961SOL    HW221783   0.318   0.828   2.644
 6962SOL     OW21784   4.685   4.247   0.845
 6962SOL    HW121785   4.642   4.163   0.878
 6962SOL    HW221786   4.729   4.294   0.921
 6963SOL     OW21787   6.918   5.048   1.357
 6963SOL    HW121788   6.818   5.046   1.352
 6963SOL    HW221789   6.947   5.117   1.423
 6964SOL     OW21790   4.206   5.738   5.485
 6964SOL    HW121791   4.119   5.755   5.440
 6964SOL    HW221792   4.281   5.758   5.421
 6965SOL     OW21793   6.543   3.290   6.118
 6965SOL    HW121794   6.503   3.225   6.184
 6965SOL    HW221795   6.643   3.285   6.124
 6966SOL     OW21796   4.748   2.874   3.747
 6966SOL    HW121797   4.763   2.972   3.741
 6966SOL    HW221798   4.823   2.832   3.797
 6967SOL     OW21799   1.424   0.878   6.063
 6967SOL    HW121800   1.422   0.782   6.092
 6967SOL    HW221801   1.488   0.888   5.987
 6968SOL     OW21802   5.095   5.913   1.774
 6968SOL    HW121803   5.147   5.838   1.733
 6968SOL    HW221804   5.080   5.894   1.871
 6969SOL     OW21805   3.043   2.461   0.587
 6969SOL    HW121806   3.103   2.531   0.625
 6969SOL    HW221807   3.094   2.376   0.576
 6970SOL     OW21808   5.368   4.416   6.862
 6970SOL    HW121809   5.458   4.459   6.854
 6970SOL    HW221810   5.331   4.398   6.771
 6971SOL     OW21811   5.559   0.549   1.305
 6971SOL    HW121812   5.579   0.615   1.377
 6971SOL    HW221813   5.460   0.531   1.303
 6972SOL     OW21814   5.874   5.000   4.238
 6972SOL    HW121815   5.883   5.015   4.140
 6972SOL    HW221816   5.821   5.075   4.278
 6973SOL     OW21817   1.613   4.246   3.296
 6973SOL    HW121818   1.554   4.303   3.353
 6973SOL    HW221819   1.561   4.167   3.261
 6974SOL     OW21820   3.433   3.608   4.477
 6974SOL    HW121821   3.447   3.518   4.518
 6974SOL    HW221822   3.355   3.603   4.414
 6975SOL     OW21823   3.940   0.426   6.237
 6975SOL    HW121824   4.021   0.424   6.295
 6975SOL    HW221825   3.900   0.334   6.232
 6976SOL     OW21826   1.972   4.773   6.442
 6976SOL    HW121827   2.032   4.850   6.419
 6976SOL    HW221828   1.914   4.797   6.519
 6977SOL     OW21829   3.084   1.949   2.483
 6977SOL    HW121830   3.079   1.857   2.444
 6977SOL    HW221831   3.090   2.016   2.408
 6978SOL     OW21832   0.238   0.586   1.832
 6978SOL    HW121833   0.257   0.677   1.794
 6978SOL    HW221834   0.213   0.595   1.928
 6979SOL     OW21835   0.587   5.023   2.635
 6979SOL    HW121836   0.620   5.088   2.704
 6979SOL    HW221837   0.663   4.965   2.606
 6980SOL     OW21838   3.432   0.770   4.357
 6980SOL    HW121839   3.397   0.847   4.411
 6980SOL    HW221840   3.355   0.721   4.316
 6981SOL     OW21841   1.839   5.206   0.785
 6981SOL    HW121842   1.862   5.297   0.751
 6981SOL    HW221843   1.787   5.215   0.870
 6982SOL     OW21844   0.522   0.158   4.904
 6982SOL    HW121845   0.552   0.149   4.809
 6982SOL    HW221846   0.597   0.195   4.959
 6983SOL     OW21847   6.476   0.091   4.348
 6983SOL    HW121848   6.508   0.181   4.317
 6983SOL    HW221849   6.552   0.026   4.346
 6984SOL     OW21850   1.886   0.999   6.160
 6984SOL    HW121851   1.855   0.904   6.161
 6984SOL    HW221852   1.812   1.058   6.130
 6985SOL     OW21853   5.084   5.798   2.025
 6985SOL    HW121854   5.172   5.807   2.073
 6985SOL    HW221855   5.059   5.701   2.020
 6986SOL     OW21856   2.274   6.646   6.136
 6986SOL    HW121857   2.281   6.744   6.115
 6986SOL    HW221858   2.363   6.612   6.167
 6987SOL     OW21859   0.653   3.592   6.523
 6987SOL    HW121860   0.639   3.690   6.536
 6987SOL    HW221861   0.741   3.576   6.479
 6988SOL     OW21862   5.095   1.081   3.627
 6988SOL    HW121863   5.008   1.083   3.576
 6988SOL    HW221864   5.143   0.995   3.606
 6989SOL     OW21865   1.464   2.216   4.024
 6989SOL    HW121866   1.486   2.170   4.111
 6989SOL    HW221867   1.545   2.263   3.990
 6990SOL     OW21868   3.866   3.252   6.979
 6990SOL    HW121869   3.807   3.204   0.021
 6990SOL    HW221870   3.925   3.316   0.004
 6991SOL     OW21871   2.971   4.181   5.859
 6991SOL    HW121872   2.959   4.275   5.889
 6991SOL    HW221873   3.051   4.175   5.799
 6992SOL     OW21874   5.629   7.013   3.544
 6992SOL    HW121875   5.561   0.027   3.607
 6992SOL    HW221876   5.700   6.965   3.597
 6993SOL     OW21877   0.142   0.354   3.036
 6993SOL    HW121878   0.102   0.310   2.955
 6993SOL    HW221879   0.095   0.442   3.052
 6994SOL     OW21880   1.409   3.111   6.374
 6994SOL    HW121881   1.408   3.197   6.425
 6994SOL    HW221882   1.489   3.109   6.314
 6995SOL     OW21883   6.071   5.654   3.088
 6995SOL    HW121884   6.164   5.682   3.065
 6995SOL    HW221885   6.024   5.729   3.134
 6996SOL     OW21886   2.274   0.490   5.439
 6996SOL    HW121887   2.296   0.463   5.533
 6996SOL    HW221888   2.190   0.445   5.410
 6997SOL     OW21889   4.736   0.270   5.366
 6997SOL    HW121890   4.834   0.260   5.352
 6997SOL    HW221891   4.689   0.262   5.278
 6998SOL     OW21892   0.887   3.378   3.264
 6998SOL    HW121893   0.916   3.459   3.213
 6998SOL    HW221894   0.898   3.297   3.207
 6999SOL     OW21895   3.686   2.067   5.547
 6999SOL    HW121896   3.777   2.056   5.588
 6999SOL    HW221897   3.653   1.978   5.516
 7000SOL     OW21898   0.441   6.237   2.471
 7000SOL    HW121899   0.345   6.217   2.450
 7000SOL    HW221900   0.446   6.304   2.544
 7001SOL     OW21901   2.480   2.692   5.844
 7001SOL    HW121902   2.391   2.716   5.807
 7001SOL    HW221903   2.517   2.614   5.792
 7002SOL     OW21904   1.492   5.137   2.962
 7002SOL    HW121905   1.514   5.162   2.868
 7002SOL    HW221906   1.576   5.112   3.011
 7003SOL     OW21907   3.108   6.391   0.747
 7003SOL    HW121908   3.080   6.456   0.677
 7003SOL    HW221909   3.031   6.373   0.809
 7004SOL     OW21910   1.725   4.127   1.159
 7004SOL    HW121911   1.817   4.095   1.182
 7004SOL    HW221912   1.710   4.218   1.199
 7005SOL     OW21913   5.196   6.137   6.365
 7005SOL    HW121914   5.286   6.142   6.408
 7005SOL    HW221915   5.140   6.068   6.412
 7006SOL     OW21916   4.439   4.547   4.717
 7006SOL    HW121917   4.499   4.467   4.714
 7006SOL    HW221918   4.417   4.568   4.813
 7007SOL     OW21919   4.496   6.094   3.305
 7007SOL    HW121920   4.503   6.171   3.241
 7007SOL    HW221921   4.433   6.118   3.379
 7008SOL     OW21922   1.200   4.930   4.092
 7008SOL    HW121923   1.136   4.864   4.132
 7008SOL    HW221924   1.293   4.891   4.093
 7009SOL     OW21925   0.426   4.828   1.717
 7009SOL    HW121926   0.466   4.740   1.690
 7009SOL    HW221927   0.465   4.901   1.661
 7010SOL     OW21928   3.248   5.061   6.483
 7010SOL    HW121929   3.195   5.033   6.563
 7010SOL    HW221930   3.223   5.004   6.405
 7011SOL     OW21931   2.860   0.586   5.726
 7011SOL    HW121932   2.812   0.565   5.811
 7011SOL    HW221933   2.933   0.519   5.711
 7012SOL     OW21934   1.195   0.740   1.461
 7012SOL    HW121935   1.255   0.708   1.534
 7012SOL    HW221936   1.248   0.797   1.397
 7013SOL     OW21937   1.514   7.022   1.924
 7013SOL    HW121938   1.593   0.030   1.976
 7013SOL    HW221939   1.450   0.074   1.911
 7014SOL     OW21940   2.568   4.644   1.236
 7014SOL    HW121941   2.478   4.676   1.206
 7014SOL    HW221942   2.573   4.544   1.225
 7015SOL     OW21943   5.180   2.720   2.566
 7015SOL    HW121944   5.195   2.624   2.539
 7015SOL    HW221945   5.234   2.740   2.648
 7016SOL     OW21946   4.625   5.229   0.802
 7016SOL    HW121947   4.553   5.161   0.789
 7016SOL    HW221948   4.689   5.225   0.725
 7017SOL     OW21949   3.368   1.776   3.111
 7017SOL    HW121950   3.432   1.853   3.104
 7017SOL    HW221951   3.288   1.794   3.053
 7018SOL     OW21952   0.587   4.945   4.804
 7018SOL    HW121953   0.499   4.908   4.832
 7018SOL    HW221954   0.643   4.963   4.885
 7019SOL     OW21955   2.514   5.627   6.840
 7019SOL    HW121956   2.483   5.586   6.925
 7019SOL    HW221957   2.607   5.662   6.853
 7020SOL     OW21958   6.403   6.385   6.359
 7020SOL    HW121959   6.360   6.413   6.273
 7020SOL    HW221960   6.357   6.428   6.436
 7021SOL     OW21961   2.894   1.728   6.136
 7021SOL    HW121962   2.976   1.671   6.129
 7021SOL    HW221963   2.814   1.669   6.149
 7022SOL     OW21964   5.554   4.539   0.063
 7022SOL    HW121965   5.585   4.622   0.109
 7022SOL    HW221966   5.569   4.546   6.989
 7023SOL     OW21967   6.538   3.824   2.454
 7023SOL    HW121968   6.573   3.904   2.503
 7023SOL    HW221969   6.515   3.752   2.519
 7024SOL     OW21970   1.972   5.936   0.570
 7024SOL    HW121971   2.017   6.014   0.526
 7024SOL    HW221972   1.970   5.859   0.507
 7025SOL     OW21973   3.037   1.970   6.196
 7025SOL    HW121974   3.136   1.962   6.186
 7025SOL    HW221975   2.994   1.883   6.172
 7026SOL     OW21976   3.788   1.747   0.894
 7026SOL    HW121977   3.758   1.800   0.815
 7026SOL    HW221978   3.864   1.794   0.939
 7027SOL     OW21979   4.346   6.771   4.563
 7027SOL    HW121980   4.331   6.692   4.622
 7027SOL    HW221981   4.280   6.768   4.487
 7028SOL     OW21982   3.856   6.800   4.548
 7028SOL    HW121983   3.788   6.872   4.556
 7028SOL    HW221984   3.842   6.750   4.462
 7029SOL     OW21985   3.559   0.350   6.707
 7029SOL    HW121986   3.616   0.276   6.744
 7029SOL    HW221987   3.525   0.324   6.616
 7030SOL     OW21988   0.950   3.479   4.829
 7030SOL    HW121989   0.866   3.534   4.829
 7030SOL    HW221990   0.945   3.411   4.903
 7031SOL     OW21991   1.630   5.769   4.140
 7031SOL    HW121992   1.666   5.689   4.093
 7031SOL    HW221993   1.530   5.769   4.135
 7032SOL     OW21994   6.192   1.116   2.220
 7032SOL    HW121995   6.183   1.130   2.319
 7032SOL    HW221996   6.269   1.054   2.202
 7033SOL     OW21997   0.094   0.963   3.656
 7033SOL    HW121998   0.193   0.955   3.668
 7033SOL    HW221999   0.067   1.059   3.658
 7034SOL     OW22000   6.918   6.437   3.049
 7034SOL    HW122001   6.949   6.494   3.125
 7034SOL    HW222002   6.929   6.341   3.073
 7035SOL     OW22003   6.492   5.576   2.457
 7035SOL    HW122004   6.548   5.587   2.539
 7035SOL    HW222005   6.456   5.665   2.429
 7036SOL     OW22006   0.201   5.109   2.176
 7036SOL    HW122007   0.189   5.056   2.260
 7036SOL    HW222008   0.241   5.050   2.106
 7037SOL     OW22009   1.387   6.362   6.124
 7037SOL    HW122010   1.368   6.368   6.223
 7037SOL    HW222011   1.364   6.271   6.091
 7038SOL     OW22012   0.808   3.857   4.172
 7038SOL    HW122013   0.747   3.783   4.142
 7038SOL    HW222014   0.803   3.865   4.271
 7039SOL     OW22015   3.826   1.038   6.792
 7039SOL    HW122016   3.757   1.071   6.728
 7039SOL    HW222017   3.782   1.007   6.876
 7040SOL     OW22018   5.287   2.102   6.045
 7040SOL    HW122019   5.303   2.075   5.950
 7040SOL    HW222020   5.372   2.093   6.097
 7041SOL     OW22021   2.013   1.818   2.721
 7041SOL    HW122022   1.920   1.817   2.686
 7041SOL    HW222023   2.022   1.889   2.791
 7042SOL     OW22024   3.313   6.640   6.903
 7042SOL    HW122025   3.214   6.648   6.894
 7042SOL    HW222026   3.336   6.584   6.982
 7043SOL     OW22027   2.407   1.827   3.005
 7043SOL    HW122028   2.380   1.912   2.959
 7043SOL    HW222029   2.369   1.749   2.954
 7044SOL     OW22030   4.893   4.613   3.058
 7044SOL    HW122031   4.902   4.531   3.002
 7044SOL    HW222032   4.907   4.694   3.000
 7045SOL     OW22033   5.674   5.348   1.300
 7045SOL    HW122034   5.614   5.315   1.227
 7045SOL    HW222035   5.742   5.278   1.323
 7046SOL     OW22036   3.842   0.847   4.976
 7046SOL    HW122037   3.818   0.835   4.880
 7046SOL    HW222038   3.885   0.937   4.989
 7047SOL     OW22039   1.370   1.049   4.312
 7047SOL    HW122040   1.352   0.978   4.379
 7047SOL    HW222041   1.298   1.118   4.315
 7048SOL     OW22042   6.379   6.110   0.118
 7048SOL    HW122043   6.333   6.077   0.200
 7048SOL    HW222044   6.366   6.045   0.044
 7049SOL     OW22045   2.469   1.594   0.689
 7049SOL    HW122046   2.550   1.545   0.721
 7049SOL    HW222047   2.440   1.659   0.759
 7050SOL     OW22048   3.929   4.032   4.422
 7050SOL    HW122049   3.963   3.979   4.500
 7050SOL    HW222050   3.982   4.116   4.414
 7051SOL     OW22051   0.133   6.747   2.223
 7051SOL    HW122052   0.213   6.797   2.258
 7051SOL    HW222053   0.074   6.721   2.299
 7052SOL     OW22054   0.233   2.041   3.641
 7052SOL    HW122055   0.223   1.952   3.687
 7052SOL    HW222056   0.175   2.108   3.687
 7053SOL     OW22057   0.506   4.102   6.486
 7053SOL    HW122058   0.532   4.172   6.552
 7053SOL    HW222059   0.561   4.020   6.501
 7054SOL     OW22060   0.001   6.703   1.792
 7054SOL    HW122061   6.946   6.651   1.759
 7054SOL    HW222062   6.993   6.782   1.844
 7055SOL     OW22063   4.422   0.588   4.545
 7055SOL    HW122064   4.339   0.556   4.592
 7055SOL    HW222065   4.395   0.643   4.466
 7056SOL     OW22066   5.408   4.866   4.259
 7056SOL    HW122067   5.326   4.863   4.317
 7056SOL    HW222068   5.426   4.961   4.233
 7057SOL     OW22069   6.970   5.974   3.525
 7057SOL    HW122070   6.920   5.920   3.593
 7057SOL    HW222071   6.971   5.925   3.438
 7058SOL     OW22072   0.797   4.970   5.584
 7058SOL    HW122073   0.892   4.939   5.577
 7058SOL    HW222074   0.763   4.995   5.493
 7059SOL     OW22075   1.347   0.219   2.564
 7059SOL    HW122076   1.279   0.275   2.517
 7059SOL    HW222077   1.436   0.231   2.521
 7060SOL     OW22078   3.569   6.019   1.819
 7060SOL    HW122079   3.566   6.108   1.773
 7060SOL    HW222080   3.488   5.966   1.793
 7061SOL     OW22081   0.699   0.484   2.847
 7061SOL    HW122082   0.735   0.576   2.862
 7061SOL    HW222083   0.614   0.490   2.794
 7062SOL     OW22084   5.414   2.200   4.957
 7062SOL    HW122085   5.372   2.117   4.994
 7062SOL    HW222086   5.455   2.252   5.032
 7063SOL     OW22087   3.261   6.659   1.035
 7063SOL    HW122088   3.179   6.658   0.977
 7063SOL    HW222089   3.307   6.747   1.026
 7064SOL     OW22090   3.801   2.386   1.514
 7064SOL    HW122091   3.736   2.316   1.486
 7064SOL    HW222092   3.757   2.448   1.579
 7065SOL     OW22093   4.709   3.869   1.820
 7065SOL    HW122094   4.687   3.866   1.722
 7065SOL    HW222095   4.768   3.947   1.839
 7066SOL     OW22096   4.044   6.925   0.832
 7066SOL    HW122097   3.961   6.887   0.873
 7066SOL    HW222098   4.021   7.007   0.780
 7067SOL     OW22099   0.609   3.702   5.486
 7067SOL    HW122100   0.609   3.624   5.549
 7067SOL    HW222101   0.539   3.768   5.514
 7068SOL     OW22102   1.695   1.305   3.994
 7068SOL    HW122103   1.778   1.250   3.984
 7068SOL    HW222104   1.716   1.401   3.975
 7069SOL     OW22105   0.493   4.563   5.031
 7069SOL    HW122106   0.560   4.506   4.984
 7069SOL    HW222107   0.453   4.628   4.967
 7070SOL     OW22108   6.057   5.122   4.550
 7070SOL    HW122109   6.007   5.142   4.635
 7070SOL    HW222110   6.154   5.111   4.571
 7071SOL     OW22111   1.398   5.905   5.084
 7071SOL    HW122112   1.473   5.849   5.049
 7071SOL    HW222113   1.411   5.999   5.054
 7072SOL     OW22114   0.091   6.669   6.332
 7072SOL    HW122115   0.117   6.642   6.425
 7072SOL    HW222116   0.104   6.592   6.269
 7073SOL     OW22117   0.404   0.572   5.378
 7073SOL    HW122118   0.353   0.645   5.332
 7073SOL    HW222119   0.501   0.598   5.384
 7074SOL     OW22120   3.569   2.230   1.500
 7074SOL    HW122121   3.534   2.220   1.593
 7074SOL    HW222122   3.492   2.247   1.438
 7075SOL     OW22123   1.816   5.643   3.896
 7075SOL    HW122124   1.744   5.631   3.827
 7075SOL    HW222125   1.864   5.729   3.879
 7076SOL     OW22126   3.210   2.439   6.340
 7076SOL    HW122127   3.214   2.499   6.420
 7076SOL    HW222128   3.301   2.404   6.319
 7077SOL     OW22129   2.362   5.450   5.798
 7077SOL    HW122130   2.358   5.525   5.864
 7077SOL    HW222131   2.343   5.363   5.844
 7078SOL     OW22132   5.366   0.941   3.314
 7078SOL    HW122133   5.460   0.929   3.282
 7078SOL    HW222134   5.316   1.000   3.250
 7079SOL     OW22135   6.328   6.171   6.059
 7079SOL    HW122136   6.283   6.130   5.980
 7079SOL    HW222137   6.364   6.261   6.034
 7080SOL     OW22138   4.926   2.265   3.874
 7080SOL    HW122139   4.988   2.224   3.807
 7080SOL    HW222140   4.841   2.292   3.829
 7081SOL     OW22141   3.260   1.427   5.393
 7081SOL    HW122142   3.323   1.364   5.437
 7081SOL    HW222143   3.299   1.460   5.307
 7082SOL     OW22144   5.893   1.135   6.360
 7082SOL    HW122145   5.863   1.139   6.455
 7082SOL    HW222146   5.877   1.224   6.316
 7083SOL     OW22147   3.514   0.192   6.464
 7083SOL    HW122148   3.449   0.162   6.394
 7083SOL    HW222149   3.605   0.156   6.443
 7084SOL     OW22150   6.643   6.509   6.390
 7084SOL    HW122151   6.550   6.473   6.391
 7084SOL    HW222152   6.688   6.485   6.305
 7085SOL     OW22153   2.121   2.544   2.165
 7085SOL    HW122154   2.215   2.574   2.183
 7085SOL    HW222155   2.057   2.618   2.184
 7086SOL     OW22156   5.714   0.723   6.573
 7086SOL    HW122157   5.679   0.670   6.496
 7086SOL    HW222158   5.649   0.720   6.648
 7087SOL     OW22159   1.109   2.892   4.688
 7087SOL    HW122160   1.093   2.978   4.736
 7087SOL    HW222161   1.182   2.906   4.620
 7088SOL     OW22162   5.908   3.580   4.355
 7088SOL    HW122163   5.890   3.508   4.289
 7088SOL    HW222164   5.900   3.544   4.448
 7089SOL     OW22165   3.400   2.087   0.142
 7089SOL    HW122166   3.379   2.165   0.201
 7089SOL    HW222167   3.314   2.041   0.117
 7090SOL     OW22168   2.477   2.248   5.049
 7090SOL    HW122169   2.433   2.276   5.134
 7090SOL    HW222170   2.528   2.163   5.063
 7091SOL     OW22171   6.560   0.507   0.472
 7091SOL    HW122172   6.584   0.427   0.526
 7091SOL    HW222173   6.643   0.560   0.453
 7092SOL     OW22174   3.512   4.122   1.221
 7092SOL    HW122175   3.507   4.222   1.230
 7092SOL    HW222176   3.587   4.087   1.277
 7093SOL     OW22177   3.414   3.845   4.623
 7093SOL    HW122178   3.495   3.903   4.615
 7093SOL    HW222179   3.419   3.771   4.556
 7094SOL     OW22180   0.628   6.720   5.560
 7094SOL    HW122181   0.704   6.786   5.562
 7094SOL    HW222182   0.558   6.749   5.626
 7095SOL     OW22183   0.460   3.350   6.201
 7095SOL    HW122184   0.535   3.408   6.234
 7095SOL    HW222185   0.415   3.395   6.124
 7096SOL     OW22186   4.422   2.468   3.962
 7096SOL    HW122187   4.466   2.519   4.036
 7096SOL    HW222188   4.439   2.515   3.875
 7097SOL     OW22189   0.122   0.674   1.489
 7097SOL    HW122190   0.044   0.724   1.527
 7097SOL    HW222191   0.207   0.710   1.527
 7098SOL     OW22192   1.771   6.160   6.045
 7098SOL    HW122193   1.708   6.118   6.110
 7098SOL    HW222194   1.835   6.091   6.011
 7099SOL     OW22195   1.139   1.363   5.944
 7099SOL    HW122196   1.123   1.265   5.952
 7099SOL    HW222197   1.139   1.389   5.847
 7100SOL     OW22198   4.837   3.812   1.104
 7100SOL    HW122199   4.891   3.868   1.041
 7100SOL    HW222200   4.886   3.726   1.123
 7101SOL     OW22201   2.606   0.685   4.889
 7101SOL    HW122202   2.523   0.651   4.933
 7101SOL    HW222203   2.619   0.638   4.802
 7102SOL     OW22204   3.644   1.380   1.127
 7102SOL    HW122205   3.619   1.398   1.032
 7102SOL    HW222206   3.636   1.282   1.146
 7103SOL     OW22207   3.611   6.910   0.347
 7103SOL    HW122208   3.704   6.884   0.372
 7103SOL    HW222209   3.611   6.949   0.254
 7104SOL     OW22210   1.712   2.142   3.241
 7104SOL    HW122211   1.799   2.156   3.289
 7104SOL    HW222212   1.638   2.177   3.298
 7105SOL     OW22213   3.469   3.367   4.599
 7105SOL    HW122214   3.471   3.308   4.519
 7105SOL    HW222215   3.563   3.382   4.632
 7106SOL     OW22216   3.826   2.926   4.831
 7106SOL    HW122217   3.785   2.839   4.859
 7106SOL    HW222218   3.920   2.910   4.802
 7107SOL     OW22219   2.712   1.502   0.378
 7107SOL    HW122220   2.695   1.411   0.416
 7107SOL    HW222221   2.809   1.524   0.387
 7108SOL     OW22222   5.600   6.188   0.984
 7108SOL    HW122223   5.569   6.283   0.989
 7108SOL    HW222224   5.609   6.161   0.888
 7109SOL     OW22225   3.369   0.119   6.242
 7109SOL    HW122226   3.441   0.052   6.223
 7109SOL    HW222227   3.294   0.107   6.178
 7110SOL     OW22228   4.503   5.395   4.275
 7110SOL    HW122229   4.452   5.468   4.320
 7110SOL    HW222230   4.600   5.418   4.273
 7111SOL     OW22231   2.172   3.251   4.125
 7111SOL    HW122232   2.195   3.167   4.174
 7111SOL    HW222233   2.183   3.237   4.027
 7112SOL     OW22234   1.252   6.432   3.662
 7112SOL    HW122235   1.181   6.390   3.718
 7112SOL    HW222236   1.341   6.391   3.685
 7113SOL     OW22237   3.626   3.704   4.277
 7113SOL    HW122238   3.596   3.662   4.363
 7113SOL    HW222239   3.571   3.670   4.202
 7114SOL     OW22240   4.078   1.625   1.786
 7114SOL    HW122241   4.169   1.640   1.823
 7114SOL    HW222242   4.069   1.674   1.699
 7115SOL     OW22243   4.685   1.534   1.615
 7115SOL    HW122244   4.718   1.487   1.697
 7115SOL    HW222245   4.600   1.583   1.637
 7116SOL     OW22246   5.398   4.012   3.177
 7116SOL    HW122247   5.331   3.939   3.195
 7116SOL    HW222248   5.428   4.052   3.263
 7117SOL     OW22249   6.362   6.102   2.161
 7117SOL    HW122250   6.338   6.032   2.228
 7117SOL    HW222251   6.455   6.087   2.129
 7118SOL     OW22252   5.895   3.408   0.940
 7118SOL    HW122253   5.817   3.346   0.946
 7118SOL    HW222254   5.921   3.421   0.844
 7119SOL     OW22255   6.230   1.114   3.519
 7119SOL    HW122256   6.304   1.179   3.538
 7119SOL    HW222257   6.267   1.033   3.474
 7120SOL     OW22258   4.545   1.911   4.080
 7120SOL    HW122259   4.545   1.937   3.983
 7120SOL    HW222260   4.536   1.812   4.087
 7121SOL     OW22261   2.658   6.567   3.900
 7121SOL    HW122262   2.615   6.560   3.810
 7121SOL    HW222263   2.619   6.645   3.949
 7122SOL     OW22264   6.643   0.643   6.859
 7122SOL    HW122265   6.709   0.585   6.907
 7122SOL    HW222266   6.597   0.703   6.925
 7123SOL     OW22267   3.208   5.255   1.290
 7123SOL    HW122268   3.229   5.318   1.365
 7123SOL    HW222269   3.170   5.170   1.328
 7124SOL     OW22270   0.694   5.379   6.726
 7124SOL    HW122271   0.719   5.302   6.667
 7124SOL    HW222272   0.691   5.348   6.821
 7125SOL     OW22273   6.627   6.358   2.621
 7125SOL    HW122274   6.627   6.457   2.631
 7125SOL    HW222275   6.557   6.331   2.555
 7126SOL     OW22276   1.359   4.474   0.279
 7126SOL    HW122277   1.386   4.552   0.336
 7126SOL    HW222278   1.435   4.449   0.218
 7127SOL     OW22279   3.510   6.229   4.474
 7127SOL    HW122280   3.573   6.161   4.512
 7127SOL    HW222281   3.428   6.235   4.532
 7128SOL     OW22282   3.375   4.369   1.166
 7128SOL    HW122283   3.316   4.302   1.212
 7128SOL    HW222284   3.412   4.433   1.234
 7129SOL     OW22285   2.763   0.049   1.907
 7129SOL    HW122286   2.685   0.109   1.925
 7129SOL    HW222287   2.824   0.050   1.987
 7130SOL     OW22288   2.207   4.924   3.694
 7130SOL    HW122289   2.288   4.866   3.698
 7130SOL    HW222290   2.131   4.879   3.741
 7131SOL     OW22291   2.415   0.872   2.734
 7131SOL    HW122292   2.326   0.894   2.694
 7131SOL    HW222293   2.483   0.937   2.702
 7132SOL     OW22294   3.822   3.895   3.133
 7132SOL    HW122295   3.765   3.836   3.189
 7132SOL    HW222296   3.772   3.977   3.108
 7133SOL     OW22297   5.240   5.158   3.740
 7133SOL    HW122298   5.239   5.096   3.818
 7133SOL    HW222299   5.284   5.244   3.765
 7134SOL     OW22300   6.046   5.505   4.058
 7134SOL    HW122301   5.950   5.478   4.068
 7134SOL    HW222302   6.058   5.600   4.089
 7135SOL     OW22303   1.447   1.659   4.804
 7135SOL    HW122304   1.450   1.759   4.810
 7135SOL    HW222305   1.353   1.628   4.799
 7136SOL     OW22306   1.661   1.508   0.469
 7136SOL    HW122307   1.745   1.492   0.521
 7136SOL    HW222308   1.677   1.488   0.373
 7137SOL     OW22309   4.600   0.935   4.435
 7137SOL    HW122310   4.656   0.933   4.518
 7137SOL    HW222311   4.630   0.864   4.372
 7138SOL     OW22312   2.625   4.089   1.352
 7138SOL    HW122313   2.650   4.086   1.256
 7138SOL    HW222314   2.532   4.056   1.364
 7139SOL     OW22315   4.602   3.049   1.572
 7139SOL    HW122316   4.599   3.141   1.533
 7139SOL    HW222317   4.579   3.053   1.669
 7140SOL     OW22318   6.779   4.565   4.989
 7140SOL    HW122319   6.715   4.571   5.065
 7140SOL    HW222320   6.737   4.512   4.914
 7141SOL     OW22321   3.269   0.073   0.936
 7141SOL    HW122322   3.314   0.069   0.847
 7141SOL    HW222323   3.179   0.030   0.930
 7142SOL     OW22324   4.042   6.690   3.853
 7142SOL    HW122325   4.114   6.630   3.817
 7142SOL    HW222326   3.986   6.724   3.777
 7143SOL     OW22327   1.497   4.134   6.294
 7143SOL    HW122328   1.581   4.152   6.242
 7143SOL    HW222329   1.476   4.213   6.351
 7144SOL     OW22330   0.980   1.758   3.548
 7144SOL    HW122331   0.981   1.683   3.615
 7144SOL    HW222332   1.034   1.835   3.584
 7145SOL     OW22333   4.849   0.013   6.637
 7145SOL    HW122334   4.813   7.005   6.549
 7145SOL    HW222335   4.949   0.007   6.636
 7146SOL     OW22336   2.886   5.876   0.086
 7146SOL    HW122337   2.886   5.962   0.137
 7146SOL    HW222338   2.979   5.854   0.058
 7147SOL     OW22339   0.009   0.725   3.248
 7147SOL    HW122340   7.020   0.677   3.161
 7147SOL    HW222341   6.977   0.807   3.250
 7148SOL     OW22342   1.332   0.381   1.681
 7148SOL    HW122343   1.377   0.363   1.594
 7148SOL    HW222344   1.233   0.380   1.669
 7149SOL     OW22345   6.422   1.502   3.391
 7149SOL    HW122346   6.357   1.475   3.320
 7149SOL    HW222347   6.386   1.473   3.480
 7150SOL     OW22348   5.775   2.470   0.273
 7150SOL    HW122349   5.843   2.529   0.229
 7150SOL    HW222350   5.818   2.386   0.305
 7151SOL     OW22351   2.890   5.885   2.071
 7151SOL    HW122352   2.879   5.787   2.084
 7151SOL    HW222353   2.914   5.904   1.975
 7152SOL     OW22354   1.161   2.645   4.065
 7152SOL    HW122355   1.204   2.698   3.993
 7152SOL    HW222356   1.202   2.554   4.068
 7153SOL     OW22357   4.586   1.352   4.425
 7153SOL    HW122358   4.500   1.354   4.374
 7153SOL    HW222359   4.580   1.416   4.502
 7154SOL     OW22360   4.034   6.127   4.123
 7154SOL    HW122361   3.947   6.128   4.074
 7154SOL    HW222362   4.056   6.033   4.150
 7155SOL     OW22363   1.467   6.791   2.051
 7155SOL    HW122364   1.553   6.742   2.060
 7155SOL    HW222365   1.478   6.867   1.987
 7156SOL     OW22366   6.745   5.279   5.040
 7156SOL    HW122367   6.817   5.213   5.020
 7156SOL    HW222368   6.741   5.346   4.966
 7157SOL     OW22369   5.349   5.498   0.920
 7157SOL    HW122370   5.286   5.451   0.858
 7157SOL    HW222371   5.297   5.549   0.988
 7158SOL     OW22372   0.311   6.949   2.985
 7158SOL    HW122373   0.341   6.950   3.081
 7158SOL    HW222374   0.351   6.871   2.938
 7159SOL     OW22375   0.723   5.087   6.971
 7159SOL    HW122376   0.727   5.021   0.023
 7159SOL    HW222377   0.639   5.141   6.980
 7160SOL     OW22378   6.512   0.519   1.598
 7160SOL    HW122379   6.508   0.452   1.673
 7160SOL    HW222380   6.607   0.536   1.573
 7161SOL     OW22381   3.519   2.892   4.428
 7161SOL    HW122382   3.451   2.934   4.367
 7161SOL    HW222383   3.563   2.816   4.381
 7162SOL     OW22384   3.892   5.061   3.990
 7162SOL    HW122385   3.904   5.064   3.891
 7162SOL    HW222386   3.808   5.011   4.012
 7163SOL     OW22387   3.402   0.489   3.539
 7163SOL    HW122388   3.324   0.548   3.517
 7163SOL    HW222389   3.391   0.402   3.491
 7164SOL     OW22390   2.280   1.086   3.435
 7164SOL    HW122391   2.303   1.089   3.532
 7164SOL    HW222392   2.280   1.179   3.398
 7165SOL     OW22393   5.496   0.756   1.014
 7165SOL    HW122394   5.465   0.679   0.958
 7165SOL    HW222395   5.534   0.827   0.955
 7166SOL     OW22396   5.281   5.085   0.744
 7166SOL    HW122397   5.380   5.093   0.728
 7166SOL    HW222398   5.255   4.989   0.737
 7167SOL     OW22399   4.920   3.188   4.915
 7167SOL    HW122400   4.981   3.173   4.992
 7167SOL    HW222401   4.965   3.161   4.830
 7168SOL     OW22402   1.207   0.409   3.768
 7168SOL    HW122403   1.158   0.381   3.851
 7168SOL    HW222404   1.270   0.336   3.741
 7169SOL     OW22405   1.812   2.764   5.727
 7169SOL    HW122406   1.765   2.719   5.802
 7169SOL    HW222407   1.852   2.849   5.759
 7170SOL     OW22408   5.656   5.404   3.392
 7170SOL    HW122409   5.615   5.332   3.449
 7170SOL    HW222410   5.637   5.385   3.296
 7171SOL     OW22411   4.652   3.035   5.393
 7171SOL    HW122412   4.619   3.033   5.487
 7171SOL    HW222413   4.647   3.128   5.357
 7172SOL     OW22414   1.378   6.733   0.288
 7172SOL    HW122415   1.437   6.772   0.358
 7172SOL    HW222416   1.425   6.736   0.199
 7173SOL     OW22417   6.919   6.249   5.366
 7173SOL    HW122418   6.965   6.336   5.381
 7173SOL    HW222419   6.977   6.174   5.399
 7174SOL     OW22420   2.089   5.387   0.361
 7174SOL    HW122421   2.094   5.298   0.407
 7174SOL    HW222422   1.995   5.405   0.333
 7175SOL     OW22423   5.180   3.924   6.983
 7175SOL    HW122424   5.197   3.826   6.992
 7175SOL    HW222425   5.254   3.966   6.930
 7176SOL     OW22426   6.466   4.048   1.602
 7176SOL    HW122427   6.534   4.122   1.606
 7176SOL    HW222428   6.449   4.024   1.506
 7177SOL     OW22429   1.297   5.462   3.121
 7177SOL    HW122430   1.272   5.555   3.094
 7177SOL    HW222431   1.217   5.417   3.162
 7178SOL     OW22432   0.844   2.512   4.625
 7178SOL    HW122433   0.748   2.516   4.654
 7178SOL    HW222434   0.900   2.477   4.700
 7179SOL     OW22435   2.872   4.154   5.334
 7179SOL    HW122436   2.826   4.237   5.367
 7179SOL    HW222437   2.832   4.074   5.378
 7180SOL     OW22438   0.887   6.293   2.198
 7180SOL    HW122439   0.797   6.269   2.234
 7180SOL    HW222440   0.920   6.218   2.140
 7181SOL     OW22441   4.617   0.476   1.551
 7181SOL    HW122442   4.702   0.503   1.507
 7181SOL    HW222443   4.545   0.541   1.530
 7182SOL     OW22444   2.461   4.363   5.584
 7182SOL    HW122445   2.450   4.265   5.598
 7182SOL    HW222446   2.552   4.381   5.546
 7183SOL     OW22447   1.559   4.975   3.491
 7183SOL    HW122448   1.629   5.037   3.457
 7183SOL    HW222449   1.496   4.952   3.417
 7184SOL     OW22450   2.139   6.431   4.197
 7184SOL    HW122451   2.224   6.400   4.240
 7184SOL    HW222452   2.073   6.355   4.196
 7185SOL     OW22453   4.288   2.771   6.878
 7185SOL    HW122454   4.205   2.753   6.826
 7185SOL    HW222455   4.366   2.727   6.834
 7186SOL     OW22456   6.738   5.856   5.465
 7186SOL    HW122457   6.724   5.954   5.449
 7186SOL    HW222458   6.721   5.806   5.381
 7187SOL     OW22459   1.849   4.321   2.435
 7187SOL    HW122460   1.867   4.279   2.524
 7187SOL    HW222461   1.858   4.421   2.443
 7188SOL     OW22462   4.971   0.973   2.177
 7188SOL    HW122463   4.908   1.030   2.124
 7188SOL    HW222464   4.993   0.890   2.125
 7189SOL     OW22465   0.234   1.452   5.634
 7189SOL    HW122466   0.252   1.476   5.729
 7189SOL    HW222467   0.172   1.373   5.631
 7190SOL     OW22468   5.493   4.093   3.412
 7190SOL    HW122469   5.547   4.139   3.483
 7190SOL    HW222470   5.476   3.999   3.438
 7191SOL     OW22471   1.249   4.231   2.453
 7191SOL    HW122472   1.243   4.197   2.547
 7191SOL    HW222473   1.178   4.188   2.397
 7192SOL     OW22474   2.721   4.555   6.559
 7192SOL    HW122475   2.650   4.549   6.629
 7192SOL    HW222476   2.685   4.523   6.471
 7193SOL     OW22477   3.987   2.056   4.420
 7193SOL    HW122478   4.079   2.043   4.383
 7193SOL    HW222479   3.930   2.102   4.352
 7194SOL     OW22480   2.433   2.260   1.706
 7194SOL    HW122481   2.336   2.287   1.706
 7194SOL    HW222482   2.474   2.282   1.794
 7195SOL     OW22483   0.848   5.451   0.988
 7195SOL    HW122484   0.906   5.373   0.965
 7195SOL    HW222485   0.868   5.480   1.082
 7196SOL     OW22486   2.836   3.491   2.653
 7196SOL    HW122487   2.863   3.395   2.663
 7196SOL    HW222488   2.737   3.496   2.636
 7197SOL     OW22489   6.830   1.786   5.381
 7197SOL    HW122490   6.802   1.736   5.462
 7197SOL    HW222491   6.929   1.802   5.383
 7198SOL     OW22492   1.353   6.365   6.378
 7198SOL    HW122493   1.385   6.429   6.447
 7198SOL    HW222494   1.254   6.356   6.384
 7199SOL     OW22495   6.857   6.595   2.817
 7199SOL    HW122496   6.914   6.677   2.803
 7199SOL    HW222497   6.865   6.565   2.912
 7200SOL     OW22498   2.058   0.917   1.365
 7200SOL    HW122499   2.156   0.919   1.350
 7200SOL    HW222500   2.016   0.999   1.325
 7201SOL     OW22501   1.512   4.219   3.974
 7201SOL    HW122502   1.574   4.250   4.046
 7201SOL    HW222503   1.565   4.184   3.897
 7202SOL     OW22504   3.546   0.458   6.402
 7202SOL    HW122505   3.576   0.367   6.431
 7202SOL    HW222506   3.611   0.527   6.434
 7203SOL     OW22507   5.566   0.953   6.516
 7203SOL    HW122508   5.486   0.951   6.576
 7203SOL    HW222509   5.639   0.897   6.555
 7204SOL     OW22510   5.963   1.414   3.201
 7204SOL    HW122511   5.987   1.495   3.148
 7204SOL    HW222512   5.873   1.380   3.171
 7205SOL     OW22513   1.992   4.816   2.674
 7205SOL    HW122514   1.987   4.894   2.736
 7205SOL    HW222515   1.989   4.849   2.579
 7206SOL     OW22516   6.355   1.155   0.672
 7206SOL    HW122517   6.421   1.198   0.611
 7206SOL    HW222518   6.295   1.225   0.711
 7207SOL     OW22519   3.505   6.586   0.904
 7207SOL    HW122520   3.426   6.611   0.960
 7207SOL    HW222521   3.588   6.627   0.943
 7208SOL     OW22522   3.119   0.129   5.403
 7208SOL    HW122523   3.206   0.167   5.434
 7208SOL    HW222524   3.048   0.199   5.411
 7209SOL     OW22525   4.042   3.214   4.583
 7209SOL    HW122526   3.982   3.135   4.572
 7209SOL    HW222527   4.050   3.238   4.680
 7210SOL     OW22528   4.809   1.195   3.980
 7210SOL    HW122529   4.758   1.247   4.048
 7210SOL    HW222530   4.904   1.186   4.009
 7211SOL     OW22531   1.476   5.378   3.908
 7211SOL    HW122532   1.534   5.352   3.830
 7211SOL    HW222533   1.382   5.348   3.890
 7212SOL     OW22534   6.184   6.526   4.435
 7212SOL    HW122535   6.171   6.621   4.464
 7212SOL    HW222536   6.131   6.509   4.352
 7213SOL     OW22537   5.811   0.912   5.437
 7213SOL    HW122538   5.759   0.864   5.508
 7213SOL    HW222539   5.908   0.887   5.445
 7214SOL     OW22540   1.646   4.999   5.020
 7214SOL    HW122541   1.709   4.923   5.002
 7214SOL    HW222542   1.676   5.049   5.101
 7215SOL     OW22543   0.593   3.699   4.169
 7215SOL    HW122544   0.539   3.624   4.132
 7215SOL    HW222545   0.536   3.781   4.174
 7216SOL     OW22546   2.425   0.521   7.007
 7216SOL    HW122547   2.520   0.493   7.022
 7216SOL    HW222548   2.421   0.588   6.934
 7217SOL     OW22549   1.193   3.103   2.388
 7217SOL    HW122550   1.155   3.064   2.304
 7217SOL    HW222551   1.148   3.189   2.408
 7218SOL     OW22552   4.565   2.736   5.712
 7218SOL    HW122553   4.562   2.667   5.785
 7218SOL    HW222554   4.500   2.809   5.734
 7219SOL     OW22555   4.781   6.871   2.447
 7219SOL    HW122556   4.744   6.779   2.433
 7219SOL    HW222557   4.836   6.873   2.530
 7220SOL     OW22558   6.351   1.102   2.575
 7220SOL    HW122559   6.407   1.021   2.561
 7220SOL    HW222560   6.403   1.169   2.629
 7221SOL     OW22561   5.168   4.190   6.033
 7221SOL    HW122562   5.178   4.198   5.933
 7221SOL    HW222563   5.075   4.159   6.054
 7222SOL     OW22564   0.042   5.817   1.357
 7222SOL    HW122565   6.968   5.830   1.370
 7222SOL    HW222566   0.068   5.726   1.392
 7223SOL     OW22567   3.408   1.246   5.826
 7223SOL    HW122568   3.377   1.310   5.896
 7223SOL    HW222569   3.428   1.158   5.869
 7224SOL     OW22570   5.587   0.037   4.689
 7224SOL    HW122571   5.624   6.986   4.634
 7224SOL    HW222572   5.488   0.028   4.695
 7225SOL     OW22573   1.881   6.260   6.690
 7225SOL    HW122574   1.968   6.305   6.673
 7225SOL    HW222575   1.894   6.161   6.687
 7226SOL     OW22576   0.317   6.753   0.323
 7226SOL    HW122577   0.284   6.845   0.343
 7226SOL    HW222578   0.355   6.711   0.406
 7227SOL     OW22579   0.084   2.608   6.876
 7227SOL    HW122580   0.147   2.682   6.901
 7227SOL    HW222581   0.136   2.524   6.862
 7228SOL     OW22582   1.055   0.227   2.180
 7228SOL    HW122583   0.991   0.233   2.257
 7228SOL    HW222584   1.118   0.305   2.184
 7229SOL     OW22585   1.080   0.303   3.998
 7229SOL    HW122586   1.004   0.275   3.940
 7229SOL    HW222587   1.045   0.352   4.077
 7230SOL     OW22588   5.158   4.725   4.029
 7230SOL    HW122589   5.073   4.678   4.007
 7230SOL    HW222590   5.233   4.687   3.976
 7231SOL     OW22591   6.153   1.208   6.021
 7231SOL    HW122592   6.063   1.172   5.996
 7231SOL    HW222593   6.224   1.146   5.989
 7232SOL     OW22594   4.100   4.737   1.988
 7232SOL    HW122595   4.186   4.686   1.989
 7232SOL    HW222596   4.071   4.755   2.082
 7233SOL     OW22597   6.762   2.596   5.976
 7233SOL    HW122598   6.817   2.559   6.051
 7233SOL    HW222599   6.733   2.689   5.999
 7234SOL     OW22600   6.191   1.882   1.627
 7234SOL    HW122601   6.094   1.906   1.628
 7234SOL    HW222602   6.211   1.829   1.544
 7235SOL     OW22603   5.163   4.075   5.060
 7235SOL    HW122604   5.079   4.122   5.087
 7235SOL    HW222605   5.139   3.992   5.009
 7236SOL     OW22606   3.551   0.843   2.705
 7236SOL    HW122607   3.568   0.831   2.607
 7236SOL    HW222608   3.495   0.767   2.738
 7237SOL     OW22609   5.920   5.741   5.987
 7237SOL    HW122610   5.903   5.643   5.977
 7237SOL    HW222611   6.015   5.760   5.964
 7238SOL     OW22612   2.180   2.159   2.020
 7238SOL    HW122613   2.143   2.183   2.110
 7238SOL    HW222614   2.228   2.072   2.026
 7239SOL     OW22615   2.854   1.342   1.833
 7239SOL    HW122616   2.946   1.317   1.803
 7239SOL    HW222617   2.848   1.336   1.933
 7240SOL     OW22618   2.675   4.582   0.235
 7240SOL    HW122619   2.628   4.538   0.311
 7240SOL    HW222620   2.763   4.619   0.267
 7241SOL     OW22621   3.369   6.819   4.961
 7241SOL    HW122622   3.413   6.780   5.041
 7241SOL    HW222623   3.383   6.759   4.882
 7242SOL     OW22624   5.589   4.366   6.584
 7242SOL    HW122625   5.648   4.408   6.515
 7242SOL    HW222626   5.530   4.298   6.540
 7243SOL     OW22627   0.956   5.700   0.588
 7243SOL    HW122628   0.875   5.747   0.622
 7243SOL    HW222629   0.929   5.615   0.544
 7244SOL     OW22630   5.784   1.591   1.246
 7244SOL    HW122631   5.801   1.567   1.341
 7244SOL    HW222632   5.854   1.655   1.214
 7245SOL     OW22633   6.953   1.663   4.188
 7245SOL    HW122634   6.898   1.656   4.105
 7245SOL    HW222635   0.023   1.686   4.165
 7246SOL     OW22636   6.910   6.662   5.890
 7246SOL    HW122637   6.976   6.737   5.889
 7246SOL    HW222638   6.827   6.690   5.841
 7247SOL     OW22639   3.194   5.473   2.580
 7247SOL    HW122640   3.270   5.452   2.641
 7247SOL    HW222641   3.108   5.470   2.631
 7248SOL     OW22642   3.770   0.788   4.721
 7248SOL    HW122643   3.732   0.876   4.689
 7248SOL    HW222644   3.716   0.713   4.682
 7249SOL     OW22645   6.283   5.015   0.082
 7249SOL    HW122646   6.225   4.981   0.156
 7249SOL    HW222647   6.371   4.967   0.085
 7250SOL     OW22648   3.194   4.529   6.241
 7250SOL    HW122649   3.292   4.549   6.246
 7250SOL    HW222650   3.146   4.606   6.197
 7251SOL     OW22651   5.754   0.377   5.031
 7251SOL    HW122652   5.841   0.367   5.078
 7251SOL    HW222653   5.692   0.303   5.058
 7252SOL     OW22654   3.749   3.165   5.146
 7252SOL    HW122655   3.815   3.102   5.107
 7252SOL    HW222656   3.754   3.253   5.098
 7253SOL     OW22657   4.858   5.971   1.310
 7253SOL    HW122658   4.817   5.906   1.374
 7253SOL    HW222659   4.895   6.049   1.360
 7254SOL     OW22660   4.409   6.307   5.061
 7254SOL    HW122661   4.442   6.381   5.002
 7254SOL    HW222662   4.327   6.337   5.109
 7255SOL     OW22663   3.354   3.528   2.772
 7255SOL    HW122664   3.406   3.444   2.755
 7255SOL    HW222665   3.260   3.516   2.742
 7256SOL     OW22666   4.695   5.139   3.928
 7256SOL    HW122667   4.723   5.130   3.832
 7256SOL    HW222668   4.663   5.051   3.961
 7257SOL     OW22669   6.055   3.061   3.152
 7257SOL    HW122670   6.146   3.087   3.184
 7257SOL    HW222671   6.058   3.041   3.054
 7258SOL     OW22672   3.448   0.145   4.151
 7258SOL    HW122673   3.432   0.112   4.244
 7258SOL    HW222674   3.513   0.084   4.105
 7259SOL     OW22675   2.274   4.610   6.468
 7259SOL    HW122676   2.244   4.650   6.555
 7259SOL    HW222677   2.223   4.652   6.393
 7260SOL     OW22678   3.540   2.116   2.488
 7260SOL    HW122679   3.621   2.135   2.433
 7260SOL    HW222680   3.509   2.022   2.469
 7261SOL     OW22681   1.474   3.908   2.041
 7261SOL    HW122682   1.499   4.001   2.069
 7261SOL    HW222683   1.555   3.849   2.044
 7262SOL     OW22684   5.790   1.699   4.991
 7262SOL    HW122685   5.805   1.773   4.925
 7262SOL    HW222686   5.695   1.669   4.988
 7263SOL     OW22687   3.231   6.103   2.085
 7263SOL    HW122688   3.228   6.022   2.026
 7263SOL    HW222689   3.313   6.157   2.065
 7264SOL     OW22690   0.884   0.176   5.585
 7264SOL    HW122691   0.812   0.107   5.571
 7264SOL    HW222692   0.948   0.172   5.509
 7265SOL     OW22693   4.344   5.185   6.052
 7265SOL    HW122694   4.290   5.238   5.987
 7265SOL    HW222695   4.314   5.206   6.145
 7266SOL     OW22696   4.686   0.831   2.011
 7266SOL    HW122697   4.637   0.804   2.093
 7266SOL    HW222698   4.647   0.917   1.976
 7267SOL     OW22699   6.877   4.154   3.600
 7267SOL    HW122700   6.955   4.098   3.626
 7267SOL    HW222701   6.834   4.116   3.518
 7268SOL     OW22702   3.442   6.874   1.029
 7268SOL    HW122703   3.409   6.938   0.959
 7268SOL    HW222704   3.459   6.924   1.113
 7269SOL     OW22705   1.783   6.187   1.838
 7269SOL    HW122706   1.787   6.122   1.762
 7269SOL    HW222707   1.874   6.226   1.854
 7270SOL     OW22708   3.056   1.246   2.655
 7270SOL    HW122709   3.104   1.253   2.742
 7270SOL    HW222710   3.005   1.160   2.651
 7271SOL     OW22711   6.768   3.466   3.537
 7271SOL    HW122712   6.793   3.398   3.606
 7271SOL    HW222713   6.825   3.547   3.548
 7272SOL     OW22714   5.487   2.664   2.167
 7272SOL    HW122715   5.418   2.595   2.188
 7272SOL    HW222716   5.520   2.649   2.074
 7273SOL     OW22717   5.257   4.823   0.071
 7273SOL    HW122718   5.223   4.745   0.017
 7273SOL    HW222719   5.190   4.897   0.068
 7274SOL     OW22720   6.506   4.894   5.398
 7274SOL    HW122721   6.486   4.796   5.396
 7274SOL    HW222722   6.504   4.926   5.493
 7275SOL     OW22723   6.497   6.753   0.668
 7275SOL    HW122724   6.529   6.680   0.728
 7275SOL    HW222725   6.472   6.714   0.579
 7276SOL     OW22726   2.493   2.197   3.590
 7276SOL    HW122727   2.490   2.133   3.667
 7276SOL    HW222728   2.400   2.225   3.567
 7277SOL     OW22729   5.488   1.929   4.712
 7277SOL    HW122730   5.538   1.991   4.651
 7277SOL    HW222731   5.399   1.969   4.734
 7278SOL     OW22732   2.696   1.652   3.007
 7278SOL    HW122733   2.695   1.586   2.931
 7278SOL    HW222734   2.627   1.722   2.991
 7279SOL     OW22735   5.435   4.885   1.031
 7279SOL    HW122736   5.354   4.826   1.031
 7279SOL    HW222737   5.501   4.851   0.964
 7280SOL     OW22738   6.163   2.160   5.403
 7280SOL    HW122739   6.117   2.101   5.337
 7280SOL    HW222740   6.240   2.206   5.360
 7281SOL     OW22741   4.159   5.620   2.696
 7281SOL    HW122742   4.105   5.687   2.645
 7281SOL    HW222743   4.256   5.643   2.687
 7282SOL     OW22744   6.817   4.507   2.421
 7282SOL    HW122745   6.749   4.576   2.450
 7282SOL    HW222746   6.810   4.494   2.322
 7283SOL     OW22747   4.088   4.975   3.324
 7283SOL    HW122748   4.100   4.921   3.240
 7283SOL    HW222749   4.074   5.071   3.300
 7284SOL     OW22750   6.909   1.350   3.452
 7284SOL    HW122751   6.958   1.368   3.367
 7284SOL    HW222752   6.810   1.359   3.437
 7285SOL     OW22753   4.934   2.911   1.843
 7285SOL    HW122754   4.862   2.962   1.889
 7285SOL    HW222755   4.922   2.813   1.859
 7286SOL     OW22756   0.219   0.992   2.495
 7286SOL    HW122757   0.145   1.010   2.431
 7286SOL    HW222758   0.303   0.972   2.444
 7287SOL     OW22759   1.506   2.631   3.541
 7287SOL    HW122760   1.602   2.620   3.516
 7287SOL    HW222761   1.464   2.698   3.479
 7288SOL     OW22762   2.793   2.045   3.045
 7288SOL    HW122763   2.718   2.096   3.086
 7288SOL    HW222764   2.871   2.106   3.032
 7289SOL     OW22765   6.261   1.727   1.383
 7289SOL    HW122766   6.312   1.813   1.384
 7289SOL    HW222767   6.320   1.654   1.348
 7290SOL     OW22768   3.618   1.785   5.444
 7290SOL    HW122769   3.519   1.789   5.427
 7290SOL    HW222770   3.664   1.745   5.365
 7291SOL     OW22771   4.226   0.913   0.805
 7291SOL    HW122772   4.322   0.913   0.834
 7291SOL    HW222773   4.171   0.957   0.876
 7292SOL     OW22774   2.734   0.652   2.899
 7292SOL    HW122775   2.765   0.558   2.884
 7292SOL    HW222776   2.688   0.685   2.816
 7293SOL     OW22777   0.995   0.789   4.676
 7293SOL    HW122778   1.022   0.700   4.712
 7293SOL    HW222779   1.040   0.862   4.728
 7294SOL     OW22780   3.070   6.561   2.269
 7294SOL    HW122781   2.985   6.613   2.261
 7294SOL    HW222782   3.049   6.464   2.277
 7295SOL     OW22783   5.983   5.439   2.229
 7295SOL    HW122784   5.989   5.358   2.288
 7295SOL    HW222785   6.073   5.481   2.221
 7296SOL     OW22786   4.975   4.420   2.064
 7296SOL    HW122787   4.913   4.498   2.053
 7296SOL    HW222788   4.923   4.335   2.054
 7297SOL     OW22789   4.262   6.546   1.324
 7297SOL    HW122790   4.190   6.547   1.256
 7297SOL    HW222791   4.351   6.535   1.279
 7298SOL     OW22792   4.198   5.290   6.977
 7298SOL    HW122793   4.229   5.383   6.960
 7298SOL    HW222794   4.188   5.242   6.889
 7299SOL     OW22795   1.212   2.506   6.220
 7299SOL    HW122796   1.227   2.437   6.149
 7299SOL    HW222797   1.201   2.460   6.309
 7300SOL     OW22798   0.720   5.064   1.756
 7300SOL    HW122799   0.711   5.038   1.660
 7300SOL    HW222800   0.807   5.031   1.792
 7301SOL     OW22801   4.732   1.110   5.282
 7301SOL    HW122802   4.790   1.103   5.364
 7301SOL    HW222803   4.658   1.174   5.299
 7302SOL     OW22804   5.359   1.330   5.996
 7302SOL    HW122805   5.418   1.409   5.986
 7302SOL    HW222806   5.263   1.359   5.994
 7303SOL     OW22807   2.167   1.769   1.508
 7303SOL    HW122808   2.250   1.825   1.498
 7303SOL    HW222809   2.087   1.824   1.485
 7304SOL     OW22810   3.068   5.686   1.471
 7304SOL    HW122811   3.166   5.707   1.468
 7304SOL    HW222812   3.037   5.659   1.380
 7305SOL     OW22813   6.552   1.242   0.511
 7305SOL    HW122814   6.595   1.160   0.472
 7305SOL    HW222815   6.597   1.324   0.475
 7306SOL     OW22816   0.898   2.536   1.278
 7306SOL    HW122817   0.899   2.555   1.180
 7306SOL    HW222818   0.991   2.515   1.309
 7307SOL     OW22819   2.173   0.123   1.228
 7307SOL    HW122820   2.108   0.163   1.292
 7307SOL    HW222821   2.126   0.060   1.166
 7308SOL     OW22822   4.800   1.301   3.130
 7308SOL    HW122823   4.868   1.336   3.194
 7308SOL    HW222824   4.708   1.326   3.162
 7309SOL     OW22825   1.698   5.040   3.174
 7309SOL    HW122826   1.751   5.124   3.167
 7309SOL    HW222827   1.746   4.975   3.233
 7310SOL     OW22828   3.075   2.522   6.113
 7310SOL    HW122829   3.131   2.529   6.031
 7310SOL    HW222830   3.127   2.478   6.186
 7311SOL     OW22831   6.826   6.477   6.638
 7311SOL    HW122832   6.877   6.531   6.571
 7311SOL    HW222833   6.751   6.532   6.676
 7312SOL     OW22834   6.645   1.847   4.236
 7312SOL    HW122835   6.673   1.928   4.287
 7312SOL    HW222836   6.698   1.768   4.266
 7313SOL     OW22837   2.653   0.656   2.319
 7313SOL    HW122838   2.630   0.560   2.332
 7313SOL    HW222839   2.569   0.711   2.321
 7314SOL     OW22840   0.233   4.264   6.414
 7314SOL    HW122841   0.313   4.239   6.359
 7314SOL    HW222842   0.154   4.278   6.354
 7315SOL     OW22843   1.368   4.809   2.324
 7315SOL    HW122844   1.350   4.725   2.273
 7315SOL    HW222845   1.464   4.811   2.352
 7316SOL     OW22846   3.181   2.136   0.926
 7316SOL    HW122847   3.172   2.066   0.855
 7316SOL    HW222848   3.191   2.093   1.015
 7317SOL     OW22849   4.124   1.264   0.741
 7317SOL    HW122850   4.097   1.254   0.837
 7317SOL    HW222851   4.133   1.361   0.720
 7318SOL     OW22852   4.431   6.512   0.862
 7318SOL    HW122853   4.392   6.598   0.895
 7318SOL    HW222854   4.359   6.443   0.857
 7319SOL     OW22855   5.279   4.849   6.715
 7319SOL    HW122856   5.249   4.943   6.699
 7319SOL    HW222857   5.200   4.792   6.739
 7320SOL     OW22858   0.237   2.606   1.238
 7320SOL    HW122859   0.328   2.591   1.275
 7320SOL    HW222860   0.241   2.679   1.169
 7321SOL     OW22861   1.836   0.521   6.596
 7321SOL    HW122862   1.808   0.490   6.686
 7321SOL    HW222863   1.823   0.620   6.589
 7322SOL     OW22864   0.780   2.568   2.935
 7322SOL    HW122865   0.831   2.649   2.906
 7322SOL    HW222866   0.682   2.585   2.924
 7323SOL     OW22867   1.137   2.840   1.401
 7323SOL    HW122868   1.111   2.744   1.399
 7323SOL    HW222869   1.071   2.894   1.348
 7324SOL     OW22870   5.920   4.746   2.941
 7324SOL    HW122871   5.847   4.684   2.913
 7324SOL    HW222872   5.971   4.776   2.860
 7325SOL     OW22873   4.274   0.987   5.962
 7325SOL    HW122874   4.175   0.978   5.953
 7325SOL    HW222875   4.297   1.015   6.055
 7326SOL     OW22876   3.619   0.206   0.691
 7326SOL    HW122877   3.624   0.288   0.634
 7326SOL    HW222878   3.693   0.208   0.758
 7327SOL     OW22879   0.697   3.845   3.469
 7327SOL    HW122880   0.782   3.843   3.417
 7327SOL    HW222881   0.621   3.862   3.406
 7328SOL     OW22882   4.146   4.759   4.507
 7328SOL    HW122883   4.164   4.764   4.409
 7328SOL    HW222884   4.205   4.690   4.549
 7329SOL     OW22885   3.277   3.630   1.432
 7329SOL    HW122886   3.352   3.653   1.370
 7329SOL    HW222887   3.234   3.714   1.464
 7330SOL     OW22888   3.229   3.143   1.964
 7330SOL    HW122889   3.225   3.046   1.986
 7330SOL    HW222890   3.217   3.155   1.865
 7331SOL     OW22891   5.366   1.289   2.691
 7331SOL    HW122892   5.363   1.275   2.790
 7331SOL    HW222893   5.348   1.385   2.670
 7332SOL     OW22894   3.313   5.548   5.746
 7332SOL    HW122895   3.358   5.636   5.763
 7332SOL    HW222896   3.255   5.556   5.665
 7333SOL     OW22897   0.352   1.630   0.711
 7333SOL    HW122898   0.423   1.566   0.740
 7333SOL    HW222899   0.321   1.684   0.790
 7334SOL     OW22900   2.883   0.695   4.350
 7334SOL    HW122901   2.936   0.658   4.274
 7334SOL    HW222902   2.905   0.646   4.434
 7335SOL     OW22903   6.586   3.203   2.138
 7335SOL    HW122904   6.562   3.107   2.155
 7335SOL    HW222905   6.521   3.262   2.185
 7336SOL     OW22906   2.165   0.024   2.152
 7336SOL    HW122907   2.120   0.098   2.201
 7336SOL    HW222908   2.100   6.975   2.132
 7337SOL     OW22909   1.929   1.824   3.467
 7337SOL    HW122910   2.001   1.891   3.482
 7337SOL    HW222911   1.874   1.815   3.550
 7338SOL     OW22912   6.232   3.171   1.574
 7338SOL    HW122913   6.185   3.100   1.521
 7338SOL    HW222914   6.317   3.134   1.611
 7339SOL     OW22915   6.540   5.383   4.149
 7339SOL    HW122916   6.580   5.475   4.155
 7339SOL    HW222917   6.447   5.385   4.184
 7340SOL     OW22918   2.571   6.690   1.134
 7340SOL    HW122919   2.488   6.654   1.178
 7340SOL    HW222920   2.550   6.777   1.090
 7341SOL     OW22921   6.059   5.347   4.370
 7341SOL    HW122922   6.067   5.256   4.410
 7341SOL    HW222923   5.971   5.356   4.323
 7342SOL     OW22924   0.789   5.735   0.912
 7342SOL    HW122925   0.853   5.659   0.916
 7342SOL    HW222926   0.724   5.728   0.988
 7343SOL     OW22927   5.387   3.485   2.817
 7343SOL    HW122928   5.446   3.442   2.886
 7343SOL    HW222929   5.443   3.531   2.749
 7344SOL     OW22930   2.047   0.716   0.391
 7344SOL    HW122931   2.048   0.643   0.323
 7344SOL    HW222932   1.952   0.745   0.407
 7345SOL     OW22933   3.997   5.804   0.044
 7345SOL    HW122934   4.070   5.866   0.015
 7345SOL    HW222935   3.908   5.847   0.030
 7346SOL     OW22936   3.908   4.698   1.743
 7346SOL    HW122937   3.971   4.641   1.690
 7346SOL    HW222938   3.944   4.710   1.836
 7347SOL     OW22939   6.117   1.728   3.476
 7347SOL    HW122940   6.054   1.650   3.479
 7347SOL    HW222941   6.163   1.737   3.564
 7348SOL     OW22942   1.132   1.994   3.627
 7348SOL    HW122943   1.187   2.008   3.709
 7348SOL    HW222944   1.185   2.024   3.547
 7349SOL     OW22945   3.369   1.380   0.606
 7349SOL    HW122946   3.406   1.298   0.650
 7349SOL    HW222947   3.346   1.359   0.510
 7350SOL     OW22948   2.174   1.176   2.873
 7350SOL    HW122949   2.182   1.259   2.927
 7350SOL    HW222950   2.148   1.100   2.933
 7351SOL     OW22951   3.953   4.761   6.847
 7351SOL    HW122952   3.891   4.704   6.792
 7351SOL    HW222953   3.899   4.821   6.906
 7352SOL     OW22954   6.914   0.796   2.533
 7352SOL    HW122955   6.980   0.731   2.494
 7352SOL    HW222956   6.959   0.852   2.602
 7353SOL     OW22957   5.188   2.522   4.822
 7353SOL    HW122958   5.151   2.576   4.746
 7353SOL    HW222959   5.133   2.537   4.904
 7354SOL     OW22960   5.784   4.342   5.626
 7354SOL    HW122961   5.818   4.435   5.639
 7354SOL    HW222962   5.816   4.284   5.701
 7355SOL     OW22963   1.729   5.102   1.890
 7355SOL    HW122964   1.787   5.045   1.948
 7355SOL    HW222965   1.775   5.118   1.802
 7356SOL     OW22966   5.950   1.514   5.665
 7356SOL    HW122967   6.047   1.489   5.657
 7356SOL    HW222968   5.918   1.549   5.577
 7357SOL     OW22969   0.142   2.022   6.986
 7357SOL    HW122970   0.099   2.098   6.936
 7357SOL    HW222971   0.239   2.042   6.999
 7358SOL     OW22972   3.167   1.205   4.124
 7358SOL    HW122973   3.145   1.134   4.190
 7358SOL    HW222974   3.101   1.202   4.049
 7359SOL     OW22975   4.061   3.276   3.616
 7359SOL    HW122976   4.141   3.218   3.601
 7359SOL    HW222977   4.025   3.305   3.528
 7360SOL     OW22978   0.180   3.072   5.633
 7360SOL    HW122979   0.178   3.003   5.705
 7360SOL    HW222980   0.086   3.089   5.601
 7361SOL     OW22981   5.292   6.463   2.386
 7361SOL    HW122982   5.245   6.471   2.474
 7361SOL    HW222983   5.252   6.527   2.321
 7362SOL     OW22984   1.745   5.797   5.902
 7362SOL    HW122985   1.700   5.813   5.814
 7362SOL    HW222986   1.826   5.855   5.908
 7363SOL     OW22987   4.877   3.050   6.209
 7363SOL    HW122988   4.920   3.117   6.148
 7363SOL    HW222989   4.944   3.015   6.274
 7364SOL     OW22990   4.341   6.636   1.888
 7364SOL    HW122991   4.365   6.557   1.832
 7364SOL    HW222992   4.390   6.632   1.974
 7365SOL     OW22993   3.565   0.585   2.444
 7365SOL    HW122994   3.535   0.582   2.349
 7365SOL    HW222995   3.525   0.509   2.495
 7366SOL     OW22996   1.214   5.390   6.963
 7366SOL    HW122997   1.165   5.340   0.010
 7366SOL    HW222998   1.216   5.335   6.879
 7367SOL     OW22999   4.895   3.521   0.401
 7367SOL    HW123000   4.986   3.518   0.442
 7367SOL    HW223001   4.903   3.513   0.302
 7368SOL     OW23002   3.548   4.135   4.056
 7368SOL    HW123003   3.526   4.226   4.021
 7368SOL    HW223004   3.633   4.140   4.109
 7369SOL     OW23005   3.960   3.296   0.367
 7369SOL    HW123006   3.959   3.363   0.292
 7369SOL    HW223007   4.047   3.302   0.416
 7370SOL     OW23008   2.463   6.292   1.299
 7370SOL    HW123009   2.493   6.272   1.393
 7370SOL    HW223010   2.448   6.391   1.290
 7371SOL     OW23011   2.434   4.971   4.804
 7371SOL    HW123012   2.366   5.028   4.850
 7371SOL    HW223013   2.400   4.945   4.714
 7372SOL     OW23014   3.417   6.959   5.870
 7372SOL    HW123015   3.449   6.989   5.781
 7372SOL    HW223016   3.496   6.940   5.929
 7373SOL     OW23017   3.726   1.152   1.580
 7373SOL    HW123018   3.756   1.206   1.501
 7373SOL    HW223019   3.794   1.160   1.653
 7374SOL     OW23020   1.655   2.684   5.982
 7374SOL    HW123021   1.671   2.586   5.971
 7374SOL    HW223022   1.670   2.710   6.078
 7375SOL     OW23023   1.584   0.448   3.634
 7375SOL    HW123024   1.657   0.399   3.586
 7375SOL    HW223025   1.540   0.513   3.572
 7376SOL     OW23026   2.376   3.858   5.769
 7376SOL    HW123027   2.342   3.891   5.680
 7376SOL    HW223028   2.311   3.793   5.807
 7377SOL     OW23029   4.020   4.409   1.043
 7377SOL    HW123030   3.940   4.469   1.043
 7377SOL    HW223031   4.071   4.423   0.957
 7378SOL     OW23032   6.482   0.828   5.460
 7378SOL    HW123033   6.507   0.769   5.382
 7378SOL    HW223034   6.564   0.874   5.494
 7379SOL     OW23035   3.061   0.977   1.450
 7379SOL    HW123036   2.976   1.020   1.481
 7379SOL    HW223037   3.114   1.043   1.397
 7380SOL     OW23038   6.895   4.004   6.574
 7380SOL    HW123039   6.943   3.939   6.515
 7380SOL    HW223040   6.858   4.079   6.518
 7381SOL     OW23041   5.537   1.804   1.561
 7381SOL    HW123042   5.611   1.738   1.552
 7381SOL    HW223043   5.537   1.865   1.481
 7382SOL     OW23044   0.167   6.029   4.094
 7382SOL    HW123045   0.111   5.946   4.099
 7382SOL    HW223046   0.109   6.109   4.113
 7383SOL     OW23047   6.927   5.852   3.229
 7383SOL    HW123048   6.923   5.942   3.186
 7383SOL    HW223049   6.978   5.789   3.171
 7384SOL     OW23050   5.210   0.333   2.290
 7384SOL    HW123051   5.166   0.409   2.241
 7384SOL    HW223052   5.142   0.262   2.308
 7385SOL     OW23053   5.348   6.415   1.656
 7385SOL    HW123054   5.405   6.417   1.574
 7385SOL    HW223055   5.327   6.320   1.680
 7386SOL     OW23056   0.704   2.301   5.314
 7386SOL    HW123057   0.742   2.237   5.247
 7386SOL    HW223058   0.774   2.368   5.338
 7387SOL     OW23059   3.872   6.293   3.600
 7387SOL    HW123060   3.815   6.352   3.657
 7387SOL    HW223061   3.827   6.204   3.589
 7388SOL     OW23062   6.537   5.367   3.447
 7388SOL    HW123063   6.545   5.283   3.393
 7388SOL    HW223064   6.614   5.374   3.510
 7389SOL     OW23065   1.221   4.120   6.503
 7389SOL    HW123066   1.268   4.115   6.414
 7389SOL    HW223067   1.129   4.081   6.494
 7390SOL     OW23068   1.689   6.596   4.958
 7390SOL    HW123069   1.646   6.634   5.040
 7390SOL    HW223070   1.620   6.551   4.902
 7391SOL     OW23071   5.707   3.539   6.530
 7391SOL    HW123072   5.760   3.500   6.455
 7391SOL    HW223073   5.676   3.466   6.591
 7392SOL     OW23074   1.709   4.430   4.136
 7392SOL    HW123075   1.628   4.430   4.194
 7392SOL    HW223076   1.788   4.399   4.189
 7393SOL     OW23077   0.780   4.068   2.375
 7393SOL    HW123078   0.785   4.073   2.275
 7393SOL    HW223079   0.692   4.032   2.402
 7394SOL     OW23080   3.352   3.920   6.754
 7394SOL    HW123081   3.367   3.927   6.853
 7394SOL    HW223082   3.396   3.837   6.720
 7395SOL     OW23083   1.003   6.973   0.744
 7395SOL    HW123084   0.918   6.979   0.797
 7395SOL    HW223085   1.049   6.887   0.765
 7396SOL     OW23086   0.682   6.793   6.607
 7396SOL    HW123087   0.705   6.890   6.596
 7396SOL    HW223088   0.607   6.770   6.544
 7397SOL     OW23089   5.982   5.210   4.858
 7397SOL    HW123090   5.896   5.162   4.841
 7397SOL    HW223091   5.973   5.265   4.941
 7398SOL     OW23092   4.438   4.770   3.573
 7398SOL    HW123093   4.484   4.716   3.644
 7398SOL    HW223094   4.455   4.867   3.589
 7399SOL     OW23095   4.962   3.821   5.790
 7399SOL    HW123096   4.982   3.824   5.692
 7399SOL    HW223097   5.046   3.802   5.840
 7400SOL     OW23098   2.221   5.256   6.585
 7400SOL    HW123099   2.247   5.283   6.678
 7400SOL    HW223100   2.201   5.338   6.532
 7401SOL     OW23101   6.797   1.630   3.614
 7401SOL    HW123102   6.700   1.648   3.595
 7401SOL    HW223103   6.830   1.557   3.555
 7402SOL     OW23104   3.158   0.577   3.760
 7402SOL    HW123105   3.089   0.507   3.779
 7402SOL    HW223106   3.171   0.584   3.661
 7403SOL     OW23107   1.695   3.611   2.751
 7403SOL    HW123108   1.682   3.629   2.849
 7403SOL    HW223109   1.792   3.589   2.735
 7404SOL     OW23110   1.698   0.445   1.821
 7404SOL    HW123111   1.686   0.474   1.726
 7404SOL    HW223112   1.639   0.500   1.880
 7405SOL     OW23113   2.620   4.570   6.110
 7405SOL    HW123114   2.666   4.599   6.026
 7405SOL    HW223115   2.521   4.578   6.099
 7406SOL     OW23116   0.600   4.918   1.257
 7406SOL    HW123117   0.504   4.913   1.232
 7406SOL    HW223118   0.655   4.929   1.174
 7407SOL     OW23119   1.418   6.492   6.610
 7407SOL    HW123120   1.486   6.444   6.665
 7407SOL    HW223121   1.337   6.510   6.666
 7408SOL     OW23122   1.442   4.158   5.499
 7408SOL    HW123123   1.394   4.192   5.418
 7408SOL    HW223124   1.536   4.192   5.499
 7409SOL     OW23125   2.512   5.383   4.996
 7409SOL    HW123126   2.532   5.302   4.942
 7409SOL    HW223127   2.464   5.450   4.940
 7410SOL     OW23128   6.813   4.765   0.512
 7410SOL    HW123129   6.754   4.836   0.474
 7410SOL    HW223130   6.790   4.751   0.608
 7411SOL     OW23131   3.986   6.325   4.951
 7411SOL    HW123132   3.906   6.370   4.991
 7411SOL    HW223133   4.038   6.391   4.897
 7412SOL     OW23134   1.151   1.822   0.075
 7412SOL    HW123135   1.062   1.820   0.122
 7412SOL    HW223136   1.136   1.833   7.000
 7413SOL     OW23137   6.506   3.378   4.479
 7413SOL    HW123138   6.419   3.426   4.493
 7413SOL    HW223139   6.487   3.282   4.457
 7414SOL     OW23140   6.609   6.621   2.695
 7414SOL    HW123141   6.697   6.603   2.739
 7414SOL    HW223142   6.568   6.703   2.736
 7415SOL     OW23143   2.231   2.491   3.265
 7415SOL    HW123144   2.283   2.565   3.306
 7415SOL    HW223145   2.151   2.471   3.322
 7416SOL     OW23146   4.000   0.537   4.029
 7416SOL    HW123147   4.026   0.450   3.986
 7416SOL    HW223148   3.902   0.552   4.016
 7417SOL     OW23149   0.976   6.222   0.417
 7417SOL    HW123150   1.021   6.163   0.485
 7417SOL    HW223151   0.912   6.168   0.363
 7418SOL     OW23152   1.812   3.605   0.881
 7418SOL    HW123153   1.837   3.674   0.813
 7418SOL    HW223154   1.714   3.585   0.874
 7419SOL     OW23155   6.397   0.884   4.733
 7419SOL    HW123156   6.496   0.874   4.735
 7419SOL    HW223157   6.373   0.981   4.743
 7420SOL     OW23158   0.370   6.177   1.854
 7420SOL    HW123159   0.339   6.234   1.778
 7420SOL    HW223160   0.453   6.128   1.826
 7421SOL     OW23161   3.742   3.830   1.294
 7421SOL    HW123162   3.762   3.885   1.212
 7421SOL    HW223163   3.824   3.780   1.321
 7422SOL     OW23164   0.307   3.478   0.533
 7422SOL    HW123165   0.379   3.410   0.526
 7422SOL    HW223166   0.289   3.518   0.442
 7423SOL     OW23167   1.709   5.881   6.504
 7423SOL    HW123168   1.755   5.869   6.416
 7423SOL    HW223169   1.619   5.837   6.500
 7424SOL     OW23170   5.870   1.162   4.483
 7424SOL    HW123171   5.780   1.124   4.463
 7424SOL    HW223172   5.869   1.204   4.574
 7425SOL     OW23173   3.035   5.794   6.149
 7425SOL    HW123174   3.086   5.731   6.089
 7425SOL    HW223175   3.011   5.876   6.099
 7426SOL     OW23176   1.256   1.300   6.522
 7426SOL    HW123177   1.227   1.375   6.463
 7426SOL    HW223178   1.337   1.256   6.483
 7427SOL     OW23179   4.003   5.310   4.648
 7427SOL    HW123180   4.087   5.351   4.612
 7427SOL    HW223181   3.928   5.324   4.582
 7428SOL     OW23182   3.916   1.796   5.996
 7428SOL    HW123183   3.910   1.893   5.974
 7428SOL    HW223184   3.835   1.748   5.963
 7429SOL     OW23185   0.037   6.968   3.072
 7429SOL    HW123186   0.131   6.972   3.038
 7429SOL    HW223187   0.029   7.024   3.155
 7430SOL     OW23188   6.361   4.349   4.900
 7430SOL    HW123189   6.348   4.256   4.866
 7430SOL    HW223190   6.273   4.393   4.913
 7431SOL     OW23191   0.848   4.450   2.327
 7431SOL    HW123192   0.937   4.487   2.297
 7431SOL    HW223193   0.854   4.351   2.334
 7432SOL     OW23194   0.745   6.599   5.052
 7432SOL    HW123195   0.737   6.572   5.148
 7432SOL    HW223196   0.658   6.639   5.022
 7433SOL     OW23197   6.356   5.612   0.746
 7433SOL    HW123198   6.263   5.587   0.718
 7433SOL    HW223199   6.383   5.555   0.824
 7434SOL     OW23200   4.342   0.954   6.251
 7434SOL    HW123201   4.361   1.044   6.289
 7434SOL    HW223202   4.377   0.884   6.314
 7435SOL     OW23203   2.233   6.223   0.009
 7435SOL    HW123204   2.290   6.216   0.091
 7435SOL    HW223205   2.136   6.219   0.036
 7436SOL     OW23206   5.121   2.696   0.202
 7436SOL    HW123207   5.115   2.744   0.289
 7436SOL    HW223208   5.050   2.626   0.198
 7437SOL     OW23209   0.866   5.994   5.961
 7437SOL    HW123210   0.784   5.953   5.921
 7437SOL    HW223211   0.946   5.969   5.907
 7438SOL     OW23212   6.734   4.890   1.702
 7438SOL    HW123213   6.691   4.976   1.730
 7438SOL    HW223214   6.747   4.832   1.783
 7439SOL     OW23215   1.860   6.795   3.861
 7439SOL    HW123216   1.906   6.751   3.938
 7439SOL    HW223217   1.923   6.802   3.784
 7440SOL     OW23218   1.662   2.370   3.963
 7440SOL    HW123219   1.733   2.355   4.031
 7440SOL    HW223220   1.648   2.469   3.951
 7441SOL     OW23221   5.620   0.567   3.329
 7441SOL    HW123222   5.612   0.580   3.428
 7441SOL    HW223223   5.625   0.656   3.284
 7442SOL     OW23224   1.645   0.994   6.642
 7442SOL    HW123225   1.736   1.007   6.682
 7442SOL    HW223226   1.577   1.044   6.695
 7443SOL     OW23227   0.341   1.288   6.984
 7443SOL    HW123228   0.384   1.206   7.022
 7443SOL    HW223229   0.389   1.314   6.900
 7444SOL     OW23230   0.195   3.307   6.295
 7444SOL    HW123231   0.170   3.219   6.255
 7444SOL    HW223232   0.280   3.340   6.254
 7445SOL     OW23233   5.391   1.713   2.208
 7445SOL    HW123234   5.467   1.777   2.194
 7445SOL    HW223235   5.426   1.628   2.248
 7446SOL     OW23236   6.846   3.478   1.018
 7446SOL    HW123237   6.765   3.426   1.045
 7446SOL    HW223238   6.833   3.574   1.041
 7447SOL     OW23239   1.266   3.669   6.072
 7447SOL    HW123240   1.283   3.589   6.014
 7447SOL    HW223241   1.253   3.750   6.014
 7448SOL     OW23242   6.630   6.805   6.062
 7448SOL    HW123243   6.614   6.903   6.051
 7448SOL    HW223244   6.715   6.791   6.114
 7449SOL     OW23245   5.804   2.016   2.164
 7449SOL    HW123246   5.873   2.009   2.236
 7449SOL    HW223247   5.731   1.950   2.181
 7450SOL     OW23248   4.546   1.335   3.268
 7450SOL    HW123249   4.492   1.262   3.227
 7450SOL    HW223250   4.500   1.423   3.253
 7451SOL     OW23251   2.200   0.700   3.992
 7451SOL    HW123252   2.116   0.695   4.046
 7451SOL    HW223253   2.191   0.772   3.923
 7452SOL     OW23254   1.943   6.339   4.941
 7452SOL    HW123255   1.998   6.264   4.906
 7452SOL    HW223256   1.911   6.317   5.033
 7453SOL     OW23257   5.547   6.325   4.689
 7453SOL    HW123258   5.610   6.391   4.648
 7453SOL    HW223259   5.583   6.232   4.675
 7454SOL     OW23260   0.907   3.492   1.084
 7454SOL    HW123261   0.846   3.503   1.163
 7454SOL    HW223262   0.983   3.557   1.091
 7455SOL     OW23263   4.687   2.520   0.389
 7455SOL    HW123264   4.766   2.488   0.338
 7455SOL    HW223265   4.616   2.552   0.326
 7456SOL     OW23266   1.587   3.617   4.944
 7456SOL    HW123267   1.619   3.522   4.948
 7456SOL    HW223268   1.666   3.678   4.953
 7457SOL     OW23269   6.076   0.848   5.455
 7457SOL    HW123270   6.145   0.791   5.499
 7457SOL    HW223271   6.084   0.840   5.356
 7458SOL     OW23272   2.634   1.035   0.711
 7458SOL    HW123273   2.732   1.050   0.703
 7458SOL    HW223274   2.604   1.065   0.802
 7459SOL     OW23275   4.713   0.786   4.893
 7459SOL    HW123276   4.802   0.763   4.933
 7459SOL    HW223277   4.641   0.736   4.940
 7460SOL     OW23278   0.548   4.471   0.223
 7460SOL    HW123279   0.627   4.486   0.282
 7460SOL    HW223280   0.579   4.453   0.129
 7461SOL     OW23281   5.470   1.050   4.892
 7461SOL    HW123282   5.480   1.076   4.795
 7461SOL    HW223283   5.560   1.026   4.928
 7462SOL     OW23284   2.175   1.689   1.999
 7462SOL    HW123285   2.146   1.733   2.084
 7462SOL    HW223286   2.218   1.757   1.939
 7463SOL     OW23287   4.086   3.866   2.245
 7463SOL    HW123288   4.121   3.851   2.153
 7463SOL    HW223289   3.996   3.910   2.240
 7464SOL     OW23290   5.331   6.316   0.479
 7464SOL    HW123291   5.333   6.415   0.490
 7464SOL    HW223292   5.400   6.288   0.413
 7465SOL     OW23293   2.986   0.148   1.751
 7465SOL    HW123294   2.951   0.240   1.739
 7465SOL    HW223295   2.932   0.100   1.820
 7466SOL     OW23296   1.059   0.613   6.982
 7466SOL    HW123297   1.116   0.694   6.967
 7466SOL    HW223298   1.107   0.531   6.952
 7467SOL     OW23299   0.239   1.469   0.534
 7467SOL    HW123300   0.265   1.550   0.586
 7467SOL    HW223301   0.155   1.487   0.483
 7468SOL     OW23302   6.030   1.722   2.790
 7468SOL    HW123303   5.997   1.655   2.724
 7468SOL    HW223304   6.017   1.814   2.755
 7469SOL     OW23305   0.839   0.761   0.880
 7469SOL    HW123306   0.742   0.742   0.898
 7469SOL    HW223307   0.847   0.810   0.793
 7470SOL     OW23308   6.709   1.940   2.133
 7470SOL    HW123309   6.805   1.934   2.160
 7470SOL    HW223310   6.695   1.891   2.047
 7471SOL     OW23311   5.886   6.410   5.826
 7471SOL    HW123312   5.818   6.455   5.884
 7471SOL    HW223313   5.976   6.418   5.868
 7472SOL     OW23314   3.607   0.644   3.512
 7472SOL    HW123315   3.547   0.564   3.515
 7472SOL    HW223316   3.577   0.706   3.440
 7473SOL     OW23317   6.914   3.603   3.914
 7473SOL    HW123318   6.840   3.670   3.910
 7473SOL    HW223319   6.983   3.634   3.979
 7474SOL     OW23320   3.878   1.147   3.001
 7474SOL    HW123321   3.969   1.178   2.973
 7474SOL    HW223322   3.886   1.096   3.087
 7475SOL     OW23323   3.573   1.128   1.024
 7475SOL    HW123324   3.585   1.086   1.115
 7475SOL    HW223325   3.477   1.124   0.999
 7476SOL     OW23326   3.850   6.464   4.645
 7476SOL    HW123327   3.767   6.472   4.591
 7476SOL    HW223328   3.929   6.454   4.584
 7477SOL     OW23329   4.105   1.732   4.150
 7477SOL    HW123330   4.162   1.700   4.225
 7477SOL    HW223331   4.011   1.702   4.165
 7478SOL     OW23332   1.475   4.715   0.396
 7478SOL    HW123333   1.573   4.718   0.378
 7478SOL    HW223334   1.431   4.797   0.358
 7479SOL     OW23335   4.481   0.732   6.833
 7479SOL    HW123336   4.531   0.653   6.798
 7479SOL    HW223337   4.545   0.808   6.848
 7480SOL     OW23338   6.542   5.198   1.284
 7480SOL    HW123339   6.544   5.126   1.353
 7480SOL    HW223340   6.467   5.180   1.220
 7481SOL     OW23341   5.624   5.441   0.518
 7481SOL    HW123342   5.601   5.444   0.421
 7481SOL    HW223343   5.585   5.521   0.564
 7482SOL     OW23344   5.139   0.685   2.991
 7482SOL    HW123345   5.115   0.782   2.992
 7482SOL    HW223346   5.144   0.653   2.896
 7483SOL     OW23347   3.086   1.001   5.273
 7483SOL    HW123348   3.111   0.908   5.246
 7483SOL    HW223349   3.168   1.057   5.279
 7484SOL     OW23350   2.269   6.724   2.033
 7484SOL    HW123351   2.352   6.772   2.064
 7484SOL    HW223352   2.198   6.734   2.102
 7485SOL     OW23353   2.623   5.660   6.470
 7485SOL    HW123354   2.707   5.613   6.442
 7485SOL    HW223355   2.557   5.594   6.505
 7486SOL     OW23356   2.547   6.649   5.795
 7486SOL    HW123357   2.567   6.563   5.747
 7486SOL    HW223358   2.448   6.658   5.804
 7487SOL     OW23359   3.224   6.244   4.490
 7487SOL    HW123360   3.212   6.325   4.433
 7487SOL    HW223361   3.265   6.171   4.435
 7488SOL     OW23362   3.731   0.033   6.414
 7488SOL    HW123363   3.806   0.050   6.349
 7488SOL    HW223364   3.753   6.977   6.470
 7489SOL     OW23365   5.407   3.307   3.745
 7489SOL    HW123366   5.506   3.299   3.728
 7489SOL    HW223367   5.389   3.288   3.841
 7490SOL     OW23368   5.231   1.078   0.873
 7490SOL    HW123369   5.147   1.111   0.830
 7490SOL    HW223370   5.268   1.149   0.933
 7491SOL     OW23371   6.366   5.724   6.439
 7491SOL    HW123372   6.412   5.639   6.412
 7491SOL    HW223373   6.301   5.705   6.513
 7492SOL     OW23374   1.646   2.543   5.009
 7492SOL    HW123375   1.672   2.610   5.078
 7492SOL    HW223376   1.702   2.556   4.927
 7493SOL     OW23377   4.960   3.661   6.437
 7493SOL    HW123378   4.936   3.743   6.386
 7493SOL    HW223379   4.888   3.592   6.426
 7494SOL     OW23380   5.061   6.952   1.971
 7494SOL    HW123381   5.002   7.001   1.906
 7494SOL    HW223382   5.004   6.910   2.041
 7495SOL     OW23383   1.920   2.308   1.094
 7495SOL    HW123384   1.842   2.245   1.090
 7495SOL    HW223385   1.946   2.322   1.189
 7496SOL     OW23386   1.108   4.873   6.102
 7496SOL    HW123387   1.155   4.799   6.151
 7496SOL    HW223388   1.036   4.834   6.044
 7497SOL     OW23389   1.638   4.143   2.351
 7497SOL    HW123390   1.590   4.207   2.412
 7497SOL    HW223391   1.734   4.171   2.342
 7498SOL     OW23392   3.649   1.726   4.593
 7498SOL    HW123393   3.581   1.728   4.667
 7498SOL    HW223394   3.701   1.641   4.599
 7499SOL     OW23395   5.506   6.920   3.818
 7499SOL    HW123396   5.583   6.861   3.795
 7499SOL    HW223397   5.473   6.898   3.909
 7500SOL     OW23398   5.295   5.641   1.419
 7500SOL    HW123399   5.380   5.587   1.419
 7500SOL    HW223400   5.282   5.681   1.510
 7501SOL     OW23401   0.126   3.963   3.531
 7501SOL    HW123402   0.213   3.969   3.581
 7501SOL    HW223403   0.145   3.948   3.434
 7502SOL     OW23404   2.561   1.354   5.055
 7502SOL    HW123405   2.623   1.361   5.134
 7502SOL    HW223406   2.514   1.441   5.042
 7503SOL     OW23407   2.940   1.647   0.018
 7503SOL    HW123408   2.946   1.618   0.113
 7503SOL    HW223409   3.001   1.592   6.985
 7504SOL     OW23410   3.818   6.320   3.132
 7504SOL    HW123411   3.766   6.260   3.072
 7504SOL    HW223412   3.759   6.354   3.205
 7505SOL     OW23413   1.505   1.559   5.089
 7505SOL    HW123414   1.510   1.599   4.998
 7505SOL    HW223415   1.474   1.464   5.083
 7506SOL     OW23416   3.606   1.502   2.519
 7506SOL    HW123417   3.513   1.540   2.516
 7506SOL    HW223418   3.617   1.434   2.447
 7507SOL     OW23419   0.824   6.145   6.168
 7507SOL    HW123420   0.872   6.122   6.253
 7507SOL    HW223421   0.855   6.084   6.095
 7508SOL     OW23422   5.713   0.237   2.698
 7508SOL    HW123423   5.710   0.137   2.701
 7508SOL    HW223424   5.660   0.270   2.620
 7509SOL     OW23425   4.700   3.731   6.277
 7509SOL    HW123426   4.737   3.649   6.235
 7509SOL    HW223427   4.601   3.719   6.292
 7510SOL     OW23428   3.932   4.053   4.872
 7510SOL    HW123429   3.834   4.068   4.882
 7510SOL    HW223430   3.974   4.048   4.963
 7511SOL     OW23431   1.339   0.701   1.729
 7511SOL    HW123432   1.408   0.763   1.767
 7511SOL    HW223433   1.382   0.617   1.699
 7512SOL     OW23434   2.397   2.777   1.918
 7512SOL    HW123435   2.320   2.822   1.962
 7512SOL    HW223436   2.428   2.832   1.840
 7513SOL     OW23437   1.323   2.122   6.913
 7513SOL    HW123438   1.317   2.153   7.008
 7513SOL    HW223439   1.329   2.202   6.852
 7514SOL     OW23440   2.578   5.573   2.528
 7514SOL    HW123441   2.499   5.556   2.470
 7514SOL    HW223442   2.608   5.487   2.570
 7515SOL     OW23443   6.962   6.165   2.347
 7515SOL    HW123444   6.899   6.240   2.326
 7515SOL    HW223445   6.982   6.115   2.262
 7516SOL     OW23446   0.715   0.933   3.388
 7516SOL    HW123447   0.712   1.022   3.434
 7516SOL    HW223448   0.622   0.895   3.383
 7517SOL     OW23449   0.243   3.497   1.063
 7517SOL    HW123450   0.178   3.533   1.130
 7517SOL    HW223451   0.216   3.404   1.038
 7518SOL     OW23452   4.497   5.727   4.087
 7518SOL    HW123453   4.547   5.723   4.174
 7518SOL    HW223454   4.447   5.813   4.082
 7519SOL     OW23455   2.058   6.117   4.115
 7519SOL    HW123456   2.001   6.035   4.113
 7519SOL    HW223457   2.147   6.095   4.155
 7520SOL     OW23458   1.539   6.341   3.701
 7520SOL    HW123459   1.558   6.402   3.624
 7520SOL    HW223460   1.561   6.389   3.786
 7521SOL     OW23461   4.426   4.575   5.589
 7521SOL    HW123462   4.387   4.561   5.498
 7521SOL    HW223463   4.355   4.609   5.650
 7522SOL     OW23464   2.369   1.023   1.305
 7522SOL    HW123465   2.439   1.060   1.244
 7522SOL    HW223466   2.304   1.095   1.330
 7523SOL     OW23467   5.807   0.361   6.612
 7523SOL    HW123468   5.900   0.379   6.581
 7523SOL    HW223469   5.776   0.273   6.575
 7524SOL     OW23470   0.389   1.603   5.421
 7524SOL    HW123471   0.353   1.560   5.504
 7524SOL    HW223472   0.487   1.622   5.432
 7525SOL     OW23473   1.111   1.019   0.641
 7525SOL    HW123474   1.177   0.945   0.631
 7525SOL    HW223475   1.018   0.981   0.642
 7526SOL     OW23476   3.733   3.194   4.829
 7526SOL    HW123477   3.752   3.261   4.901
 7526SOL    HW223478   3.738   3.102   4.868
 7527SOL     OW23479   5.612   4.759   3.278
 7527SOL    HW123480   5.689   4.821   3.262
 7527SOL    HW223481   5.545   4.804   3.337
 7528SOL     OW23482   5.548   2.636   0.296
 7528SOL    HW123483   5.501   2.626   0.383
 7528SOL    HW223484   5.620   2.566   0.289
 7529SOL     OW23485   3.604   1.426   5.361
 7529SOL    HW123486   3.693   1.464   5.337
 7529SOL    HW223487   3.532   1.474   5.312
 7530SOL     OW23488   0.850   4.194   2.110
 7530SOL    HW123489   0.797   4.131   2.053
 7530SOL    HW223490   0.801   4.281   2.118
 7531SOL     OW23491   4.388   1.629   3.693
 7531SOL    HW123492   4.350   1.707   3.642
 7531SOL    HW223493   4.355   1.544   3.653
 7532SOL     OW23494   5.327   5.750   2.206
 7532SOL    HW123495   5.418   5.791   2.211
 7532SOL    HW223496   5.294   5.732   2.298
 7533SOL     OW23497   3.279   1.299   4.766
 7533SOL    HW123498   3.307   1.374   4.706
 7533SOL    HW223499   3.180   1.287   4.758
 7534SOL     OW23500   4.523   6.514   4.936
 7534SOL    HW123501   4.610   6.554   4.964
 7534SOL    HW223502   4.452   6.584   4.938
 7535SOL     OW23503   2.818   2.559   6.032
 7535SOL    HW123504   2.891   2.566   6.100
 7535SOL    HW223505   2.807   2.647   5.985
 7536SOL     OW23506   4.437   6.014   4.584
 7536SOL    HW123507   4.338   6.008   4.600
 7536SOL    HW223508   4.476   5.922   4.587
 7537SOL     OW23509   2.444   4.541   5.799
 7537SOL    HW123510   2.479   4.491   5.720
 7537SOL    HW223511   2.353   4.506   5.823
 7538SOL     OW23512   2.920   3.643   2.873
 7538SOL    HW123513   2.853   3.593   2.817
 7538SOL    HW223514   2.978   3.698   2.813
 7539SOL     OW23515   2.141   2.859   5.099
 7539SOL    HW123516   2.223   2.910   5.075
 7539SOL    HW223517   2.093   2.831   5.016
 7540SOL     OW23518   2.759   0.975   0.086
 7540SOL    HW123519   2.750   1.060   0.138
 7540SOL    HW223520   2.856   0.950   0.080
 7541SOL     OW23521   6.377   2.164   5.623
 7541SOL    HW123522   6.327   2.193   5.542
 7541SOL    HW223523   6.321   2.177   5.705
 7542SOL     OW23524   1.458   6.782   6.218
 7542SOL    HW123525   1.407   6.733   6.147
 7542SOL    HW223526   1.514   6.854   6.176
 7543SOL     OW23527   4.186   3.375   0.556
 7543SOL    HW123528   4.220   3.467   0.537
 7543SOL    HW223529   4.096   3.381   0.599
 7544SOL     OW23530   2.275   2.264   3.114
 7544SOL    HW123531   2.232   2.267   3.023
 7544SOL    HW223532   2.243   2.341   3.169
 7545SOL     OW23533   5.129   0.072   3.249
 7545SOL    HW123534   5.048   0.091   3.304
 7545SOL    HW223535   5.129   0.130   3.168
 7546SOL     OW23536   4.719   0.913   6.929
 7546SOL    HW123537   4.791   0.877   6.990
 7546SOL    HW223538   4.706   1.010   6.948
 7547SOL     OW23539   3.360   0.346   0.434
 7547SOL    HW123540   3.417   0.273   0.395
 7547SOL    HW223541   3.312   0.312   0.514
 7548SOL     OW23542   1.929   2.714   1.578
 7548SOL    HW123543   1.862   2.645   1.605
 7548SOL    HW223544   2.020   2.688   1.611
 7549SOL     OW23545   5.586   2.263   3.148
 7549SOL    HW123546   5.604   2.266   3.050
 7549SOL    HW223547   5.562   2.354   3.181
 7550SOL     OW23548   2.391   5.865   3.159
 7550SOL    HW123549   2.449   5.945   3.143
 7550SOL    HW223550   2.425   5.788   3.105
 7551SOL     OW23551   5.118   3.023   6.331
 7551SOL    HW123552   5.126   2.981   6.241
 7551SOL    HW223553   5.160   3.114   6.329
 7552SOL     OW23554   2.726   5.064   4.060
 7552SOL    HW123555   2.801   5.091   4.000
 7552SOL    HW223556   2.763   5.044   4.151
 7553SOL     OW23557   3.737   5.598   5.836
 7553SOL    HW123558   3.835   5.591   5.850
 7553SOL    HW223559   3.694   5.509   5.850
 7554SOL     OW23560   5.953   1.125   7.019
 7554SOL    HW123561   6.052   1.133   0.010
 7554SOL    HW223562   5.924   1.193   6.951
 7555SOL     OW23563   0.260   6.462   5.472
 7555SOL    HW123564   0.290   6.485   5.564
 7555SOL    HW223565   0.308   6.519   5.406
 7556SOL     OW23566   0.325   2.821   4.574
 7556SOL    HW123567   0.250   2.887   4.585
 7556SOL    HW223568   0.397   2.841   4.641
 7557SOL     OW23569   4.927   4.271   6.369
 7557SOL    HW123570   5.024   4.285   6.385
 7557SOL    HW223571   4.883   4.240   6.453
 7558SOL     OW23572   1.813   3.220   3.313
 7558SOL    HW123573   1.756   3.273   3.251
 7558SOL    HW223574   1.804   3.258   3.406
 7559SOL     OW23575   7.023   4.656   0.859
 7559SOL    HW123576   0.014   4.679   0.955
 7559SOL    HW223577   0.087   4.646   0.812
 7560SOL     OW23578   5.429   0.012   0.603
 7560SOL    HW123579   5.506   0.067   0.634
 7560SOL    HW223580   5.435   6.944   0.643
 7561SOL     OW23581   6.465   3.182   0.638
 7561SOL    HW123582   6.469   3.216   0.544
 7561SOL    HW223583   6.540   3.223   0.691
 7562SOL     OW23584   5.492   6.373   5.215
 7562SOL    HW123585   5.561   6.339   5.279
 7562SOL    HW223586   5.525   6.361   5.121
 7563SOL     OW23587   2.224   1.021   2.284
 7563SOL    HW123588   2.228   1.095   2.352
 7563SOL    HW223589   2.142   1.033   2.228
 7564SOL     OW23590   4.971   6.906   3.114
 7564SOL    HW123591   4.893   6.942   3.061
 7564SOL    HW223592   5.024   6.982   3.151
 7565SOL     OW23593   4.540   4.793   6.798
 7565SOL    HW123594   4.489   4.872   6.831
 7565SOL    HW223595   4.519   4.777   6.702
 7566SOL     OW23596   1.117   6.041   4.277
 7566SOL    HW123597   1.097   6.037   4.179
 7566SOL    HW223598   1.117   5.948   4.314
 7567SOL     OW23599   3.035   5.031   0.088
 7567SOL    HW123600   3.051   5.033   7.014
 7567SOL    HW223601   3.063   4.943   0.125
 7568SOL     OW23602   4.667   5.676   3.688
 7568SOL    HW123603   4.715   5.687   3.775
 7568SOL    HW223604   4.661   5.579   3.665
 7569SOL     OW23605   3.803   6.364   0.249
 7569SOL    HW123606   3.782   6.430   0.321
 7569SOL    HW223607   3.839   6.412   0.169
 7570SOL     OW23608   5.755   5.476   3.807
 7570SOL    HW123609   5.697   5.410   3.856
 7570SOL    HW223610   5.846   5.436   3.793
 7571SOL     OW23611   5.404   4.320   1.308
 7571SOL    HW123612   5.319   4.284   1.345
 7571SOL    HW223613   5.391   4.344   1.211
 7572SOL     OW23614   3.317   0.826   4.741
 7572SOL    HW123615   3.368   0.743   4.720
 7572SOL    HW223616   3.227   0.802   4.778
 7573SOL     OW23617   0.962   6.297   4.240
 7573SOL    HW123618   0.865   6.312   4.260
 7573SOL    HW223619   0.989   6.205   4.270
 7574SOL     OW23620   5.242   6.104   3.228
 7574SOL    HW123621   5.205   6.193   3.255
 7574SOL    HW223622   5.216   6.084   3.133
 7575SOL     OW23623   3.772   1.308   5.710
 7575SOL    HW123624   3.719   1.392   5.695
 7575SOL    HW223625   3.865   1.321   5.675
 7576SOL     OW23626   6.218   3.233   0.750
 7576SOL    HW123627   6.298   3.225   0.690
 7576SOL    HW223628   6.141   3.270   0.698
 7577SOL     OW23629   6.284   1.238   5.221
 7577SOL    HW123630   6.345   1.163   5.196
 7577SOL    HW223631   6.189   1.209   5.212
 7578SOL     OW23632   2.165   5.115   4.833
 7578SOL    HW123633   2.112   5.033   4.853
 7578SOL    HW223634   2.130   5.157   4.748
 7579SOL     OW23635   3.523   1.856   2.476
 7579SOL    HW123636   3.437   1.806   2.473
 7579SOL    HW223637   3.587   1.815   2.411
 7580SOL     OW23638   2.072   4.376   2.696
 7580SOL    HW123639   2.034   4.461   2.658
 7580SOL    HW223640   2.119   4.325   2.624
 7581SOL     OW23641   5.376   0.844   0.725
 7581SOL    HW123642   5.324   0.760   0.709
 7581SOL    HW223643   5.319   0.910   0.774
 7582SOL     OW23644   3.042   1.202   0.855
 7582SOL    HW123645   3.001   1.146   0.927
 7582SOL    HW223646   3.001   1.294   0.856
 7583SOL     OW23647   5.514   3.468   1.981
 7583SOL    HW123648   5.540   3.427   2.069
 7583SOL    HW223649   5.521   3.399   1.909
 7584SOL     OW23650   2.911   0.218   1.406
 7584SOL    HW123651   2.858   0.171   1.476
 7584SOL    HW223652   3.006   0.186   1.410
 7585SOL     OW23653   1.584   4.717   6.630
 7585SOL    HW123654   1.544   4.809   6.630
 7585SOL    HW223655   1.585   4.682   6.724
 7586SOL     OW23656   3.270   0.536   3.050
 7586SOL    HW123657   3.354   0.544   3.104
 7586SOL    HW223658   3.294   0.521   2.954
 7587SOL     OW23659   0.988   1.958   6.256
 7587SOL    HW123660   0.955   1.914   6.340
 7587SOL    HW223661   1.086   1.940   6.246
 7588SOL     OW23662   0.200   4.781   2.789
 7588SOL    HW123663   0.197   4.725   2.706
 7588SOL    HW223664   0.211   4.877   2.763
 7589SOL     OW23665   6.450   5.858   0.311
 7589SOL    HW123666   6.474   5.797   0.235
 7589SOL    HW223667   6.504   5.834   0.392
 7590SOL     OW23668   2.446   1.297   5.921
 7590SOL    HW123669   2.383   1.362   5.879
 7590SOL    HW223670   2.401   1.254   6.000
 7591SOL     OW23671   6.752   4.815   6.552
 7591SOL    HW123672   6.785   4.877   6.623
 7591SOL    HW223673   6.764   4.720   6.583
 7592SOL     OW23674   6.047   5.170   6.546
 7592SOL    HW123675   6.034   5.196   6.450
 7592SOL    HW223676   6.124   5.105   6.553
 7593SOL     OW23677   5.534   2.301   0.423
 7593SOL    HW123678   5.525   2.202   0.412
 7593SOL    HW223679   5.450   2.338   0.462
 7594SOL     OW23680   1.115   6.224   3.918
 7594SOL    HW123681   1.166   6.154   3.869
 7594SOL    HW223682   1.036   6.183   3.964
 7595SOL     OW23683   6.824   3.224   6.591
 7595SOL    HW123684   6.838   3.294   6.521
 7595SOL    HW223685   6.819   3.134   6.548
 7596SOL     OW23686   5.068   4.345   1.814
 7596SOL    HW123687   5.057   4.376   1.908
 7596SOL    HW223688   5.032   4.252   1.806
 7597SOL     OW23689   3.944   5.159   1.713
 7597SOL    HW123690   3.992   5.083   1.755
 7597SOL    HW223691   3.996   5.193   1.635
 7598SOL     OW23692   0.139   0.716   3.494
 7598SOL    HW123693   0.095   0.704   3.405
 7598SOL    HW223694   0.072   0.754   3.559
 7599SOL     OW23695   6.441   1.989   2.772
 7599SOL    HW123696   6.525   1.950   2.811
 7599SOL    HW223697   6.365   1.927   2.789
 7600SOL     OW23698   1.862   1.298   1.740
 7600SOL    HW123699   1.774   1.340   1.718
 7600SOL    HW223700   1.903   1.344   1.819
 7601SOL     OW23701   1.616   6.245   4.218
 7601SOL    HW123702   1.575   6.310   4.281
 7601SOL    HW223703   1.594   6.152   4.247
 7602SOL     OW23704   0.971   4.410   4.853
 7602SOL    HW123705   0.959   4.319   4.814
 7602SOL    HW223706   0.984   4.477   4.780
 7603SOL     OW23707   1.476   6.577   1.533
 7603SOL    HW123708   1.519   6.622   1.611
 7603SOL    HW223709   1.498   6.626   1.449
 7604SOL     OW23710   4.269   5.858   4.960
 7604SOL    HW123711   4.208   5.792   4.916
 7604SOL    HW223712   4.220   5.944   4.974
 7605SOL     OW23713   6.985   4.207   0.061
 7605SOL    HW123714   0.023   4.285   0.049
 7605SOL    HW223715   6.949   4.179   6.995
 7606SOL     OW23716   6.376   2.648   2.479
 7606SOL    HW123717   6.364   2.609   2.570
 7606SOL    HW223718   6.313   2.604   2.415
 7607SOL     OW23719   5.049   0.304   6.571
 7607SOL    HW123720   5.074   0.256   6.487
 7607SOL    HW223721   4.969   0.361   6.554
 7608SOL     OW23722   2.878   3.475   4.294
 7608SOL    HW123723   2.812   3.435   4.357
 7608SOL    HW223724   2.856   3.572   4.280
 7609SOL     OW23725   0.925   3.394   3.894
 7609SOL    HW123726   0.896   3.457   3.822
 7609SOL    HW223727   0.932   3.301   3.857
 7610SOL     OW23728   5.608   0.196   0.706
 7610SOL    HW123729   5.650   0.284   0.685
 7610SOL    HW223730   5.626   0.173   0.802
 7611SOL     OW23731   1.405   1.740   0.190
 7611SOL    HW123732   1.472   1.784   0.130
 7611SOL    HW223733   1.313   1.767   0.161
 7612SOL     OW23734   4.297   2.216   3.584
 7612SOL    HW123735   4.251   2.277   3.520
 7612SOL    HW223736   4.369   2.266   3.632
 7613SOL     OW23737   5.135   0.921   1.863
 7613SOL    HW123738   5.183   0.838   1.890
 7613SOL    HW223739   5.043   0.922   1.903
 7614SOL     OW23740   4.000   2.509   0.770
 7614SOL    HW123741   4.026   2.582   0.708
 7614SOL    HW223742   4.068   2.435   0.764
 7615SOL     OW23743   3.816   5.048   6.216
 7615SOL    HW123744   3.718   5.061   6.201
 7615SOL    HW223745   3.845   5.102   6.295
 7616SOL     OW23746   6.418   3.685   3.349
 7616SOL    HW123747   6.353   3.757   3.325
 7616SOL    HW223748   6.445   3.695   3.445
 7617SOL     OW23749   3.176   4.852   3.014
 7617SOL    HW123750   3.093   4.841   3.069
 7617SOL    HW223751   3.245   4.899   3.069
 7618SOL     OW23752   1.832   2.265   6.504
 7618SOL    HW123753   1.791   2.283   6.593
 7618SOL    HW223754   1.909   2.327   6.490
 7619SOL     OW23755   6.455   3.659   5.445
 7619SOL    HW123756   6.431   3.562   5.448
 7619SOL    HW223757   6.485   3.689   5.536
 7620SOL     OW23758   3.978   6.955   1.152
 7620SOL    HW123759   4.071   6.970   1.120
 7620SOL    HW223760   3.971   6.984   1.248
 7621SOL     OW23761   2.423   0.750   1.246
 7621SOL    HW123762   2.378   0.799   1.171
 7621SOL    HW223763   2.416   0.803   1.330
 7622SOL     OW23764   4.146   3.120   0.956
 7622SOL    HW123765   4.225   3.150   0.902
 7622SOL    HW223766   4.173   3.110   1.052
 7623SOL     OW23767   4.648   7.022   5.793
 7623SOL    HW123768   4.747   7.004   5.787
 7623SOL    HW223769   4.605   6.949   5.847
 7624SOL     OW23770   0.873   1.205   2.843
 7624SOL    HW123771   0.904   1.215   2.938
 7624SOL    HW223772   0.929   1.262   2.783
 7625SOL     OW23773   5.071   0.888   1.056
 7625SOL    HW123774   5.081   0.864   1.153
 7625SOL    HW223775   5.155   0.933   1.025
 7626SOL     OW23776   1.659   6.376   4.522
 7626SOL    HW123777   1.563   6.389   4.543
 7626SOL    HW223778   1.685   6.435   4.445
 7627SOL     OW23779   6.832   2.728   0.801
 7627SOL    HW123780   6.803   2.699   0.710
 7627SOL    HW223781   6.758   2.711   0.866
 7628SOL     OW23782   2.866   1.425   0.702
 7628SOL    HW123783   2.782   1.438   0.754
 7628SOL    HW223784   2.870   1.491   0.628
 7629SOL     OW23785   6.861   5.350   3.129
 7629SOL    HW123786   6.956   5.337   3.101
 7629SOL    HW223787   6.828   5.438   3.095
 7630SOL     OW23788   6.414   0.597   2.027
 7630SOL    HW123789   6.332   0.652   2.013
 7630SOL    HW223790   6.399   0.531   2.100
 7631SOL     OW23791   0.598   1.600   4.028
 7631SOL    HW123792   0.539   1.655   4.087
 7631SOL    HW223793   0.623   1.515   4.076
 7632SOL     OW23794   4.646   2.340   0.740
 7632SOL    HW123795   4.650   2.436   0.713
 7632SOL    HW223796   4.631   2.282   0.659
 7633SOL     OW23797   5.254   3.510   6.580
 7633SOL    HW123798   5.327   3.556   6.631
 7633SOL    HW223799   5.176   3.572   6.570
 7634SOL     OW23800   1.972   0.741   2.435
 7634SOL    HW123801   1.980   0.739   2.336
 7634SOL    HW223802   1.884   0.781   2.461
 7635SOL     OW23803   2.494   5.134   5.578
 7635SOL    HW123804   2.540   5.097   5.659
 7635SOL    HW223805   2.541   5.217   5.548
 7636SOL     OW23806   0.786   0.606   4.245
 7636SOL    HW123807   0.842   0.524   4.251
 7636SOL    HW223808   0.766   0.639   4.337
 7637SOL     OW23809   1.309   6.342   4.140
 7637SOL    HW123810   1.219   6.373   4.109
 7637SOL    HW223811   1.361   6.305   4.063
 7638SOL     OW23812   5.363   5.230   2.014
 7638SOL    HW123813   5.423   5.151   2.025
 7638SOL    HW223814   5.409   5.312   2.048
 7639SOL     OW23815   0.645   1.668   5.424
 7639SOL    HW123816   0.602   1.750   5.386
 7639SOL    HW223817   0.725   1.643   5.369
 7640SOL     OW23818   2.446   1.612   0.218
 7640SOL    HW123819   2.516   1.576   0.156
 7640SOL    HW223820   2.436   1.710   0.203
 7641SOL     OW23821   6.079   3.566   2.204
 7641SOL    HW123822   6.032   3.505   2.140
 7641SOL    HW223823   6.059   3.538   2.297
 7642SOL     OW23824   2.347   1.975   2.137
 7642SOL    HW123825   2.395   2.019   2.212
 7642SOL    HW223826   2.260   1.938   2.171
 7643SOL     OW23827   4.902   2.789   2.795
 7643SOL    HW123828   4.816   2.738   2.805
 7643SOL    HW223829   4.884   2.874   2.746
 7644SOL     OW23830   0.079   3.270   3.183
 7644SOL    HW123831   0.173   3.249   3.156
 7644SOL    HW223832   0.066   3.247   3.280
 7645SOL     OW23833   4.223   4.221   0.117
 7645SOL    HW123834   4.264   4.131   0.102
 7645SOL    HW223835   4.295   4.287   0.139
 7646SOL     OW23836   2.087   2.258   2.240
 7646SOL    HW123837   2.019   2.279   2.310
 7646SOL    HW223838   2.110   2.342   2.190
 7647SOL     OW23839   2.291   3.987   1.854
 7647SOL    HW123840   2.239   4.068   1.827
 7647SOL    HW223841   2.352   3.960   1.779
 7648SOL     OW23842   4.158   1.271   4.039
 7648SOL    HW123843   4.154   1.252   3.941
 7648SOL    HW223844   4.210   1.199   4.085
 7649SOL     OW23845   2.814   0.559   2.094
 7649SOL    HW123846   2.791   0.461   2.096
 7649SOL    HW223847   2.762   0.607   2.164
 7650SOL     OW23848   6.697   4.005   1.843
 7650SOL    HW123849   6.627   4.013   1.914
 7650SOL    HW223850   6.690   3.916   1.799
 7651SOL     OW23851   3.162   0.632   6.545
 7651SOL    HW123852   3.206   0.551   6.505
 7651SOL    HW223853   3.177   0.632   6.644
 7652SOL     OW23854   0.439   3.759   3.209
 7652SOL    HW123855   0.531   3.721   3.217
 7652SOL    HW223856   0.385   3.703   3.146
 7653SOL     OW23857   2.718   2.060   1.799
 7653SOL    HW123858   2.809   2.091   1.772
 7653SOL    HW223859   2.685   1.994   1.731
 7654SOL     OW23860   5.166   3.228   3.971
 7654SOL    HW123861   5.252   3.262   4.011
 7654SOL    HW223862   5.169   3.129   3.965
 7655SOL     OW23863   3.325   6.408   4.955
 7655SOL    HW123864   3.291   6.378   4.866
 7655SOL    HW223865   3.321   6.333   5.020
 7656SOL     OW23866   0.057   6.077   5.510
 7656SOL    HW123867   0.140   6.108   5.464
 7656SOL    HW223868   0.057   5.977   5.514
 7657SOL     OW23869   3.413   1.797   3.732
 7657SOL    HW123870   3.376   1.863   3.668
 7657SOL    HW223871   3.503   1.827   3.764
 7658SOL     OW23872   4.002   0.943   5.915
 7658SOL    HW123873   3.983   0.845   5.906
 7658SOL    HW223874   3.926   0.996   5.878
 7659SOL     OW23875   5.716   6.704   0.616
 7659SOL    HW123876   5.731   6.739   0.708
 7659SOL    HW223877   5.771   6.756   0.550
 7660SOL     OW23878   5.652   5.692   2.598
 7660SOL    HW123879   5.648   5.593   2.581
 7660SOL    HW223880   5.583   5.717   2.665
 7661SOL     OW23881   6.402   2.754   3.381
 7661SOL    HW123882   6.486   2.807   3.388
 7661SOL    HW223883   6.384   2.731   3.285
 7662SOL     OW23884   0.630   4.795   2.204
 7662SOL    HW123885   0.585   4.864   2.261
 7662SOL    HW223886   0.576   4.711   2.205
 7663SOL     OW23887   0.454   4.498   6.139
 7663SOL    HW123888   0.515   4.566   6.098
 7663SOL    HW223889   0.505   4.443   6.205
 7664SOL     OW23890   3.032   5.681   3.743
 7664SOL    HW123891   3.020   5.593   3.696
 7664SOL    HW223892   2.946   5.710   3.784
 7665SOL     OW23893   2.683   0.553   4.573
 7665SOL    HW123894   2.763   0.599   4.611
 7665SOL    HW223895   2.605   0.615   4.572
 7666SOL     OW23896   1.383   0.555   1.182
 7666SOL    HW123897   1.424   0.465   1.167
 7666SOL    HW223898   1.455   0.625   1.186
 7667SOL     OW23899   4.842   6.871   6.856
 7667SOL    HW123900   4.828   6.920   6.770
 7667SOL    HW223901   4.877   6.935   6.925
 7668SOL     OW23902   3.649   4.363   1.081
 7668SOL    HW123903   3.552   4.353   1.104
 7668SOL    HW223904   3.673   4.298   1.009
 7669SOL     OW23905   4.723   0.339   3.852
 7669SOL    HW123906   4.668   0.315   3.932
 7669SOL    HW223907   4.817   0.357   3.880
 7670SOL     OW23908   1.469   5.451   0.719
 7670SOL    HW123909   1.396   5.518   0.708
 7670SOL    HW223910   1.553   5.498   0.747
 7671SOL     OW23911   6.199   2.029   3.760
 7671SOL    HW123912   6.295   2.024   3.786
 7671SOL    HW223913   6.188   2.089   3.681
 7672SOL     OW23914   5.527   1.093   3.485
 7672SOL    HW123915   5.452   1.039   3.448
 7672SOL    HW223916   5.587   1.034   3.539
 7673SOL     OW23917   0.661   4.325   0.686
 7673SOL    HW123918   0.748   4.338   0.637
 7673SOL    HW223919   0.671   4.252   0.754
 7674SOL     OW23920   6.495   1.696   5.098
 7674SOL    HW123921   6.591   1.673   5.115
 7674SOL    HW223922   6.436   1.628   5.141
 7675SOL     OW23923   4.647   0.075   2.760
 7675SOL    HW123924   4.612   7.017   2.716
 7675SOL    HW223925   4.589   0.153   2.737
 7676SOL     OW23926   1.601   0.849   6.935
 7676SOL    HW123927   1.559   0.777   6.990
 7676SOL    HW223928   1.677   0.889   6.986
 7677SOL     OW23929   1.387   3.302   2.711
 7677SOL    HW123930   1.427   3.273   2.798
 7677SOL    HW223931   1.418   3.395   2.689
 7678SOL     OW23932   0.113   0.703   0.700
 7678SOL    HW123933   0.017   0.698   0.729
 7678SOL    HW223934   0.128   0.641   0.623
 7679SOL     OW23935   0.738   5.010   5.029
 7679SOL    HW123936   0.803   5.062   4.973
 7679SOL    HW223937   0.789   4.956   5.097
 7680SOL     OW23938   3.546   3.446   0.321
 7680SOL    HW123939   3.488   3.481   0.394
 7680SOL    HW223940   3.512   3.357   0.291
 7681SOL     OW23941   2.842   1.761   6.772
 7681SOL    HW123942   2.742   1.761   6.761
 7681SOL    HW223943   2.867   1.704   6.850
 7682SOL     OW23944   3.054   6.830   2.038
 7682SOL    HW123945   3.004   6.745   2.048
 7682SOL    HW223946   2.990   6.907   2.045
 7683SOL     OW23947   6.068   2.396   2.629
 7683SOL    HW123948   6.106   2.314   2.673
 7683SOL    HW223949   5.984   2.423   2.676
 7684SOL     OW23950   4.299   2.140   6.391
 7684SOL    HW123951   4.268   2.183   6.476
 7684SOL    HW223952   4.236   2.164   6.317
 7685SOL     OW23953   3.598   3.095   0.987
 7685SOL    HW123954   3.589   3.189   1.021
 7685SOL    HW223955   3.643   3.038   1.055
 7686SOL     OW23956   4.525   6.784   3.820
 7686SOL    HW123957   4.514   6.685   3.812
 7686SOL    HW223958   4.500   6.812   3.913
 7687SOL     OW23959   4.999   5.547   5.590
 7687SOL    HW123960   4.932   5.593   5.648
 7687SOL    HW223961   5.005   5.593   5.501
 7688SOL     OW23962   6.923   6.775   4.737
 7688SOL    HW123963   6.847   6.711   4.724
 7688SOL    HW223964   6.990   6.762   4.665
 7689SOL     OW23965   4.760   6.697   4.935
 7689SOL    HW123966   4.824   6.759   4.980
 7689SOL    HW223967   4.810   6.628   4.883
 7690SOL     OW23968   5.984   4.367   3.446
 7690SOL    HW123969   5.900   4.390   3.398
 7690SOL    HW223970   5.983   4.270   3.472
 7691SOL     OW23971   5.170   2.892   4.527
 7691SOL    HW123972   5.102   2.903   4.454
 7691SOL    HW223973   5.257   2.931   4.498
 7692SOL     OW23974   1.869   6.721   1.803
 7692SOL    HW123975   1.898   6.767   1.887
 7692SOL    HW223976   1.943   6.726   1.736
 7693SOL     OW23977   4.316   1.188   6.380
 7693SOL    HW123978   4.270   1.269   6.344
 7693SOL    HW223979   4.261   1.149   6.454
 7694SOL     OW23980   6.917   5.145   4.267
 7694SOL    HW123981   6.918   5.057   4.219
 7694SOL    HW223982   6.956   5.215   4.207
 7695SOL     OW23983   4.616   6.865   1.086
 7695SOL    HW123984   4.583   6.849   1.179
 7695SOL    HW223985   4.571   6.802   1.023
 7696SOL     OW23986   6.673   2.989   4.634
 7696SOL    HW123987   6.753   3.041   4.602
 7696SOL    HW223988   6.658   3.008   4.731
 7697SOL     OW23989   2.548   1.402   2.861
 7697SOL    HW123990   2.508   1.450   2.939
 7697SOL    HW223991   2.542   1.460   2.780
 7698SOL     OW23992   6.668   2.911   5.614
 7698SOL    HW123993   6.721   2.937   5.533
 7698SOL    HW223994   6.666   2.811   5.621
 7699SOL     OW23995   2.625   5.925   0.313
 7699SOL    HW123996   2.678   5.982   0.251
 7699SOL    HW223997   2.537   5.968   0.331
 7700SOL     OW23998   4.991   6.646   5.163
 7700SOL    HW123999   4.931   6.568   5.143
 7700SOL    HW224000   5.082   6.628   5.124
 7701SOL     OW24001   0.220   1.672   4.219
 7701SOL    HW124002   0.278   1.746   4.252
 7701SOL    HW224003   0.254   1.584   4.253
 7702SOL     OW24004   2.912   6.006   6.018
 7702SOL    HW124005   2.819   5.982   5.989
 7702SOL    HW224006   2.950   6.072   5.953
 7703SOL     OW24007   0.573   1.578   5.708
 7703SOL    HW124008   0.540   1.670   5.733
 7703SOL    HW224009   0.610   1.581   5.615
 7704SOL     OW24010   3.736   4.603   6.808
 7704SOL    HW124011   3.650   4.573   6.768
 7704SOL    HW224012   3.757   4.546   6.888
 7705SOL     OW24013   3.521   5.200   4.950
 7705SOL    HW124014   3.557   5.141   5.022
 7705SOL    HW224015   3.444   5.154   4.905
 7706SOL     OW24016   6.200   0.781   5.220
 7706SOL    HW124017   6.225   0.877   5.207
 7706SOL    HW224018   6.135   0.753   5.149
 7707SOL     OW24019   6.750   5.607   6.515
 7707SOL    HW124020   6.729   5.620   6.612
 7707SOL    HW224021   6.731   5.692   6.465
 7708SOL     OW24022   4.853   6.517   4.552
 7708SOL    HW124023   4.758   6.484   4.551
 7708SOL    HW224024   4.880   6.537   4.646
 7709SOL     OW24025   4.432   2.337   1.803
 7709SOL    HW124026   4.332   2.335   1.798
 7709SOL    HW224027   4.468   2.245   1.792
 7710SOL     OW24028   2.474   0.289   0.381
 7710SOL    HW124029   2.507   0.381   0.359
 7710SOL    HW224030   2.466   0.235   0.297
 7711SOL     OW24031   5.650   6.564   5.617
 7711SOL    HW124032   5.743   6.536   5.641
 7711SOL    HW224033   5.644   6.579   5.518
 7712SOL     OW24034   5.888   5.246   0.893
 7712SOL    HW124035   5.839   5.162   0.916
 7712SOL    HW224036   5.866   5.273   0.799
 7713SOL     OW24037   1.784   4.219   6.525
 7713SOL    HW124038   1.718   4.294   6.518
 7713SOL    HW224039   1.739   4.133   6.501
 7714SOL     OW24040   6.085   4.177   3.996
 7714SOL    HW124041   6.083   4.223   3.907
 7714SOL    HW224042   6.118   4.241   4.065
 7715SOL     OW24043   5.129   6.910   1.534
 7715SOL    HW124044   5.085   6.872   1.615
 7715SOL    HW224045   5.214   6.955   1.560
 7716SOL     OW24046   4.649   2.201   2.939
 7716SOL    HW124047   4.621   2.177   3.032
 7716SOL    HW224048   4.697   2.123   2.898
 7717SOL     OW24049   3.347   1.789   5.425
 7717SOL    HW124050   3.279   1.840   5.372
 7717SOL    HW224051   3.301   1.734   5.494
 7718SOL     OW24052   2.666   0.946   3.665
 7718SOL    HW124053   2.579   0.919   3.624
 7718SOL    HW224054   2.737   0.879   3.639
 7719SOL     OW24055   6.911   1.694   4.647
 7719SOL    HW124056   6.896   1.789   4.676
 7719SOL    HW224057   6.956   1.693   4.558
 7720SOL     OW24058   5.991   6.390   1.381
 7720SOL    HW124059   5.973   6.467   1.442
 7720SOL    HW224060   6.059   6.416   1.313
 7721SOL     OW24061   2.189   4.070   3.298
 7721SOL    HW124062   2.181   4.013   3.217
 7721SOL    HW224063   2.098   4.084   3.338
 7722SOL     OW24064   6.223   4.337   3.600
 7722SOL    HW124065   6.237   4.427   3.558
 7722SOL    HW224066   6.310   4.303   3.636
 7723SOL     OW24067   6.659   3.207   0.810
 7723SOL    HW124068   6.660   3.113   0.845
 7723SOL    HW224069   6.752   3.242   0.806
 7724SOL     OW24070   1.450   4.621   0.895
 7724SOL    HW124071   1.460   4.682   0.817
 7724SOL    HW224072   1.353   4.599   0.908
 7725SOL     OW24073   5.807   2.885   3.562
 7725SOL    HW124074   5.773   2.815   3.626
 7725SOL    HW224075   5.798   2.851   3.468
 7726SOL     OW24076   0.674   4.618   3.369
 7726SOL    HW124077   0.596   4.592   3.312
 7726SOL    HW224078   0.752   4.641   3.312
 7727SOL     OW24079   6.763   2.937   3.089
 7727SOL    HW124080   6.817   3.018   3.066
 7727SOL    HW224081   6.811   2.855   3.057
 7728SOL     OW24082   1.740   2.938   3.251
 7728SOL    HW124083   1.711   2.899   3.339
 7728SOL    HW224084   1.754   3.036   3.261
 7729SOL     OW24085   5.134   2.648   1.487
 7729SOL    HW124086   5.206   2.699   1.532
 7729SOL    HW224087   5.126   2.678   1.392
 7730SOL     OW24088   5.065   0.093   2.683
 7730SOL    HW124089   5.099   0.080   2.590
 7730SOL    HW224090   5.122   0.160   2.731
 7731SOL     OW24091   5.901   1.279   6.782
 7731SOL    HW124092   5.839   1.355   6.798
 7731SOL    HW224093   5.979   1.310   6.728
 7732SOL     OW24094   4.324   6.195   0.614
 7732SOL    HW124095   4.301   6.100   0.593
 7732SOL    HW224096   4.286   6.255   0.543
 7733SOL     OW24097   3.865   0.326   1.495
 7733SOL    HW124098   3.913   0.398   1.544
 7733SOL    HW224099   3.780   0.303   1.543
 7734SOL     OW24100   1.684   2.430   3.406
 7734SOL    HW124101   1.727   2.428   3.496
 7734SOL    HW224102   1.603   2.371   3.407
 7735SOL     OW24103   5.281   4.361   6.607
 7735SOL    HW124104   5.295   4.306   6.524
 7735SOL    HW224105   5.273   4.457   6.583
 7736SOL     OW24106   5.787   4.676   0.220
 7736SOL    HW124107   5.764   4.773   0.217
 7736SOL    HW224108   5.863   4.659   0.157
 7737SOL     OW24109   4.982   1.738   1.114
 7737SOL    HW124110   4.883   1.731   1.100
 7737SOL    HW224111   5.021   1.793   1.040
 7738SOL     OW24112   2.776   5.519   0.181
 7738SOL    HW124113   2.864   5.557   0.209
 7738SOL    HW224114   2.762   5.535   0.083
 7739SOL     OW24115   6.927   2.251   1.057
 7739SOL    HW124116   6.842   2.295   1.029
 7739SOL    HW224117   6.909   2.186   1.131
 7740SOL     OW24118   6.915   0.406   2.636
 7740SOL    HW124119   7.007   0.443   2.633
 7740SOL    HW224120   6.863   0.440   2.558
 7741SOL     OW24121   1.272   6.237   4.374
 7741SOL    HW124122   1.221   6.154   4.349
 7741SOL    HW224123   1.314   6.277   4.293
 7742SOL     OW24124   6.202   1.725   3.724
 7742SOL    HW124125   6.224   1.680   3.811
 7742SOL    HW224126   6.164   1.815   3.743
 7743SOL     OW24127   4.586   2.632   4.453
 7743SOL    HW124128   4.534   2.548   4.442
 7743SOL    HW224129   4.588   2.657   4.550
 7744SOL     OW24130   6.620   0.229   3.396
 7744SOL    HW124131   6.648   0.250   3.490
 7744SOL    HW224132   6.536   0.279   3.375
 7745SOL     OW24133   3.810   3.007   6.115
 7745SOL    HW124134   3.890   3.031   6.170
 7745SOL    HW224135   3.727   3.034   6.165
 7746SOL     OW24136   1.686   0.873   0.214
 7746SOL    HW124137   1.723   0.834   0.298
 7746SOL    HW224138   1.647   0.963   0.234
 7747SOL     OW24139   5.305   6.211   0.823
 7747SOL    HW124140   5.232   6.180   0.885
 7747SOL    HW224141   5.298   6.310   0.812
 7748SOL     OW24142   2.622   4.126   6.378
 7748SOL    HW124143   2.654   4.032   6.383
 7748SOL    HW224144   2.695   4.185   6.343
 7749SOL     OW24145   5.440   2.517   5.461
 7749SOL    HW124146   5.403   2.432   5.497
 7749SOL    HW224147   5.380   2.553   5.390
 7750SOL     OW24148   0.479   5.654   1.590
 7750SOL    HW124149   0.401   5.626   1.533
 7750SOL    HW224150   0.467   5.618   1.683
 7751SOL     OW24151   0.882   2.747   2.028
 7751SOL    HW124152   0.957   2.719   2.088
 7751SOL    HW224153   0.918   2.804   1.955
 7752SOL     OW24154   4.317   1.711   4.321
 7752SOL    HW124155   4.298   1.805   4.347
 7752SOL    HW224156   4.393   1.709   4.256
 7753SOL     OW24157   2.729   1.368   5.279
 7753SOL    HW124158   2.791   1.296   5.249
 7753SOL    HW224159   2.775   1.427   5.345
 7754SOL     OW24160   4.768   6.237   1.913
 7754SOL    HW124161   4.832   6.166   1.941
 7754SOL    HW224162   4.819   6.321   1.893
 7755SOL     OW24163   1.260   4.035   6.214
 7755SOL    HW124164   1.256   3.991   6.124
 7755SOL    HW224165   1.353   4.070   6.228
 7756SOL     OW24166   3.322   5.789   1.492
 7756SOL    HW124167   3.327   5.879   1.448
 7756SOL    HW224168   3.381   5.725   1.444
 7757SOL     OW24169   0.368   4.637   2.445
 7757SOL    HW124170   0.430   4.636   2.524
 7757SOL    HW224171   0.278   4.606   2.473
 7758SOL     OW24172   1.386   0.851   4.985
 7758SOL    HW124173   1.462   0.828   4.925
 7758SOL    HW224174   1.399   0.944   5.020
 7759SOL     OW24175   2.864   2.152   6.630
 7759SOL    HW124176   2.828   2.070   6.586
 7759SOL    HW224177   2.940   2.188   6.575
 7760SOL     OW24178   4.465   3.286   1.235
 7760SOL    HW124179   4.406   3.340   1.295
 7760SOL    HW224180   4.425   3.195   1.222
 7761SOL     OW24181   4.899   5.622   4.855
 7761SOL    HW124182   4.916   5.631   4.953
 7761SOL    HW224183   4.971   5.671   4.805
 7762SOL     OW24184   6.576   1.113   2.944
 7762SOL    HW124185   6.629   1.125   2.860
 7762SOL    HW224186   6.515   1.034   2.933
 7763SOL     OW24187   2.477   0.021   4.356
 7763SOL    HW124188   2.514   6.953   4.372
 7763SOL    HW224189   2.378   0.015   4.343
 7764SOL     OW24190   3.044   3.819   5.575
 7764SOL    HW124191   3.068   3.725   5.550
 7764SOL    HW224192   2.944   3.828   5.581
 7765SOL     OW24193   0.044   3.165   4.713
 7765SOL    HW124194   0.027   3.072   4.747
 7765SOL    HW224195   0.046   3.164   4.613
 7766SOL     OW24196   6.406   3.645   6.378
 7766SOL    HW124197   6.313   3.611   6.366
 7766SOL    HW224198   6.404   3.738   6.415
 7767SOL     OW24199   2.965   0.690   3.366
 7767SOL    HW124200   2.966   0.778   3.319
 7767SOL    HW224201   2.921   0.701   3.455
 7768SOL     OW24202   4.616   5.255   3.306
 7768SOL    HW124203   4.705   5.234   3.266
 7768SOL    HW224204   4.562   5.171   3.311
 7769SOL     OW24205   3.589   2.484   5.443
 7769SOL    HW124206   3.507   2.450   5.397
 7769SOL    HW224207   3.570   2.501   5.539
 7770SOL     OW24208   1.922   3.335   4.818
 7770SOL    HW124209   1.835   3.344   4.866
 7770SOL    HW224210   1.977   3.263   4.861
 7771SOL     OW24211   2.744   2.144   6.151
 7771SOL    HW124212   2.793   2.103   6.074
 7771SOL    HW224213   2.686   2.075   6.194
 7772SOL     OW24214   5.037   6.421   2.076
 7772SOL    HW124215   4.991   6.450   1.992
 7772SOL    HW224216   5.044   6.322   2.078
 7773SOL     OW24217   3.341   6.410   0.017
 7773SOL    HW124218   3.417   6.453   0.066
 7773SOL    HW224219   3.370   6.387   6.948
 7774SOL     OW24220   4.196   1.741   2.558
 7774SOL    HW124221   4.274   1.787   2.515
 7774SOL    HW224222   4.131   1.810   2.591
 7775SOL     OW24223   3.145   0.642   6.814
 7775SOL    HW124224   3.231   0.668   6.859
 7775SOL    HW224225   3.101   0.570   6.868
 7776SOL     OW24226   1.795   0.942   4.836
 7776SOL    HW124227   1.783   0.949   4.737
 7776SOL    HW224228   1.857   0.865   4.857
 7777SOL     OW24229   5.902   5.295   3.491
 7777SOL    HW124230   5.894   5.313   3.589
 7777SOL    HW224231   5.820   5.326   3.444
 7778SOL     OW24232   6.927   4.834   2.468
 7778SOL    HW124233   6.875   4.916   2.443
 7778SOL    HW224234   6.922   4.820   2.567
 7779SOL     OW24235   4.019   5.778   2.526
 7779SOL    HW124236   3.955   5.722   2.475
 7779SOL    HW224237   4.023   5.870   2.486
 7780SOL     OW24238   6.285   6.111   4.806
 7780SOL    HW124239   6.242   6.160   4.730
 7780SOL    HW224240   6.219   6.100   4.881
 7781SOL     OW24241   1.644   2.486   0.751
 7781SOL    HW124242   1.678   2.480   0.657
 7781SOL    HW224243   1.583   2.410   0.770
 7782SOL     OW24244   5.715   3.633   4.005
 7782SOL    HW124245   5.802   3.646   3.958
 7782SOL    HW224246   5.699   3.710   4.067
 7783SOL     OW24247   1.143   0.011   5.113
 7783SOL    HW124248   1.203   6.955   5.111
 7783SOL    HW224249   1.096   0.019   5.025
 7784SOL     OW24250   1.751   2.593   2.370
 7784SOL    HW124251   1.747   2.617   2.468
 7784SOL    HW224252   1.791   2.502   2.360
 7785SOL     OW24253   0.757   6.999   2.442
 7785SOL    HW124254   0.738   6.946   2.524
 7785SOL    HW224255   0.751   6.939   2.362
 7786SOL     OW24256   4.001   0.678   6.471
 7786SOL    HW124257   4.090   0.660   6.512
 7786SOL    HW224258   4.012   0.741   6.394
 7787SOL     OW24259   2.229   2.413   1.129
 7787SOL    HW124260   2.231   2.351   1.050
 7787SOL    HW224261   2.307   2.475   1.123
 7788SOL     OW24262   0.154   4.548   1.561
 7788SOL    HW124263   0.155   4.454   1.594
 7788SOL    HW224264   0.168   4.611   1.637
 7789SOL     OW24265   3.509   1.929   6.381
 7789SOL    HW124266   3.458   1.884   6.453
 7789SOL    HW224267   3.577   1.990   6.421
 7790SOL     OW24268   4.663   4.681   1.758
 7790SOL    HW124269   4.660   4.626   1.675
 7790SOL    HW224270   4.591   4.751   1.754
 7791SOL     OW24271   2.738   5.024   2.041
 7791SOL    HW124272   2.679   5.084   1.987
 7791SOL    HW224273   2.781   5.077   2.115
 7792SOL     OW24274   0.777   1.613   2.456
 7792SOL    HW124275   0.709   1.661   2.511
 7792SOL    HW224276   0.791   1.521   2.493
 7793SOL     OW24277   4.670   0.941   6.380
 7793SOL    HW124278   4.730   0.966   6.457
 7793SOL    HW224279   4.713   0.971   6.294
 7794SOL     OW24280   0.621   6.642   3.169
 7794SOL    HW124281   0.713   6.630   3.133
 7794SOL    HW224282   0.604   6.574   3.240
 7795SOL     OW24283   2.878   5.563   6.750
 7795SOL    HW124284   2.963   5.517   6.722
 7795SOL    HW224285   2.868   5.647   6.696
 7796SOL     OW24286   3.926   3.806   6.422
 7796SOL    HW124287   3.979   3.729   6.459
 7796SOL    HW224288   3.967   3.892   6.454
 7797SOL     OW24289   0.797   6.297   2.554
 7797SOL    HW124290   0.773   6.315   2.459
 7797SOL    HW224291   0.846   6.375   2.592
 7798SOL     OW24292   1.110   3.160   0.776
 7798SOL    HW124293   1.144   3.228   0.712
 7798SOL    HW224294   1.165   3.077   0.769
 7799SOL     OW24295   2.669   5.560   3.239
 7799SOL    HW124296   2.735   5.485   3.231
 7799SOL    HW224297   2.619   5.552   3.325
 7800SOL     OW24298   0.546   6.702   1.960
 7800SOL    HW124299   0.453   6.686   1.992
 7800SOL    HW224300   0.576   6.625   1.904
 7801SOL     OW24301   1.532   2.450   2.497
 7801SOL    HW124302   1.601   2.506   2.452
 7801SOL    HW224303   1.466   2.418   2.430
 7802SOL     OW24304   0.166   3.868   4.267
 7802SOL    HW124305   0.085   3.870   4.208
 7802SOL    HW224306   0.143   3.825   4.354
 7803SOL     OW24307   4.228   3.082   5.416
 7803SOL    HW124308   4.206   2.984   5.410
 7803SOL    HW224309   4.145   3.136   5.400
 7804SOL     OW24310   3.137   1.970   5.320
 7804SOL    HW124311   3.091   2.043   5.372
 7804SOL    HW224312   3.135   1.992   5.223
 7805SOL     OW24313   5.696   2.941   0.867
 7805SOL    HW124314   5.787   2.910   0.894
 7805SOL    HW224315   5.702   2.998   0.786
 7806SOL     OW24316   6.890   2.410   5.493
 7806SOL    HW124317   6.873   2.462   5.409
 7806SOL    HW224318   6.947   2.464   5.555
 7807SOL     OW24319   2.148   4.683   6.226
 7807SOL    HW124320   2.124   4.777   6.204
 7807SOL    HW224321   2.065   4.627   6.230
 7808SOL     OW24322   4.856   3.689   2.976
 7808SOL    HW124323   4.922   3.706   2.903
 7808SOL    HW224324   4.830   3.775   3.019
 7809SOL     OW24325   5.108   4.646   3.500
 7809SOL    HW124326   5.026   4.703   3.502
 7809SOL    HW224327   5.126   4.611   3.592
 7810SOL     OW24328   3.671   6.534   5.451
 7810SOL    HW124329   3.690   6.626   5.485
 7810SOL    HW224330   3.752   6.476   5.463
 7811SOL     OW24331   1.378   5.939   2.684
 7811SOL    HW124332   1.373   5.936   2.585
 7811SOL    HW224333   1.471   5.919   2.714
 7812SOL     OW24334   3.122   1.924   5.889
 7812SOL    HW124335   3.170   1.865   5.954
 7812SOL    HW224336   3.095   2.009   5.934
 7813SOL     OW24337   5.857   0.690   0.439
 7813SOL    HW124338   5.823   0.724   0.352
 7813SOL    HW224339   5.954   0.711   0.448
 7814SOL     OW24340   6.881   3.259   2.120
 7814SOL    HW124341   6.912   3.173   2.081
 7814SOL    HW224342   6.781   3.256   2.132
 7815SOL     OW24343   6.010   3.821   5.292
 7815SOL    HW124344   6.034   3.728   5.267
 7815SOL    HW224345   5.981   3.871   5.210
 7816SOL     OW24346   0.229   0.380   5.453
 7816SOL    HW124347   0.267   0.291   5.427
 7816SOL    HW224348   0.300   0.449   5.446
 7817SOL     OW24349   3.127   3.000   6.660
 7817SOL    HW124350   3.210   2.957   6.623
 7817SOL    HW224351   3.093   3.068   6.596
 7818SOL     OW24352   5.646   0.973   2.425
 7818SOL    HW124353   5.665   1.065   2.390
 7818SOL    HW224354   5.549   0.952   2.413
 7819SOL     OW24355   1.500   3.772   4.022
 7819SOL    HW124356   1.576   3.807   3.968
 7819SOL    HW224357   1.508   3.805   4.116
 7820SOL     OW24358   2.010   6.946   6.105
 7820SOL    HW124359   1.929   6.903   6.147
 7820SOL    HW224360   1.982   6.995   6.023
 7821SOL     OW24361   5.204   5.709   6.623
 7821SOL    HW124362   5.226   5.620   6.582
 7821SOL    HW224363   5.139   5.697   6.697
 7822SOL     OW24364   0.774   0.155   4.733
 7822SOL    HW124365   0.869   0.135   4.707
 7822SOL    HW224366   0.774   0.211   4.816
 7823SOL     OW24367   1.984   3.193   5.675
 7823SOL    HW124368   2.082   3.179   5.693
 7823SOL    HW224369   1.962   3.289   5.688
 7824SOL     OW24370   4.914   2.675   3.231
 7824SOL    HW124371   4.848   2.738   3.189
 7824SOL    HW224372   4.884   2.654   3.325
 7825SOL     OW24373   3.517   3.667   2.593
 7825SOL    HW124374   3.489   3.662   2.689
 7825SOL    HW224375   3.479   3.749   2.551
 7826SOL     OW24376   6.912   0.086   0.687
 7826SOL    HW124377   6.886   0.133   0.603
 7826SOL    HW224378   6.842   0.019   0.712
 7827SOL     OW24379   5.213   4.544   0.680
 7827SOL    HW124380   5.150   4.539   0.758
 7827SOL    HW224381   5.165   4.579   0.600
 7828SOL     OW24382   0.326   5.894   0.954
 7828SOL    HW124383   0.315   5.955   0.875
 7828SOL    HW224384   0.417   5.908   0.993
 7829SOL     OW24385   4.053   3.024   1.859
 7829SOL    HW124386   4.038   2.986   1.950
 7829SOL    HW224387   4.036   2.953   1.791
 7830SOL     OW24388   5.881   2.860   6.951
 7830SOL    HW124389   5.885   2.935   7.017
 7830SOL    HW224390   5.863   2.898   6.860
 7831SOL     OW24391   1.770   2.482   0.053
 7831SOL    HW124392   1.816   2.496   6.989
 7831SOL    HW224393   1.677   2.450   0.038
 7832SOL     OW24394   2.847   2.609   5.680
 7832SOL    HW124395   2.849   2.651   5.589
 7832SOL    HW224396   2.905   2.662   5.742
 7833SOL     OW24397   0.837   6.790   0.582
 7833SOL    HW124398   0.800   6.717   0.640
 7833SOL    HW224399   0.921   6.825   0.623
 7834SOL     OW24400   0.343   0.726   1.217
 7834SOL    HW124401   0.397   0.739   1.133
 7834SOL    HW224402   0.251   0.695   1.193
 7835SOL     OW24403   2.178   2.510   5.213
 7835SOL    HW124404   2.146   2.483   5.123
 7835SOL    HW224405   2.183   2.610   5.219
 7836SOL     OW24406   2.070   6.793   0.072
 7836SOL    HW124407   2.088   6.811   0.169
 7836SOL    HW224408   2.019   6.870   0.033
 7837SOL     OW24409   5.976   0.279   2.606
 7837SOL    HW124410   5.995   0.185   2.576
 7837SOL    HW224411   5.877   0.290   2.620
 7838SOL     OW24412   3.855   0.159   3.974
 7838SOL    HW124413   3.778   0.219   3.996
 7838SOL    HW224414   3.918   0.157   4.051
 7839SOL     OW24415   6.151   4.962   4.292
 7839SOL    HW124416   6.055   4.989   4.290
 7839SOL    HW224417   6.158   4.863   4.299
 7840SOL     OW24418   5.583   3.172   5.215
 7840SOL    HW124419   5.509   3.221   5.260
 7840SOL    HW224420   5.590   3.203   5.120
 7841SOL     OW24421   0.923   1.820   6.466
 7841SOL    HW124422   0.983   1.746   6.438
 7841SOL    HW224423   0.832   1.783   6.487
 7842SOL     OW24424   3.176   0.880   2.696
 7842SOL    HW124425   3.202   0.784   2.701
 7842SOL    HW224426   3.219   0.922   2.616
 7843SOL     OW24427   5.345   3.396   1.013
 7843SOL    HW124428   5.385   3.319   1.064
 7843SOL    HW224429   5.253   3.371   0.983
 7844SOL     OW24430   4.511   1.163   4.019
 7844SOL    HW124431   4.507   1.165   3.919
 7844SOL    HW224432   4.564   1.083   4.049
 7845SOL     OW24433   6.746   0.946   4.282
 7845SOL    HW124434   6.828   0.936   4.226
 7845SOL    HW224435   6.734   1.042   4.308
 7846SOL     OW24436   3.124   6.879   2.331
 7846SOL    HW124437   3.169   6.804   2.379
 7846SOL    HW224438   3.118   6.857   2.234
 7847SOL     OW24439   6.789   0.592   0.202
 7847SOL    HW124440   6.698   0.614   0.167
 7847SOL    HW224441   6.804   0.643   0.287
 7848SOL     OW24442   4.813   4.371   1.093
 7848SOL    HW124443   4.823   4.353   1.191
 7848SOL    HW224444   4.899   4.406   1.056
 7849SOL     OW24445   6.239   4.036   4.862
 7849SOL    HW124446   6.328   4.009   4.898
 7849SOL    HW224447   6.230   4.003   4.768
 7850SOL     OW24448   1.085   0.704   4.430
 7850SOL    HW124449   1.043   0.727   4.518
 7850SOL    HW224450   1.020   0.725   4.356
 7851SOL     OW24451   5.678   6.799   0.014
 7851SOL    HW124452   5.594   6.770   6.992
 7851SOL    HW224453   5.741   6.722   0.019
 7852SOL     OW24454   2.501   5.781   0.069
 7852SOL    HW124455   2.441   5.861   0.067
 7852SOL    HW224456   2.596   5.810   0.081
 7853SOL     OW24457   2.795   3.275   0.514
 7853SOL    HW124458   2.720   3.237   0.568
 7853SOL    HW224459   2.769   3.275   0.417
 7854SOL     OW24460   3.186   3.993   2.582
 7854SOL    HW124461   3.274   3.996   2.535
 7854SOL    HW224462   3.197   4.024   2.677
 7855SOL     OW24463   3.925   6.253   5.966
 7855SOL    HW124464   3.909   6.214   6.056
 7855SOL    HW224465   3.974   6.339   5.974
 7856SOL     OW24466   4.681   3.199   6.334
 7856SOL    HW124467   4.752   3.131   6.315
 7856SOL    HW224468   4.646   3.185   6.426
 7857SOL     OW24469   6.825   1.488   5.467
 7857SOL    HW124470   6.912   1.534   5.448
 7857SOL    HW224471   6.842   1.403   5.516
 7858SOL     OW24472   5.881   4.037   3.370
 7858SOL    HW124473   5.975   4.005   3.354
 7858SOL    HW224474   5.834   4.044   3.282
 7859SOL     OW24475   1.076   5.629   0.052
 7859SOL    HW124476   1.105   5.551   7.020
 7859SOL    HW224477   1.101   5.614   0.147
 7860SOL     OW24478   3.978   6.969   2.264
 7860SOL    HW124479   4.074   6.948   2.247
 7860SOL    HW224480   3.942   0.001   2.188
 7861SOL     OW24481   5.085   4.323   0.464
 7861SOL    HW124482   5.172   4.348   0.506
 7861SOL    HW224483   5.098   4.243   0.405
 7862SOL     OW24484   3.096   4.665   1.776
 7862SOL    HW124485   3.111   4.715   1.861
 7862SOL    HW224486   3.029   4.592   1.792
 7863SOL     OW24487   6.724   5.666   1.637
 7863SOL    HW124488   6.705   5.756   1.599
 7863SOL    HW224489   6.823   5.649   1.636
 7864SOL     OW24490   0.767   5.579   4.884
 7864SOL    HW124491   0.679   5.550   4.846
 7864SOL    HW224492   0.755   5.666   4.931
 7865SOL     OW24493   3.496   0.026   3.173
 7865SOL    HW124494   3.443   0.005   3.255
 7865SOL    HW224495   3.563   6.977   3.156
 7866SOL     OW24496   2.980   2.298   4.200
 7866SOL    HW124497   3.058   2.235   4.207
 7866SOL    HW224498   2.979   2.341   4.110
 7867SOL     OW24499   5.749   4.056   2.139
 7867SOL    HW124500   5.800   4.094   2.217
 7867SOL    HW224501   5.748   3.957   2.145
 7868SOL     OW24502   5.413   6.809   0.803
 7868SOL    HW124503   5.432   6.725   0.753
 7868SOL    HW224504   5.365   6.786   0.888
 7869SOL     OW24505   0.417   3.342   2.022
 7869SOL    HW124506   0.318   3.343   2.038
 7869SOL    HW224507   0.441   3.419   1.963
 7870SOL     OW24508   6.993   6.226   4.113
 7870SOL    HW124509   6.955   6.197   4.025
 7870SOL    HW224510   6.919   6.243   4.178
 7871SOL     OW24511   5.258   2.628   3.075
 7871SOL    HW124512   5.250   2.689   2.996
 7871SOL    HW224513   5.192   2.553   3.065
 7872SOL     OW24514   6.643   3.221   3.209
 7872SOL    HW124515   6.700   3.284   3.156
 7872SOL    HW224516   6.612   3.266   3.293
 7873SOL     OW24517   0.128   4.963   5.202
 7873SOL    HW124518   0.224   4.991   5.200
 7873SOL    HW224519   0.071   5.043   5.219
 7874SOL     OW24520   5.525   1.238   0.485
 7874SOL    HW124521   5.539   1.188   0.399
 7874SOL    HW224522   5.480   1.325   0.466
 7875SOL     OW24523   4.420   2.946   0.007
 7875SOL    HW124524   4.364   2.879   6.981
 7875SOL    HW224525   4.486   2.987   6.968
 7876SOL     OW24526   6.484   0.713   4.066
 7876SOL    HW124527   6.547   0.681   3.996
 7876SOL    HW224528   6.456   0.807   4.046
 7877SOL     OW24529   0.298   2.224   2.659
 7877SOL    HW124530   0.346   2.259   2.579
 7877SOL    HW224531   0.232   2.155   2.630
 7878SOL     OW24532   4.848   4.275   1.587
 7878SOL    HW124533   4.833   4.301   1.682
 7878SOL    HW224534   4.946   4.281   1.566
 7879SOL     OW24535   5.226   0.380   3.906
 7879SOL    HW124536   5.234   0.310   3.978
 7879SOL    HW224537   5.272   0.463   3.936
 7880SOL     OW24538   0.576   0.160   6.635
 7880SOL    HW124539   0.530   0.142   6.722
 7880SOL    HW224540   0.542   0.097   6.566
 7881SOL     OW24541   7.011   5.049   3.950
 7881SOL    HW124542   0.054   4.992   3.997
 7881SOL    HW224543   0.017   5.065   3.856
 7882SOL     OW24544   6.922   4.238   2.114
 7882SOL    HW124545   6.838   4.288   2.094
 7882SOL    HW224546   6.959   4.269   2.202
 7883SOL     OW24547   3.400   1.420   4.343
 7883SOL    HW124548   3.462   1.498   4.333
 7883SOL    HW224549   3.379   1.381   4.253
 7884SOL     OW24550   0.163   3.660   4.034
 7884SOL    HW124551   0.171   3.606   4.117
 7884SOL    HW224552   0.244   3.645   3.976
 7885SOL     OW24553   5.998   5.355   3.092
 7885SOL    HW124554   6.019   5.452   3.108
 7885SOL    HW224555   6.049   5.323   3.012
 7886SOL     OW24556   4.830   3.034   2.611
 7886SOL    HW124557   4.748   2.981   2.633
 7886SOL    HW224558   4.853   3.021   2.515
 7887SOL     OW24559   2.287   3.256   1.038
 7887SOL    HW124560   2.331   3.336   0.998
 7887SOL    HW224561   2.306   3.176   0.979
 7888SOL     OW24562   5.583   2.144   4.566
 7888SOL    HW124563   5.566   2.146   4.467
 7888SOL    HW224564   5.540   2.223   4.609
 7889SOL     OW24565   5.905   5.607   0.504
 7889SOL    HW124566   5.815   5.618   0.545
 7889SOL    HW224567   5.898   5.551   0.422
 7890SOL     OW24568   1.206   3.531   4.812
 7890SOL    HW124569   1.107   3.518   4.800
 7890SOL    HW224570   1.226   3.542   4.910
 7891SOL     OW24571   0.662   1.551   4.464
 7891SOL    HW124572   0.630   1.520   4.554
 7891SOL    HW224573   0.743   1.608   4.475
 7892SOL     OW24574   0.733   2.671   5.573
 7892SOL    HW124575   0.685   2.654   5.487
 7892SOL    HW224576   0.715   2.764   5.604
 7893SOL     OW24577   6.116   0.771   0.401
 7893SOL    HW124578   6.148   0.866   0.409
 7893SOL    HW224579   6.174   0.711   0.456
 7894SOL     OW24580   3.396   1.454   6.160
 7894SOL    HW124581   3.374   1.406   6.245
 7894SOL    HW224582   3.486   1.425   6.128
 7895SOL     OW24583   4.185   6.753   4.121
 7895SOL    HW124584   4.109   6.746   4.056
 7895SOL    HW224585   4.151   6.741   4.214
 7896SOL     OW24586   3.019   1.850   1.237
 7896SOL    HW124587   3.119   1.855   1.231
 7896SOL    HW224588   2.989   1.756   1.220
 7897SOL     OW24589   3.770   3.583   0.073
 7897SOL    HW124590   3.684   3.543   0.042
 7897SOL    HW224591   3.751   3.669   0.120
 7898SOL     OW24592   5.179   0.348   3.645
 7898SOL    HW124593   5.247   0.396   3.589
 7898SOL    HW224594   5.194   0.371   3.741
 7899SOL     OW24595   5.818   4.289   2.498
 7899SOL    HW124596   5.861   4.226   2.433
 7899SOL    HW224597   5.794   4.240   2.582
 7900SOL     OW24598   0.465   4.291   1.217
 7900SOL    HW124599   0.438   4.254   1.128
 7900SOL    HW224600   0.525   4.226   1.263
 7901SOL     OW24601   6.377   1.323   6.111
 7901SOL    HW124602   6.427   1.261   6.171
 7901SOL    HW224603   6.303   1.274   6.066
 7902SOL     OW24604   0.737   6.271   3.430
 7902SOL    HW124605   0.793   6.280   3.348
 7902SOL    HW224606   0.690   6.183   3.429
 7903SOL     OW24607   2.728   2.481   5.272
 7903SOL    HW124608   2.808   2.538   5.290
 7903SOL    HW224609   2.733   2.443   5.180
 7904SOL     OW24610   4.806   0.953   2.415
 7904SOL    HW124611   4.822   1.023   2.484
 7904SOL    HW224612   4.892   0.929   2.370
 7905SOL     OW24613   5.788   0.822   0.698
 7905SOL    HW124614   5.724   0.884   0.654
 7905SOL    HW224615   5.849   0.781   0.630
 7906SOL     OW24616   2.234   5.349   0.638
 7906SOL    HW124617   2.230   5.445   0.668
 7906SOL    HW224618   2.280   5.344   0.549
 7907SOL     OW24619   6.421   0.295   2.802
 7907SOL    HW124620   6.369   0.379   2.814
 7907SOL    HW224621   6.419   0.243   2.888
 7908SOL     OW24622   0.455   0.207   6.872
 7908SOL    HW124623   0.515   0.275   6.914
 7908SOL    HW224624   0.436   0.134   6.937
 7909SOL     OW24625   5.664   4.313   1.988
 7909SOL    HW124626   5.659   4.383   2.060
 7909SOL    HW224627   5.691   4.225   2.029
 7910SOL     OW24628   1.668   3.268   0.443
 7910SOL    HW124629   1.703   3.335   0.508
 7910SOL    HW224630   1.657   3.311   0.353
 7911SOL     OW24631   0.662   4.056   1.083
 7911SOL    HW124632   0.720   4.084   1.160
 7911SOL    HW224633   0.599   3.985   1.113
 7912SOL     OW24634   5.675   5.966   0.834
 7912SOL    HW124635   5.644   5.877   0.867
 7912SOL    HW224636   5.627   5.988   0.749
 7913SOL     OW24637   0.842   3.755   0.915
 7913SOL    HW124638   0.886   3.824   0.972
 7913SOL    HW224639   0.784   3.697   0.973
 7914SOL     OW24640   6.541   5.593   4.809
 7914SOL    HW124641   6.626   5.561   4.851
 7914SOL    HW224642   6.504   5.521   4.750
 7915SOL     OW24643   3.882   6.320   2.762
 7915SOL    HW124644   3.883   6.281   2.670
 7915SOL    HW224645   3.837   6.257   2.825
 7916SOL     OW24646   1.690   0.631   4.424
 7916SOL    HW124647   1.679   0.582   4.337
 7916SOL    HW224648   1.710   0.727   4.405
 7917SOL     OW24649   3.977   3.666   1.105
 7917SOL    HW124650   3.965   3.678   1.203
 7917SOL    HW224651   4.002   3.571   1.086
 7918SOL     OW24652   2.233   1.615   4.731
 7918SOL    HW124653   2.202   1.563   4.811
 7918SOL    HW224654   2.249   1.710   4.758
 7919SOL     OW24655   1.689   5.910   2.670
 7919SOL    HW124656   1.774   5.857   2.675
 7919SOL    HW224657   1.709   6.007   2.681
 7920SOL     OW24658   5.154   0.157   0.962
 7920SOL    HW124659   5.144   0.092   1.037
 7920SOL    HW224660   5.067   0.165   0.913
 7921SOL     OW24661   5.033   1.381   2.047
 7921SOL    HW124662   5.109   1.446   2.042
 7921SOL    HW224663   5.048   1.318   2.123
 7922SOL     OW24664   0.911   5.931   1.296
 7922SOL    HW124665   0.958   5.956   1.381
 7922SOL    HW224666   0.902   5.832   1.290
 7923SOL     OW24667   4.356   1.839   0.516
 7923SOL    HW124668   4.285   1.897   0.476
 7923SOL    HW224669   4.414   1.802   0.443
 7924SOL     OW24670   6.450   0.001   0.467
 7924SOL    HW124671   6.427   0.073   0.532
 7924SOL    HW224672   6.418   6.937   0.502
 7925SOL     OW24673   1.871   6.403   0.446
 7925SOL    HW124674   1.914   6.328   0.396
 7925SOL    HW224675   1.940   6.469   0.475
 7926SOL     OW24676   4.346   5.573   6.891
 7926SOL    HW124677   4.403   5.584   6.972
 7926SOL    HW224678   4.390   5.509   6.828
 7927SOL     OW24679   4.848   0.477   1.739
 7927SOL    HW124680   4.817   0.386   1.711
 7927SOL    HW224681   4.773   0.525   1.785
 7928SOL     OW24682   6.716   1.080   3.474
 7928SOL    HW124683   6.739   1.006   3.412
 7928SOL    HW224684   6.694   1.162   3.422
 7929SOL     OW24685   3.452   4.711   5.920
 7929SOL    HW124686   3.538   4.697   5.871
 7929SOL    HW224687   3.376   4.711   5.856
 7930SOL     OW24688   4.463   6.066   5.730
 7930SOL    HW124689   4.501   6.128   5.798
 7930SOL    HW224690   4.392   6.114   5.677
 7931SOL     OW24691   3.770   2.303   0.593
 7931SOL    HW124692   3.799   2.398   0.606
 7931SOL    HW224693   3.695   2.283   0.656
 7932SOL     OW24694   1.620   5.695   2.484
 7932SOL    HW124695   1.715   5.671   2.463
 7932SOL    HW224696   1.618   5.781   2.535
 7933SOL     OW24697   0.497   0.871   6.407
 7933SOL    HW124698   0.461   0.806   6.339
 7933SOL    HW224699   0.594   0.854   6.421
 7934SOL     OW24700   0.951   4.695   0.855
 7934SOL    HW124701   0.887   4.702   0.931
 7934SOL    HW224702   0.911   4.736   0.773
 7935SOL     OW24703   5.036   3.175   3.375
 7935SOL    HW124704   5.114   3.161   3.314
 7935SOL    HW224705   5.025   3.273   3.394
 7936SOL     OW24706   2.893   6.387   4.324
 7936SOL    HW124707   2.834   6.463   4.354
 7936SOL    HW224708   2.987   6.404   4.353
 7937SOL     OW24709   3.315   0.262   0.015
 7937SOL    HW124710   3.336   0.351   0.057
 7937SOL    HW224711   3.398   0.207   0.010
 7938SOL     OW24712   3.491   6.734   4.458
 7938SOL    HW124713   3.514   6.727   4.361
 7938SOL    HW224714   3.543   6.808   4.500
 7939SOL     OW24715   0.308   1.636   3.964
 7939SOL    HW124716   0.271   1.595   4.048
 7939SOL    HW224717   0.395   1.591   3.942
 7940SOL     OW24718   5.054   0.962   3.050
 7940SOL    HW124719   5.136   1.017   3.064
 7940SOL    HW224720   5.013   0.940   3.138
 7941SOL     OW24721   3.850   6.710   1.797
 7941SOL    HW124722   3.846   6.794   1.852
 7941SOL    HW224723   3.915   6.646   1.838
 7942SOL     OW24724   1.424   4.694   1.567
 7942SOL    HW124725   1.475   4.687   1.653
 7942SOL    HW224726   1.339   4.641   1.574
 7943SOL     OW24727   1.384   6.089   6.366
 7943SOL    HW124728   1.406   6.175   6.413
 7943SOL    HW224729   1.290   6.092   6.332
 7944SOL     OW24730   2.001   2.918   0.873
 7944SOL    HW124731   1.905   2.939   0.853
 7944SOL    HW224732   2.007   2.870   0.961
 7945SOL     OW24733   5.677   4.526   2.864
 7945SOL    HW124734   5.625   4.449   2.826
 7945SOL    HW224735   5.643   4.611   2.825
 7946SOL     OW24736   4.157   1.370   5.866
 7946SOL    HW124737   4.103   1.361   5.782
 7946SOL    HW224738   4.119   1.310   5.937
 7947SOL     OW24739   0.687   3.344   5.473
 7947SOL    HW124740   0.755   3.299   5.531
 7947SOL    HW224741   0.709   3.328   5.377
 7948SOL     OW24742   0.936   4.765   2.267
 7948SOL    HW124743   0.978   4.685   2.310
 7948SOL    HW224744   0.842   4.744   2.241
 7949SOL     OW24745   3.494   5.351   6.267
 7949SOL    HW124746   3.500   5.253   6.244
 7949SOL    HW224747   3.450   5.361   6.356
 7950SOL     OW24748   5.505   5.289   5.081
 7950SOL    HW124749   5.473   5.202   5.119
 7950SOL    HW224750   5.438   5.360   5.101
 7951SOL     OW24751   2.787   5.315   3.169
 7951SOL    HW124752   2.838   5.239   3.129
 7951SOL    HW224753   2.725   5.280   3.239
 7952SOL     OW24754   5.173   3.268   6.881
 7952SOL    HW124755   5.226   3.183   6.873
 7952SOL    HW224756   5.228   3.345   6.847
 7953SOL     OW24757   2.552   0.783   0.894
 7953SOL    HW124758   2.485   0.834   0.840
 7953SOL    HW224759   2.578   0.837   0.974
 7954SOL     OW24760   3.511   3.181   6.522
 7954SOL    HW124761   3.495   3.103   6.583
 7954SOL    HW224762   3.423   3.212   6.485
 7955SOL     OW24763   1.809   1.068   6.851
 7955SOL    HW124764   1.862   1.029   6.927
 7955SOL    HW224765   1.870   1.121   6.792
 7956SOL     OW24766   6.359   6.232   1.060
 7956SOL    HW124767   6.451   6.204   1.033
 7956SOL    HW224768   6.293   6.198   0.993
 7957SOL     OW24769   4.481   0.416   5.414
 7957SOL    HW124770   4.489   0.434   5.316
 7957SOL    HW224771   4.559   0.359   5.443
 7958SOL     OW24772   5.787   2.258   0.525
 7958SOL    HW124773   5.815   2.164   0.508
 7958SOL    HW224774   5.711   2.282   0.465
 7959SOL     OW24775   5.647   1.532   6.262
 7959SOL    HW124776   5.668   1.567   6.171
 7959SOL    HW224777   5.555   1.559   6.287
 7960SOL     OW24778   0.705   0.240   5.927
 7960SOL    HW124779   0.650   0.302   5.871
 7960SOL    HW224780   0.783   0.207   5.874
 7961SOL     OW24781   0.000   6.943   0.345
 7961SOL    HW124782   6.949   7.009   0.349
 7961SOL    HW224783   7.016   6.888   0.262
 7962SOL     OW24784   5.667   0.008   5.907
 7962SOL    HW124785   5.760   7.004   5.928
 7962SOL    HW224786   5.624   0.047   5.988
 7963SOL     OW24787   0.138   4.969   4.891
 7963SOL    HW124788   0.072   4.973   4.816
 7963SOL    HW224789   0.094   4.931   4.972
 7964SOL     OW24790   6.178   3.803   2.580
 7964SOL    HW124791   6.176   3.767   2.673
 7964SOL    HW224792   6.133   3.892   2.577
 7965SOL     OW24793   3.678   2.209   6.505
 7965SOL    HW124794   3.774   2.200   6.530
 7965SOL    HW224795   3.621   2.204   6.587
 7966SOL     OW24796   4.881   3.897   5.127
 7966SOL    HW124797   4.809   3.917   5.193
 7966SOL    HW224798   4.858   3.814   5.076
 7967SOL     OW24799   1.489   4.358   2.447
 7967SOL    HW124800   1.522   4.395   2.534
 7967SOL    HW224801   1.397   4.321   2.459
 7968SOL     OW24802   6.764   2.499   4.456
 7968SOL    HW124803   6.701   2.577   4.456
 7968SOL    HW224804   6.828   2.507   4.381
 7969SOL     OW24805   4.569   5.401   7.009
 7969SOL    HW124806   4.655   5.430   0.027
 7969SOL    HW224807   4.585   5.374   6.914
 7970SOL     OW24808   5.785   3.051   2.559
 7970SOL    HW124809   5.845   3.125   2.528
 7970SOL    HW224810   5.836   2.965   2.560
 7971SOL     OW24811   2.523   0.880   0.009
 7971SOL    HW124812   2.465   0.918   0.081
 7971SOL    HW224813   2.619   0.883   0.039
 7972SOL     OW24814   3.898   3.546   2.996
 7972SOL    HW124815   3.994   3.571   3.007
 7972SOL    HW224816   3.891   3.449   2.973
 7973SOL     OW24817   6.739   3.693   2.736
 7973SOL    HW124818   6.824   3.664   2.781
 7973SOL    HW224819   6.754   3.781   2.691
 7974SOL     OW24820   6.545   2.273   6.064
 7974SOL    HW124821   6.523   2.214   5.986
 7974SOL    HW224822   6.488   2.248   6.142
 7975SOL     OW24823   5.089   0.420   1.354
 7975SOL    HW124824   5.152   0.434   1.278
 7975SOL    HW224825   5.119   0.474   1.432
 7976SOL     OW24826   0.825   0.124   6.528
 7976SOL    HW124827   0.741   0.161   6.568
 7976SOL    HW224828   0.904   0.157   6.579
 7977SOL     OW24829   5.809   5.871   2.182
 7977SOL    HW124830   5.792   5.777   2.155
 7977SOL    HW224831   5.817   5.876   2.282
 7978SOL     OW24832   0.111   4.154   0.949
 7978SOL    HW124833   0.192   4.172   0.893
 7978SOL    HW224834   0.060   4.239   0.961
 7979SOL     OW24835   1.348   2.953   4.920
 7979SOL    HW124836   1.264   3.006   4.906
 7979SOL    HW224837   1.351   2.878   4.853
 7980SOL     OW24838   4.108   5.667   6.825
 7980SOL    HW124839   4.183   5.646   6.889
 7980SOL    HW224840   4.037   5.598   6.833
 7981SOL     OW24841   1.419   4.335   3.083
 7981SOL    HW124842   1.330   4.359   3.045
 7981SOL    HW224843   1.425   4.235   3.093
 7982SOL     OW24844   0.083   1.901   5.435
 7982SOL    HW124845   0.132   1.934   5.354
 7982SOL    HW224846   0.076   1.976   5.501
 7983SOL     OW24847   4.722   1.243   2.231
 7983SOL    HW124848   4.657   1.175   2.265
 7983SOL    HW224849   4.692   1.277   2.142
 7984SOL     OW24850   0.732   1.767   2.255
 7984SOL    HW124851   0.727   1.721   2.166
 7984SOL    HW224852   0.776   1.707   2.322
 7985SOL     OW24853   2.649   2.012   5.411
 7985SOL    HW124854   2.649   2.111   5.419
 7985SOL    HW224855   2.702   1.972   5.486
 7986SOL     OW24856   2.625   1.087   3.925
 7986SOL    HW124857   2.656   1.030   4.001
 7986SOL    HW224858   2.621   1.032   3.842
 7987SOL     OW24859   1.227   3.259   0.375
 7987SOL    HW124860   1.200   3.279   0.469
 7987SOL    HW224861   1.316   3.214   0.375
 7988SOL     OW24862   0.376   1.402   0.317
 7988SOL    HW124863   0.376   1.303   0.306
 7988SOL    HW224864   0.325   1.427   0.400
 7989SOL     OW24865   0.754   4.955   0.172
 7989SOL    HW124866   0.660   4.923   0.158
 7989SOL    HW224867   0.771   4.970   0.269
 7990SOL     OW24868   3.007   5.256   5.337
 7990SOL    HW124869   3.056   5.313   5.271
 7990SOL    HW224870   2.909   5.262   5.319
 7991SOL     OW24871   6.184   1.818   4.760
 7991SOL    HW124872   6.166   1.734   4.708
 7991SOL    HW224873   6.180   1.896   4.697
 7992SOL     OW24874   2.806   0.436   0.703
 7992SOL    HW124875   2.720   0.462   0.747
 7992SOL    HW224876   2.880   0.494   0.738
 7993SOL     OW24877   6.847   6.155   0.776
 7993SOL    HW124878   6.855   6.223   0.849
 7993SOL    HW224879   6.836   6.202   0.689
 7994SOL     OW24880   5.501   0.267   2.933
 7994SOL    HW124881   5.497   0.249   3.032
 7994SOL    HW224882   5.535   0.360   2.918
 7995SOL     OW24883   0.010   4.467   1.353
 7995SOL    HW124884   0.070   4.501   1.425
 7995SOL    HW224885   0.057   4.394   1.302
 7996SOL     OW24886   3.299   0.974   2.464
 7996SOL    HW124887   3.382   0.918   2.456
 7996SOL    HW224888   3.320   1.069   2.444
 7997SOL     OW24889   0.536   2.501   0.307
 7997SOL    HW124890   0.535   2.578   0.243
 7997SOL    HW224891   0.547   2.416   0.256
 7998SOL     OW24892   2.400   0.989   0.595
 7998SOL    HW124893   2.492   0.993   0.635
 7998SOL    HW224894   2.340   0.937   0.656
 7999SOL     OW24895   0.799   0.575   5.019
 7999SOL    HW124896   0.861   0.584   4.941
 7999SOL    HW224897   0.747   0.660   5.030
 8000SOL     OW24898   5.361   5.471   6.905
 8000SOL    HW124899   5.334   5.493   6.811
 8000SOL    HW224900   5.390   5.555   6.952
 8001SOL     OW24901   5.072   6.550   1.270
 8001SOL    HW124902   5.048   6.646   1.283
 8001SOL    HW224903   5.085   6.531   1.173
 8002SOL     OW24904   1.037   6.817   5.401
 8002SOL    HW124905   1.060   6.744   5.337
 8002SOL    HW224906   1.117   6.875   5.415
 8003SOL     OW24907   2.946   6.710   2.696
 8003SOL    HW124908   2.923   6.764   2.777
 8003SOL    HW224909   2.983   6.770   2.625
 8004SOL     OW24910   1.239   3.104   3.888
 8004SOL    HW124911   1.300   3.037   3.930
 8004SOL    HW224912   1.249   3.099   3.788
 8005SOL     OW24913   2.767   0.720   3.575
 8005SOL    HW124914   2.715   0.640   3.604
 8005SOL    HW224915   2.724   0.760   3.494
 8006SOL     OW24916   3.474   4.853   5.318
 8006SOL    HW124917   3.490   4.916   5.242
 8006SOL    HW224918   3.539   4.777   5.313
 8007SOL     OW24919   6.066   0.960   6.654
 8007SOL    HW124920   5.967   0.970   6.653
 8007SOL    HW224921   6.090   0.865   6.632
 8008SOL     OW24922   5.096   6.686   5.765
 8008SOL    HW124923   5.149   6.679   5.681
 8008SOL    HW224924   5.152   6.731   5.836
 8009SOL     OW24925   4.932   1.273   6.976
 8009SOL    HW124926   4.961   1.368   6.977
 8009SOL    HW224927   5.008   1.215   6.944
 8010SOL     OW24928   2.636   2.300   5.471
 8010SOL    HW124929   2.539   2.318   5.491
 8010SOL    HW224930   2.674   2.377   5.420
 8011SOL     OW24931   3.993   1.968   2.198
 8011SOL    HW124932   4.084   2.005   2.216
 8011SOL    HW224933   4.000   1.870   2.177
 8012SOL     OW24934   0.879   2.463   5.424
 8012SOL    HW124935   0.962   2.519   5.419
 8012SOL    HW224936   0.825   2.489   5.504
 8013SOL     OW24937   2.373   2.666   2.686
 8013SOL    HW124938   2.382   2.660   2.786
 8013SOL    HW224939   2.454   2.629   2.642
 8014SOL     OW24940   1.559   1.224   2.621
 8014SOL    HW124941   1.643   1.199   2.669
 8014SOL    HW224942   1.568   1.316   2.584
 8015SOL     OW24943   2.208   6.931   5.512
 8015SOL    HW124944   2.176   6.961   5.601
 8015SOL    HW224945   2.144   6.864   5.474
 8016SOL     OW24946   4.560   1.459   4.699
 8016SOL    HW124947   4.638   1.497   4.749
 8016SOL    HW224948   4.548   1.363   4.723
 8017SOL     OW24949   6.679   6.950   0.710
 8017SOL    HW124950   6.665   6.981   0.804
 8017SOL    HW224951   6.611   6.880   0.687
 8018SOL     OW24952   4.327   2.274   0.245
 8018SOL    HW124953   4.344   2.219   0.163
 8018SOL    HW224954   4.291   2.363   0.218
 8019SOL     OW24955   2.633   3.137   1.307
 8019SOL    HW124956   2.542   3.180   1.311
 8019SOL    HW224957   2.634   3.070   1.233
 8020SOL     OW24958   0.257   0.134   5.333
 8020SOL    HW124959   0.169   0.088   5.348
 8020SOL    HW224960   0.295   0.106   5.245
 8021SOL     OW24961   1.356   2.504   2.295
 8021SOL    HW124962   1.293   2.485   2.220
 8021SOL    HW224963   1.386   2.600   2.290
 8022SOL     OW24964   4.385   1.482   1.696
 8022SOL    HW124965   4.344   1.536   1.623
 8022SOL    HW224966   4.395   1.539   1.778
 8023SOL     OW24967   4.247   6.323   3.393
 8023SOL    HW124968   4.305   6.400   3.365
 8023SOL    HW224969   4.241   6.320   3.493
 8024SOL     OW24970   2.201   6.899   6.377
 8024SOL    HW124971   2.177   6.929   6.285
 8024SOL    HW224972   2.247   6.974   6.425
 8025SOL     OW24973   1.769   5.031   1.446
 8025SOL    HW124974   1.686   4.990   1.408
 8025SOL    HW224975   1.807   4.970   1.516
 8026SOL     OW24976   0.940   5.927   6.667
 8026SOL    HW124977   0.928   5.909   6.765
 8026SOL    HW224978   0.922   5.844   6.615
 8027SOL     OW24979   3.557   0.071   0.036
 8027SOL    HW124980   3.524   7.003   0.013
 8027SOL    HW224981   3.616   0.104   6.987
 8028SOL     OW24982   2.845   5.582   5.067
 8028SOL    HW124983   2.922   5.574   5.130
 8028SOL    HW224984   2.759   5.585   5.119
 8029SOL     OW24985   6.330   0.187   0.654
 8029SOL    HW124986   6.277   0.193   0.570
 8029SOL    HW224987   6.308   0.264   0.714
 8030SOL     OW24988   0.441   4.064   0.475
 8030SOL    HW124989   0.485   4.125   0.541
 8030SOL    HW224990   0.372   4.008   0.523
 8031SOL     OW24991   6.731   1.214   2.662
 8031SOL    HW124992   6.829   1.224   2.679
 8031SOL    HW224993   6.717   1.156   2.582
 8032SOL     OW24994   5.315   2.816   1.566
 8032SOL    HW124995   5.400   2.765   1.560
 8032SOL    HW224996   5.328   2.897   1.624
 8033SOL     OW24997   4.311   3.745   0.796
 8033SOL    HW124998   4.249   3.739   0.719
 8033SOL    HW224999   4.335   3.653   0.827
 8034SOL     OW25000   5.513   0.524   5.434
 8034SOL    HW125001   5.485   0.618   5.418
 8034SOL    HW225002   5.478   0.465   5.361
 8035SOL     OW25003   5.790   1.845   2.704
 8035SOL    HW125004   5.749   1.914   2.643
 8035SOL    HW225005   5.776   1.872   2.799
 8036SOL     OW25006   6.321   2.595   3.621
 8036SOL    HW125007   6.334   2.638   3.531
 8036SOL    HW225008   6.349   2.499   3.616
 8037SOL     OW25009   1.308   2.335   6.048
 8037SOL    HW125010   1.351   2.251   6.082
 8037SOL    HW225011   1.230   2.312   5.990
 8038SOL     OW25012   0.210   5.481   2.806
 8038SOL    HW125013   0.210   5.527   2.716
 8038SOL    HW225014   0.244   5.545   2.875
 8039SOL     OW25015   1.126   2.319   5.490
 8039SOL    HW125016   1.171   2.386   5.430
 8039SOL    HW225017   1.030   2.311   5.465
 8040SOL     OW25018   2.061   5.909   6.200
 8040SOL    HW125019   2.079   5.989   6.257
 8040SOL    HW225020   2.128   5.838   6.220
 8041SOL     OW25021   3.310   1.407   3.177
 8041SOL    HW125022   3.324   1.328   3.118
 8041SOL    HW225023   3.254   1.475   3.130
 8042SOL     OW25024   3.942   4.361   5.567
 8042SOL    HW125025   3.953   4.379   5.469
 8042SOL    HW225026   3.894   4.274   5.580
 8043SOL     OW25027   5.467   4.993   0.254
 8043SOL    HW125028   5.436   5.010   0.161
 8043SOL    HW225029   5.429   5.062   0.315
 8044SOL     OW25030   3.316   3.918   1.602
 8044SOL    HW125031   3.368   3.834   1.621
 8044SOL    HW225032   3.310   3.932   1.504
 8045SOL     OW25033   0.530   1.290   2.768
 8045SOL    HW125034   0.541   1.363   2.836
 8045SOL    HW225035   0.451   1.310   2.710
 8046SOL     OW25036   0.978   5.330   1.916
 8046SOL    HW125037   1.032   5.252   1.948
 8046SOL    HW225038   0.909   5.354   1.984
 8047SOL     OW25039   3.803   6.755   6.177
 8047SOL    HW125040   3.887   6.731   6.227
 8047SOL    HW225041   3.810   6.723   6.083
 8048SOL     OW25042   3.630   3.189   0.098
 8048SOL    HW125043   3.683   3.163   0.178
 8048SOL    HW225044   3.566   3.115   0.074
 8049SOL     OW25045   1.737   1.177   0.801
 8049SOL    HW125046   1.742   1.184   0.701
 8049SOL    HW225047   1.829   1.167   0.838
 8050SOL     OW25048   1.161   4.485   5.918
 8050SOL    HW125049   1.141   4.419   5.991
 8050SOL    HW225050   1.123   4.451   5.832
 8051SOL     OW25051   3.459   5.658   3.959
 8051SOL    HW125052   3.516   5.735   3.986
 8051SOL    HW225053   3.365   5.673   3.991
 8052SOL     OW25054   2.256   2.832   2.256
 8052SOL    HW125055   2.217   2.821   2.348
 8052SOL    HW225056   2.332   2.768   2.244
 8053SOL     OW25057   2.745   2.735   6.458
 8053SOL    HW125058   2.671   2.711   6.396
 8053SOL    HW225059   2.708   2.780   6.539
 8054SOL     OW25060   5.139   3.751   5.224
 8054SOL    HW125061   5.049   3.745   5.180
 8054SOL    HW225062   5.146   3.839   5.272
 8055SOL     OW25063   6.899   0.327   5.590
 8055SOL    HW125064   6.983   0.344   5.641
 8055SOL    HW225065   6.901   0.379   5.504
 8056SOL     OW25066   2.395   1.170   4.663
 8056SOL    HW125067   2.314   1.163   4.721
 8056SOL    HW225068   2.464   1.226   4.710
 8057SOL     OW25069   2.560   2.392   2.164
 8057SOL    HW125070   2.622   2.384   2.242
 8057SOL    HW225071   2.598   2.343   2.086
 8058SOL     OW25072   3.199   6.858   2.974
 8058SOL    HW125073   3.262   6.836   3.048
 8058SOL    HW225074   3.230   6.814   2.890
 8059SOL     OW25075   2.618   3.158   6.403
 8059SOL    HW125076   2.690   3.139   6.336
 8059SOL    HW225077   2.653   3.223   6.470
 8060SOL     OW25078   6.354   6.939   5.739
 8060SOL    HW125079   6.454   6.944   5.744
 8060SOL    HW225080   6.323   6.967   5.649
 8061SOL     OW25081   0.077   0.975   1.821
 8061SOL    HW125082   0.083   0.942   1.915
 8061SOL    HW225083   0.035   1.066   1.820
 8062SOL     OW25084   4.580   6.001   5.489
 8062SOL    HW125085   4.640   6.064   5.440
 8062SOL    HW225086   4.538   6.048   5.567
 8063SOL     OW25087   3.463   6.079   3.062
 8063SOL    HW125088   3.435   6.023   3.140
 8063SOL    HW225089   3.428   6.040   2.978
 8064SOL     OW25090   5.947   2.058   0.762
 8064SOL    HW125091   5.939   2.030   0.666
 8064SOL    HW225092   5.877   2.013   0.816
 8065SOL     OW25093   3.211   5.657   5.471
 8065SOL    HW125094   3.285   5.605   5.428
 8065SOL    HW225095   3.250   5.724   5.534
 8066SOL     OW25096   0.679   0.024   4.501
 8066SOL    HW125097   0.723   0.068   4.580
 8066SOL    HW225098   0.621   6.973   4.533
 8067SOL     OW25099   4.895   3.389   3.511
 8067SOL    HW125100   4.832   3.312   3.514
 8067SOL    HW225101   4.915   3.419   3.604
 8068SOL     OW25102   6.445   4.060   1.321
 8068SOL    HW125103   6.406   4.068   1.230
 8068SOL    HW225104   6.426   4.144   1.373
 8069SOL     OW25105   2.554   4.539   2.397
 8069SOL    HW125106   2.489   4.543   2.473
 8069SOL    HW225107   2.642   4.506   2.430
 8070SOL     OW25108   5.031   4.955   0.042
 8070SOL    HW125109   4.969   4.958   0.121
 8070SOL    HW225110   4.985   4.908   6.990
 8071SOL     OW25111   2.884   6.777   5.698
 8071SOL    HW125112   2.806   6.801   5.755
 8071SOL    HW225113   2.964   6.830   5.728
 8072SOL     OW25114   1.944   2.517   6.383
 8072SOL    HW125115   1.935   2.616   6.377
 8072SOL    HW225116   2.034   2.495   6.422
 8073SOL     OW25117   3.425   6.996   6.692
 8073SOL    HW125118   3.432   0.059   6.642
 8073SOL    HW225119   3.358   6.937   6.648
 8074SOL     OW25120   1.623   1.445   6.703
 8074SOL    HW125121   1.666   1.413   6.618
 8074SOL    HW225122   1.611   1.368   6.765
 8075SOL     OW25123   0.451   6.612   0.521
 8075SOL    HW125124   0.472   6.629   0.617
 8075SOL    HW225125   0.535   6.583   0.474
 8076SOL     OW25126   6.949   6.500   0.215
 8076SOL    HW125127   0.003   6.441   0.234
 8076SOL    HW225128   6.983   6.589   0.182
 8077SOL     OW25129   4.140   5.323   0.775
 8077SOL    HW125130   4.136   5.422   0.772
 8077SOL    HW225131   4.049   5.285   0.758
 8078SOL     OW25132   0.591   0.568   2.041
 8078SOL    HW125133   0.675   0.532   2.081
 8078SOL    HW225134   0.612   0.626   1.963
 8079SOL     OW25135   1.671   2.240   4.854
 8079SOL    HW125136   1.677   2.254   4.953
 8079SOL    HW225137   1.754   2.192   4.823
 8080SOL     OW25138   0.996   3.588   3.123
 8080SOL    HW125139   0.977   3.684   3.145
 8080SOL    HW225140   1.032   3.582   3.030
 8081SOL     OW25141   6.276   5.799   4.903
 8081SOL    HW125142   6.292   5.851   4.819
 8081SOL    HW225143   6.312   5.706   4.892
 8082SOL     OW25144   3.667   1.929   1.957
 8082SOL    HW125145   3.669   2.019   2.001
 8082SOL    HW225146   3.760   1.902   1.933
 8083SOL     OW25147   5.951   2.508   5.213
 8083SOL    HW125148   6.013   2.522   5.137
 8083SOL    HW225149   5.914   2.415   5.208
 8084SOL     OW25150   2.525   0.548   6.222
 8084SOL    HW125151   2.595   0.532   6.292
 8084SOL    HW225152   2.549   0.629   6.169
 8085SOL     OW25153   0.887   6.158   4.709
 8085SOL    HW125154   0.931   6.212   4.639
 8085SOL    HW225155   0.898   6.202   4.798
 8086SOL     OW25156   0.168   1.336   2.271
 8086SOL    HW125157   0.081   1.308   2.312
 8086SOL    HW225158   0.156   1.423   2.224
 8087SOL     OW25159   1.234   0.752   0.250
 8087SOL    HW125160   1.135   0.760   0.260
 8087SOL    HW225161   1.274   0.844   0.251
 8088SOL     OW25162   5.507   6.768   5.306
 8088SOL    HW125163   5.469   6.798   5.394
 8088SOL    HW225164   5.581   6.702   5.323
 8089SOL     OW25165   5.484   2.399   5.949
 8089SOL    HW125166   5.577   2.432   5.963
 8089SOL    HW225167   5.472   2.312   5.997
 8090SOL     OW25168   4.399   1.763   5.924
 8090SOL    HW125169   4.436   1.821   5.996
 8090SOL    HW225170   4.317   1.716   5.957
 8091SOL     OW25171   1.398   4.544   4.726
 8091SOL    HW125172   1.310   4.518   4.685
 8091SOL    HW225173   1.407   4.644   4.724
 8092SOL     OW25174   5.032   2.336   5.928
 8092SOL    HW125175   5.042   2.396   5.849
 8092SOL    HW225176   5.078   2.376   6.007
 8093SOL     OW25177   3.750   6.742   2.382
 8093SOL    HW125178   3.832   6.760   2.328
 8093SOL    HW225179   3.674   6.721   2.321
 8094SOL     OW25180   1.312   3.913   3.685
 8094SOL    HW125181   1.239   3.847   3.671
 8094SOL    HW225182   1.325   3.967   3.602
 8095SOL     OW25183   1.246   3.924   5.945
 8095SOL    HW125184   1.258   4.017   5.909
 8095SOL    HW225185   1.200   3.867   5.877
 8096SOL     OW25186   0.997   6.500   2.380
 8096SOL    HW125187   1.004   6.596   2.351
 8096SOL    HW225188   0.981   6.442   2.301
 8097SOL     OW25189   3.480   5.441   5.110
 8097SOL    HW125190   3.472   5.360   5.051
 8097SOL    HW225191   3.430   5.517   5.068
 8098SOL     OW25192   0.929   5.523   4.590
 8098SOL    HW125193   0.855   5.540   4.655
 8098SOL    HW225194   0.894   5.471   4.512
 8099SOL     OW25195   2.913   5.690   4.399
 8099SOL    HW125196   2.994   5.698   4.458
 8099SOL    HW225197   2.930   5.738   4.314
 8100SOL     OW25198   0.186   0.584   6.046
 8100SOL    HW125199   0.091   0.561   6.028
 8100SOL    HW225200   0.245   0.507   6.020
 8101SOL     OW25201   2.585   6.132   1.769
 8101SOL    HW125202   2.546   6.132   1.861
 8101SOL    HW225203   2.672   6.083   1.769
 8102SOL     OW25204   1.140   2.740   4.331
 8102SOL    HW125205   1.143   2.705   4.238
 8102SOL    HW225206   1.045   2.749   4.361
 8103SOL     OW25207   3.165   1.366   2.052
 8103SOL    HW125208   3.238   1.386   2.117
 8103SOL    HW225209   3.140   1.450   2.003
 8104SOL     OW25210   2.599   6.416   6.797
 8104SOL    HW125211   2.579   6.482   6.724
 8104SOL    HW225212   2.542   6.335   6.784
 8105SOL     OW25213   6.679   1.580   2.310
 8105SOL    HW125214   6.758   1.529   2.345
 8105SOL    HW225215   6.669   1.665   2.362
 8106SOL     OW25216   2.083   5.817   4.691
 8106SOL    HW125217   1.999   5.870   4.680
 8106SOL    HW225218   2.126   5.840   4.779
 8107SOL     OW25219   1.807   5.350   5.020
 8107SOL    HW125220   1.763   5.403   5.092
 8107SOL    HW225221   1.865   5.279   5.060
 8108SOL     OW25222   0.137   1.150   6.634
 8108SOL    HW125223   0.133   1.088   6.712
 8108SOL    HW225224   0.142   1.244   6.666
 8109SOL     OW25225   6.490   3.272   7.011
 8109SOL    HW125226   6.546   3.258   6.929
 8109SOL    HW225227   6.549   3.271   0.068
 8110SOL     OW25228   4.396   5.281   0.659
 8110SOL    HW125229   4.470   5.303   0.723
 8110SOL    HW225230   4.309   5.314   0.696
 8111SOL     OW25231   5.813   1.126   3.019
 8111SOL    HW125232   5.766   1.116   3.106
 8111SOL    HW225233   5.750   1.107   2.944
 8112SOL     OW25234   0.849   2.949   5.421
 8112SOL    HW125235   0.816   2.955   5.516
 8112SOL    HW225236   0.876   2.855   5.401
 8113SOL     OW25237   5.948   2.828   0.852
 8113SOL    HW125238   5.992   2.738   0.853
 8113SOL    HW225239   5.951   2.865   0.759
 8114SOL     OW25240   2.071   4.176   1.563
 8114SOL    HW125241   2.000   4.245   1.576
 8114SOL    HW225242   2.031   4.094   1.523
 8115SOL     OW25243   2.587   0.205   6.952
 8115SOL    HW125244   2.512   0.242   6.897
 8115SOL    HW225245   2.638   0.137   6.898
 8116SOL     OW25246   3.222   4.895   1.271
 8116SOL    HW125247   3.196   4.802   1.245
 8116SOL    HW225248   3.253   4.944   1.190
 8117SOL     OW25249   2.708   0.182   3.146
 8117SOL    HW125250   2.783   0.242   3.119
 8117SOL    HW225251   2.744   0.107   3.201
 8118SOL     OW25252   6.217   3.344   0.444
 8118SOL    HW125253   6.250   3.405   0.516
 8118SOL    HW225254   6.294   3.292   0.406
 8119SOL     OW25255   6.152   5.485   6.108
 8119SOL    HW125256   6.109   5.510   6.195
 8119SOL    HW225257   6.245   5.451   6.126
 8120SOL     OW25258   2.137   6.139   1.089
 8120SOL    HW125259   2.186   6.226   1.087
 8120SOL    HW225260   2.081   6.131   1.006
 8121SOL     OW25261   1.219   3.369   3.043
 8121SOL    HW125262   1.167   3.284   3.030
 8121SOL    HW225263   1.193   3.435   2.974
 8122SOL     OW25264   0.804   4.645   2.564
 8122SOL    HW125265   0.758   4.587   2.496
 8122SOL    HW225266   0.820   4.592   2.647
 8123SOL     OW25267   0.709   2.261   6.177
 8123SOL    HW125268   0.750   2.351   6.187
 8123SOL    HW225269   0.613   2.265   6.204
 8124SOL     OW25270   5.725   4.831   3.939
 8124SOL    HW125271   5.764   4.917   3.972
 8124SOL    HW225272   5.632   4.847   3.906
 8125SOL     OW25273   1.039   7.013   2.713
 8125SOL    HW125274   0.955   6.966   2.686
 8125SOL    HW225275   1.018   0.084   2.736
 8126SOL     OW25276   3.862   5.155   4.259
 8126SOL    HW125277   3.767   5.185   4.266
 8126SOL    HW225278   3.880   5.120   4.167
 8127SOL     OW25279   2.936   2.796   0.616
 8127SOL    HW125280   3.004   2.731   0.582
 8127SOL    HW225281   2.978   2.886   0.626
 8128SOL     OW25282   3.188   2.890   2.038
 8128SOL    HW125283   3.250   2.923   2.108
 8128SOL    HW225284   3.130   2.817   2.075
 8129SOL     OW25285   1.631   2.807   0.456
 8129SOL    HW125286   1.585   2.812   0.367
 8129SOL    HW225287   1.701   2.736   0.454
 8130SOL     OW25288   1.495   5.739   6.490
 8130SOL    HW125289   1.476   5.645   6.463
 8130SOL    HW225290   1.410   5.791   6.494
 8131SOL     OW25291   2.132   3.454   1.164
 8131SOL    HW125292   2.035   3.433   1.153
 8131SOL    HW225293   2.188   3.377   1.135
 8132SOL     OW25294   6.711   6.946   4.369
 8132SOL    HW125295   6.768   7.006   4.425
 8132SOL    HW225296   6.768   6.899   4.301
 8133SOL     OW25297   3.285   5.022   1.034
 8133SOL    HW125298   3.321   5.026   0.941
 8133SOL    HW225299   3.310   5.105   1.083
 8134SOL     OW25300   6.133   0.461   5.105
 8134SOL    HW125301   6.186   0.461   5.020
 8134SOL    HW225302   6.178   0.402   5.172
 8135SOL     OW25303   2.556   6.781   1.703
 8135SOL    HW125304   2.640   6.783   1.758
 8135SOL    HW225305   2.569   6.838   1.622
 8136SOL     OW25306   4.706   4.812   2.538
 8136SOL    HW125307   4.681   4.909   2.537
 8136SOL    HW225308   4.705   4.777   2.444
 8137SOL     OW25309   3.940   1.707   4.781
 8137SOL    HW125310   4.027   1.735   4.739
 8137SOL    HW225311   3.924   1.610   4.764
 8138SOL     OW25312   5.582   0.721   1.878
 8138SOL    HW125313   5.553   0.665   1.800
 8138SOL    HW225314   5.619   0.807   1.844
 8139SOL     OW25315   1.353   1.439   2.725
 8139SOL    HW125316   1.267   1.396   2.698
 8139SOL    HW225317   1.418   1.432   2.649
 8140SOL     OW25318   3.946   1.441   3.966
 8140SOL    HW125319   4.029   1.403   4.008
 8140SOL    HW225320   3.871   1.439   4.033
 8141SOL     OW25321   4.229   5.479   5.602
 8141SOL    HW125322   4.136   5.444   5.594
 8141SOL    HW225323   4.227   5.578   5.611
 8142SOL     OW25324   5.734   4.973   0.250
 8142SOL    HW125325   5.780   4.996   0.335
 8142SOL    HW225326   5.639   5.003   0.254
 8143SOL     OW25327   5.566   4.239   5.880
 8143SOL    HW125328   5.507   4.253   5.800
 8143SOL    HW225329   5.644   4.301   5.876
 8144SOL     OW25330   5.448   6.727   6.922
 8144SOL    HW125331   5.411   6.666   6.852
 8144SOL    HW225332   5.407   6.704   7.011
 8145SOL     OW25333   6.269   5.560   2.248
 8145SOL    HW125334   6.248   5.657   2.236
 8145SOL    HW225335   6.317   5.546   2.335
 8146SOL     OW25336   3.554   0.941   5.683
 8146SOL    HW125337   3.502   1.014   5.639
 8146SOL    HW225338   3.531   0.938   5.780
 8147SOL     OW25339   5.206   1.923   4.463
 8147SOL    HW125340   5.130   1.969   4.417
 8147SOL    HW225341   5.281   1.909   4.398
 8148SOL     OW25342   5.517   2.533   3.175
 8148SOL    HW125343   5.428   2.578   3.162
 8148SOL    HW225344   5.573   2.545   3.093
 8149SOL     OW25345   4.533   4.993   3.323
 8149SOL    HW125346   4.473   4.922   3.286
 8149SOL    HW225347   4.512   5.007   3.420
 8150SOL     OW25348   1.205   5.246   6.731
 8150SOL    HW125349   1.188   5.274   6.637
 8150SOL    HW225350   1.137   5.178   6.759
 8151SOL     OW25351   1.085   2.148   5.236
 8151SOL    HW125352   1.086   2.061   5.286
 8151SOL    HW225353   1.167   2.154   5.179
 8152SOL     OW25354   1.995   0.597   3.222
 8152SOL    HW125355   1.913   0.547   3.250
 8152SOL    HW225356   2.010   0.674   3.283
 8153SOL     OW25357   2.601   6.405   0.562
 8153SOL    HW125358   2.638   6.457   0.638
 8153SOL    HW225359   2.522   6.453   0.523
 8154SOL     OW25360   1.821   6.248   3.523
 8154SOL    HW125361   1.828   6.346   3.545
 8154SOL    HW225362   1.786   6.199   3.603
 8155SOL     OW25363   3.120   3.512   3.017
 8155SOL    HW125364   3.041   3.569   2.995
 8155SOL    HW225365   3.148   3.461   2.936
 8156SOL     OW25366   5.649   0.665   5.062
 8156SOL    HW125367   5.667   0.746   5.118
 8156SOL    HW225368   5.726   0.601   5.071
 8157SOL     OW25369   5.738   4.277   6.777
 8157SOL    HW125370   5.687   4.338   6.716
 8157SOL    HW225371   5.810   4.231   6.725
 8158SOL     OW25372   1.531   5.886   1.739
 8158SOL    HW125373   1.548   5.828   1.819
 8158SOL    HW225374   1.439   5.868   1.704
 8159SOL     OW25375   2.246   5.493   1.895
 8159SOL    HW125376   2.150   5.511   1.873
 8159SOL    HW225377   2.302   5.571   1.866
 8160SOL     OW25378   4.065   2.115   1.582
 8160SOL    HW125379   4.114   2.195   1.617
 8160SOL    HW225380   3.986   2.097   1.640
 8161SOL     OW25381   4.704   1.345   0.432
 8161SOL    HW125382   4.705   1.303   0.341
 8161SOL    HW225383   4.675   1.278   0.500
 8162SOL     OW25384   5.425   6.836   1.219
 8162SOL    HW125385   5.382   6.784   1.292
 8162SOL    HW225386   5.412   6.934   1.235
 8163SOL     OW25387   2.311   4.351   5.038
 8163SOL    HW125388   2.385   4.396   5.088
 8163SOL    HW225389   2.332   4.254   5.027
 8164SOL     OW25390   4.179   2.347   1.689
 8164SOL    HW125391   4.155   2.368   1.784
 8164SOL    HW225392   4.137   2.414   1.628
 8165SOL     OW25393   2.199   4.184   1.099
 8165SOL    HW125394   2.117   4.238   1.082
 8165SOL    HW225395   2.228   4.196   1.194
 8166SOL     OW25396   2.597   0.214   1.379
 8166SOL    HW125397   2.636   0.161   1.454
 8166SOL    HW225398   2.655   0.203   1.297
 8167SOL     OW25399   5.745   2.383   3.779
 8167SOL    HW125400   5.724   2.349   3.688
 8167SOL    HW225401   5.836   2.353   3.806
 8168SOL     OW25402   3.604   1.052   2.847
 8168SOL    HW125403   3.700   1.049   2.874
 8168SOL    HW225404   3.580   0.967   2.799
 8169SOL     OW25405   4.020   3.545   6.505
 8169SOL    HW125406   4.025   3.502   6.414
 8169SOL    HW225407   3.936   3.517   6.551
 8170SOL     OW25408   1.028   5.977   3.989
 8170SOL    HW125409   1.094   5.920   3.941
 8170SOL    HW225410   0.935   5.956   3.958
 8171SOL     OW25411   1.105   2.269   5.868
 8171SOL    HW125412   1.078   2.181   5.831
 8171SOL    HW225413   1.108   2.337   5.795
 8172SOL     OW25414   0.463   6.389   0.848
 8172SOL    HW125415   0.419   6.478   0.854
 8172SOL    HW225416   0.524   6.387   0.768
 8173SOL     OW25417   4.007   2.548   0.190
 8173SOL    HW125418   4.001   2.622   0.124
 8173SOL    HW225419   4.002   2.585   0.283
 8174SOL     OW25420   5.626   0.731   2.155
 8174SOL    HW125421   5.604   0.823   2.186
 8174SOL    HW225422   5.608   0.723   2.057
 8175SOL     OW25423   0.587   2.549   6.283
 8175SOL    HW125424   0.540   2.632   6.315
 8175SOL    HW225425   0.682   2.571   6.263
 8176SOL     OW25426   2.845   5.602   2.451
 8176SOL    HW125427   2.888   5.554   2.527
 8176SOL    HW225428   2.746   5.592   2.456
 8177SOL     OW25429   6.993   6.449   4.933
 8177SOL    HW125430   6.900   6.416   4.944
 8177SOL    HW225431   0.021   6.436   5.018
 8178SOL     OW25432   1.628   6.366   6.707
 8178SOL    HW125433   1.726   6.345   6.700
 8178SOL    HW225434   1.606   6.391   6.801
 8179SOL     OW25435   3.621   2.474   0.349
 8179SOL    HW125436   3.687   2.400   0.362
 8179SOL    HW225437   3.654   2.557   0.392
 8180SOL     OW25438   6.722   6.432   4.973
 8180SOL    HW125439   6.696   6.350   5.023
 8180SOL    HW225440   6.642   6.470   4.927
 8181SOL     OW25441   2.751   2.389   3.315
 8181SOL    HW125442   2.836   2.336   3.316
 8181SOL    HW225443   2.723   2.407   3.410
 8182SOL     OW25444   4.193   2.131   5.273
 8182SOL    HW125445   4.194   2.210   5.335
 8182SOL    HW225446   4.263   2.066   5.300
 8183SOL     OW25447   1.733   3.516   4.563
 8183SOL    HW125448   1.640   3.542   4.539
 8183SOL    HW225449   1.741   3.416   4.562
 8184SOL     OW25450   6.720   6.685   5.692
 8184SOL    HW125451   6.758   6.645   5.608
 8184SOL    HW225452   6.643   6.630   5.722
 8185SOL     OW25453   2.998   1.143   2.331
 8185SOL    HW125454   2.999   1.114   2.426
 8185SOL    HW225455   3.046   1.076   2.274
 8186SOL     OW25456   3.418   5.846   6.090
 8186SOL    HW125457   3.380   5.761   6.127
 8186SOL    HW225458   3.464   5.827   6.003
 8187SOL     OW25459   2.035   1.651   5.050
 8187SOL    HW125460   1.960   1.603   5.006
 8187SOL    HW225461   2.117   1.593   5.050
 8188SOL     OW25462   6.151   2.361   2.971
 8188SOL    HW125463   6.177   2.441   2.917
 8188SOL    HW225464   6.137   2.388   3.066
 8189SOL     OW25465   6.570   4.225   2.677
 8189SOL    HW125466   6.615   4.290   2.739
 8189SOL    HW225467   6.482   4.198   2.716
 8190SOL     OW25468   5.013   3.696   3.534
 8190SOL    HW125469   5.030   3.747   3.619
 8190SOL    HW225470   4.954   3.750   3.475
 8191SOL     OW25471   0.879   4.981   4.135
 8191SOL    HW125472   0.836   4.894   4.160
 8191SOL    HW225473   0.930   5.016   4.213
 8192SOL     OW25474   2.098   4.719   1.762
 8192SOL    HW125475   2.102   4.771   1.676
 8192SOL    HW225476   2.062   4.778   1.835
 8193SOL     OW25477   3.852   6.766   5.496
 8193SOL    HW125478   3.848   6.711   5.580
 8193SOL    HW225479   3.939   6.815   5.492
 8194SOL     OW25480   0.122   0.978   6.864
 8194SOL    HW125481   0.115   1.066   6.910
 8194SOL    HW225482   0.065   0.911   6.912
 8195SOL     OW25483   6.770   6.539   0.404
 8195SOL    HW125484   6.782   6.611   0.473
 8195SOL    HW225485   6.849   6.538   0.342
 8196SOL     OW25486   3.136   6.639   6.378
 8196SOL    HW125487   3.227   6.606   6.352
 8196SOL    HW225488   3.092   6.682   6.299
 8197SOL     OW25489   0.679   0.443   6.207
 8197SOL    HW125490   0.629   0.364   6.242
 8197SOL    HW225491   0.642   0.471   6.119
 8198SOL     OW25492   2.985   6.678   3.311
 8198SOL    HW125493   2.927   6.708   3.236
 8198SOL    HW225494   3.017   6.585   3.293
 8199SOL     OW25495   6.420   3.692   0.440
 8199SOL    HW125496   6.383   3.629   0.509
 8199SOL    HW225497   6.363   3.773   0.435
 8200SOL     OW25498   4.994   4.629   0.501
 8200SOL    HW125499   5.029   4.570   0.428
 8200SOL    HW225500   4.913   4.588   0.541
 8201SOL     OW25501   6.141   0.314   3.147
 8201SOL    HW125502   6.059   0.315   3.205
 8201SOL    HW225503   6.114   0.320   3.051
 8202SOL     OW25504   1.442   3.514   3.659
 8202SOL    HW125505   1.361   3.523   3.718
 8202SOL    HW225506   1.468   3.604   3.626
 8203SOL     OW25507   5.724   3.304   1.638
 8203SOL    HW125508   5.774   3.234   1.587
 8203SOL    HW225509   5.654   3.344   1.579
 8204SOL     OW25510   3.400   0.032   1.867
 8204SOL    HW125511   3.372   0.120   1.905
 8204SOL    HW225512   3.381   6.983   1.932
 8205SOL     OW25513   5.764   5.369   2.004
 8205SOL    HW125514   5.835   5.394   2.070
 8205SOL    HW225515   5.794   5.394   1.912
 8206SOL     OW25516   4.658   2.115   4.520
 8206SOL    HW125517   4.659   2.214   4.526
 8206SOL    HW225518   4.613   2.086   4.436
 8207SOL     OW25519   2.493   6.164   6.750
 8207SOL    HW125520   2.406   6.165   6.702
 8207SOL    HW225521   2.509   6.073   6.789
 8208SOL     OW25522   1.468   4.493   1.173
 8208SOL    HW125523   1.452   4.526   1.080
 8208SOL    HW225524   1.422   4.405   1.185
 8209SOL     OW25525   0.367   0.035   5.091
 8209SOL    HW125526   0.269   0.053   5.077
 8209SOL    HW225527   0.419   0.068   5.012
 8210SOL     OW25528   3.003   1.800   6.566
 8210SOL    HW125529   2.961   1.869   6.508
 8210SOL    HW225530   2.942   1.780   6.643
 8211SOL     OW25531   3.221   3.113   4.406
 8211SOL    HW125532   3.317   3.135   4.423
 8211SOL    HW225533   3.164   3.194   4.423
 8212SOL     OW25534   3.208   0.393   1.569
 8212SOL    HW125535   3.113   0.366   1.554
 8212SOL    HW225536   3.265   0.355   1.495
 8213SOL     OW25537   4.748   4.348   1.838
 8213SOL    HW125538   4.713   4.436   1.809
 8213SOL    HW225539   4.680   4.301   1.894
 8214SOL     OW25540   4.463   6.099   4.321
 8214SOL    HW125541   4.563   6.103   4.331
 8214SOL    HW225542   4.424   6.054   4.401
 8215SOL     OW25543   4.344   6.840   0.542
 8215SOL    HW125544   4.403   6.778   0.490
 8215SOL    HW225545   4.319   6.918   0.484
 8216SOL     OW25546   5.751   4.843   1.402
 8216SOL    HW125547   5.849   4.838   1.421
 8216SOL    HW225548   5.711   4.752   1.405
 8217SOL     OW25549   2.496   6.547   3.683
 8217SOL    HW125550   2.410   6.584   3.717
 8217SOL    HW225551   2.487   6.448   3.672
 8218SOL     OW25552   2.673   0.022   5.096
 8218SOL    HW125553   2.641   0.086   5.165
 8218SOL    HW225554   2.608   0.020   5.020
 8219SOL     OW25555   3.765   3.972   1.046
 8219SOL    HW125556   3.814   3.911   0.984
 8219SOL    HW225557   3.725   4.048   0.994
 8220SOL     OW25558   3.760   3.295   4.343
 8220SOL    HW125559   3.789   3.364   4.277
 8220SOL    HW225560   3.772   3.330   4.436
 8221SOL     OW25561   5.262   3.527   3.192
 8221SOL    HW125562   5.172   3.495   3.220
 8221SOL    HW225563   5.299   3.467   3.122
 8222SOL     OW25564   6.353   3.518   0.621
 8222SOL    HW125565   6.295   3.526   0.702
 8222SOL    HW225566   6.448   3.508   0.649
 8223SOL     OW25567   0.807   5.809   5.625
 8223SOL    HW125568   0.884   5.790   5.685
 8223SOL    HW225569   0.736   5.741   5.638
 8224SOL     OW25570   5.502   2.018   0.497
 8224SOL    HW125571   5.590   1.987   0.532
 8224SOL    HW225572   5.490   1.983   0.403
 8225SOL     OW25573   5.121   1.336   0.486
 8225SOL    HW125574   5.194   1.365   0.424
 8225SOL    HW225575   5.044   1.400   0.481
 8226SOL     OW25576   4.084   0.402   0.569
 8226SOL    HW125577   4.029   0.459   0.631
 8226SOL    HW225578   4.024   0.338   0.521
 8227SOL     OW25579   4.868   2.398   2.876
 8227SOL    HW125580   4.786   2.343   2.890
 8227SOL    HW225581   4.866   2.439   2.785
 8228SOL     OW25582   2.207   0.488   4.550
 8228SOL    HW125583   2.153   0.543   4.486
 8228SOL    HW225584   2.230   0.543   4.630
 8229SOL     OW25585   4.387   4.114   0.563
 8229SOL    HW125586   4.417   4.210   0.564
 8229SOL    HW225587   4.353   4.090   0.654
 8230SOL     OW25588   5.865   0.285   6.312
 8230SOL    HW125589   5.792   0.337   6.267
 8230SOL    HW225590   5.915   0.344   6.375
 8231SOL     OW25591   2.778   1.809   2.527
 8231SOL    HW125592   2.783   1.841   2.432
 8231SOL    HW225593   2.857   1.751   2.546
 8232SOL     OW25594   3.787   5.569   2.844
 8232SOL    HW125595   3.725   5.544   2.770
 8232SOL    HW225596   3.856   5.497   2.856
 8233SOL     OW25597   0.576   1.010   6.169
 8233SOL    HW125598   0.560   0.961   6.255
 8233SOL    HW225599   0.548   1.106   6.181
 8234SOL     OW25600   1.053   2.298   0.920
 8234SOL    HW125601   1.092   2.207   0.936
 8234SOL    HW225602   1.126   2.366   0.922
 8235SOL     OW25603   1.104   6.092   1.469
 8235SOL    HW125604   1.022   6.145   1.488
 8235SOL    HW225605   1.171   6.108   1.542
 8236SOL     OW25606   0.317   6.193   1.278
 8236SOL    HW125607   0.330   6.288   1.250
 8236SOL    HW225608   0.292   6.138   1.198
 8237SOL     OW25609   3.859   5.199   0.516
 8237SOL    HW125610   3.760   5.197   0.530
 8237SOL    HW225611   3.879   5.216   0.419
 8238SOL     OW25612   1.027   4.012   0.442
 8238SOL    HW125613   0.937   4.035   0.478
 8238SOL    HW225614   1.053   4.077   0.370
 8239SOL     OW25615   1.675   1.236   5.113
 8239SOL    HW125616   1.684   1.227   5.014
 8239SOL    HW225617   1.685   1.332   5.138
 8240SOL     OW25618   3.242   3.544   4.859
 8240SOL    HW125619   3.168   3.486   4.892
 8240SOL    HW225620   3.238   3.633   4.906
 8241SOL     OW25621   1.722   4.149   6.152
 8241SOL    HW125622   1.785   4.074   6.170
 8241SOL    HW225623   1.751   4.199   6.070
 8242SOL     OW25624   0.614   3.013   3.105
 8242SOL    HW125625   0.630   3.094   3.162
 8242SOL    HW225626   0.573   2.941   3.160
 8243SOL     OW25627   0.496   5.857   4.401
 8243SOL    HW125628   0.413   5.907   4.377
 8243SOL    HW225629   0.518   5.873   4.497
 8244SOL     OW25630   0.565   1.105   4.595
 8244SOL    HW125631   0.504   1.049   4.539
 8244SOL    HW225632   0.635   1.046   4.636
 8245SOL     OW25633   5.181   1.889   3.159
 8245SOL    HW125634   5.149   1.902   3.252
 8245SOL    HW225635   5.166   1.972   3.106
 8246SOL     OW25636   2.034   5.130   6.968
 8246SOL    HW125637   2.016   5.122   6.870
 8246SOL    HW225638   2.012   5.222   6.999
 8247SOL     OW25639   2.947   5.105   3.093
 8247SOL    HW125640   2.988   5.097   3.002
 8247SOL    HW225641   2.871   5.040   3.100
 8248SOL     OW25642   6.751   5.053   3.005
 8248SOL    HW125643   6.745   4.975   3.068
 8248SOL    HW225644   6.713   5.134   3.048
 8249SOL     OW25645   3.323   1.599   6.382
 8249SOL    HW125646   3.346   1.542   6.461
 8249SOL    HW225647   3.352   1.554   6.298
 8250SOL     OW25648   1.282   1.448   0.127
 8250SOL    HW125649   1.334   1.420   0.207
 8250SOL    HW225650   1.342   1.496   0.063
 8251SOL     OW25651   0.721   2.156   4.601
 8251SOL    HW125652   0.769   2.128   4.518
 8251SOL    HW225653   0.647   2.219   4.577
 8252SOL     OW25654   1.280   2.012   6.220
 8252SOL    HW125655   1.269   2.035   6.123
 8252SOL    HW225656   1.377   2.014   6.244
 8253SOL     OW25657   4.442   6.020   0.325
 8253SOL    HW125658   4.448   5.927   0.361
 8253SOL    HW225659   4.534   6.059   0.320
 8254SOL     OW25660   5.223   4.582   6.460
 8254SOL    HW125661   5.138   4.612   6.415
 8254SOL    HW225662   5.287   4.658   6.464
 8255SOL     OW25663   1.320   6.945   6.397
 8255SOL    HW125664   1.368   6.926   6.311
 8255SOL    HW225665   1.320   0.020   6.413
 8256SOL     OW25666   1.081   5.118   4.599
 8256SOL    HW125667   1.050   5.057   4.672
 8256SOL    HW225668   1.024   5.105   4.518
 8257SOL     OW25669   5.258   3.769   3.087
 8257SOL    HW125670   5.238   3.771   2.989
 8257SOL    HW225671   5.253   3.675   3.120
 8258SOL     OW25672   6.887   3.463   1.907
 8258SOL    HW125673   6.926   3.424   1.991
 8258SOL    HW225674   6.788   3.450   1.907
 8259SOL     OW25675   5.362   1.498   4.420
 8259SOL    HW125676   5.274   1.535   4.392
 8259SOL    HW225677   5.410   1.565   4.478
 8260SOL     OW25678   4.311   1.406   1.368
 8260SOL    HW125679   4.407   1.429   1.387
 8260SOL    HW225680   4.279   1.462   1.292
 8261SOL     OW25681   5.811   0.705   2.346
 8261SOL    HW125682   5.753   0.728   2.424
 8261SOL    HW225683   5.765   0.733   2.261
 8262SOL     OW25684   5.715   3.969   1.559
 8262SOL    HW125685   5.702   3.975   1.658
 8262SOL    HW225686   5.700   3.875   1.529
 8263SOL     OW25687   6.583   2.445   5.834
 8263SOL    HW125688   6.550   2.369   5.889
 8263SOL    HW225689   6.642   2.504   5.891
 8264SOL     OW25690   2.977   0.300   3.087
 8264SOL    HW125691   3.046   0.235   3.053
 8264SOL    HW225692   3.011   0.346   3.169
 8265SOL     OW25693   5.193   6.993   0.193
 8265SOL    HW125694   5.190   7.008   0.292
 8265SOL    HW225695   5.278   6.946   0.170
 8266SOL     OW25696   2.322   0.881   3.637
 8266SOL    HW125697   2.312   0.921   3.546
 8266SOL    HW225698   2.238   0.896   3.690
 8267SOL     OW25699   1.756   4.158   2.643
 8267SOL    HW125700   1.798   4.068   2.643
 8267SOL    HW225701   1.661   4.150   2.676
 8268SOL     OW25702   3.891   5.204   6.476
 8268SOL    HW125703   3.830   5.283   6.483
 8268SOL    HW225704   3.890   5.154   6.563
 8269SOL     OW25705   6.047   2.777   3.871
 8269SOL    HW125706   6.113   2.796   3.798
 8269SOL    HW225707   6.077   2.697   3.923
 8270SOL     OW25708   3.657   6.855   6.825
 8270SOL    HW125709   3.570   6.884   6.785
 8270SOL    HW225710   3.641   6.780   6.889
 8271SOL     OW25711   3.651   6.119   6.585
 8271SOL    HW125712   3.641   6.058   6.663
 8271SOL    HW225713   3.575   6.185   6.584
 8272SOL     OW25714   0.618   0.300   1.682
 8272SOL    HW125715   0.539   0.298   1.743
 8272SOL    HW225716   0.701   0.278   1.734
 8273SOL     OW25717   3.782   0.563   6.539
 8273SOL    HW125718   3.876   0.584   6.510
 8273SOL    HW225719   3.777   0.467   6.566
 8274SOL     OW25720   5.363   6.453   5.462
 8274SOL    HW125721   5.396   6.459   5.368
 8274SOL    HW225722   5.409   6.376   5.508
 8275SOL     OW25723   5.522   0.326   3.320
 8275SOL    HW125724   5.556   0.252   3.377
 8275SOL    HW225725   5.569   0.411   3.343
 8276SOL     OW25726   0.363   1.896   6.449
 8276SOL    HW125727   0.310   1.979   6.466
 8276SOL    HW225728   0.440   1.892   6.513
 8277SOL     OW25729   1.111   6.495   6.719
 8277SOL    HW125730   1.077   6.442   6.797
 8277SOL    HW225731   1.038   6.555   6.686
 8278SOL     OW25732   3.095   1.231   7.000
 8278SOL    HW125733   3.156   1.302   6.965
 8278SOL    HW225734   3.000   1.258   6.986
 8279SOL     OW25735   4.236   5.299   4.943
 8279SOL    HW125736   4.171   5.229   4.913
 8279SOL    HW225737   4.323   5.286   4.896
 8280SOL     OW25738   5.481   3.570   0.292
 8280SOL    HW125739   5.433   3.657   0.280
 8280SOL    HW225740   5.580   3.586   0.284
 8281SOL     OW25741   2.780   5.283   0.326
 8281SOL    HW125742   2.840   5.323   0.395
 8281SOL    HW225743   2.775   5.344   0.247
 8282SOL     OW25744   3.196   2.662   0.689
 8282SOL    HW125745   3.282   2.621   0.720
 8282SOL    HW225746   3.172   2.738   0.750
 8283SOL     OW25747   0.066   5.573   3.574
 8283SOL    HW125748   0.115   5.651   3.612
 8283SOL    HW225749   7.010   5.605   3.523
 8284SOL     OW25750   2.973   1.847   1.926
 8284SOL    HW125751   2.925   1.779   1.870
 8284SOL    HW225752   2.916   1.873   2.004
 8285SOL     OW25753   2.976   4.142   6.310
 8285SOL    HW125754   2.926   4.210   6.256
 8285SOL    HW225755   3.073   4.144   6.286
 8286SOL     OW25756   5.633   1.886   5.561
 8286SOL    HW125757   5.562   1.824   5.527
 8286SOL    HW225758   5.609   1.980   5.537
 8287SOL     OW25759   2.096   0.158   3.867
 8287SOL    HW125760   2.164   0.116   3.927
 8287SOL    HW225761   2.048   0.087   3.817
 8288SOL     OW25762   2.775   0.547   3.181
 8288SOL    HW125763   2.784   0.567   3.084
 8288SOL    HW225764   2.845   0.597   3.232
 8289SOL     OW25765   6.797   0.974   5.775
 8289SOL    HW125766   6.860   0.900   5.750
 8289SOL    HW225767   6.842   1.034   5.842
 8290SOL     OW25768   4.547   2.773   1.752
 8290SOL    HW125769   4.546   2.863   1.796
 8290SOL    HW225770   4.605   2.777   1.671
 8291SOL     OW25771   3.887   5.486   6.749
 8291SOL    HW125772   3.860   5.404   6.799
 8291SOL    HW225773   3.820   5.558   6.764
 8292SOL     OW25774   0.675   3.295   4.612
 8292SOL    HW125775   0.672   3.364   4.540
 8292SOL    HW225776   0.634   3.331   4.695
 8293SOL     OW25777   3.001   5.050   3.371
 8293SOL    HW125778   3.091   5.080   3.404
 8293SOL    HW225779   2.983   5.091   3.282
 8294SOL     OW25780   4.617   3.423   5.585
 8294SOL    HW125781   4.605   3.396   5.681
 8294SOL    HW225782   4.649   3.517   5.580
 8295SOL     OW25783   5.035   4.328   2.534
 8295SOL    HW125784   5.047   4.355   2.439
 8295SOL    HW225785   4.965   4.384   2.577
 8296SOL     OW25786   4.039   6.173   1.958
 8296SOL    HW125787   4.099   6.232   1.903
 8296SOL    HW225788   3.955   6.223   1.979
 8297SOL     OW25789   5.769   4.493   3.299
 8297SOL    HW125790   5.699   4.440   3.251
 8297SOL    HW225791   5.724   4.558   3.361
 8298SOL     OW25792   6.609   6.899   6.684
 8298SOL    HW125793   6.608   6.997   6.662
 8298SOL    HW225794   6.569   6.848   6.608
 8299SOL     OW25795   0.486   3.635   0.981
 8299SOL    HW125796   0.406   3.579   1.000
 8299SOL    HW225797   0.485   3.716   1.041
 8300SOL     OW25798   5.570   4.830   2.809
 8300SOL    HW125799   5.496   4.796   2.751
 8300SOL    HW225800   5.533   4.857   2.898
 8301SOL     OW25801   4.884   6.730   0.189
 8301SOL    HW125802   4.812   6.668   0.156
 8301SOL    HW225803   4.850   6.824   0.187
 8302SOL     OW25804   3.471   6.760   5.313
 8302SOL    HW125805   3.553   6.813   5.292
 8302SOL    HW225806   3.393   6.822   5.320
 8303SOL     OW25807   0.257   5.699   2.970
 8303SOL    HW125808   0.217   5.778   2.925
 8303SOL    HW225809   0.357   5.703   2.963
 8304SOL     OW25810   6.033   4.324   3.079
 8304SOL    HW125811   5.991   4.312   2.989
 8304SOL    HW225812   6.007   4.413   3.116
 8305SOL     OW25813   4.921   6.504   4.809
 8305SOL    HW125814   4.904   6.410   4.839
 8305SOL    HW225815   5.009   6.535   4.846
 8306SOL     OW25816   6.381   0.931   2.191
 8306SOL    HW125817   6.392   0.950   2.093
 8306SOL    HW225818   6.447   0.862   2.219
 8307SOL     OW25819   1.676   3.384   3.099
 8307SOL    HW125820   1.665   3.380   3.000
 8307SOL    HW225821   1.740   3.457   3.122
 8308SOL     OW25822   1.462   5.184   0.859
 8308SOL    HW125823   1.480   5.132   0.776
 8308SOL    HW225824   1.436   5.278   0.834
 8309SOL     OW25825   6.343   5.094   4.590
 8309SOL    HW125826   6.420   5.048   4.634
 8309SOL    HW225827   6.354   5.088   4.490
 8310SOL     OW25828   1.664   6.879   0.889
 8310SOL    HW125829   1.575   6.837   0.873
 8310SOL    HW225830   1.653   6.978   0.899
 8311SOL     OW25831   5.562   6.654   3.318
 8311SOL    HW125832   5.468   6.630   3.290
 8311SOL    HW225833   5.573   6.753   3.315
 8312SOL     OW25834   5.304   1.702   0.422
 8312SOL    HW125835   5.371   1.775   0.406
 8312SOL    HW225836   5.219   1.724   0.375
 8313SOL     OW25837   5.297   2.404   5.240
 8313SOL    HW125838   5.292   2.334   5.311
 8313SOL    HW225839   5.391   2.412   5.208
 8314SOL     OW25840   5.052   6.468   4.070
 8314SOL    HW125841   5.052   6.543   4.004
 8314SOL    HW225842   4.969   6.473   4.126
 8315SOL     OW25843   3.563   4.108   4.601
 8315SOL    HW125844   3.552   4.071   4.508
 8315SOL    HW225845   3.501   4.185   4.614
 8316SOL     OW25846   2.181   2.082   6.411
 8316SOL    HW125847   2.111   2.118   6.349
 8316SOL    HW225848   2.141   2.071   6.503
 8317SOL     OW25849   1.702   2.074   3.797
 8317SOL    HW125850   1.620   2.020   3.778
 8317SOL    HW225851   1.692   2.119   3.886
 8318SOL     OW25852   4.306   0.479   6.782
 8318SOL    HW125853   4.246   0.422   6.725
 8318SOL    HW225854   4.402   0.460   6.758
 8319SOL     OW25855   1.308   6.271   7.021
 8319SOL    HW125856   1.316   6.213   0.078
 8319SOL    HW225857   1.396   6.315   7.002
 8320SOL     OW25858   3.154   2.973   5.101
 8320SOL    HW125859   3.150   2.963   5.002
 8320SOL    HW225860   3.189   2.889   5.142
 8321SOL     OW25861   0.329   6.916   1.221
 8321SOL    HW125862   0.373   7.000   1.190
 8321SOL    HW225863   0.397   6.843   1.226
 8322SOL     OW25864   0.678   0.176   0.308
 8322SOL    HW125865   0.673   0.112   0.385
 8322SOL    HW225866   0.672   0.270   0.343
 8323SOL     OW25867   5.699   4.529   0.844
 8323SOL    HW125868   5.772   4.517   0.776
 8323SOL    HW225869   5.626   4.463   0.826
 8324SOL     OW25870   5.208   5.395   6.369
 8324SOL    HW125871   5.127   5.452   6.375
 8324SOL    HW225872   5.289   5.452   6.358
 8325SOL     OW25873   1.446   5.461   6.388
 8325SOL    HW125874   1.456   5.390   6.458
 8325SOL    HW225875   1.435   5.417   6.298
 8326SOL     OW25876   1.570   3.330   6.985
 8326SOL    HW125877   1.511   3.263   6.940
 8326SOL    HW225878   1.663   3.320   6.951
 8327SOL     OW25879   0.772   6.550   4.658
 8327SOL    HW125880   0.862   6.516   4.685
 8327SOL    HW225881   0.777   6.588   4.566
 8328SOL     OW25882   0.976   0.375   0.435
 8328SOL    HW125883   0.948   0.331   0.349
 8328SOL    HW225884   0.954   0.314   0.512
 8329SOL     OW25885   1.906   2.874   4.812
 8329SOL    HW125886   1.976   2.920   4.758
 8329SOL    HW225887   1.884   2.930   4.893
 8330SOL     OW25888   3.883   1.250   0.029
 8330SOL    HW125889   3.915   1.268   6.960
 8330SOL    HW225890   3.816   1.175   0.028
 8331SOL     OW25891   1.790   2.441   5.981
 8331SOL    HW125892   1.802   2.360   5.924
 8331SOL    HW225893   1.879   2.472   6.014
 8332SOL     OW25894   6.184   5.384   1.199
 8332SOL    HW125895   6.134   5.306   1.160
 8332SOL    HW225896   6.158   5.395   1.295
 8333SOL     OW25897   2.160   4.568   0.139
 8333SOL    HW125898   2.239   4.507   0.142
 8333SOL    HW225899   2.077   4.517   0.165
 8334SOL     OW25900   3.742   2.395   6.325
 8334SOL    HW125901   3.717   2.324   6.391
 8334SOL    HW225902   3.686   2.385   6.243
 8335SOL     OW25903   5.303   3.969   6.136
 8335SOL    HW125904   5.289   3.900   6.065
 8335SOL    HW225905   5.262   4.055   6.107
 8336SOL     OW25906   0.753   4.057   3.987
 8336SOL    HW125907   0.824   4.088   3.924
 8336SOL    HW225908   0.794   4.000   4.058
 8337SOL     OW25909   0.877   1.104   4.465
 8337SOL    HW125910   0.792   1.148   4.437
 8337SOL    HW225911   0.902   1.035   4.398
 8338SOL     OW25912   4.504   5.597   1.497
 8338SOL    HW125913   4.501   5.498   1.512
 8338SOL    HW225914   4.524   5.644   1.583
 8339SOL     OW25915   6.105   0.207   1.335
 8339SOL    HW125916   6.006   0.225   1.341
 8339SOL    HW225917   6.139   0.239   1.247
 8340SOL     OW25918   6.335   2.050   6.759
 8340SOL    HW125919   6.416   2.108   6.764
 8340SOL    HW225920   6.319   2.023   6.664
 8341SOL     OW25921   3.640   0.690   0.841
 8341SOL    HW125922   3.675   0.598   0.860
 8341SOL    HW225923   3.688   0.756   0.898
 8342SOL     OW25924   4.625   0.641   0.352
 8342SOL    HW125925   4.628   0.549   0.393
 8342SOL    HW225926   4.530   0.663   0.330
 8343SOL     OW25927   5.425   3.623   4.138
 8343SOL    HW125928   5.446   3.638   4.042
 8343SOL    HW225929   5.344   3.565   4.146
 8344SOL     OW25930   1.260   5.190   5.125
 8344SOL    HW125931   1.215   5.107   5.094
 8344SOL    HW225932   1.255   5.195   5.225
 8345SOL     OW25933   4.454   0.891   3.756
 8345SOL    HW125934   4.416   0.810   3.711
 8345SOL    HW225935   4.553   0.894   3.740
 8346SOL     OW25936   6.039   3.946   5.011
 8346SOL    HW125937   5.982   3.865   4.994
 8346SOL    HW225938   6.096   3.965   4.932
 8347SOL     OW25939   2.362   0.761   6.854
 8347SOL    HW125940   2.273   0.806   6.852
 8347SOL    HW225941   2.420   0.804   6.923
 8348SOL     OW25942   3.471   6.221   1.999
 8348SOL    HW125943   3.516   6.143   1.956
 8348SOL    HW225944   3.517   6.242   2.085
 8349SOL     OW25945   0.017   6.696   2.494
 8349SOL    HW125946   7.011   6.601   2.490
 8349SOL    HW225947   0.083   6.707   2.568
 8350SOL     OW25948   2.022   0.259   0.620
 8350SOL    HW125949   1.941   0.316   0.619
 8350SOL    HW225950   2.102   0.314   0.594
 8351SOL     OW25951   0.003   3.157   3.436
 8351SOL    HW125952   6.978   3.070   3.427
 8351SOL    HW225953   0.012   3.179   3.534
 8352SOL     OW25954   2.833   6.367   1.745
 8352SOL    HW125955   2.881   6.430   1.805
 8352SOL    HW225956   2.742   6.347   1.783
 8353SOL     OW25957   1.502   5.139   2.219
 8353SOL    HW125958   1.474   5.208   2.153
 8353SOL    HW225959   1.553   5.183   2.293
 8354SOL     OW25960   3.509   0.611   3.189
 8354SOL    HW125961   3.537   0.536   3.250
 8354SOL    HW225962   3.489   0.692   3.243
 8355SOL     OW25963   2.483   6.386   6.344
 8355SOL    HW125964   2.570   6.350   6.378
 8355SOL    HW225965   2.419   6.310   6.332
 8356SOL     OW25966   2.245   5.286   0.944
 8356SOL    HW125967   2.197   5.354   1.000
 8356SOL    HW225968   2.208   5.287   0.851
 8357SOL     OW25969   4.715   6.163   5.324
 8357SOL    HW125970   4.669   6.246   5.294
 8357SOL    HW225971   4.807   6.160   5.285
 8358SOL     OW25972   0.753   1.070   4.941
 8358SOL    HW125973   0.777   1.030   4.852
 8358SOL    HW225974   0.656   1.090   4.943
 8359SOL     OW25975   3.931   2.291   5.499
 8359SOL    HW125976   3.862   2.316   5.430
 8359SOL    HW225977   4.021   2.287   5.456
 8360SOL     OW25978   4.496   0.862   1.428
 8360SOL    HW125979   4.565   0.864   1.355
 8360SOL    HW225980   4.536   0.818   1.509
 8361SOL     OW25981   4.054   0.714   7.007
 8361SOL    HW125982   4.120   0.775   0.026
 8361SOL    HW225983   4.032   0.748   6.915
 8362SOL     OW25984   6.649   4.248   1.479
 8362SOL    HW125985   6.607   4.338   1.468
 8362SOL    HW225986   6.723   4.238   1.412
 8363SOL     OW25987   2.643   3.207   0.279
 8363SOL    HW125988   2.699   3.171   0.205
 8363SOL    HW225989   2.642   3.307   0.275
 8364SOL     OW25990   0.258   3.321   4.475
 8364SOL    HW125991   0.326   3.265   4.428
 8364SOL    HW225992   0.286   3.336   4.569
 8365SOL     OW25993   1.433   1.959   2.472
 8365SOL    HW125994   1.520   1.986   2.431
 8365SOL    HW225995   1.358   1.985   2.410
 8366SOL     OW25996   4.931   5.046   2.119
 8366SOL    HW125997   4.996   4.982   2.158
 8366SOL    HW225998   4.885   5.003   2.041
 8367SOL     OW25999   3.599   5.230   4.234
 8367SOL    HW126000   3.603   5.300   4.162
 8367SOL    HW226001   3.555   5.268   4.315
 8368SOL     OW26002   6.340   6.284   6.790
 8368SOL    HW126003   6.409   6.313   6.724
 8368SOL    HW226004   6.373   6.300   6.883
 8369SOL     OW26005   2.780   6.776   1.250
 8369SOL    HW126006   2.698   6.734   1.210
 8369SOL    HW226007   2.822   6.712   1.315
 8370SOL     OW26008   2.451   3.530   6.868
 8370SOL    HW126009   2.416   3.612   6.913
 8370SOL    HW226010   2.465   3.458   6.936
 8371SOL     OW26011   1.927   4.588   5.932
 8371SOL    HW126012   1.913   4.626   6.023
 8371SOL    HW226013   1.886   4.649   5.864
 8372SOL     OW26014   2.497   6.001   2.791
 8372SOL    HW126015   2.546   5.920   2.760
 8372SOL    HW226016   2.399   5.990   2.772
 8373SOL     OW26017   6.867   1.203   3.850
 8373SOL    HW126018   6.827   1.113   3.866
 8373SOL    HW226019   6.819   1.272   3.904
 8374SOL     OW26020   1.372   0.476   4.114
 8374SOL    HW126021   1.332   0.460   4.204
 8374SOL    HW226022   1.350   0.400   4.053
 8375SOL     OW26023   3.104   0.637   4.882
 8375SOL    HW126024   3.054   0.698   4.942
 8375SOL    HW226025   3.179   0.595   4.932
 8376SOL     OW26026   2.111   0.486   2.809
 8376SOL    HW126027   2.163   0.402   2.794
 8376SOL    HW226028   2.164   0.547   2.868
 8377SOL     OW26029   4.542   5.165   0.128
 8377SOL    HW126030   4.524   5.253   0.084
 8377SOL    HW226031   4.598   5.179   0.210
 8378SOL     OW26032   5.561   6.424   4.058
 8378SOL    HW126033   5.514   6.436   3.971
 8378SOL    HW226034   5.640   6.363   4.046
 8379SOL     OW26035   5.979   1.237   1.492
 8379SOL    HW126036   5.941   1.164   1.434
 8379SOL    HW226037   6.030   1.302   1.435
 8380SOL     OW26038   6.717   5.741   0.451
 8380SOL    HW126039   6.723   5.676   0.527
 8380SOL    HW226040   6.713   5.834   0.486
 8381SOL     OW26041   0.598   1.996   2.294
 8381SOL    HW126042   0.646   1.910   2.277
 8381SOL    HW226043   0.499   1.980   2.294
 8382SOL     OW26044   1.882   0.700   1.353
 8382SOL    HW126045   1.940   0.622   1.376
 8382SOL    HW226046   1.937   0.784   1.357
 8383SOL     OW26047   2.930   6.456   6.403
 8383SOL    HW126048   2.997   6.527   6.424
 8383SOL    HW226049   2.969   6.392   6.337
 8384SOL     OW26050   0.573   3.009   2.217
 8384SOL    HW126051   0.586   2.929   2.159
 8384SOL    HW226052   0.520   2.982   2.298
 8385SOL     OW26053   4.033   3.504   1.621
 8385SOL    HW126054   3.957   3.565   1.643
 8385SOL    HW226055   4.031   3.425   1.682
 8386SOL     OW26056   2.539   6.174   2.062
 8386SOL    HW126057   2.447   6.148   2.092
 8386SOL    HW226058   2.607   6.120   2.112
 8387SOL     OW26059   1.516   1.533   2.487
 8387SOL    HW126060   1.423   1.560   2.463
 8387SOL    HW226061   1.581   1.598   2.447
 8388SOL     OW26062   4.225   6.517   1.611
 8388SOL    HW126063   4.185   6.584   1.674
 8388SOL    HW226064   4.183   6.526   1.521
 8389SOL     OW26065   0.458   2.467   4.015
 8389SOL    HW126066   0.368   2.427   3.997
 8389SOL    HW226067   0.483   2.451   4.110
 8390SOL     OW26068   3.528   0.656   5.669
 8390SOL    HW126069   3.526   0.755   5.681
 8390SOL    HW226070   3.607   0.631   5.613
 8391SOL     OW26071   5.740   5.742   1.176
 8391SOL    HW126072   5.752   5.669   1.109
 8391SOL    HW226073   5.756   5.830   1.132
 8392SOL     OW26074   5.425   6.398   6.098
 8392SOL    HW126075   5.399   6.493   6.081
 8392SOL    HW226076   5.346   6.338   6.084
 8393SOL     OW26077   6.667   5.733   3.153
 8393SOL    HW126078   6.628   5.705   3.241
 8393SOL    HW226079   6.755   5.778   3.169
 8394SOL     OW26080   0.752   2.060   2.961
 8394SOL    HW126081   0.794   2.142   2.921
 8394SOL    HW226082   0.817   1.984   2.957
 8395SOL     OW26083   0.127   5.895   5.911
 8395SOL    HW126084   0.094   5.960   5.842
 8395SOL    HW226085   0.071   5.813   5.910
 8396SOL     OW26086   4.786   3.278   1.806
 8396SOL    HW126087   4.788   3.191   1.855
 8396SOL    HW226088   4.696   3.291   1.763
 8397SOL     OW26089   2.368   5.765   3.421
 8397SOL    HW126090   2.376   5.819   3.337
 8397SOL    HW226091   2.448   5.705   3.429
 8398SOL     OW26092   4.672   2.012   0.624
 8398SOL    HW126093   4.746   1.951   0.651
 8398SOL    HW226094   4.607   2.021   0.700
 8399SOL     OW26095   5.560   5.951   0.567
 8399SOL    HW126096   5.556   5.934   0.469
 8399SOL    HW226097   5.524   6.042   0.587
 8400SOL     OW26098   6.307   0.871   3.412
 8400SOL    HW126099   6.389   0.844   3.363
 8400SOL    HW226100   6.226   0.839   3.363
 8401SOL     OW26101   2.877   4.320   6.637
 8401SOL    HW126102   2.818   4.387   6.591
 8401SOL    HW226103   2.971   4.334   6.608
 8402SOL     OW26104   4.338   2.109   0.034
 8402SOL    HW126105   4.404   2.041   0.067
 8402SOL    HW226106   4.363   2.137   6.965
 8403SOL     OW26107   1.867   1.496   4.434
 8403SOL    HW126108   1.813   1.460   4.510
 8403SOL    HW226109   1.893   1.421   4.373
 8404SOL     OW26110   4.375   5.068   5.634
 8404SOL    HW126111   4.324   5.147   5.668
 8404SOL    HW226112   4.409   5.014   5.710
 8405SOL     OW26113   0.489   2.635   5.181
 8405SOL    HW126114   0.572   2.650   5.129
 8405SOL    HW226115   0.462   2.539   5.173
 8406SOL     OW26116   5.501   3.473   1.528
 8406SOL    HW126117   5.407   3.442   1.511
 8406SOL    HW226118   5.511   3.498   1.624
 8407SOL     OW26119   4.803   4.154   2.912
 8407SOL    HW126120   4.812   4.066   2.959
 8407SOL    HW226121   4.751   4.142   2.827
 8408SOL     OW26122   4.943   2.113   4.875
 8408SOL    HW126123   4.869   2.179   4.891
 8408SOL    HW226124   5.025   2.161   4.845
 8409SOL     OW26125   0.502   2.243   3.771
 8409SOL    HW126126   0.548   2.315   3.823
 8409SOL    HW226127   0.467   2.173   3.833
 8410SOL     OW26128   4.276   0.093   1.595
 8410SOL    HW126129   4.239   0.074   1.686
 8410SOL    HW226130   4.307   0.188   1.590
 8411SOL     OW26131   1.681   3.393   4.180
 8411SOL    HW126132   1.775   3.368   4.205
 8411SOL    HW226133   1.651   3.336   4.103
 8412SOL     OW26134   5.713   1.997   3.965
 8412SOL    HW126135   5.650   2.064   3.924
 8412SOL    HW226136   5.694   1.906   3.928
 8413SOL     OW26137   3.361   5.006   0.779
 8413SOL    HW126138   3.358   5.055   0.692
 8413SOL    HW226139   3.285   4.942   0.784
 8414SOL     OW26140   4.107   6.478   2.850
 8414SOL    HW126141   4.058   6.530   2.921
 8414SOL    HW226142   4.056   6.394   2.830
 8415SOL     OW26143   6.835   3.981   2.800
 8415SOL    HW126144   6.826   4.002   2.703
 8415SOL    HW226145   6.751   4.007   2.847
 8416SOL     OW26146   5.376   3.971   2.652
 8416SOL    HW126147   5.466   3.956   2.611
 8416SOL    HW226148   5.317   4.021   2.587
 8417SOL     OW26149   2.550   5.853   6.286
 8417SOL    HW126150   2.620   5.924   6.285
 8417SOL    HW226151   2.581   5.776   6.343
 8418SOL     OW26152   6.453   5.260   2.691
 8418SOL    HW126153   6.485   5.334   2.750
 8418SOL    HW226154   6.464   5.172   2.738
 8419SOL     OW26155   4.558   0.616   3.627
 8419SOL    HW126156   4.474   0.592   3.677
 8419SOL    HW226157   4.637   0.581   3.678
 8420SOL     OW26158   3.926   1.070   6.487
 8420SOL    HW126159   3.867   1.016   6.547
 8420SOL    HW226160   4.020   1.066   6.520
 8421SOL     OW26161   2.505   6.849   2.085
 8421SOL    HW126162   2.508   6.947   2.069
 8421SOL    HW226163   2.529   6.830   2.180
 8422SOL     OW26164   4.074   6.636   1.133
 8422SOL    HW126165   3.999   6.700   1.144
 8422SOL    HW226166   4.044   6.544   1.158
 8423SOL     OW26167   3.180   4.216   1.282
 8423SOL    HW126168   3.086   4.205   1.313
 8423SOL    HW226169   3.235   4.139   1.315
 8424SOL     OW26170   3.334   1.660   2.495
 8424SOL    HW126171   3.259   1.602   2.526
 8424SOL    HW226172   3.332   1.665   2.395
 8425SOL     OW26173   6.075   4.377   0.116
 8425SOL    HW126174   6.014   4.331   0.052
 8425SOL    HW226175   6.153   4.318   0.136
 8426SOL     OW26176   4.187   3.558   3.066
 8426SOL    HW126177   4.217   3.542   3.159
 8426SOL    HW226178   4.161   3.655   3.055
 8427SOL     OW26179   2.123   3.766   6.368
 8427SOL    HW126180   2.139   3.768   6.467
 8427SOL    HW226181   2.210   3.765   6.320
 8428SOL     OW26182   6.303   4.198   2.293
 8428SOL    HW126183   6.309   4.098   2.300
 8428SOL    HW226184   6.379   4.231   2.237
 8429SOL     OW26185   2.197   6.374   2.874
 8429SOL    HW126186   2.287   6.346   2.907
 8429SOL    HW226187   2.207   6.430   2.792
 8430SOL     OW26188   4.600   4.720   3.103
 8430SOL    HW126189   4.655   4.653   3.152
 8430SOL    HW226190   4.520   4.744   3.158
 8431SOL     OW26191   3.583   4.691   1.163
 8431SOL    HW126192   3.544   4.640   1.240
 8431SOL    HW226193   3.510   4.720   1.101
 8432SOL     OW26194   4.127   7.005   0.100
 8432SOL    HW126195   4.086   7.021   0.189
 8432SOL    HW226196   4.220   6.970   0.112
 8433SOL     OW26197   1.283   2.060   5.934
 8433SOL    HW126198   1.202   2.043   5.878
 8433SOL    HW226199   1.356   2.099   5.877
 8434SOL     OW26200   5.441   0.168   5.392
 8434SOL    HW126201   5.424   0.085   5.445
 8434SOL    HW226202   5.456   0.245   5.455
 8435SOL     OW26203   4.519   1.704   1.250
 8435SOL    HW126204   4.584   1.707   1.174
 8435SOL    HW226205   4.515   1.612   1.287
 8436SOL     OW26206   4.264   4.298   1.626
 8436SOL    HW126207   4.314   4.302   1.713
 8436SOL    HW226208   4.238   4.203   1.608
 8437SOL     OW26209   0.422   1.189   1.383
 8437SOL    HW126210   0.411   1.234   1.471
 8437SOL    HW226211   0.378   1.099   1.385
 8438SOL     OW26212   1.591   6.671   1.790
 8438SOL    HW126213   1.690   6.684   1.803
 8438SOL    HW226214   1.551   6.757   1.757
 8439SOL     OW26215   0.391   5.919   2.390
 8439SOL    HW126216   0.402   6.007   2.344
 8439SOL    HW226217   0.481   5.881   2.410
 8440SOL     OW26218   0.744   1.117   2.397
 8440SOL    HW126219   0.772   1.069   2.313
 8440SOL    HW226220   0.689   1.055   2.453
 8441SOL     OW26221   5.010   5.590   6.400
 8441SOL    HW126222   5.029   5.673   6.349
 8441SOL    HW226223   4.935   5.607   6.465
 8442SOL     OW26224   2.356   4.937   6.879
 8442SOL    HW126225   2.404   4.956   6.965
 8442SOL    HW226226   2.340   4.839   6.871
 8443SOL     OW26227   1.706   0.502   3.074
 8443SOL    HW126228   1.719   0.516   3.172
 8443SOL    HW226229   1.784   0.541   3.024
 8444SOL     OW26230   3.548   6.204   3.583
 8444SOL    HW126231   3.551   6.282   3.645
 8444SOL    HW226232   3.455   6.190   3.551
 8445SOL     OW26233   4.030   4.780   2.253
 8445SOL    HW126234   4.047   4.789   2.351
 8445SOL    HW226235   3.940   4.818   2.231
 8446SOL     OW26236   5.850   4.563   2.596
 8446SOL    HW126237   5.824   4.471   2.566
 8446SOL    HW226238   5.931   4.557   2.654
 8447SOL     OW26239   4.485   2.432   2.131
 8447SOL    HW126240   4.387   2.412   2.122
 8447SOL    HW226241   4.511   2.500   2.063
 8448SOL     OW26242   1.089   3.426   6.557
 8448SOL    HW126243   0.996   3.395   6.576
 8448SOL    HW226244   1.096   3.454   6.462
 8449SOL     OW26245   1.654   2.939   4.634
 8449SOL    HW126246   1.667   2.892   4.546
 8449SOL    HW226247   1.725   2.910   4.698
 8450SOL     OW26248   2.205   5.159   2.460
 8450SOL    HW126249   2.153   5.192   2.381
 8450SOL    HW226250   2.167   5.073   2.492
 8451SOL     OW26251   3.702   2.684   0.990
 8451SOL    HW126252   3.799   2.665   1.005
 8451SOL    HW226253   3.675   2.764   1.044
 8452SOL     OW26254   6.611   6.276   0.401
 8452SOL    HW126255   6.658   6.361   0.375
 8452SOL    HW226256   6.516   6.279   0.369
 8453SOL     OW26257   6.409   4.106   6.383
 8453SOL    HW126258   6.333   4.117   6.319
 8453SOL    HW226259   6.445   4.196   6.409
 8454SOL     OW26260   1.624   0.291   4.344
 8454SOL    HW126261   1.616   0.191   4.338
 8454SOL    HW226262   1.681   0.315   4.422
 8455SOL     OW26263   4.998   1.308   1.165
 8455SOL    HW126264   4.935   1.352   1.229
 8455SOL    HW226265   5.091   1.344   1.181
 8456SOL     OW26266   5.444   5.653   2.761
 8456SOL    HW126267   5.366   5.714   2.761
 8456SOL    HW226268   5.487   5.653   2.852
 8457SOL     OW26269   0.197   5.940   6.181
 8457SOL    HW126270   0.251   5.889   6.114
 8457SOL    HW226271   0.243   5.938   6.270
 8458SOL     OW26272   1.309   1.857   0.586
 8458SOL    HW126273   1.361   1.785   0.540
 8458SOL    HW226274   1.212   1.848   0.563
 8459SOL     OW26275   3.457   5.919   2.165
 8459SOL    HW126276   3.396   5.932   2.244
 8459SOL    HW226277   3.403   5.890   2.086
 8460SOL     OW26278   4.650   1.622   0.767
 8460SOL    HW126279   4.611   1.539   0.806
 8460SOL    HW226280   4.576   1.683   0.739
 8461SOL     OW26281   6.352   3.956   1.865
 8461SOL    HW126282   6.260   3.918   1.854
 8461SOL    HW226283   6.398   3.956   1.776
 8462SOL     OW26284   3.268   5.182   6.954
 8462SOL    HW126285   3.271   5.147   0.024
 8462SOL    HW226286   3.173   5.204   6.930
 8463SOL     OW26287   6.607   1.376   0.102
 8463SOL    HW126288   6.614   1.422   0.191
 8463SOL    HW226289   6.699   1.356   0.067
 8464SOL     OW26290   0.033   3.779   0.168
 8464SOL    HW126291   0.061   3.749   0.077
 8464SOL    HW226292   0.110   3.822   0.214
 8465SOL     OW26293   4.139   3.103   1.226
 8465SOL    HW126294   4.137   3.090   1.325
 8465SOL    HW226295   4.049   3.130   1.194
 8466SOL     OW26296   5.949   1.030   5.977
 8466SOL    HW126297   5.982   0.938   5.953
 8466SOL    HW226298   5.884   1.023   6.053
 8467SOL     OW26299   3.336   0.652   1.189
 8467SOL    HW126300   3.255   0.689   1.145
 8467SOL    HW226301   3.390   0.727   1.228
 8468SOL     OW26302   6.051   3.122   0.363
 8468SOL    HW126303   6.099   3.207   0.386
 8468SOL    HW226304   6.084   3.088   0.276
 8469SOL     OW26305   3.993   2.914   5.929
 8469SOL    HW126306   3.935   2.927   6.010
 8469SOL    HW226307   3.935   2.903   5.848
 8470SOL     OW26308   1.707   5.257   1.599
 8470SOL    HW126309   1.744   5.186   1.540
 8470SOL    HW226310   1.611   5.238   1.619
 8471SOL     OW26311   3.579   2.128   5.206
 8471SOL    HW126312   3.488   2.132   5.246
 8471SOL    HW226313   3.587   2.048   5.146
 8472SOL     OW26314   5.709   1.683   6.055
 8472SOL    HW126315   5.785   1.634   6.012
 8472SOL    HW226316   5.709   1.778   6.024
 8473SOL     OW26317   4.495   4.872   6.329
 8473SOL    HW126318   4.560   4.809   6.372
 8473SOL    HW226319   4.477   4.842   6.236
 8474SOL     OW26320   3.740   3.698   2.835
 8474SOL    HW126321   3.788   3.651   2.909
 8474SOL    HW226322   3.784   3.787   2.818
 8475SOL     OW26323   6.596   2.852   2.100
 8475SOL    HW126324   6.577   2.755   2.086
 8475SOL    HW226325   6.545   2.906   2.033
 8476SOL     OW26326   6.211   7.019   2.135
 8476SOL    HW126327   6.137   0.049   2.096
 8476SOL    HW226328   6.220   0.017   2.232
 8477SOL     OW26329   6.254   6.496   1.553
 8477SOL    HW126330   6.214   6.562   1.489
 8477SOL    HW226331   6.197   6.413   1.554
 8478SOL     OW26332   6.350   0.030   5.457
 8478SOL    HW126333   6.305   6.974   5.417
 8478SOL    HW226334   6.445   0.034   5.425
 8479SOL     OW26335   0.689   2.497   1.510
 8479SOL    HW126336   0.772   2.551   1.522
 8479SOL    HW226337   0.632   2.505   1.591
 8480SOL     OW26338   4.842   4.407   0.334
 8480SOL    HW126339   4.917   4.459   0.293
 8480SOL    HW226340   4.864   4.384   0.429
 8481SOL     OW26341   4.006   2.061   3.672
 8481SOL    HW126342   4.103   2.086   3.673
 8481SOL    HW226343   3.975   2.050   3.578
 8482SOL     OW26344   4.349   1.202   0.191
 8482SOL    HW126345   4.350   1.294   0.228
 8482SOL    HW226346   4.273   1.192   0.127
 8483SOL     OW26347   3.006   5.359   3.431
 8483SOL    HW126348   2.933   5.300   3.397
 8483SOL    HW226349   2.975   5.405   3.514
 8484SOL     OW26350   5.984   5.886   3.839
 8484SOL    HW126351   6.006   5.977   3.874
 8484SOL    HW226352   5.993   5.884   3.740
 8485SOL     OW26353   2.664   2.738   0.536
 8485SOL    HW126354   2.635   2.812   0.475
 8485SOL    HW226355   2.760   2.750   0.561
 8486SOL     OW26356   1.048   1.316   2.635
 8486SOL    HW126357   0.960   1.305   2.589
 8486SOL    HW226358   1.121   1.291   2.571
 8487SOL     OW26359   6.238   1.813   5.885
 8487SOL    HW126360   6.219   1.717   5.904
 8487SOL    HW226361   6.332   1.834   5.912
 8488SOL     OW26362   5.105   4.457   1.562
 8488SOL    HW126363   5.087   4.436   1.658
 8488SOL    HW226364   5.200   4.487   1.551
 8489SOL     OW26365   5.087   0.984   1.581
 8489SOL    HW126366   5.132   1.071   1.602
 8489SOL    HW226367   5.025   0.959   1.655
 8490SOL     OW26368   2.355   0.303   6.849
 8490SOL    HW126369   2.339   0.360   6.768
 8490SOL    HW226370   2.343   0.358   6.931
 8491SOL     OW26371   3.288   5.853   2.371
 8491SOL    HW126372   3.251   5.910   2.445
 8491SOL    HW226373   3.222   5.782   2.348
 8492SOL     OW26374   6.224   5.838   4.244
 8492SOL    HW126375   6.251   5.770   4.312
 8492SOL    HW226376   6.164   5.906   4.287
 8493SOL     OW26377   3.709   0.453   0.212
 8493SOL    HW126378   3.795   0.455   0.162
 8493SOL    HW226379   3.727   0.447   0.310
 8494SOL     OW26380   6.346   5.113   2.110
 8494SOL    HW126381   6.310   5.068   2.028
 8494SOL    HW226382   6.309   5.069   2.191
 8495SOL     OW26383   6.537   5.436   0.075
 8495SOL    HW126384   6.629   5.398   0.065
 8495SOL    HW226385   6.539   5.534   0.055
 8496SOL     OW26386   5.254   2.143   2.594
 8496SOL    HW126387   5.160   2.120   2.569
 8496SOL    HW226388   5.307   2.165   2.512
 8497SOL     OW26389   6.104   1.040   4.032
 8497SOL    HW126390   6.155   0.958   4.008
 8497SOL    HW226391   6.068   1.032   4.125
 8498SOL     OW26392   5.020   0.554   4.135
 8498SOL    HW126393   5.029   0.493   4.214
 8498SOL    HW226394   5.043   0.647   4.163
 8499SOL     OW26395   6.358   6.721   6.192
 8499SOL    HW126396   6.318   6.632   6.174
 8499SOL    HW226397   6.452   6.724   6.158
 8500SOL     OW26398   1.533   0.743   4.743
 8500SOL    HW126399   1.518   0.700   4.654
 8500SOL    HW226400   1.579   0.831   4.731
 8501SOL     OW26401   0.886   2.047   6.036
 8501SOL    HW126402   0.931   2.020   6.121
 8501SOL    HW226403   0.833   2.130   6.051
 8502SOL     OW26404   0.574   2.849   6.929
 8502SOL    HW126405   0.548   2.946   6.929
 8502SOL    HW226406   0.595   2.821   6.835
 8503SOL     OW26407   5.623   0.274   4.071
 8503SOL    HW126408   5.564   0.227   4.135
 8503SOL    HW226409   5.605   0.241   3.978
 8504SOL     OW26410   2.079   5.483   2.244
 8504SOL    HW126411   2.103   5.429   2.163
 8504SOL    HW226412   1.988   5.458   2.276
 8505SOL     OW26413   5.407   2.936   2.785
 8505SOL    HW126414   5.413   2.942   2.885
 8505SOL    HW226415   5.434   3.023   2.745
 8506SOL     OW26416   2.113   0.408   0.027
 8506SOL    HW126417   2.132   0.407   0.125
 8506SOL    HW226418   2.110   0.314   7.017
 8507SOL     OW26419   4.644   6.069   6.079
 8507SOL    HW126420   4.655   6.006   6.155
 8507SOL    HW226421   4.551   6.107   6.080
 8508SOL     OW26422   3.305   1.701   0.040
 8508SOL    HW126423   3.381   1.689   7.000
 8508SOL    HW226424   3.306   1.794   0.076
 8509SOL     OW26425   5.490   0.836   3.703
 8509SOL    HW126426   5.469   0.835   3.801
 8509SOL    HW226427   5.406   0.854   3.652
 8510SOL     OW26428   6.495   1.874   4.558
 8510SOL    HW126429   6.552   1.944   4.515
 8510SOL    HW226430   6.534   1.849   4.647
 8511SOL     OW26431   5.827   2.699   2.140
 8511SOL    HW126432   5.859   2.791   2.165
 8511SOL    HW226433   5.727   2.696   2.145
 8512SOL     OW26434   1.892   6.771   5.044
 8512SOL    HW126435   1.858   6.828   5.119
 8512SOL    HW226436   1.831   6.693   5.030
 8513SOL     OW26437   5.446   5.807   6.519
 8513SOL    HW126438   5.519   5.784   6.583
 8513SOL    HW226439   5.362   5.760   6.547
 8514SOL     OW26440   2.432   5.715   3.906
 8514SOL    HW126441   2.376   5.664   3.972
 8514SOL    HW226442   2.515   5.746   3.951
 8515SOL     OW26443   5.056   1.938   1.410
 8515SOL    HW126444   5.123   1.904   1.476
 8515SOL    HW226445   4.965   1.938   1.452
 8516SOL     OW26446   0.156   2.003   2.488
 8516SOL    HW126447   0.072   2.057   2.490
 8516SOL    HW226448   0.191   1.999   2.394
 8517SOL     OW26449   2.661   2.362   6.444
 8517SOL    HW126450   2.736   2.382   6.380
 8517SOL    HW226451   2.671   2.269   6.480
 8518SOL     OW26452   3.641   5.770   0.607
 8518SOL    HW126453   3.545   5.743   0.597
 8518SOL    HW226454   3.650   5.868   0.585
 8519SOL     OW26455   1.225   5.559   2.785
 8519SOL    HW126456   1.305   5.570   2.726
 8519SOL    HW226457   1.213   5.641   2.841
 8520SOL     OW26458   3.577   1.141   0.428
 8520SOL    HW126459   3.564   1.095   0.340
 8520SOL    HW226460   3.493   1.191   0.452
 8521SOL     OW26461   1.084   6.322   6.449
 8521SOL    HW126462   1.047   6.231   6.429
 8521SOL    HW226463   1.081   6.338   6.547
 8522SOL     OW26464   1.570   5.717   4.917
 8522SOL    HW126465   1.652   5.664   4.940
 8522SOL    HW226466   1.553   5.712   4.819
 8523SOL     OW26467   1.423   0.094   6.846
 8523SOL    HW126468   1.391   0.059   6.934
 8523SOL    HW226469   1.509   0.143   6.859
 8524SOL     OW26470   1.117   2.777   6.176
 8524SOL    HW126471   1.147   2.681   6.174
 8524SOL    HW226472   1.177   2.829   6.238
 8525SOL     OW26473   5.688   3.186   2.872
 8525SOL    HW126474   5.610   3.195   2.811
 8525SOL    HW226475   5.765   3.239   2.837
 8526SOL     OW26476   1.862   3.019   2.291
 8526SOL    HW126477   1.838   3.071   2.374
 8526SOL    HW226478   1.870   3.082   2.214
 8527SOL     OW26479   4.418   0.873   4.687
 8527SOL    HW126480   4.459   0.920   4.608
 8527SOL    HW226481   4.439   0.776   4.682
 8528SOL     OW26482   4.761   2.524   6.726
 8528SOL    HW126483   4.803   2.587   6.792
 8528SOL    HW226484   4.806   2.533   6.637
 8529SOL     OW26485   0.281   4.861   6.864
 8529SOL    HW126486   0.353   4.813   6.913
 8529SOL    HW226487   0.268   4.818   6.774
 8530SOL     OW26488   1.528   3.483   5.640
 8530SOL    HW126489   1.531   3.582   5.628
 8530SOL    HW226490   1.534   3.439   5.551
 8531SOL     OW26491   4.604   4.782   2.824
 8531SOL    HW126492   4.613   4.729   2.908
 8531SOL    HW226493   4.690   4.829   2.804
 8532SOL     OW26494   2.237   3.667   5.896
 8532SOL    HW126495   2.223   3.570   5.879
 8532SOL    HW226496   2.328   3.681   5.936
 8533SOL     OW26497   3.663   0.427   5.247
 8533SOL    HW126498   3.714   0.512   5.238
 8533SOL    HW226499   3.612   0.410   5.163
 8534SOL     OW26500   1.591   2.634   3.134
 8534SOL    HW126501   1.605   2.708   3.069
 8534SOL    HW226502   1.576   2.673   3.225
 8535SOL     OW26503   0.321   2.363   4.374
 8535SOL    HW126504   0.404   2.366   4.318
 8535SOL    HW226505   0.252   2.307   4.328
 8536SOL     OW26506   0.254   1.849   5.822
 8536SOL    HW126507   0.230   1.941   5.853
 8536SOL    HW226508   0.344   1.852   5.778
 8537SOL     OW26509   5.440   0.329   1.945
 8537SOL    HW126510   5.341   0.315   1.952
 8537SOL    HW226511   5.474   0.292   1.859
 8538SOL     OW26512   5.756   1.219   4.738
 8538SOL    HW126513   5.745   1.141   4.800
 8538SOL    HW226514   5.678   1.224   4.676
 8539SOL     OW26515   6.989   3.550   2.230
 8539SOL    HW126516   6.976   3.454   2.206
 8539SOL    HW226517   6.906   3.587   2.271
 8540SOL     OW26518   4.737   0.425   6.987
 8540SOL    HW126519   4.804   0.434   6.914
 8540SOL    HW226520   4.771   0.470   0.046
 8541SOL     OW26521   3.365   0.228   5.468
 8541SOL    HW126522   3.415   0.147   5.439
 8541SOL    HW226523   3.368   0.297   5.396
 8542SOL     OW26524   1.411   4.475   6.806
 8542SOL    HW126525   1.506   4.476   6.776
 8542SOL    HW226526   1.352   4.505   6.731
 8543SOL     OW26527   2.421   2.142   6.590
 8543SOL    HW126528   2.351   2.109   6.527
 8543SOL    HW226529   2.481   2.066   6.615
 8544SOL     OW26530   5.521   4.310   5.592
 8544SOL    HW126531   5.459   4.388   5.590
 8544SOL    HW226532   5.613   4.341   5.612
 8545SOL     OW26533   2.873   0.610   6.537
 8545SOL    HW126534   2.965   0.618   6.499
 8545SOL    HW226535   2.879   0.583   6.633
 8546SOL     OW26536   5.371   0.060   1.257
 8546SOL    HW126537   5.444   0.123   1.232
 8546SOL    HW226538   5.286   0.110   1.274
 8547SOL     OW26539   6.269   6.142   5.393
 8547SOL    HW126540   6.289   6.218   5.455
 8547SOL    HW226541   6.202   6.171   5.324
 8548SOL     OW26542   7.023   3.147   6.036
 8548SOL    HW126543   6.989   3.177   5.948
 8548SOL    HW226544   0.092   3.111   6.026
 8549SOL     OW26545   1.798   0.154   3.942
 8549SOL    HW126546   1.786   0.251   3.965
 8549SOL    HW226547   1.893   0.128   3.958
 8550SOL     OW26548   6.699   4.292   6.076
 8550SOL    HW126549   6.745   4.204   6.062
 8550SOL    HW226550   6.767   4.362   6.096
 8551SOL     OW26551   2.080   1.464   6.371
 8551SOL    HW126552   2.147   1.450   6.298
 8551SOL    HW226553   2.015   1.389   6.372
 8552SOL     OW26554   2.906   1.815   3.139
 8552SOL    HW126555   2.874   1.904   3.107
 8552SOL    HW226556   2.863   1.742   3.085
 8553SOL     OW26557   4.939   3.463   6.723
 8553SOL    HW126558   4.971   3.384   6.671
 8553SOL    HW226559   4.954   3.447   6.821
 8554SOL     OW26560   1.734   1.185   1.080
 8554SOL    HW126561   1.659   1.246   1.108
 8554SOL    HW226562   1.735   1.176   0.981
 8555SOL     OW26563   4.429   1.383   4.194
 8555SOL    HW126564   4.476   1.315   4.137
 8555SOL    HW226565   4.333   1.358   4.204
 8556SOL     OW26566   2.038   6.163   0.405
 8556SOL    HW126567   2.114   6.225   0.423
 8556SOL    HW226568   2.046   6.125   0.313
 8557SOL     OW26569   0.434   0.801   0.183
 8557SOL    HW126570   0.533   0.790   0.183
 8557SOL    HW226571   0.410   0.889   0.142
 8558SOL     OW26572   3.188   5.943   4.649
 8558SOL    HW126573   3.173   6.028   4.598
 8558SOL    HW226574   3.204   5.965   4.745
 8559SOL     OW26575   0.976   5.174   2.782
 8559SOL    HW126576   1.010   5.173   2.688
 8559SOL    HW226577   1.028   5.241   2.836
 8560SOL     OW26578   3.158   4.581   1.510
 8560SOL    HW126579   3.160   4.488   1.547
 8560SOL    HW226580   3.119   4.642   1.578
 8561SOL     OW26581   4.700   0.598   2.240
 8561SOL    HW126582   4.651   0.658   2.303
 8561SOL    HW226583   4.736   0.520   2.290
 8562SOL     OW26584   5.059   1.780   6.632
 8562SOL    HW126585   5.010   1.692   6.634
 8562SOL    HW226586   5.106   1.790   6.544
 8563SOL     OW26587   2.476   4.987   1.911
 8563SOL    HW126588   2.526   5.064   1.872
 8563SOL    HW226589   2.539   4.915   1.937
 8564SOL     OW26590   4.090   0.451   6.961
 8564SOL    HW126591   4.057   0.539   6.994
 8564SOL    HW226592   4.163   0.466   6.894
 8565SOL     OW26593   2.319   4.719   0.761
 8565SOL    HW126594   2.351   4.765   0.843
 8565SOL    HW226595   2.263   4.783   0.707
 8566SOL     OW26596   3.405   1.243   2.418
 8566SOL    HW126597   3.501   1.257   2.393
 8566SOL    HW226598   3.396   1.242   2.517
 8567SOL     OW26599   2.150   2.907   2.019
 8567SOL    HW126600   2.209   2.881   2.096
 8567SOL    HW226601   2.058   2.871   2.033
 8568SOL     OW26602   6.037   0.393   6.506
 8568SOL    HW126603   6.060   0.306   6.550
 8568SOL    HW226604   6.116   0.454   6.509
 8569SOL     OW26605   4.568   2.286   6.264
 8569SOL    HW126606   4.544   2.204   6.213
 8569SOL    HW226607   4.641   2.265   6.329
 8570SOL     OW26608   1.796   2.450   3.138
 8570SOL    HW126609   1.723   2.518   3.147
 8570SOL    HW226610   1.771   2.368   3.190
 8571SOL     OW26611   1.492   1.065   2.946
 8571SOL    HW126612   1.570   1.005   2.964
 8571SOL    HW226613   1.484   1.132   3.019
 8572SOL     OW26614   3.001   4.348   5.544
 8572SOL    HW126615   3.074   4.358   5.611
 8572SOL    HW226616   3.040   4.341   5.452
 8573SOL     OW26617   4.135   6.261   0.392
 8573SOL    HW126618   4.047   6.260   0.439
 8573SOL    HW226619   4.143   6.181   0.332
 8574SOL     OW26620   5.285   0.864   4.860
 8574SOL    HW126621   5.330   0.785   4.819
 8574SOL    HW226622   5.354   0.933   4.883
 8575SOL     OW26623   3.020   6.150   3.363
 8575SOL    HW126624   3.067   6.176   3.279
 8575SOL    HW226625   2.943   6.212   3.380
 8576SOL     OW26626   1.270   4.943   3.329
 8576SOL    HW126627   1.281   4.984   3.238
 8576SOL    HW226628   1.254   4.845   3.319
 8577SOL     OW26629   1.583   1.815   0.735
 8577SOL    HW126630   1.490   1.782   0.721
 8577SOL    HW226631   1.649   1.744   0.710
 8578SOL     OW26632   6.882   6.716   6.159
 8578SOL    HW126633   6.946   6.686   6.230
 8578SOL    HW226634   6.906   6.671   6.073
 8579SOL     OW26635   3.180   6.273   2.802
 8579SOL    HW126636   3.210   6.357   2.847
 8579SOL    HW226637   3.107   6.295   2.737
 8580SOL     OW26638   2.717   0.444   1.137
 8580SOL    HW126639   2.700   0.347   1.125
 8580SOL    HW226640   2.665   0.478   1.215
 8581SOL     OW26641   3.006   5.213   1.644
 8581SOL    HW126642   2.953   5.298   1.639
 8581SOL    HW226643   3.100   5.231   1.615
 8582SOL     OW26644   3.728   4.637   5.916
 8582SOL    HW126645   3.673   4.567   5.959
 8582SOL    HW226646   3.825   4.616   5.927
 8583SOL     OW26647   4.497   0.569   2.889
 8583SOL    HW126648   4.446   0.617   2.818
 8583SOL    HW226649   4.436   0.546   2.965
 8584SOL     OW26650   6.755   1.508   4.774
 8584SOL    HW126651   6.807   1.568   4.714
 8584SOL    HW226652   6.665   1.547   4.790
 8585SOL     OW26653   5.410   2.251   2.420
 8585SOL    HW126654   5.406   2.227   2.323
 8585SOL    HW226655   5.498   2.293   2.441
 8586SOL     OW26656   6.489   5.967   0.698
 8586SOL    HW126657   6.547   5.970   0.617
 8586SOL    HW226658   6.393   5.968   0.670
 8587SOL     OW26659   1.110   1.789   6.825
 8587SOL    HW126660   1.156   1.861   6.772
 8587SOL    HW226661   1.061   1.728   6.763
 8588SOL     OW26662   2.319   1.652   7.001
 8588SOL    HW126663   2.377   1.631   0.056
 8588SOL    HW226664   2.374   1.653   6.918
 8589SOL     OW26665   6.707   2.548   6.632
 8589SOL    HW126666   6.646   2.625   6.652
 8589SOL    HW226667   6.737   2.506   6.717
 8590SOL     OW26668   1.374   1.246   3.915
 8590SOL    HW126669   1.349   1.320   3.977
 8590SOL    HW226670   1.427   1.177   3.964
 8591SOL     OW26671   6.331   4.134   6.722
 8591SOL    HW126672   6.309   4.059   6.784
 8591SOL    HW226673   6.264   4.208   6.734
 8592SOL     OW26674   1.110   1.693   5.778
 8592SOL    HW126675   1.145   1.725   5.866
 8592SOL    HW226676   1.010   1.689   5.782
 8593SOL     OW26677   3.800   1.375   0.259
 8593SOL    HW126678   3.847   1.338   0.339
 8593SOL    HW226679   3.814   1.314   0.181
 8594SOL     OW26680   6.436   2.935   5.489
 8594SOL    HW126681   6.534   2.935   5.508
 8594SOL    HW226682   6.418   2.985   5.405
 8595SOL     OW26683   6.420   6.579   2.353
 8595SOL    HW126684   6.346   6.628   2.401
 8595SOL    HW226685   6.483   6.646   2.313
 8596SOL     OW26686   1.027   1.482   3.925
 8596SOL    HW126687   1.015   1.504   3.828
 8596SOL    HW226688   0.944   1.439   3.960
 8597SOL     OW26689   5.529   3.254   0.028
 8597SOL    HW126690   5.507   3.158   0.013
 8597SOL    HW226691   5.514   3.277   0.124
 8598SOL     OW26692   6.282   6.737   4.182
 8598SOL    HW126693   6.275   6.729   4.282
 8598SOL    HW226694   6.327   6.824   4.159
 8599SOL     OW26695   0.372   3.229   4.009
 8599SOL    HW126696   0.293   3.169   4.023
 8599SOL    HW226697   0.452   3.174   3.983
 8600SOL     OW26698   4.277   2.308   1.019
 8600SOL    HW126699   4.370   2.270   1.023
 8600SOL    HW226700   4.280   2.405   1.042
 8601SOL     OW26701   0.850   6.568   3.064
 8601SOL    HW126702   0.927   6.593   3.005
 8601SOL    HW226703   0.863   6.474   3.096
 8602SOL     OW26704   2.445   6.749   5.163
 8602SOL    HW126705   2.396   6.836   5.175
 8602SOL    HW226706   2.516   6.760   5.093
 8603SOL     OW26707   0.226   0.394   0.252
 8603SOL    HW126708   0.299   0.461   0.242
 8603SOL    HW226709   0.253   0.309   0.206
 8604SOL     OW26710   0.253   4.441   5.942
 8604SOL    HW126711   0.208   4.530   5.934
 8604SOL    HW226712   0.336   4.450   5.997
 8605SOL     OW26713   0.029   5.523   4.473
 8605SOL    HW126714   0.077   5.476   4.547
 8605SOL    HW226715   0.069   5.613   4.458
 8606SOL     OW26716   1.721   2.451   0.491
 8606SOL    HW126717   1.689   2.415   0.404
 8606SOL    HW226718   1.781   2.530   0.475
 8607SOL     OW26719   2.428   4.419   1.450
 8607SOL    HW126720   2.445   4.354   1.524
 8607SOL    HW226721   2.445   4.512   1.483
 8608SOL     OW26722   2.317   5.028   2.910
 8608SOL    HW126723   2.355   5.101   2.967
 8608SOL    HW226724   2.337   5.049   2.814
 8609SOL     OW26725   4.884   1.184   4.297
 8609SOL    HW126726   4.856   1.267   4.247
 8609SOL    HW226727   4.838   1.182   4.386
 8610SOL     OW26728   0.441   5.985   3.091
 8610SOL    HW126729   0.462   5.905   3.035
 8610SOL    HW226730   0.408   6.059   3.033
 8611SOL     OW26731   3.122   1.526   4.903
 8611SOL    HW126732   3.079   1.443   4.868
 8611SOL    HW226733   3.073   1.556   4.986
 8612SOL     OW26734   3.884   4.006   3.922
 8612SOL    HW126735   3.955   3.943   3.891
 8612SOL    HW226736   3.831   4.039   3.843
 8613SOL     OW26737   3.726   2.908   1.715
 8613SOL    HW126738   3.715   2.939   1.809
 8613SOL    HW226739   3.816   2.865   1.704
 8614SOL     OW26740   1.402   2.012   3.002
 8614SOL    HW126741   1.467   1.960   3.059
 8614SOL    HW226742   1.393   1.967   2.913
 8615SOL     OW26743   4.213   1.493   4.491
 8615SOL    HW126744   4.201   1.398   4.461
 8615SOL    HW226745   4.268   1.543   4.424
 8616SOL     OW26746   4.618   4.284   3.057
 8616SOL    HW126747   4.674   4.228   2.996
 8616SOL    HW226748   4.587   4.366   3.009
 8617SOL     OW26749   3.342   0.183   3.728
 8617SOL    HW126750   3.300   0.163   3.639
 8617SOL    HW226751   3.433   0.143   3.732
 8618SOL     OW26752   5.746   4.903   0.653
 8618SOL    HW126753   5.842   4.902   0.683
 8618SOL    HW226754   5.729   4.825   0.593
 8619SOL     OW26755   4.889   4.863   0.648
 8619SOL    HW126756   4.943   4.917   0.713
 8619SOL    HW226757   4.943   4.785   0.616
 8620SOL     OW26758   1.998   0.228   4.851
 8620SOL    HW126759   2.080   0.260   4.898
 8620SOL    HW226760   1.917   0.265   4.896
 8621SOL     OW26761   5.497   2.615   1.577
 8621SOL    HW126762   5.520   2.612   1.480
 8621SOL    HW226763   5.581   2.614   1.632
 8622SOL     OW26764   6.354   4.846   2.559
 8622SOL    HW126765   6.286   4.825   2.629
 8622SOL    HW226766   6.443   4.860   2.602
 8623SOL     OW26767   0.718   3.454   4.397
 8623SOL    HW126768   0.732   3.357   4.376
 8623SOL    HW226769   0.725   3.507   4.313
 8624SOL     OW26770   2.970   3.902   5.112
 8624SOL    HW126771   2.963   3.810   5.150
 8624SOL    HW226772   2.898   3.960   5.150
 8625SOL     OW26773   4.288   2.541   5.595
 8625SOL    HW126774   4.345   2.590   5.528
 8625SOL    HW226775   4.246   2.606   5.657
 8626SOL     OW26776   3.714   4.188   0.883
 8626SOL    HW126777   3.810   4.163   0.873
 8626SOL    HW226778   3.689   4.254   0.811
 8627SOL     OW26779   1.698   0.634   2.173
 8627SOL    HW126780   1.653   0.546   2.188
 8627SOL    HW226781   1.646   0.686   2.105
 8628SOL     OW26782   0.787   6.364   0.844
 8628SOL    HW126783   0.874   6.346   0.800
 8628SOL    HW226784   0.757   6.282   0.892
 8629SOL     OW26785   6.522   6.759   5.388
 8629SOL    HW126786   6.554   6.731   5.297
 8629SOL    HW226787   6.554   6.852   5.407
 8630SOL     OW26788   5.370   3.262   2.456
 8630SOL    HW126789   5.300   3.190   2.447
 8630SOL    HW226790   5.326   3.349   2.475
 8631SOL     OW26791   2.661   6.958   0.299
 8631SOL    HW126792   2.678   7.004   0.387
 8631SOL    HW226793   2.705   6.868   0.300
 8632SOL     OW26794   5.227   4.775   5.702
 8632SOL    HW126795   5.183   4.865   5.702
 8632SOL    HW226796   5.326   4.786   5.711
 8633SOL     OW26797   5.436   4.149   6.451
 8633SOL    HW126798   5.419   4.210   6.374
 8633SOL    HW226799   5.351   4.102   6.476
 8634SOL     OW26800   4.836   3.462   7.019
 8634SOL    HW126801   4.926   3.444   0.035
 8634SOL    HW226802   4.788   3.530   0.049
 8635SOL     OW26803   5.899   2.502   6.188
 8635SOL    HW126804   5.818   2.531   6.239
 8635SOL    HW226805   5.982   2.526   6.240
 8636SOL     OW26806   5.228   6.761   0.991
 8636SOL    HW126807   5.151   6.712   1.032
 8636SOL    HW226808   5.263   6.828   1.056
 8637SOL     OW26809   1.383   2.007   0.374
 8637SOL    HW126810   1.466   1.957   0.346
 8637SOL    HW226811   1.349   1.970   0.460
 8638SOL     OW26812   4.835   2.405   4.441
 8638SOL    HW126813   4.822   2.504   4.454
 8638SOL    HW226814   4.870   2.365   4.526
 8639SOL     OW26815   3.324   4.326   6.793
 8639SOL    HW126816   3.261   4.263   6.837
 8639SOL    HW226817   3.278   4.414   6.778
 8640SOL     OW26818   2.661   3.355   1.467
 8640SOL    HW126819   2.670   3.268   1.419
 8640SOL    HW226820   2.623   3.338   1.558
 8641SOL     OW26821   4.414   6.277   2.301
 8641SOL    HW126822   4.431   6.332   2.383
 8641SOL    HW226823   4.487   6.210   2.291
 8642SOL     OW26824   1.164   5.751   3.884
 8642SOL    HW126825   1.105   5.739   3.804
 8642SOL    HW226826   1.259   5.757   3.854
 8643SOL     OW26827   4.013   6.057   1.290
 8643SOL    HW126828   3.941   6.124   1.271
 8643SOL    HW226829   4.054   6.026   1.204
 8644SOL     OW26830   6.625   1.848   6.503
 8644SOL    HW126831   6.720   1.823   6.519
 8644SOL    HW226832   6.567   1.769   6.521
 8645SOL     OW26833   5.758   3.785   2.244
 8645SOL    HW126834   5.761   3.686   2.249
 8645SOL    HW226835   5.666   3.817   2.267
 8646SOL     OW26836   0.344   2.278   4.861
 8646SOL    HW126837   0.382   2.365   4.893
 8646SOL    HW226838   0.322   2.220   4.940
 8647SOL     OW26839   2.620   5.227   1.849
 8647SOL    HW126840   2.600   5.290   1.774
 8647SOL    HW226841   2.635   5.279   1.933
 8648SOL     OW26842   5.240   5.355   0.259
 8648SOL    HW126843   5.240   5.264   0.300
 8648SOL    HW226844   5.222   5.348   0.161
 8649SOL     OW26845   4.385   0.597   1.474
 8649SOL    HW126846   4.405   0.694   1.462
 8649SOL    HW226847   4.335   0.562   1.395
 8650SOL     OW26848   2.267   6.957   4.764
 8650SOL    HW126849   2.207   6.961   4.843
 8650SOL    HW226850   2.362   6.973   4.792
 8651SOL     OW26851   3.527   1.909   1.039
 8651SOL    HW126852   3.537   1.997   1.084
 8651SOL    HW226853   3.610   1.888   0.987
 8652SOL     OW26854   1.030   3.043   3.507
 8652SOL    HW126855   0.959   3.106   3.540
 8652SOL    HW226856   0.989   2.973   3.448
 8653SOL     OW26857   6.887   1.699   6.021
 8653SOL    HW126858   6.938   1.681   5.937
 8653SOL    HW226859   6.945   1.750   6.085
 8654SOL     OW26860   0.538   4.576   1.627
 8654SOL    HW126861   0.585   4.570   1.539
 8654SOL    HW226862   0.453   4.524   1.623
 8655SOL     OW26863   0.366   0.623   4.545
 8655SOL    HW126864   0.436   0.664   4.602
 8655SOL    HW226865   0.408   0.558   4.482
 8656SOL     OW26866   4.856   0.216   1.149
 8656SOL    HW126867   4.784   0.225   1.219
 8656SOL    HW226868   4.918   0.142   1.174
 8657SOL     OW26869   4.627   1.222   3.551
 8657SOL    HW126870   4.621   1.306   3.498
 8657SOL    HW226871   4.723   1.193   3.558
 8658SOL     OW26872   6.907   4.447   0.667
 8658SOL    HW126873   6.815   4.452   0.629
 8658SOL    HW226874   6.947   4.539   0.670
 8659SOL     OW26875   4.152   0.789   2.551
 8659SOL    HW126876   4.161   0.888   2.563
 8659SOL    HW226877   4.056   0.765   2.546
 8660SOL     OW26878   6.595   3.522   1.921
 8660SOL    HW126879   6.593   3.620   1.900
 8660SOL    HW226880   6.538   3.504   2.002
 8661SOL     OW26881   6.319   3.841   2.933
 8661SOL    HW126882   6.412   3.804   2.941
 8661SOL    HW226883   6.253   3.765   2.934
 8662SOL     OW26884   2.486   4.445   3.476
 8662SOL    HW126885   2.430   4.471   3.397
 8662SOL    HW226886   2.563   4.507   3.485
 8663SOL     OW26887   4.108   5.357   2.651
 8663SOL    HW126888   4.109   5.457   2.652
 8663SOL    HW226889   4.202   5.323   2.644
 8664SOL     OW26890   3.264   6.046   4.260
 8664SOL    HW126891   3.325   5.971   4.286
 8664SOL    HW226892   3.258   6.050   4.160
 8665SOL     OW26893   5.454   3.151   6.468
 8665SOL    HW126894   5.403   3.089   6.527
 8665SOL    HW226895   5.396   3.228   6.443
 8666SOL     OW26896   4.651   6.407   2.713
 8666SOL    HW126897   4.639   6.317   2.755
 8666SOL    HW226898   4.718   6.460   2.765
 8667SOL     OW26899   5.132   2.013   3.650
 8667SOL    HW126900   5.189   1.964   3.584
 8667SOL    HW226901   5.141   2.112   3.635
 8668SOL     OW26902   4.976   2.550   5.014
 8668SOL    HW126903   4.948   2.611   4.940
 8668SOL    HW226904   4.949   2.590   5.102
 8669SOL     OW26905   5.862   6.139   5.757
 8669SOL    HW126906   5.841   6.214   5.819
 8669SOL    HW226907   5.812   6.057   5.785
 8670SOL     OW26908   5.942   3.924   5.821
 8670SOL    HW126909   5.879   3.875   5.881
 8670SOL    HW226910   5.959   3.869   5.739
 8671SOL     OW26911   6.961   1.712   2.610
 8671SOL    HW126912   0.017   1.765   2.581
 8671SOL    HW226913   6.881   1.771   2.612
 8672SOL     OW26914   0.934   0.843   3.251
 8672SOL    HW126915   0.914   0.843   3.153
 8672SOL    HW226916   0.855   0.876   3.302
 8673SOL     OW26917   0.569   1.071   0.905
 8673SOL    HW126918   0.668   1.059   0.896
 8673SOL    HW226919   0.538   1.139   0.838
 8674SOL     OW26920   6.607   4.796   3.571
 8674SOL    HW126921   6.685   4.791   3.633
 8674SOL    HW226922   6.543   4.866   3.605
 8675SOL     OW26923   3.857   2.006   5.258
 8675SOL    HW126924   3.770   1.958   5.241
 8675SOL    HW226925   3.840   2.084   5.318
 8676SOL     OW26926   5.349   1.802   0.679
 8676SOL    HW126927   5.333   1.753   0.594
 8676SOL    HW226928   5.435   1.771   0.720
 8677SOL     OW26929   1.996   6.636   6.192
 8677SOL    HW126930   1.960   6.716   6.239
 8677SOL    HW226931   2.096   6.643   6.185
 8678SOL     OW26932   1.383   1.813   1.083
 8678SOL    HW126933   1.315   1.792   1.153
 8678SOL    HW226934   1.381   1.911   1.063
 8679SOL     OW26935   1.634   1.649   4.622
 8679SOL    HW126936   1.667   1.554   4.627
 8679SOL    HW226937   1.553   1.659   4.680
 8680SOL     OW26938   6.469   1.305   6.546
 8680SOL    HW126939   6.432   1.227   6.596
 8680SOL    HW226940   6.569   1.304   6.551
 8681SOL     OW26941   5.726   5.907   1.905
 8681SOL    HW126942   5.684   5.996   1.884
 8681SOL    HW226943   5.745   5.901   2.003
 8682SOL     OW26944   1.075   0.946   1.011
 8682SOL    HW126945   1.006   0.884   0.975
 8682SOL    HW226946   1.032   1.013   1.071
 8683SOL     OW26947   1.694   4.164   4.729
 8683SOL    HW126948   1.699   4.067   4.706
 8683SOL    HW226949   1.619   4.206   4.678
 8684SOL     OW26950   0.858   3.942   4.794
 8684SOL    HW126951   0.950   3.902   4.791
 8684SOL    HW226952   0.796   3.879   4.839
 8685SOL     OW26953   5.047   2.313   5.147
 8685SOL    HW126954   5.141   2.340   5.168
 8685SOL    HW226955   5.000   2.387   5.100
 8686SOL     OW26956   0.278   5.269   2.637
 8686SOL    HW126957   0.327   5.319   2.566
 8686SOL    HW226958   0.231   5.333   2.697
 8687SOL     OW26959   5.447   3.602   4.776
 8687SOL    HW126960   5.368   3.589   4.718
 8687SOL    HW226961   5.418   3.607   4.872
 8688SOL     OW26962   0.831   3.960   6.264
 8688SOL    HW126963   0.734   3.973   6.240
 8688SOL    HW226964   0.882   3.933   6.182
 8689SOL     OW26965   3.962   3.702   6.756
 8689SOL    HW126966   3.913   3.787   6.777
 8689SOL    HW226967   4.060   3.715   6.772
 8690SOL     OW26968   1.918   2.223   3.381
 8690SOL    HW126969   1.922   2.190   3.475
 8690SOL    HW226970   1.940   2.321   3.379
 8691SOL     OW26971   3.283   2.536   5.383
 8691SOL    HW126972   3.251   2.474   5.311
 8691SOL    HW226973   3.246   2.506   5.471
 8692SOL     OW26974   4.216   1.801   5.558
 8692SOL    HW126975   4.234   1.804   5.460
 8692SOL    HW226976   4.254   1.883   5.601
 8693SOL     OW26977   6.640   0.164   6.643
 8693SOL    HW126978   6.560   0.184   6.585
 8693SOL    HW226979   6.719   0.215   6.608
 8694SOL     OW26980   6.299   3.549   4.236
 8694SOL    HW126981   6.372   3.611   4.208
 8694SOL    HW226982   6.224   3.553   4.170
 8695SOL     OW26983   3.812   4.210   5.951
 8695SOL    HW126984   3.784   4.116   5.932
 8695SOL    HW226985   3.908   4.213   5.976
 8696SOL     OW26986   3.385   5.583   6.169
 8696SOL    HW126987   3.305   5.550   6.119
 8696SOL    HW226988   3.444   5.505   6.192
 8697SOL     OW26989   1.638   3.027   5.921
 8697SOL    HW126990   1.561   2.983   5.875
 8697SOL    HW226991   1.724   2.991   5.885
 8698SOL     OW26992   5.623   5.641   5.046
 8698SOL    HW126993   5.573   5.725   5.024
 8698SOL    HW226994   5.704   5.664   5.100
 8699SOL     OW26995   1.436   3.152   6.834
 8699SOL    HW126996   1.459   3.057   6.855
 8699SOL    HW226997   1.344   3.156   6.796
 8700SOL     OW26998   0.963   6.790   5.039
 8700SOL    HW126999   0.905   6.870   5.026
 8700SOL    HW227000   0.907   6.713   5.070
 8701SOL     OW27001   0.509   2.577   0.579
 8701SOL    HW127002   0.512   2.516   0.658
 8701SOL    HW227003   0.523   2.525   0.495
 8702SOL     OW27004   5.239   4.600   1.963
 8702SOL    HW127005   5.156   4.566   2.008
 8702SOL    HW227006   5.253   4.696   1.988
 8703SOL     OW27007   2.977   5.423   1.351
 8703SOL    HW127008   3.044   5.369   1.301
 8703SOL    HW227009   2.888   5.379   1.346
 8704SOL     OW27010   0.525   0.563   4.336
 8704SOL    HW127011   0.601   0.572   4.271
 8704SOL    HW227012   0.438   0.573   4.288
 8705SOL     OW27013   4.267   2.515   0.132
 8705SOL    HW127014   4.292   2.539   0.038
 8705SOL    HW227015   4.169   2.532   0.145
 8706SOL     OW27016   4.613   3.217   6.605
 8706SOL    HW127017   4.556   3.164   6.668
 8706SOL    HW227018   4.623   3.310   6.641
 8707SOL     OW27019   1.926   2.109   4.812
 8707SOL    HW127020   1.918   2.083   4.716
 8707SOL    HW227021   2.022   2.107   4.839
 8708SOL     OW27022   6.352   2.250   1.538
 8708SOL    HW127023   6.266   2.200   1.544
 8708SOL    HW227024   6.335   2.342   1.505
 8709SOL     OW27025   6.370   0.347   5.794
 8709SOL    HW127026   6.371   0.421   5.726
 8709SOL    HW227027   6.444   0.283   5.775
 8710SOL     OW27028   2.633   1.087   3.082
 8710SOL    HW127029   2.638   1.127   2.991
 8710SOL    HW227030   2.670   0.994   3.080
 8711SOL     OW27031   1.688   0.871   1.486
 8711SOL    HW127032   1.758   0.932   1.524
 8711SOL    HW227033   1.730   0.810   1.419
 8712SOL     OW27034   1.902   2.991   5.831
 8712SOL    HW127035   1.929   3.069   5.775
 8712SOL    HW227036   1.911   3.015   5.928
 8713SOL     OW27037   0.306   5.110   1.570
 8713SOL    HW127038   0.357   5.158   1.642
 8713SOL    HW227039   0.211   5.140   1.570
 8714SOL     OW27040   0.123   6.189   6.911
 8714SOL    HW127041   0.035   6.215   6.951
 8714SOL    HW227042   0.182   6.150   6.982
 8715SOL     OW27043   2.414   3.229   1.481
 8715SOL    HW127044   2.408   3.134   1.451
 8715SOL    HW227045   2.451   3.232   1.574
 8716SOL     OW27046   6.708   6.848   1.812
 8716SOL    HW127047   6.633   6.914   1.807
 8716SOL    HW227048   6.699   6.781   1.738
 8717SOL     OW27049   2.873   4.155   0.942
 8717SOL    HW127050   2.940   4.227   0.954
 8717SOL    HW227051   2.857   4.140   0.844
 8718SOL     OW27052   2.422   4.372   6.799
 8718SOL    HW127053   2.448   4.467   6.814
 8718SOL    HW227054   2.406   4.357   6.701
 8719SOL     OW27055   4.273   0.127   5.831
 8719SOL    HW127056   4.200   0.129   5.762
 8719SOL    HW227057   4.285   0.033   5.863
 8720SOL     OW27058   6.687   4.712   5.224
 8720SOL    HW127059   6.594   4.694   5.195
 8720SOL    HW227060   6.686   4.772   5.305
 8721SOL     OW27061   0.467   0.499   6.429
 8721SOL    HW127062   0.505   0.457   6.347
 8721SOL    HW227063   0.499   0.450   6.510
 8722SOL     OW27064   3.194   1.515   1.233
 8722SOL    HW127065   3.279   1.563   1.210
 8722SOL    HW227066   3.209   1.416   1.225
 8723SOL     OW27067   4.806   0.116   2.355
 8723SOL    HW127068   4.791   0.029   2.402
 8723SOL    HW227069   4.723   0.141   2.305
 8724SOL     OW27070   4.167   1.148   4.829
 8724SOL    HW127071   4.184   1.064   4.778
 8724SOL    HW227072   4.096   1.131   4.898
 8725SOL     OW27073   0.083   6.548   3.754
 8725SOL    HW127074   7.022   6.547   3.806
 8725SOL    HW227075   0.122   6.640   3.757
 8726SOL     OW27076   0.336   0.899   0.668
 8726SOL    HW127077   0.343   0.938   0.760
 8726SOL    HW227078   0.245   0.859   0.657
 8727SOL     OW27079   4.564   5.303   5.946
 8727SOL    HW127080   4.619   5.223   5.922
 8727SOL    HW227081   4.474   5.272   5.979
 8728SOL     OW27082   6.977   0.143   3.625
 8728SOL    HW127083   0.051   0.153   3.638
 8728SOL    HW227084   6.938   0.092   3.701
 8729SOL     OW27085   3.933   6.607   6.565
 8729SOL    HW127086   4.004   6.626   6.634
 8729SOL    HW227087   3.915   6.509   6.563
 8730SOL     OW27088   4.770   5.394   2.083
 8730SOL    HW127089   4.733   5.309   2.045
 8730SOL    HW227090   4.844   5.373   2.147
 8731SOL     OW27091   0.502   1.534   3.338
 8731SOL    HW127092   0.447   1.609   3.300
 8731SOL    HW227093   0.449   1.450   3.339
 8732SOL     OW27094   5.672   6.434   0.654
 8732SOL    HW127095   5.713   6.420   0.745
 8732SOL    HW227096   5.688   6.528   0.624
 8733SOL     OW27097   6.402   5.288   1.613
 8733SOL    HW127098   6.403   5.315   1.516
 8733SOL    HW227099   6.424   5.367   1.669
 8734SOL     OW27100   0.200   3.959   2.180
 8734SOL    HW127101   0.294   3.928   2.169
 8734SOL    HW227102   0.138   3.884   2.158
 8735SOL     OW27103   1.061   3.645   5.479
 8735SOL    HW127104   1.037   3.646   5.382
 8735SOL    HW227105   1.033   3.557   5.519
 8736SOL     OW27106   0.884   5.969   3.412
 8736SOL    HW127107   0.935   6.055   3.410
 8736SOL    HW227108   0.948   5.893   3.425
 8737SOL     OW27109   1.598   6.688   0.094
 8737SOL    HW127110   1.606   6.776   0.048
 8737SOL    HW227111   1.668   6.682   0.166
 8738SOL     OW27112   1.140   2.444   3.485
 8738SOL    HW127113   1.202   2.464   3.561
 8738SOL    HW227114   1.055   2.407   3.521
 8739SOL     OW27115   4.970   4.277   5.586
 8739SOL    HW127116   4.881   4.254   5.627
 8739SOL    HW227117   4.979   4.377   5.580
 8740SOL     OW27118   2.855   0.769   5.268
 8740SOL    HW127119   2.804   0.684   5.253
 8740SOL    HW227120   2.875   0.779   5.365
 8741SOL     OW27121   0.787   0.246   2.774
 8741SOL    HW127122   0.711   0.185   2.750
 8741SOL    HW227123   0.752   0.334   2.805
 8742SOL     OW27124   2.477   1.638   2.723
 8742SOL    HW127125   2.475   1.618   2.625
 8742SOL    HW227126   2.563   1.686   2.744
 8743SOL     OW27127   0.344   2.058   1.800
 8743SOL    HW127128   0.274   2.060   1.871
 8743SOL    HW227129   0.331   1.978   1.742
 8744SOL     OW27130   3.127   4.387   6.488
 8744SOL    HW127131   3.089   4.462   6.435
 8744SOL    HW227132   3.202   4.421   6.545
 8745SOL     OW27133   5.924   1.548   5.936
 8745SOL    HW127134   5.932   1.525   5.839
 8745SOL    HW227135   6.011   1.528   5.982
 8746SOL     OW27136   4.352   5.096   4.679
 8746SOL    HW127137   4.375   5.001   4.701
 8746SOL    HW227138   4.252   5.107   4.681
 8747SOL     OW27139   0.500   0.552   1.660
 8747SOL    HW127140   0.528   0.456   1.650
 8747SOL    HW227141   0.430   0.559   1.730
 8748SOL     OW27142   0.001   1.947   3.356
 8748SOL    HW127143   0.057   2.029   3.366
 8748SOL    HW227144   0.007   1.892   3.439
 8749SOL     OW27145   2.956   1.286   4.561
 8749SOL    HW127146   2.926   1.378   4.536
 8749SOL    HW227147   2.920   1.220   4.496
 8750SOL     OW27148   4.077   3.023   6.458
 8750SOL    HW127149   4.030   2.936   6.475
 8750SOL    HW227150   4.039   3.093   6.518
 8751SOL     OW27151   1.282   6.138   1.656
 8751SOL    HW127152   1.373   6.129   1.615
 8751SOL    HW227153   1.291   6.171   1.750
 8752SOL     OW27154   5.389   3.706   6.726
 8752SOL    HW127155   5.430   3.712   6.817
 8752SOL    HW227156   5.309   3.765   6.722
 8753SOL     OW27157   2.584   2.937   0.324
 8753SOL    HW127158   2.586   3.035   0.340
 8753SOL    HW227159   2.491   2.909   0.297
 8754SOL     OW27160   2.360   5.096   0.078
 8754SOL    HW127161   2.347   5.177   0.135
 8754SOL    HW227162   2.279   5.082   0.022
 8755SOL     OW27163   6.630   2.608   2.370
 8755SOL    HW127164   6.623   2.589   2.272
 8755SOL    HW227165   6.539   2.615   2.410
 8756SOL     OW27166   1.753   1.484   2.171
 8756SOL    HW127167   1.752   1.388   2.144
 8756SOL    HW227168   1.803   1.494   2.257
 8757SOL     OW27169   5.530   6.314   5.645
 8757SOL    HW127170   5.574   6.403   5.633
 8757SOL    HW227171   5.599   6.242   5.644
 8758SOL     OW27172   3.363   5.738   5.165
 8758SOL    HW127173   3.373   5.704   5.259
 8758SOL    HW227174   3.346   5.837   5.167
 8759SOL     OW27175   5.671   0.728   0.227
 8759SOL    HW127176   5.702   0.810   0.179
 8759SOL    HW227177   5.605   0.755   0.297
 8760SOL     OW27178   2.280   2.408   4.264
 8760SOL    HW127179   2.204   2.447   4.213
 8760SOL    HW227180   2.254   2.396   4.360
 8761SOL     OW27181   4.546   1.066   2.338
 8761SOL    HW127182   4.487   0.989   2.313
 8761SOL    HW227183   4.626   1.032   2.388
 8762SOL     OW27184   1.520   4.565   2.635
 8762SOL    HW127185   1.600   4.529   2.682
 8762SOL    HW227186   1.549   4.615   2.553
 8763SOL     OW27187   0.853   1.085   6.388
 8763SOL    HW127188   0.925   1.093   6.319
 8763SOL    HW227189   0.824   0.989   6.395
 8764SOL     OW27190   2.905   4.991   5.482
 8764SOL    HW127191   2.944   4.968   5.392
 8764SOL    HW227192   2.914   5.089   5.498
 8765SOL     OW27193   5.207   0.646   4.508
 8765SOL    HW127194   5.290   0.652   4.563
 8765SOL    HW227195   5.136   0.597   4.559
 8766SOL     OW27196   5.109   5.603   6.056
 8766SOL    HW127197   5.208   5.620   6.049
 8766SOL    HW227198   5.086   5.519   6.007
 8767SOL     OW27199   2.731   0.920   4.134
 8767SOL    HW127200   2.682   0.835   4.149
 8767SOL    HW227201   2.705   0.987   4.203
 8768SOL     OW27202   6.079   2.069   6.851
 8768SOL    HW127203   6.027   1.990   6.820
 8768SOL    HW227204   6.169   2.069   6.807
 8769SOL     OW27205   6.203   0.355   0.224
 8769SOL    HW127206   6.167   0.446   0.203
 8769SOL    HW227207   6.302   0.360   0.233
 8770SOL     OW27208   5.378   3.321   0.603
 8770SOL    HW127209   5.421   3.316   0.693
 8770SOL    HW227210   5.421   3.394   0.550
 8771SOL     OW27211   0.347   3.770   0.375
 8771SOL    HW127212   0.299   3.782   0.462
 8771SOL    HW227213   0.310   3.691   0.327
 8772SOL     OW27214   5.823   0.079   4.005
 8772SOL    HW127215   5.881   0.057   3.926
 8772SOL    HW227216   5.779   0.167   3.991
 8773SOL     OW27217   0.040   1.240   3.650
 8773SOL    HW127218   7.003   1.271   3.577
 8773SOL    HW227219   7.014   1.239   3.736
 8774SOL     OW27220   1.837   1.681   0.755
 8774SOL    HW127221   1.827   1.708   0.851
 8774SOL    HW227222   1.823   1.582   0.746
 8775SOL     OW27223   5.572   2.086   4.294
 8775SOL    HW127224   5.612   2.008   4.343
 8775SOL    HW227225   5.642   2.157   4.284
 8776SOL     OW27226   4.246   3.110   0.612
 8776SOL    HW127227   4.169   3.054   0.582
 8776SOL    HW227228   4.229   3.206   0.589
 8777SOL     OW27229   0.537   1.980   3.523
 8777SOL    HW127230   0.567   1.928   3.603
 8777SOL    HW227231   0.439   2.000   3.530
 8778SOL     OW27232   3.496   4.965   0.157
 8778SOL    HW127233   3.421   5.028   0.176
 8778SOL    HW227234   3.507   4.902   0.235
 8779SOL     OW27235   4.592   4.887   3.999
 8779SOL    HW127236   4.623   4.840   4.082
 8779SOL    HW227237   4.502   4.927   4.014
 8780SOL     OW27238   5.683   5.060   3.741
 8780SOL    HW127239   5.764   5.009   3.715
 8780SOL    HW227240   5.606   4.997   3.754
 8781SOL     OW27241   3.424   6.811   1.585
 8781SOL    HW127242   3.386   6.735   1.637
 8781SOL    HW227243   3.350   6.864   1.543
 8782SOL     OW27244   5.234   1.565   2.042
 8782SOL    HW127245   5.280   1.637   2.095
 8782SOL    HW227246   5.294   1.533   1.969
 8783SOL     OW27247   5.270   3.551   4.549
 8783SOL    HW127248   5.340   3.588   4.487
 8783SOL    HW227249   5.184   3.540   4.500
 8784SOL     OW27250   5.664   0.543   0.807
 8784SOL    HW127251   5.658   0.549   0.707
 8784SOL    HW227252   5.761   0.544   0.834
 8785SOL     OW27253   0.527   4.894   6.295
 8785SOL    HW127254   0.579   4.834   6.356
 8785SOL    HW227255   0.429   4.878   6.307
 8786SOL     OW27256   4.623   1.541   2.251
 8786SOL    HW127257   4.711   1.589   2.244
 8786SOL    HW227258   4.626   1.458   2.195
 8787SOL     OW27259   3.713   6.340   0.702
 8787SOL    HW127260   3.650   6.394   0.646
 8787SOL    HW227261   3.678   6.247   0.709
 8788SOL     OW27262   0.307   0.124   4.258
 8788SOL    HW127263   0.370   0.053   4.226
 8788SOL    HW227264   0.351   0.178   4.329
 8789SOL     OW27265   6.631   3.518   5.662
 8789SOL    HW127266   6.716   3.571   5.664
 8789SOL    HW227267   6.643   3.440   5.600
 8790SOL     OW27268   5.824   3.109   5.900
 8790SOL    HW127269   5.829   3.011   5.915
 8790SOL    HW227270   5.831   3.129   5.802
 8791SOL     OW27271   3.691   5.620   5.557
 8791SOL    HW127272   3.755   5.621   5.480
 8791SOL    HW227273   3.741   5.638   5.642
 8792SOL     OW27274   5.337   5.123   1.135
 8792SOL    HW127275   5.304   5.120   1.230
 8792SOL    HW227276   5.359   5.031   1.105
 8793SOL     OW27277   6.949   5.342   4.047
 8793SOL    HW127278   6.868   5.358   3.991
 8793SOL    HW227279   7.003   5.268   4.008
 8794SOL     OW27280   0.467   0.876   2.386
 8794SOL    HW127281   0.476   0.870   2.485
 8794SOL    HW227282   0.557   0.868   2.343
 8795SOL     OW27283   1.201   5.745   6.152
 8795SOL    HW127284   1.214   5.821   6.216
 8795SOL    HW227285   1.104   5.737   6.128
 8796SOL     OW27286   6.682   3.746   3.281
 8796SOL    HW127287   6.591   3.706   3.284
 8796SOL    HW227288   6.695   3.795   3.195
 8797SOL     OW27289   4.572   0.014   4.270
 8797SOL    HW127290   4.667   0.006   4.242
 8797SOL    HW227291   4.512   0.008   4.190
 8798SOL     OW27292   3.205   6.384   5.745
 8798SOL    HW127293   3.292   6.419   5.782
 8798SOL    HW227294   3.221   6.346   5.654
 8799SOL     OW27295   1.502   5.622   2.261
 8799SOL    HW127296   1.520   5.653   2.354
 8799SOL    HW227297   1.413   5.577   2.258
 8800SOL     OW27298   6.689   5.442   6.022
 8800SOL    HW127299   6.779   5.481   6.042
 8800SOL    HW227300   6.628   5.514   5.989
 8801SOL     OW27301   5.909   3.116   5.613
 8801SOL    HW127302   5.936   3.020   5.605
 8801SOL    HW227303   5.868   3.146   5.528
 8802SOL     OW27304   0.963   6.530   6.317
 8802SOL    HW127305   1.014   6.613   6.342
 8802SOL    HW227306   1.000   6.451   6.365
 8803SOL     OW27307   6.001   6.882   6.896
 8803SOL    HW127308   5.932   6.895   6.825
 8803SOL    HW227309   6.086   6.927   6.868
 8804SOL     OW27310   1.867   6.183   2.403
 8804SOL    HW127311   1.783   6.212   2.449
 8804SOL    HW227312   1.845   6.151   2.311
 8805SOL     OW27313   5.380   5.174   3.284
 8805SOL    HW127314   5.465   5.147   3.240
 8805SOL    HW227315   5.394   5.258   3.337
 8806SOL     OW27316   2.215   0.552   1.166
 8806SOL    HW127317   2.180   0.541   1.073
 8806SOL    HW227318   2.259   0.641   1.175
 8807SOL     OW27319   5.000   2.469   1.635
 8807SOL    HW127320   4.998   2.376   1.596
 8807SOL    HW227321   5.049   2.529   1.572
 8808SOL     OW27322   2.249   2.659   0.485
 8808SOL    HW127323   2.313   2.630   0.556
 8808SOL    HW227324   2.161   2.682   0.526
 8809SOL     OW27325   0.268   3.631   3.035
 8809SOL    HW127326   0.205   3.590   3.101
 8809SOL    HW227327   0.275   3.572   2.955
 8810SOL     OW27328   1.101   1.097   6.206
 8810SOL    HW127329   1.199   1.092   6.223
 8810SOL    HW227330   1.084   1.149   6.121
 8811SOL     OW27331   3.669   5.523   2.581
 8811SOL    HW127332   3.582   5.547   2.537
 8811SOL    HW227333   3.714   5.452   2.527
 8812SOL     OW27334   5.036   1.495   6.437
 8812SOL    HW127335   5.022   1.453   6.347
 8812SOL    HW227336   5.063   1.425   6.503
 8813SOL     OW27337   1.872   3.912   3.228
 8813SOL    HW127338   1.861   4.008   3.202
 8813SOL    HW227339   1.969   3.889   3.229
 8814SOL     OW27340   4.914   6.911   5.878
 8814SOL    HW127341   4.987   6.889   5.943
 8814SOL    HW227342   4.876   6.826   5.840
 8815SOL     OW27343   5.779   1.586   6.969
 8815SOL    HW127344   5.875   1.560   6.971
 8815SOL    HW227345   5.733   1.539   6.894
 8816SOL     OW27346   1.027   6.466   4.712
 8816SOL    HW127347   1.050   6.444   4.617
 8816SOL    HW227348   1.089   6.535   4.747
 8817SOL     OW27349   1.712   2.839   3.511
 8817SOL    HW127350   1.799   2.834   3.561
 8817SOL    HW227351   1.659   2.917   3.543
 8818SOL     OW27352   1.624   0.515   4.190
 8818SOL    HW127353   1.533   0.520   4.149
 8818SOL    HW227354   1.630   0.434   4.248
 8819SOL     OW27355   5.608   3.997   6.032
 8819SOL    HW127356   5.577   4.027   6.122
 8819SOL    HW227357   5.614   4.075   5.970
 8820SOL     OW27358   2.983   0.398   4.805
 8820SOL    HW127359   2.997   0.496   4.818
 8820SOL    HW227360   3.050   0.347   4.859
 8821SOL     OW27361   0.412   4.369   6.586
 8821SOL    HW127362   0.338   4.319   6.539
 8821SOL    HW227363   0.390   4.377   6.683
 8822SOL     OW27364   6.560   6.510   4.328
 8822SOL    HW127365   6.549   6.589   4.389
 8822SOL    HW227366   6.497   6.438   4.355
 8823SOL     OW27367   3.876   0.947   2.495
 8823SOL    HW127368   3.852   1.030   2.546
 8823SOL    HW227369   3.829   0.947   2.407
 8824SOL     OW27370   2.183   0.871   2.580
 8824SOL    HW127371   2.113   0.849   2.512
 8824SOL    HW227372   2.180   0.969   2.600
 8825SOL     OW27373   0.081   5.864   0.085
 8825SOL    HW127374   7.017   5.845   0.129
 8825SOL    HW227375   0.152   5.808   0.129
 8826SOL     OW27376   1.429   3.496   0.397
 8826SOL    HW127377   1.522   3.496   0.359
 8826SOL    HW227378   1.365   3.463   0.328
 8827SOL     OW27379   4.229   6.949   2.149
 8827SOL    HW127380   4.299   6.914   2.211
 8827SOL    HW227381   4.257   6.936   2.054
 8828SOL     OW27382   3.192   3.513   6.275
 8828SOL    HW127383   3.209   3.496   6.178
 8828SOL    HW227384   3.117   3.579   6.285
 8829SOL     OW27385   6.528   1.211   2.286
 8829SOL    HW127386   6.488   1.295   2.323
 8829SOL    HW227387   6.483   1.132   2.328
 8830SOL     OW27388   3.032   1.119   3.751
 8830SOL    HW127389   3.041   1.034   3.804
 8830SOL    HW227390   2.970   1.104   3.675
 8831SOL     OW27391   0.376   2.328   2.404
 8831SOL    HW127392   0.276   2.327   2.400
 8831SOL    HW227393   0.413   2.302   2.315
 8832SOL     OW27394   5.845   0.883   4.218
 8832SOL    HW127395   5.922   0.828   4.188
 8832SOL    HW227396   5.878   0.966   4.263
 8833SOL     OW27397   3.744   2.832   1.377
 8833SOL    HW127398   3.682   2.755   1.394
 8833SOL    HW227399   3.724   2.905   1.442
 8834SOL     OW27400   5.135   4.545   5.424
 8834SOL    HW127401   5.187   4.518   5.342
 8834SOL    HW227402   5.039   4.519   5.412
 8835SOL     OW27403   6.909   0.556   5.985
 8835SOL    HW127404   6.873   0.553   5.892
 8835SOL    HW227405   6.840   0.521   6.049
 8836SOL     OW27406   4.568   1.997   0.921
 8836SOL    HW127407   4.481   1.955   0.896
 8836SOL    HW227408   4.553   2.094   0.941
 8837SOL     OW27409   5.099   0.138   1.314
 8837SOL    HW127410   5.103   0.086   1.399
 8837SOL    HW227411   5.069   0.232   1.332
 8838SOL     OW27412   0.287   3.986   2.748
 8838SOL    HW127413   0.302   4.051   2.674
 8838SOL    HW227414   0.283   3.893   2.711
 8839SOL     OW27415   4.947   5.517   3.147
 8839SOL    HW127416   4.869   5.456   3.129
 8839SOL    HW227417   5.031   5.463   3.152
 8840SOL     OW27418   6.959   0.873   1.299
 8840SOL    HW127419   6.943   0.884   1.397
 8840SOL    HW227420   6.871   0.867   1.252
 8841SOL     OW27421   3.195   1.487   1.552
 8841SOL    HW127422   3.205   1.474   1.453
 8841SOL    HW227423   3.142   1.569   1.569
 8842SOL     OW27424   3.705   2.907   4.047
 8842SOL    HW127425   3.606   2.890   4.046
 8842SOL    HW227426   3.733   2.934   4.139
 8843SOL     OW27427   2.269   5.386   6.832
 8843SOL    HW127428   2.219   5.465   6.868
 8843SOL    HW227429   2.350   5.371   6.888
 8844SOL     OW27430   4.609   2.107   5.131
 8844SOL    HW127431   4.606   2.199   5.170
 8844SOL    HW227432   4.696   2.092   5.086
 8845SOL     OW27433   6.982   4.917   1.594
 8845SOL    HW127434   6.888   4.926   1.627
 8845SOL    HW227435   6.982   4.915   1.494
 8846SOL     OW27436   5.612   4.609   4.305
 8846SOL    HW127437   5.520   4.648   4.299
 8846SOL    HW227438   5.652   4.603   4.214
 8847SOL     OW27439   2.582   1.700   3.343
 8847SOL    HW127440   2.576   1.767   3.270
 8847SOL    HW227441   2.616   1.613   3.306
 8848SOL     OW27442   3.680   1.495   0.882
 8848SOL    HW127443   3.595   1.545   0.900
 8848SOL    HW227444   3.758   1.554   0.903
 8849SOL     OW27445   2.271   4.902   4.586
 8849SOL    HW127446   2.238   4.984   4.540
 8849SOL    HW227447   2.233   4.821   4.541
 8850SOL     OW27448   2.968   0.663   1.507
 8850SOL    HW127449   2.983   0.605   1.426
 8850SOL    HW227450   2.877   0.703   1.503
 8851SOL     OW27451   0.309   5.002   2.671
 8851SOL    HW127452   0.292   5.101   2.669
 8851SOL    HW227453   0.407   4.985   2.665
 8852SOL     OW27454   4.926   2.657   5.263
 8852SOL    HW127455   4.895   2.752   5.275
 8852SOL    HW227456   4.869   2.597   5.319
 8853SOL     OW27457   4.456   1.138   5.802
 8853SOL    HW127458   4.531   1.102   5.746
 8853SOL    HW227459   4.440   1.077   5.879
 8854SOL     OW27460   1.284   1.971   6.689
 8854SOL    HW127461   1.321   2.022   6.767
 8854SOL    HW227462   1.359   1.927   6.640
 8855SOL     OW27463   6.050   4.748   6.691
 8855SOL    HW127464   6.133   4.718   6.738
 8855SOL    HW227465   6.074   4.814   6.620
 8856SOL     OW27466   5.876   0.951   4.698
 8856SOL    HW127467   5.855   0.864   4.653
 8856SOL    HW227468   5.919   1.013   4.633
 8857SOL     OW27469   0.006   2.600   4.054
 8857SOL    HW127470   6.984   2.525   4.102
 8857SOL    HW227471   6.996   2.688   4.088
 8858SOL     OW27472   6.953   3.555   6.720
 8858SOL    HW127473   6.930   3.457   6.716
 8858SOL    HW227474   0.027   3.566   6.701
 8859SOL     OW27475   2.160   5.377   5.624
 8859SOL    HW127476   2.233   5.422   5.677
 8859SOL    HW227477   2.182   5.281   5.611
 8860SOL     OW27478   1.214   2.105   2.351
 8860SOL    HW127479   1.251   2.164   2.279
 8860SOL    HW227480   1.135   2.150   2.394
 8861SOL     OW27481   3.452   3.667   0.120
 8861SOL    HW127482   3.373   3.643   0.063
 8861SOL    HW227483   3.498   3.584   0.150
 8862SOL     OW27484   6.119   2.015   4.014
 8862SOL    HW127485   6.154   2.006   3.921
 8862SOL    HW227486   6.052   1.942   4.032
 8863SOL     OW27487   2.343   5.553   5.329
 8863SOL    HW127488   2.388   5.538   5.241
 8863SOL    HW227489   2.393   5.504   5.400
 8864SOL     OW27490   1.277   2.395   6.827
 8864SOL    HW127491   1.339   2.443   6.765
 8864SOL    HW227492   1.183   2.425   6.809
 8865SOL     OW27493   3.512   2.634   6.319
 8865SOL    HW127494   3.605   2.645   6.283
 8865SOL    HW227495   3.508   2.553   6.377
 8866SOL     OW27496   3.612   6.492   4.500
 8866SOL    HW127497   3.566   6.409   4.471
 8866SOL    HW227498   3.551   6.571   4.487
 8867SOL     OW27499   6.792   3.072   4.042
 8867SOL    HW127500   6.739   3.146   4.083
 8867SOL    HW227501   6.846   3.109   3.966
 8868SOL     OW27502   3.825   3.865   0.102
 8868SOL    HW127503   3.836   3.964   0.096
 8868SOL    HW227504   3.863   3.821   0.020
 8869SOL     OW27505   5.223   2.618   3.828
 8869SOL    HW127506   5.311   2.609   3.782
 8869SOL    HW227507   5.232   2.593   3.925
 8870SOL     OW27508   4.382   1.193   0.712
 8870SOL    HW127509   4.291   1.235   0.719
 8870SOL    HW227510   4.375   1.106   0.663
 8871SOL     OW27511   2.506   1.781   3.933
 8871SOL    HW127512   2.555   1.736   3.860
 8871SOL    HW227513   2.567   1.845   3.980
 8872SOL     OW27514   1.740   3.229   4.600
 8872SOL    HW127515   1.651   3.218   4.643
 8872SOL    HW227516   1.808   3.253   4.670
 8873SOL     OW27517   0.312   5.614   4.643
 8873SOL    HW127518   0.401   5.650   4.615
 8873SOL    HW227519   0.265   5.680   4.702
 8874SOL     OW27520   3.129   0.636   0.388
 8874SOL    HW127521   3.190   0.657   0.311
 8874SOL    HW227522   3.077   0.554   0.367
 8875SOL     OW27523   2.045   2.304   4.443
 8875SOL    HW127524   1.997   2.314   4.356
 8875SOL    HW227525   2.104   2.224   4.440
 8876SOL     OW27526   1.232   6.861   4.599
 8876SOL    HW127527   1.288   6.874   4.681
 8876SOL    HW227528   1.251   6.934   4.534
 8877SOL     OW27529   2.790   6.690   4.793
 8877SOL    HW127530   2.853   6.767   4.799
 8877SOL    HW227531   2.798   6.633   4.875
 8878SOL     OW27532   6.156   4.370   6.732
 8878SOL    HW127533   6.143   4.424   6.649
 8878SOL    HW227534   6.211   4.422   6.797
 8879SOL     OW27535   4.852   6.399   5.144
 8879SOL    HW127536   4.851   6.343   5.061
 8879SOL    HW227537   4.758   6.410   5.178
 8880SOL     OW27538   6.897   4.910   5.110
 8880SOL    HW127539   6.984   4.914   5.159
 8880SOL    HW227540   6.839   4.839   5.150
 8881SOL     OW27541   6.176   0.951   0.810
 8881SOL    HW127542   6.178   0.894   0.893
 8881SOL    HW227543   6.263   0.942   0.762
 8882SOL     OW27544   5.537   1.741   6.597
 8882SOL    HW127545   5.572   1.745   6.690
 8882SOL    HW227546   5.480   1.660   6.586
 8883SOL     OW27547   6.590   1.212   5.679
 8883SOL    HW127548   6.511   1.181   5.625
 8883SOL    HW227549   6.572   1.195   5.776
 8884SOL     OW27550   6.737   0.362   6.333
 8884SOL    HW127551   6.817   0.305   6.316
 8884SOL    HW227552   6.765   0.450   6.371
 8885SOL     OW27553   5.429   4.181   1.839
 8885SOL    HW127554   5.428   4.275   1.805
 8885SOL    HW227555   5.478   4.122   1.775
 8886SOL     OW27556   3.246   6.899   6.506
 8886SOL    HW127557   3.218   6.907   6.411
 8886SOL    HW227558   3.168   6.919   6.566
 8887SOL     OW27559   2.522   1.636   0.989
 8887SOL    HW127560   2.574   1.716   1.017
 8887SOL    HW227561   2.429   1.642   1.027
 8888SOL     OW27562   3.201   1.634   1.896
 8888SOL    HW127563   3.153   1.655   1.811
 8888SOL    HW227564   3.300   1.643   1.882
 8889SOL     OW27565   3.632   6.941   4.561
 8889SOL    HW127566   3.589   7.005   4.498
 8889SOL    HW227567   3.582   6.941   4.648
 8890SOL     OW27568   1.144   4.854   4.692
 8890SOL    HW127569   1.151   4.872   4.790
 8890SOL    HW227570   1.210   4.911   4.643
 8891SOL     OW27571   4.479   2.757   6.394
 8891SOL    HW127572   4.563   2.811   6.409
 8891SOL    HW227573   4.497   2.686   6.326
 8892SOL     OW27574   1.664   6.316   2.584
 8892SOL    HW127575   1.570   6.333   2.615
 8892SOL    HW227576   1.712   6.403   2.576
 8893SOL     OW27577   0.595   1.137   1.193
 8893SOL    HW127578   0.526   1.141   1.265
 8893SOL    HW227579   0.552   1.110   1.107
 8894SOL     OW27580   4.072   2.697   6.357
 8894SOL    HW127581   4.061   2.620   6.294
 8894SOL    HW227582   3.982   2.730   6.385
 8895SOL     OW27583   1.058   6.973   2.113
 8895SOL    HW127584   1.051   0.047   2.133
 8895SOL    HW227585   1.139   6.935   2.158
 8896SOL     OW27586   1.657   3.311   4.908
 8896SOL    HW127587   1.623   3.251   4.981
 8896SOL    HW227588   1.597   3.303   4.828
 8897SOL     OW27589   1.130   2.567   1.386
 8897SOL    HW127590   1.221   2.555   1.347
 8897SOL    HW227591   1.136   2.572   1.485
 8898SOL     OW27592   5.370   3.871   3.815
 8898SOL    HW127593   5.460   3.877   3.857
 8898SOL    HW227594   5.332   3.964   3.806
 8899SOL     OW27595   1.594   4.290   0.089
 8899SOL    HW127596   1.659   4.230   0.135
 8899SOL    HW227597   1.584   4.261   7.017
 8900SOL     OW27598   5.926   1.852   4.116
 8900SOL    HW127599   5.867   1.910   4.060
 8900SOL    HW227600   5.870   1.801   4.181
 8901SOL     OW27601   1.868   6.877   2.914
 8901SOL    HW127602   1.929   6.825   2.854
 8901SOL    HW227603   1.821   6.947   2.860
 8902SOL     OW27604   1.435   5.348   5.831
 8902SOL    HW127605   1.465   5.258   5.864
 8902SOL    HW227606   1.512   5.411   5.831
 8903SOL     OW27607   2.213   1.350   3.393
 8903SOL    HW127608   2.230   1.368   3.490
 8903SOL    HW227609   2.152   1.420   3.356
 8904SOL     OW27610   1.381   6.345   3.386
 8904SOL    HW127611   1.284   6.368   3.385
 8904SOL    HW227612   1.395   6.265   3.445
 8905SOL     OW27613   2.513   3.835   5.374
 8905SOL    HW127614   2.469   3.873   5.292
 8905SOL    HW227615   2.449   3.774   5.421
 8906SOL     OW27616   6.350   5.925   5.777
 8906SOL    HW127617   6.371   5.908   5.681
 8906SOL    HW227618   6.278   5.995   5.784
 8907SOL     OW27619   3.068   2.849   5.587
 8907SOL    HW127620   3.166   2.863   5.597
 8907SOL    HW227621   3.040   2.872   5.494
 8908SOL     OW27622   0.657   3.063   1.443
 8908SOL    HW127623   0.583   3.073   1.509
 8908SOL    HW227624   0.619   3.036   1.354
 8909SOL     OW27625   2.053   0.861   6.540
 8909SOL    HW127626   2.026   0.780   6.486
 8909SOL    HW227627   2.058   0.940   6.480
 8910SOL     OW27628   3.255   3.532   7.002
 8910SOL    HW127629   3.210   3.527   6.913
 8910SOL    HW227630   3.272   3.439   0.012
 8911SOL     OW27631   3.838   2.142   3.850
 8911SOL    HW127632   3.924   2.122   3.804
 8911SOL    HW227633   3.774   2.182   3.785
 8912SOL     OW27634   4.465   2.910   5.944
 8912SOL    HW127635   4.528   2.907   6.022
 8912SOL    HW227636   4.403   2.832   5.947
 8913SOL     OW27637   5.255   4.061   1.072
 8913SOL    HW127638   5.249   3.989   1.002
 8913SOL    HW227639   5.179   4.051   1.136
 8914SOL     OW27640   3.818   1.951   4.864
 8914SOL    HW127641   3.826   2.025   4.797
 8914SOL    HW227642   3.846   1.865   4.822
 8915SOL     OW27643   1.361   4.512   2.254
 8915SOL    HW127644   1.406   4.456   2.324
 8915SOL    HW227645   1.330   4.453   2.180
 8916SOL     OW27646   6.708   3.419   2.772
 8916SOL    HW127647   6.713   3.509   2.728
 8916SOL    HW227648   6.619   3.378   2.753
 8917SOL     OW27649   6.116   5.514   6.558
 8917SOL    HW127650   6.112   5.414   6.565
 8917SOL    HW227651   6.165   5.552   6.636
 8918SOL     OW27652   5.662   5.478   6.388
 8918SOL    HW127653   5.655   5.410   6.461
 8918SOL    HW227654   5.713   5.439   6.311
 8919SOL     OW27655   2.812   4.750   0.637
 8919SOL    HW127656   2.718   4.720   0.618
 8919SOL    HW227657   2.831   4.741   0.735
 8920SOL     OW27658   6.159   5.744   5.848
 8920SOL    HW127659   6.229   5.810   5.819
 8920SOL    HW227660   6.135   5.685   5.771
 8921SOL     OW27661   1.687   6.726   4.163
 8921SOL    HW127662   1.600   6.685   4.138
 8921SOL    HW227663   1.672   6.818   4.199
 8922SOL     OW27664   0.390   4.339   6.908
 8922SOL    HW127665   0.482   4.378   6.915
 8922SOL    HW227666   0.393   4.242   6.932
 8923SOL     OW27667   2.180   4.433   5.859
 8923SOL    HW127668   2.115   4.478   5.921
 8923SOL    HW227669   2.189   4.337   5.884
 8924SOL     OW27670   2.726   5.321   5.313
 8924SOL    HW127671   2.674   5.397   5.350
 8924SOL    HW227672   2.663   5.255   5.272
 8925SOL     OW27673   6.871   7.011   2.202
 8925SOL    HW127674   6.842   6.938   2.264
 8925SOL    HW227675   6.920   0.058   2.253
 8926SOL     OW27676   5.176   2.253   0.845
 8926SOL    HW127677   5.078   2.267   0.855
 8926SOL    HW227678   5.194   2.193   0.767
 8927SOL     OW27679   2.351   2.154   4.667
 8927SOL    HW127680   2.447   2.180   4.667
 8927SOL    HW227681   2.297   2.221   4.718
 8928SOL     OW27682   0.803   6.928   5.519
 8928SOL    HW127683   0.747   6.970   5.448
 8928SOL    HW227684   0.876   6.875   5.476
 8929SOL     OW27685   5.655   3.691   3.467
 8929SOL    HW127686   5.588   3.622   3.496
 8929SOL    HW227687   5.611   3.781   3.464
 8930SOL     OW27688   1.181   4.969   4.941
 8930SOL    HW127689   1.268   4.940   4.980
 8930SOL    HW227690   1.106   4.916   4.980
 8931SOL     OW27691   4.465   1.392   0.950
 8931SOL    HW127692   4.519   1.323   0.903
 8931SOL    HW227693   4.438   1.357   1.040
 8932SOL     OW27694   6.997   0.133   0.142
 8932SOL    HW127695   6.971   0.220   0.184
 8932SOL    HW227696   6.946   0.121   0.057
 8933SOL     OW27697   1.508   0.494   4.907
 8933SOL    HW127698   1.473   0.484   5.000
 8933SOL    HW227699   1.511   0.591   4.882
 8934SOL     OW27700   3.285   6.024   2.861
 8934SOL    HW127701   3.245   6.116   2.861
 8934SOL    HW227702   3.215   5.957   2.836
 8935SOL     OW27703   4.865   2.191   3.524
 8935SOL    HW127704   4.831   2.237   3.443
 8935SOL    HW227705   4.947   2.238   3.557
 8936SOL     OW27706   1.133   5.133   2.026
 8936SOL    HW127707   1.149   5.046   2.072
 8936SOL    HW227708   1.175   5.207   2.080
 8937SOL     OW27709   4.959   0.132   3.896
 8937SOL    HW127710   4.973   0.217   3.946
 8937SOL    HW227711   5.047   0.085   3.883
 8938SOL     OW27712   6.388   0.996   1.279
 8938SOL    HW127713   6.428   0.905   1.265
 8938SOL    HW227714   6.316   1.012   1.212
 8939SOL     OW27715   0.068   2.907   3.856
 8939SOL    HW127716   7.014   2.845   3.848
 8939SOL    HW227717   0.105   2.926   3.765
 8940SOL     OW27718   6.363   2.603   1.077
 8940SOL    HW127719   6.269   2.633   1.089
 8940SOL    HW227720   6.375   2.565   0.986
 8941SOL     OW27721   4.265   2.732   1.684
 8941SOL    HW127722   4.276   2.788   1.602
 8941SOL    HW227723   4.353   2.724   1.731
 8942SOL     OW27724   5.683   4.788   4.524
 8942SOL    HW127725   5.651   4.751   4.437
 8942SOL    HW227726   5.662   4.723   4.597
 8943SOL     OW27727   4.657   3.633   0.138
 8943SOL    HW127728   4.563   3.641   0.170
 8943SOL    HW227729   4.683   3.717   0.090
 8944SOL     OW27730   5.742   5.829   4.662
 8944SOL    HW127731   5.731   5.748   4.719
 8944SOL    HW227732   5.691   5.817   4.576
 8945SOL     OW27733   5.540   4.733   4.927
 8945SOL    HW127734   5.475   4.664   4.897
 8945SOL    HW227735   5.633   4.700   4.914
 8946SOL     OW27736   5.100   1.072   5.175
 8946SOL    HW127737   5.055   1.049   5.089
 8946SOL    HW227738   5.106   1.172   5.184
 8947SOL     OW27739   1.891   5.424   6.581
 8947SOL    HW127740   1.891   5.500   6.516
 8947SOL    HW227741   1.864   5.340   6.534
 8948SOL     OW27742   6.751   0.751   2.768
 8948SOL    HW127743   6.742   0.659   2.807
 8948SOL    HW227744   6.816   0.748   2.692
 8949SOL     OW27745   3.855   6.809   0.465
 8949SOL    HW127746   3.805   6.880   0.516
 8949SOL    HW227747   3.943   6.792   0.509
 8950SOL     OW27748   4.392   3.724   0.190
 8950SOL    HW127749   4.313   3.710   0.131
 8950SOL    HW227750   4.380   3.807   0.244
 8951SOL     OW27751   1.971   1.999   4.578
 8951SOL    HW127752   1.962   1.899   4.573
 8951SOL    HW227753   2.055   2.026   4.531
 8952SOL     OW27754   1.917   3.684   3.999
 8952SOL    HW127755   1.941   3.589   4.020
 8952SOL    HW227756   1.958   3.744   4.068
 8953SOL     OW27757   1.191   4.551   1.564
 8953SOL    HW127758   1.124   4.476   1.561
 8953SOL    HW227759   1.145   4.635   1.593
 8954SOL     OW27760   1.789   4.904   5.647
 8954SOL    HW127761   1.839   4.896   5.733
 8954SOL    HW227762   1.854   4.912   5.572
 8955SOL     OW27763   5.790   2.685   4.196
 8955SOL    HW127764   5.829   2.593   4.193
 8955SOL    HW227765   5.696   2.680   4.231
 8956SOL     OW27766   0.866   5.350   6.374
 8956SOL    HW127767   0.812   5.430   6.351
 8956SOL    HW227768   0.816   5.292   6.437
 8957SOL     OW27769   0.703   5.859   3.238
 8957SOL    HW127770   0.639   5.927   3.200
 8957SOL    HW227771   0.748   5.898   3.318
 8958SOL     OW27772   1.595   3.337   5.416
 8958SOL    HW127773   1.626   3.382   5.332
 8958SOL    HW227774   1.653   3.258   5.435
 8959SOL     OW27775   6.871   2.704   2.974
 8959SOL    HW127776   6.932   2.702   3.054
 8959SOL    HW227777   6.890   2.625   2.916
 8960SOL     OW27778   5.485   4.584   3.098
 8960SOL    HW127779   5.537   4.517   3.045
 8960SOL    HW227780   5.548   4.641   3.151
 8961SOL     OW27781   2.004   0.567   5.556
 8961SOL    HW127782   2.016   0.665   5.538
 8961SOL    HW227783   2.012   0.516   5.470
 8962SOL     OW27784   0.407   5.773   2.126
 8962SOL    HW127785   0.336   5.823   2.076
 8962SOL    HW227786   0.397   5.789   2.224
 8963SOL     OW27787   4.883   6.754   4.405
 8963SOL    HW127788   4.823   6.825   4.442
 8963SOL    HW227789   4.882   6.675   4.466
 8964SOL     OW27790   0.957   3.042   4.437
 8964SOL    HW127791   0.946   3.084   4.527
 8964SOL    HW227792   1.040   3.076   4.394
 8965SOL     OW27793   3.928   5.888   6.674
 8965SOL    HW127794   3.976   5.867   6.759
 8965SOL    HW227795   3.995   5.907   6.602
 8966SOL     OW27796   4.564   5.463   5.248
 8966SOL    HW127797   4.555   5.542   5.187
 8966SOL    HW227798   4.496   5.394   5.223
 8967SOL     OW27799   2.969   7.009   4.110
 8967SOL    HW127800   3.065   6.991   4.135
 8967SOL    HW227801   2.947   6.960   4.026
 8968SOL     OW27802   4.031   5.262   2.231
 8968SOL    HW127803   3.963   5.263   2.304
 8968SOL    HW227804   4.015   5.183   2.171
 8969SOL     OW27805   0.675   0.408   2.359
 8969SOL    HW127806   0.747   0.343   2.383
 8969SOL    HW227807   0.616   0.425   2.438
 8970SOL     OW27808   2.303   0.729   4.403
 8970SOL    HW127809   2.270   0.796   4.337
 8970SOL    HW227810   2.356   0.659   4.356
 8971SOL     OW27811   3.921   5.234   0.242
 8971SOL    HW127812   4.007   5.283   0.227
 8971SOL    HW227813   3.902   5.176   0.162
 8972SOL     OW27814   6.331   4.470   0.353
 8972SOL    HW127815   6.323   4.399   0.283
 8972SOL    HW227816   6.243   4.486   0.396
 8973SOL     OW27817   1.393   2.788   3.303
 8973SOL    HW127818   1.315   2.765   3.245
 8973SOL    HW227819   1.400   2.887   3.313
 8974SOL     OW27820   2.057   4.206   4.709
 8974SOL    HW127821   2.072   4.111   4.737
 8974SOL    HW227822   1.978   4.211   4.648
 8975SOL     OW27823   6.881   5.982   6.026
 8975SOL    HW127824   6.858   5.906   6.086
 8975SOL    HW227825   6.974   6.013   6.046
 8976SOL     OW27826   6.948   6.566   2.155
 8976SOL    HW127827   7.017   6.634   2.182
 8976SOL    HW227828   6.866   6.613   2.124
 8977SOL     OW27829   6.711   5.134   6.186
 8977SOL    HW127830   6.627   5.135   6.132
 8977SOL    HW227831   6.721   5.045   6.230
 8978SOL     OW27832   5.789   5.699   6.484
 8978SOL    HW127833   5.744   5.613   6.460
 8978SOL    HW227834   5.756   5.730   6.573
 8979SOL     OW27835   1.076   4.862   5.494
 8979SOL    HW127836   1.162   4.859   5.442
 8979SOL    HW227837   1.096   4.860   5.592
 8980SOL     OW27838   3.660   0.396   5.540
 8980SOL    HW127839   3.593   0.349   5.598
 8980SOL    HW227840   3.621   0.411   5.449
 8981SOL     OW27841   4.238   3.115   0.142
 8981SOL    HW127842   4.293   3.175   0.199
 8981SOL    HW227843   4.294   3.041   0.106
 8982SOL     OW27844   0.466   1.587   1.646
 8982SOL    HW127845   0.431   1.520   1.712
 8982SOL    HW227846   0.564   1.573   1.632
 8983SOL     OW27847   1.570   6.502   2.264
 8983SOL    HW127848   1.631   6.573   2.229
 8983SOL    HW227849   1.549   6.522   2.360
 8984SOL     OW27850   6.350   0.557   4.277
 8984SOL    HW127851   6.259   0.598   4.289
 8984SOL    HW227852   6.397   0.604   4.202
 8985SOL     OW27853   4.946   2.586   0.847
 8985SOL    HW127854   5.024   2.571   0.907
 8985SOL    HW227855   4.877   2.640   0.895
 8986SOL     OW27856   0.293   5.454   0.124
 8986SOL    HW127857   0.336   5.515   0.058
 8986SOL    HW227858   0.360   5.425   0.192
 8987SOL     OW27859   1.964   0.740   2.161
 8987SOL    HW127860   1.907   0.657   2.168
 8987SOL    HW227861   2.024   0.733   2.082
 8988SOL     OW27862   1.719   5.428   1.864
 8988SOL    HW127863   1.754   5.345   1.907
 8988SOL    HW227864   1.663   5.403   1.785
 8989SOL     OW27865   5.546   1.384   2.119
 8989SOL    HW127866   5.481   1.373   2.043
 8989SOL    HW227867   5.636   1.351   2.091
 8990SOL     OW27868   3.590   0.625   1.487
 8990SOL    HW127869   3.540   0.558   1.432
 8990SOL    HW227870   3.626   0.580   1.569
 8991SOL     OW27871   2.024   2.409   0.707
 8991SOL    HW127872   2.006   2.469   0.785
 8991SOL    HW227873   1.968   2.326   0.716
 8992SOL     OW27874   0.854   3.805   0.290
 8992SOL    HW127875   0.911   3.884   0.309
 8992SOL    HW227876   0.765   3.817   0.333
 8993SOL     OW27877   6.225   3.747   3.809
 8993SOL    HW127878   6.166   3.792   3.877
 8993SOL    HW227879   6.170   3.685   3.753
 8994SOL     OW27880   1.115   5.348   2.924
 8994SOL    HW127881   1.114   5.357   3.023
 8994SOL    HW227882   1.157   5.430   2.884
 8995SOL     OW27883   2.131   3.955   4.855
 8995SOL    HW127884   2.197   3.993   4.919
 8995SOL    HW227885   2.112   3.860   4.881
 8996SOL     OW27886   0.694   4.421   2.104
 8996SOL    HW127887   0.676   4.483   2.027
 8996SOL    HW227888   0.738   4.472   2.178
 8997SOL     OW27889   4.320   1.460   5.526
 8997SOL    HW127890   4.299   1.555   5.501
 8997SOL    HW227891   4.354   1.458   5.620
 8998SOL     OW27892   0.852   2.633   6.241
 8998SOL    HW127893   0.888   2.725   6.229
 8998SOL    HW227894   0.896   2.570   6.177
 8999SOL     OW27895   6.441   1.135   4.439
 8999SOL    HW127896   6.440   1.168   4.345
 8999SOL    HW227897   6.450   1.036   4.440
 9000SOL     OW27898   3.078   4.091   0.675
 9000SOL    HW127899   3.099   4.188   0.692
 9000SOL    HW227900   2.979   4.080   0.662
 9001SOL     OW27901   1.280   4.360   3.574
 9001SOL    HW127902   1.302   4.404   3.661
 9001SOL    HW227903   1.325   4.409   3.499
 9002SOL     OW27904   4.856   4.558   5.401
 9002SOL    HW127905   4.785   4.492   5.377
 9002SOL    HW227906   4.815   4.632   5.454
 9003SOL     OW27907   5.544   2.508   6.308
 9003SOL    HW127908   5.597   2.592   6.294
 9003SOL    HW227909   5.603   2.437   6.343
 9004SOL     OW27910   4.466   6.026   1.332
 9004SOL    HW127911   4.462   5.965   1.411
 9004SOL    HW227912   4.548   6.083   1.337
 9005SOL     OW27913   5.031   1.937   2.845
 9005SOL    HW127914   5.055   1.849   2.886
 9005SOL    HW227915   5.074   2.011   2.897
 9006SOL     OW27916   1.474   6.224   1.296
 9006SOL    HW127917   1.407   6.160   1.259
 9006SOL    HW227918   1.495   6.199   1.390
 9007SOL     OW27919   2.588   6.466   4.715
 9007SOL    HW127920   2.499   6.474   4.759
 9007SOL    HW227921   2.660   6.472   4.784
 9008SOL     OW27922   6.503   4.697   2.313
 9008SOL    HW127923   6.451   4.740   2.387
 9008SOL    HW227924   6.442   4.681   2.235
 9009SOL     OW27925   3.795   6.583   0.860
 9009SOL    HW127926   3.781   6.558   0.955
 9009SOL    HW227927   3.785   6.501   0.802
 9010SOL     OW27928   1.124   6.304   4.928
 9010SOL    HW127929   1.026   6.304   4.946
 9010SOL    HW227930   1.145   6.370   4.856
 9011SOL     OW27931   4.566   2.281   0.999
 9011SOL    HW127932   4.620   2.327   1.070
 9011SOL    HW227933   4.596   2.314   0.909
 9012SOL     OW27934   6.926   5.458   1.098
 9012SOL    HW127935   6.903   5.516   1.020
 9012SOL    HW227936   6.904   5.507   1.183
 9013SOL     OW27937   5.361   6.118   3.537
 9013SOL    HW127938   5.284   6.176   3.561
 9013SOL    HW227939   5.357   6.096   3.439
 9014SOL     OW27940   2.643   1.099   1.194
 9014SOL    HW127941   2.709   1.164   1.232
 9014SOL    HW227942   2.675   1.006   1.212
 9015SOL     OW27943   0.594   1.071   5.843
 9015SOL    HW127944   0.532   1.144   5.872
 9015SOL    HW227945   0.629   1.091   5.752
 9016SOL     OW27946   6.721   6.142   6.793
 9016SOL    HW127947   6.725   6.223   6.734
 9016SOL    HW227948   6.626   6.125   6.819
 9017SOL     OW27949   6.649   2.994   3.402
 9017SOL    HW127950   6.679   3.054   3.329
 9017SOL    HW227951   6.628   3.048   3.484
 9018SOL     OW27952   3.760   2.337   5.280
 9018SOL    HW127953   3.700   2.401   5.328
 9018SOL    HW227954   3.710   2.254   5.258
 9019SOL     OW27955   1.927   0.274   0.919
 9019SOL    HW127956   1.895   0.366   0.945
 9019SOL    HW227957   1.949   0.273   0.821
 9020SOL     OW27958   0.481   4.987   3.403
 9020SOL    HW127959   0.385   5.012   3.395
 9020SOL    HW227960   0.534   5.067   3.433
 9021SOL     OW27961   6.782   5.485   4.865
 9021SOL    HW127962   6.833   5.518   4.944
 9021SOL    HW227963   6.834   5.413   4.818
 9022SOL     OW27964   3.051   0.422   6.973
 9022SOL    HW127965   2.958   0.440   7.004
 9022SOL    HW227966   3.054   0.333   6.927
 9023SOL     OW27967   3.465   2.871   3.232
 9023SOL    HW127968   3.516   2.895   3.315
 9023SOL    HW227969   3.371   2.848   3.256
 9024SOL     OW27970   1.586   6.521   0.471
 9024SOL    HW127971   1.666   6.463   0.460
 9024SOL    HW227972   1.608   6.615   0.447
 9025SOL     OW27973   6.013   5.077   0.543
 9025SOL    HW127974   5.995   5.029   0.629
 9025SOL    HW227975   6.089   5.032   0.496
 9026SOL     OW27976   3.235   2.784   5.280
 9026SOL    HW127977   3.275   2.695   5.299
 9026SOL    HW227978   3.282   2.854   5.334
 9027SOL     OW27979   2.041   2.929   3.566
 9027SOL    HW127980   1.994   3.005   3.612
 9027SOL    HW227981   2.079   2.868   3.635
 9028SOL     OW27982   2.858   4.846   4.424
 9028SOL    HW127983   2.816   4.806   4.342
 9028SOL    HW227984   2.840   4.786   4.502
 9029SOL     OW27985   5.145   5.843   3.335
 9029SOL    HW127986   5.135   5.942   3.347
 9029SOL    HW227987   5.068   5.808   3.282
 9030SOL     OW27988   2.576   1.091   1.697
 9030SOL    HW127989   2.503   1.156   1.718
 9030SOL    HW227990   2.568   1.011   1.757
 9031SOL     OW27991   2.519   6.578   6.555
 9031SOL    HW127992   2.427   6.588   6.593
 9031SOL    HW227993   2.518   6.506   6.486
 9032SOL     OW27994   1.842   1.807   1.716
 9032SOL    HW127995   1.831   1.716   1.756
 9032SOL    HW227996   1.939   1.829   1.709
 9033SOL     OW27997   1.205   3.613   2.623
 9033SOL    HW127998   1.198   3.701   2.577
 9033SOL    HW227999   1.291   3.569   2.598
 9034SOL     OW28000   3.098   6.656   6.092
 9034SOL    HW128001   3.161   6.675   6.017
 9034SOL    HW228002   3.047   6.572   6.071
 9035SOL     OW28003   0.123   1.430   4.625
 9035SOL    HW128004   0.085   1.458   4.537
 9035SOL    HW228005   0.062   1.459   4.699
 9036SOL     OW28006   1.376   1.913   4.983
 9036SOL    HW128007   1.474   1.897   4.975
 9036SOL    HW228008   1.358   2.010   4.999
 9037SOL     OW28009   1.879   3.556   6.058
 9037SOL    HW128010   1.783   3.530   6.068
 9037SOL    HW228011   1.931   3.520   6.136
 9038SOL     OW28012   5.718   6.327   5.394
 9038SOL    HW128013   5.709   6.242   5.446
 9038SOL    HW228014   5.813   6.337   5.364
 9039SOL     OW28015   1.896   5.316   5.614
 9039SOL    HW128016   1.887   5.236   5.553
 9039SOL    HW228017   1.984   5.360   5.597
 9040SOL     OW28018   2.093   1.131   2.630
 9040SOL    HW128019   2.136   1.182   2.555
 9040SOL    HW228020   2.130   1.163   2.717
 9041SOL     OW28021   2.072   3.144   0.025
 9041SOL    HW128022   2.099   3.159   0.120
 9041SOL    HW228023   2.043   3.231   7.009
 9042SOL     OW28024   2.973   4.802   3.215
 9042SOL    HW128025   2.981   4.882   3.274
 9042SOL    HW228026   2.984   4.719   3.270
 9043SOL     OW28027   0.040   2.305   6.114
 9043SOL    HW128028   0.053   2.322   6.017
 9043SOL    HW228029   6.976   2.260   6.129
 9044SOL     OW28030   6.255   5.962   0.559
 9044SOL    HW128031   6.228   5.982   0.465
 9044SOL    HW228032   6.179   5.918   0.607
 9045SOL     OW28033   3.165   6.455   4.372
 9045SOL    HW128034   3.169   6.546   4.411
 9045SOL    HW228035   3.157   6.461   4.273
 9046SOL     OW28036   3.468   4.077   5.042
 9046SOL    HW128037   3.463   4.019   5.124
 9046SOL    HW228038   3.376   4.095   5.008
 9047SOL     OW28039   1.418   4.873   5.084
 9047SOL    HW128040   1.436   4.784   5.043
 9047SOL    HW228041   1.496   4.933   5.068
 9048SOL     OW28042   0.858   2.788   4.432
 9048SOL    HW128043   0.801   2.771   4.513
 9048SOL    HW228044   0.908   2.874   4.445
 9049SOL     OW28045   5.417   5.568   6.332
 9049SOL    HW128046   5.512   5.540   6.342
 9049SOL    HW228047   5.403   5.655   6.379
 9050SOL     OW28048   0.390   5.136   5.934
 9050SOL    HW128049   0.467   5.101   5.989
 9050SOL    HW228050   0.367   5.228   5.965
 9051SOL     OW28051   5.296   6.479   6.337
 9051SOL    HW128052   5.340   6.450   6.422
 9051SOL    HW228053   5.361   6.471   6.261
 9052SOL     OW28054   1.976   5.173   5.138
 9052SOL    HW128055   2.056   5.220   5.100
 9052SOL    HW228056   1.982   5.075   5.118
 9053SOL     OW28057   3.160   1.812   3.334
 9053SOL    HW128058   3.069   1.787   3.366
 9053SOL    HW228059   3.155   1.894   3.278
 9054SOL     OW28060   3.086   0.318   0.905
 9054SOL    HW128061   2.988   0.306   0.915
 9054SOL    HW228062   3.134   0.246   0.956
 9055SOL     OW28063   1.464   2.277   3.699
 9055SOL    HW128064   1.558   2.247   3.718
 9055SOL    HW228065   1.452   2.291   3.601
 9056SOL     OW28066   5.456   1.252   2.949
 9056SOL    HW128067   5.513   1.212   2.878
 9056SOL    HW228068   5.514   1.279   3.026
 9057SOL     OW28069   4.925   5.309   6.183
 9057SOL    HW128070   4.945   5.314   6.085
 9057SOL    HW228071   5.009   5.326   6.235
 9058SOL     OW28072   1.491   3.202   4.717
 9058SOL    HW128073   1.508   3.107   4.691
 9058SOL    HW228074   1.397   3.227   4.693
 9059SOL     OW28075   0.456   1.448   2.013
 9059SOL    HW128076   0.499   1.442   2.103
 9059SOL    HW228077   0.362   1.482   2.024
 9060SOL     OW28078   0.317   4.666   0.910
 9060SOL    HW128079   0.253   4.642   0.982
 9060SOL    HW228080   0.382   4.734   0.944
 9061SOL     OW28081   5.459   4.473   1.830
 9061SOL    HW128082   5.377   4.520   1.862
 9061SOL    HW228083   5.536   4.496   1.890
 9062SOL     OW28084   0.634   5.612   3.625
 9062SOL    HW128085   0.578   5.580   3.549
 9062SOL    HW228086   0.615   5.556   3.706
 9063SOL     OW28087   3.725   1.652   1.720
 9063SOL    HW128088   3.737   1.595   1.639
 9063SOL    HW228089   3.784   1.732   1.713
 9064SOL     OW28090   0.679   5.141   3.539
 9064SOL    HW128091   0.753   5.187   3.489
 9064SOL    HW228092   0.623   5.209   3.586
 9065SOL     OW28093   2.407   4.758   5.334
 9065SOL    HW128094   2.486   4.804   5.375
 9065SOL    HW228095   2.392   4.670   5.379
 9066SOL     OW28096   4.919   4.914   5.117
 9066SOL    HW128097   4.920   4.938   5.214
 9066SOL    HW228098   4.943   4.818   5.106
 9067SOL     OW28099   0.487   6.876   4.602
 9067SOL    HW128100   0.481   6.811   4.526
 9067SOL    HW228101   0.397   6.913   4.622
 9068SOL     OW28102   4.910   6.908   5.147
 9068SOL    HW128103   4.924   6.946   5.055
 9068SOL    HW228104   4.950   6.816   5.151
 9069SOL     OW28105   5.111   1.670   1.735
 9069SOL    HW128106   5.178   1.630   1.797
 9069SOL    HW228107   5.158   1.706   1.654
 9070SOL     OW28108   1.558   1.971   6.246
 9070SOL    HW128109   1.638   1.941   6.193
 9070SOL    HW228110   1.584   2.050   6.301
 9071SOL     OW28111   5.212   1.364   5.585
 9071SOL    HW128112   5.169   1.432   5.645
 9071SOL    HW228113   5.281   1.314   5.637
 9072SOL     OW28114   4.791   1.158   2.619
 9072SOL    HW128115   4.731   1.206   2.683
 9072SOL    HW228116   4.880   1.202   2.618
 9073SOL     OW28117   4.563   1.187   6.479
 9073SOL    HW128118   4.577   1.092   6.451
 9073SOL    HW228119   4.470   1.216   6.456
 9074SOL     OW28120   1.819   0.052   2.365
 9074SOL    HW128121   1.853   0.127   2.310
 9074SOL    HW228122   1.890   0.022   2.429
 9075SOL     OW28123   6.655   6.820   1.345
 9075SOL    HW128124   6.695   6.911   1.357
 9075SOL    HW228125   6.680   6.784   1.255
 9076SOL     OW28126   6.850   0.804   1.935
 9076SOL    HW128127   6.824   0.723   1.883
 9076SOL    HW228128   6.847   0.783   2.033
 9077SOL     OW28129   6.331   1.694   6.270
 9077SOL    HW128130   6.286   1.611   6.304
 9077SOL    HW228131   6.359   1.681   6.175
 9078SOL     OW28132   5.188   6.045   6.970
 9078SOL    HW128133   5.239   5.969   7.011
 9078SOL    HW228134   5.167   6.113   0.016
 9079SOL     OW28135   1.402   0.774   6.511
 9079SOL    HW128136   1.441   0.856   6.469
 9079SOL    HW228137   1.309   0.759   6.476
 9080SOL     OW28138   5.854   3.636   1.439
 9080SOL    HW128139   5.899   3.693   1.507
 9080SOL    HW228140   5.909   3.632   1.356
 9081SOL     OW28141   3.882   1.880   0.375
 9081SOL    HW128142   3.790   1.872   0.336
 9081SOL    HW228143   3.914   1.974   0.368
 9082SOL     OW28144   2.673   5.889   5.946
 9082SOL    HW128145   2.583   5.913   5.981
 9082SOL    HW228146   2.673   5.899   5.846
 9083SOL     OW28147   4.216   5.086   0.162
 9083SOL    HW128148   4.245   5.140   0.083
 9083SOL    HW228149   4.168   5.004   0.130
 9084SOL     OW28150   0.587   2.768   6.057
 9084SOL    HW128151   0.508   2.801   6.109
 9084SOL    HW228152   0.575   2.671   6.035
 9085SOL     OW28153   2.687   5.076   6.816
 9085SOL    HW128154   2.639   5.139   6.754
 9085SOL    HW228155   2.708   5.123   6.902
 9086SOL     OW28156   6.695   4.201   0.439
 9086SOL    HW128157   6.779   4.168   0.396
 9086SOL    HW228158   6.673   4.144   0.518
 9087SOL     OW28159   6.189   1.072   1.089
 9087SOL    HW128160   6.106   1.016   1.092
 9087SOL    HW228161   6.198   1.112   0.998
 9088SOL     OW28162   6.659   0.057   0.295
 9088SOL    HW128163   6.686   6.996   0.248
 9088SOL    HW228164   6.570   0.043   0.339
 9089SOL     OW28165   4.994   5.797   3.873
 9089SOL    HW128166   4.948   5.879   3.839
 9089SOL    HW228167   4.931   5.720   3.870
 9090SOL     OW28168   5.796   6.512   4.819
 9090SOL    HW128169   5.813   6.438   4.884
 9090SOL    HW228170   5.703   6.546   4.831
 9091SOL     OW28171   2.642   1.847   1.635
 9091SOL    HW128172   2.633   1.757   1.679
 9091SOL    HW228173   2.657   1.834   1.537
 9092SOL     OW28174   1.112   6.340   5.836
 9092SOL    HW128175   1.102   6.356   5.737
 9092SOL    HW228176   1.132   6.244   5.852
 9093SOL     OW28177   2.185   4.898   0.617
 9093SOL    HW128178   2.168   4.985   0.664
 9093SOL    HW228179   2.161   4.907   0.521
 9094SOL     OW28180   0.400   5.275   2.055
 9094SOL    HW128181   0.488   5.231   2.041
 9094SOL    HW228182   0.352   5.230   2.131
 9095SOL     OW28183   3.461   3.401   6.762
 9095SOL    HW128184   3.371   3.445   6.761
 9095SOL    HW228185   3.462   3.324   6.700
 9096SOL     OW28186   5.810   2.552   3.024
 9096SOL    HW128187   5.797   2.472   2.966
 9096SOL    HW228188   5.808   2.635   2.968
 9097SOL     OW28189   1.302   3.871   6.648
 9097SOL    HW128190   1.291   3.963   6.612
 9097SOL    HW228191   1.361   3.818   6.586
 9098SOL     OW28192   3.861   3.923   1.931
 9098SOL    HW128193   3.863   4.022   1.916
 9098SOL    HW228194   3.790   3.902   1.999
 9099SOL     OW28195   2.579   3.665   1.149
 9099SOL    HW128196   2.491   3.628   1.118
 9099SOL    HW228197   2.623   3.713   1.073
 9100SOL     OW28198   1.107   3.013   1.004
 9100SOL    HW128199   1.082   3.070   0.926
 9100SOL    HW228200   1.205   3.023   1.023
 9101SOL     OW28201   1.499   2.763   2.269
 9101SOL    HW128202   1.515   2.776   2.367
 9101SOL    HW228203   1.580   2.793   2.218
 9102SOL     OW28204   3.944   5.467   2.046
 9102SOL    HW128205   3.958   5.399   2.118
 9102SOL    HW228206   4.010   5.541   2.056
 9103SOL     OW28207   6.928   4.079   1.153
 9103SOL    HW128208   7.007   4.100   1.094
 9103SOL    HW228209   6.845   4.115   1.110
 9104SOL     OW28210   4.665   6.222   1.377
 9104SOL    HW128211   4.759   6.236   1.344
 9104SOL    HW228212   4.659   6.248   1.473
 9105SOL     OW28213   1.678   1.716   6.438
 9105SOL    HW128214   1.746   1.787   6.453
 9105SOL    HW228215   1.683   1.684   6.343
 9106SOL     OW28216   5.713   4.991   6.902
 9106SOL    HW128217   5.626   4.961   6.943
 9106SOL    HW228218   5.771   4.911   6.887
 9107SOL     OW28219   3.384   0.061   0.698
 9107SOL    HW128220   3.466   0.117   0.705
 9107SOL    HW228221   3.311   0.114   0.654
 9108SOL     OW28222   4.327   5.327   5.207
 9108SOL    HW128223   4.317   5.312   5.109
 9108SOL    HW228224   4.260   5.395   5.238
 9109SOL     OW28225   3.354   2.161   3.753
 9109SOL    HW128226   3.357   2.083   3.690
 9109SOL    HW228227   3.285   2.227   3.722
 9110SOL     OW28228   1.734   4.449   3.497
 9110SOL    HW128229   1.730   4.349   3.502
 9110SOL    HW228230   1.811   4.482   3.552
 9111SOL     OW28231   3.790   4.421   1.352
 9111SOL    HW128232   3.847   4.361   1.407
 9111SOL    HW228233   3.750   4.370   1.276
 9112SOL     OW28234   0.450   4.573   2.188
 9112SOL    HW128235   0.406   4.594   2.275
 9112SOL    HW228236   0.458   4.474   2.178
 9113SOL     OW28237   5.230   0.389   0.228
 9113SOL    HW128238   5.305   0.377   0.164
 9113SOL    HW228239   5.145   0.356   0.186
 9114SOL     OW28240   2.462   4.820   2.285
 9114SOL    HW128241   2.544   4.793   2.234
 9114SOL    HW228242   2.382   4.772   2.249
 9115SOL     OW28243   1.468   4.821   4.693
 9115SOL    HW128244   1.469   4.903   4.749
 9115SOL    HW228245   1.557   4.809   4.649
 9116SOL     OW28246   6.875   1.784   6.610
 9116SOL    HW128247   6.852   1.802   6.706
 9116SOL    HW228248   6.956   1.725   6.605
 9117SOL     OW28249   6.503   2.733   6.662
 9117SOL    HW128250   6.517   2.821   6.617
 9117SOL    HW228251   6.417   2.734   6.711
 9118SOL     OW28252   0.063   6.456   1.348
 9118SOL    HW128253   0.122   6.423   1.274
 9118SOL    HW228254   7.007   6.503   1.309
 9119SOL     OW28255   5.651   0.435   2.091
 9119SOL    HW128256   5.652   0.531   2.119
 9119SOL    HW228257   5.562   0.412   2.052
 9120SOL     OW28258   5.686   1.301   6.097
 9120SOL    HW128259   5.620   1.353   6.151
 9120SOL    HW228260   5.763   1.360   6.073
 9121SOL     OW28261   0.277   2.718   5.610
 9121SOL    HW128262   0.223   2.649   5.562
 9121SOL    HW228263   0.326   2.775   5.544
 9122SOL     OW28264   1.627   2.871   3.010
 9122SOL    HW128265   1.675   2.899   3.093
 9122SOL    HW228266   1.645   2.937   2.937
 9123SOL     OW28267   2.764   6.361   5.941
 9123SOL    HW128268   2.837   6.299   5.912
 9123SOL    HW228269   2.790   6.404   6.027
 9124SOL     OW28270   6.396   5.919   5.502
 9124SOL    HW128271   6.491   5.948   5.489
 9124SOL    HW228272   6.337   5.970   5.440
 9125SOL     OW28273   4.841   4.474   3.573
 9125SOL    HW128274   4.862   4.486   3.475
 9125SOL    HW228275   4.745   4.449   3.583
 9126SOL     OW28276   6.250   0.888   1.534
 9126SOL    HW128277   6.326   0.844   1.582
 9126SOL    HW228278   6.285   0.932   1.450
 9127SOL     OW28279   5.597   0.542   6.364
 9127SOL    HW128280   5.562   0.468   6.422
 9127SOL    HW228281   5.565   0.528   6.271
 9128SOL     OW28282   3.698   1.605   5.631
 9128SOL    HW128283   3.659   1.657   5.554
 9128SOL    HW228284   3.796   1.593   5.617
 9129SOL     OW28285   1.400   2.523   6.601
 9129SOL    HW128286   1.435   2.563   6.517
 9129SOL    HW228287   1.394   2.593   6.672
 9130SOL     OW28288   6.655   4.599   0.109
 9130SOL    HW128289   6.651   4.558   0.017
 9130SOL    HW228290   6.646   4.527   0.178
 9131SOL     OW28291   0.416   4.402   4.317
 9131SOL    HW128292   0.362   4.331   4.362
 9131SOL    HW228293   0.433   4.476   4.382
 9132SOL     OW28294   6.445   4.079   3.554
 9132SOL    HW128295   6.432   3.984   3.581
 9132SOL    HW228296   6.487   4.083   3.464
 9133SOL     OW28297   2.331   4.467   0.941
 9133SOL    HW128298   2.326   4.497   1.036
 9133SOL    HW228299   2.358   4.543   0.882
 9134SOL     OW28300   3.899   6.804   0.183
 9134SOL    HW128301   3.987   6.783   0.142
 9134SOL    HW228302   3.899   6.777   0.280
 9135SOL     OW28303   6.728   6.942   2.692
 9135SOL    HW128304   6.647   6.883   2.691
 9135SOL    HW228305   6.702   0.011   2.717
 9136SOL     OW28306   5.035   5.025   5.824
 9136SOL    HW128307   5.029   5.084   5.744
 9136SOL    HW228308   4.979   4.943   5.809
 9137SOL     OW28309   5.026   1.279   1.672
 9137SOL    HW128310   5.124   1.294   1.679
 9137SOL    HW228311   4.987   1.342   1.605
 9138SOL     OW28312   6.073   4.715   5.963
 9138SOL    HW128313   6.026   4.802   5.978
 9138SOL    HW228314   6.171   4.730   5.963
 9139SOL     OW28315   2.954   1.192   5.741
 9139SOL    HW128316   3.019   1.161   5.810
 9139SOL    HW228317   2.956   1.130   5.663
 9140SOL     OW28318   6.509   2.352   2.776
 9140SOL    HW128319   6.429   2.397   2.736
 9140SOL    HW228320   6.499   2.253   2.768
 9141SOL     OW28321   5.631   0.418   6.053
 9141SOL    HW128322   5.707   0.483   6.062
 9141SOL    HW228323   5.596   0.420   5.960
 9142SOL     OW28324   0.120   3.331   5.396
 9142SOL    HW128325   0.207   3.285   5.414
 9142SOL    HW228326   0.063   3.328   5.478
 9143SOL     OW28327   4.467   3.252   0.222
 9143SOL    HW128328   4.529   3.245   0.144
 9143SOL    HW228329   4.445   3.348   0.239
 9144SOL     OW28330   1.963   5.970   5.919
 9144SOL    HW128331   2.017   5.978   6.004
 9144SOL    HW228332   2.008   6.022   5.846
 9145SOL     OW28333   0.211   4.608   0.555
 9145SOL    HW128334   0.272   4.535   0.586
 9145SOL    HW228335   0.255   4.697   0.570
 9146SOL     OW28336   5.272   2.518   1.765
 9146SOL    HW128337   5.345   2.507   1.697
 9146SOL    HW228338   5.184   2.527   1.719
 9147SOL     OW28339   5.075   6.713   3.949
 9147SOL    HW128340   5.066   6.784   4.019
 9147SOL    HW228341   4.996   6.715   3.888
 9148SOL     OW28342   6.084   6.482   2.540
 9148SOL    HW128343   6.137   6.423   2.602
 9148SOL    HW228344   5.987   6.462   2.550
 9149SOL     OW28345   4.819   3.017   4.048
 9149SOL    HW128346   4.819   3.057   3.956
 9149SOL    HW228347   4.755   2.940   4.051
 9150SOL     OW28348   4.458   6.246   3.097
 9150SOL    HW128349   4.381   6.183   3.088
 9150SOL    HW228350   4.430   6.337   3.064
 9151SOL     OW28351   1.554   4.175   2.059
 9151SOL    HW128352   1.626   4.191   1.993
 9151SOL    HW228353   1.588   4.193   2.152
 9152SOL     OW28354   2.554   5.853   4.188
 9152SOL    HW128355   2.524   5.762   4.217
 9152SOL    HW228356   2.473   5.908   4.166
 9153SOL     OW28357   1.508   2.457   0.022
 9153SOL    HW128358   1.464   2.438   0.110
 9153SOL    HW228359   1.450   2.424   6.972
 9154SOL     OW28360   2.723   6.111   6.242
 9154SOL    HW128361   2.700   6.168   6.321
 9154SOL    HW228362   2.816   6.076   6.253
 9155SOL     OW28363   2.162   3.326   6.865
 9155SOL    HW128364   2.177   3.266   6.786
 9155SOL    HW228365   2.249   3.339   6.912
 9156SOL     OW28366   2.968   2.334   1.358
 9156SOL    HW128367   2.947   2.238   1.379
 9156SOL    HW228368   3.041   2.338   1.290
 9157SOL     OW28369   5.881   4.960   5.348
 9157SOL    HW128370   5.837   4.908   5.421
 9157SOL    HW228371   5.930   4.898   5.287
 9158SOL     OW28372   7.000   3.781   4.543
 9158SOL    HW128373   7.017   3.858   4.604
 9158SOL    HW228374   6.929   3.722   4.583
 9159SOL     OW28375   0.032   5.610   3.081
 9159SOL    HW128376   0.112   5.660   3.048
 9159SOL    HW228377   0.046   5.512   3.069
 9160SOL     OW28378   0.145   6.785   5.871
 9160SOL    HW128379   0.175   6.797   5.965
 9160SOL    HW228380   0.135   6.874   5.827
 9161SOL     OW28381   4.771   4.034   4.671
 9161SOL    HW128382   4.823   4.069   4.748
 9161SOL    HW228383   4.677   4.014   4.700
 9162SOL     OW28384   5.042   2.470   3.090
 9162SOL    HW128385   4.993   2.420   3.018
 9162SOL    HW228386   4.987   2.547   3.121
 9163SOL     OW28387   2.230   3.078   3.802
 9163SOL    HW128388   2.157   3.035   3.855
 9163SOL    HW228389   2.268   3.013   3.737
 9164SOL     OW28390   2.752   0.861   6.410
 9164SOL    HW128391   2.817   0.889   6.340
 9164SOL    HW228392   2.766   0.764   6.432
 9165SOL     OW28393   6.068   0.806   5.892
 9165SOL    HW128394   6.147   0.794   5.952
 9165SOL    HW228395   6.037   0.717   5.858
 9166SOL     OW28396   4.929   6.287   1.308
 9166SOL    HW128397   5.002   6.242   1.358
 9166SOL    HW228398   4.954   6.382   1.290
 9167SOL     OW28399   2.069   2.800   5.994
 9167SOL    HW128400   2.129   2.873   6.025
 9167SOL    HW228401   2.058   2.804   5.895
 9168SOL     OW28402   2.271   6.911   6.053
 9168SOL    HW128403   2.172   6.919   6.063
 9168SOL    HW228404   2.295   6.908   5.956
 9169SOL     OW28405   7.000   0.562   5.038
 9169SOL    HW128406   0.008   0.512   5.119
 9169SOL    HW228407   6.903   0.583   5.048
 9170SOL     OW28408   0.174   5.006   6.482
 9170SOL    HW128409   0.208   4.946   6.410
 9170SOL    HW228410   0.074   5.002   6.485
 9171SOL     OW28411   3.126   5.760   0.024
 9171SOL    HW128412   3.163   5.712   6.968
 9171SOL    HW228413   3.177   5.844   0.039
 9172SOL     OW28414   3.447   1.070   4.757
 9172SOL    HW128415   3.384   1.148   4.763
 9172SOL    HW228416   3.396   0.985   4.768
 9173SOL     OW28417   5.387   5.166   4.658
 9173SOL    HW128418   5.347   5.152   4.749
 9173SOL    HW228419   5.470   5.110   4.649
 9174SOL     OW28420   6.022   3.711   0.754
 9174SOL    HW128421   5.983   3.751   0.837
 9174SOL    HW228422   6.116   3.682   0.771
 9175SOL     OW28423   2.604   6.222   5.022
 9175SOL    HW128424   2.633   6.150   4.959
 9175SOL    HW228425   2.508   6.208   5.047
 9176SOL     OW28426   1.819   1.225   5.559
 9176SOL    HW128427   1.761   1.276   5.495
 9176SOL    HW228428   1.789   1.242   5.653
 9177SOL     OW28429   0.904   4.297   4.145
 9177SOL    HW128430   0.805   4.296   4.127
 9177SOL    HW228431   0.928   4.221   4.205
 9178SOL     OW28432   2.047   4.505   0.883
 9178SOL    HW128433   2.030   4.553   0.797
 9178SOL    HW228434   2.145   4.509   0.904
 9179SOL     OW28435   2.580   5.283   4.033
 9179SOL    HW128436   2.496   5.258   4.080
 9179SOL    HW228437   2.650   5.213   4.049
 9180SOL     OW28438   6.209   2.209   3.227
 9180SOL    HW128439   6.282   2.277   3.222
 9180SOL    HW228440   6.144   2.224   3.153
 9181SOL     OW28441   4.556   2.468   2.910
 9181SOL    HW128442   4.601   2.379   2.909
 9181SOL    HW228443   4.461   2.458   2.880
 9182SOL     OW28444   2.952   0.176   2.716
 9182SOL    HW128445   3.012   0.160   2.795
 9182SOL    HW228446   2.926   0.088   2.676
 9183SOL     OW28447   5.202   6.088   0.544
 9183SOL    HW128448   5.248   6.151   0.481
 9183SOL    HW228449   5.164   6.140   0.621
 9184SOL     OW28450   4.926   1.018   0.569
 9184SOL    HW128451   4.992   1.078   0.614
 9184SOL    HW228452   4.896   1.059   0.483
 9185SOL     OW28453   4.172   6.882   5.555
 9185SOL    HW128454   4.257   6.831   5.567
 9185SOL    HW228455   4.191   6.967   5.505
 9186SOL     OW28456   6.413   1.438   4.258
 9186SOL    HW128457   6.421   1.437   4.358
 9186SOL    HW228458   6.474   1.369   4.219
 9187SOL     OW28459   2.348   0.212   1.497
 9187SOL    HW128460   2.273   0.251   1.445
 9187SOL    HW228461   2.433   0.219   1.444
 9188SOL     OW28462   2.385   6.561   1.842
 9188SOL    HW128463   2.348   6.555   1.750
 9188SOL    HW228464   2.347   6.641   1.889
 9189SOL     OW28465   5.544   6.047   2.408
 9189SOL    HW128466   5.539   6.133   2.458
 9189SOL    HW228467   5.621   5.993   2.442
 9190SOL     OW28468   1.733   5.188   0.391
 9190SOL    HW128469   1.827   5.157   0.400
 9190SOL    HW228470   1.700   5.170   0.299
 9191SOL     OW28471   5.886   1.189   5.453
 9191SOL    HW128472   5.955   1.209   5.522
 9191SOL    HW228473   5.851   1.096   5.468
 9192SOL     OW28474   0.478   3.973   4.492
 9192SOL    HW128475   0.535   3.920   4.555
 9192SOL    HW228476   0.478   3.929   4.402
 9193SOL     OW28477   4.369   4.026   7.020
 9193SOL    HW128478   4.449   4.058   0.048
 9193SOL    HW228479   4.398   3.962   6.950
 9194SOL     OW28480   3.275   0.956   3.487
 9194SOL    HW128481   3.331   0.981   3.565
 9194SOL    HW228482   3.206   1.027   3.472
 9195SOL     OW28483   1.945   2.339   4.166
 9195SOL    HW128484   1.995   2.284   4.100
 9195SOL    HW228485   1.948   2.435   4.138
 9196SOL     OW28486   4.384   1.065   5.262
 9196SOL    HW128487   4.387   0.966   5.277
 9196SOL    HW228488   4.377   1.083   5.163
 9197SOL     OW28489   1.851   4.360   1.567
 9197SOL    HW128490   1.856   4.451   1.610
 9197SOL    HW228491   1.797   4.299   1.625
 9198SOL     OW28492   6.442   5.369   5.003
 9198SOL    HW128493   6.361   5.322   4.969
 9198SOL    HW228494   6.469   5.440   4.939
 9199SOL     OW28495   0.305   3.860   6.423
 9199SOL    HW128496   0.294   3.953   6.458
 9199SOL    HW228497   0.370   3.810   6.480
 9200SOL     OW28498   2.230   6.769   1.244
 9200SOL    HW128499   2.142   6.746   1.202
 9200SOL    HW228500   2.276   6.685   1.271
 9201SOL     OW28501   0.365   3.514   0.248
 9201SOL    HW128502   0.303   3.460   0.190
 9201SOL    HW228503   0.442   3.457   0.276
 9202SOL     OW28504   2.470   6.865   3.713
 9202SOL    HW128505   2.527   6.885   3.793
 9202SOL    HW228506   2.416   6.782   3.731
 9203SOL     OW28507   0.510   5.536   6.964
 9203SOL    HW128508   0.460   5.554   6.880
 9203SOL    HW228509   0.605   5.567   6.954
 9204SOL     OW28510   4.870   2.696   6.943
 9204SOL    HW128511   4.784   2.708   6.992
 9204SOL    HW228512   4.914   2.785   6.929
 9205SOL     OW28513   6.350   4.099   2.870
 9205SOL    HW128514   6.340   4.007   2.908
 9205SOL    HW228515   6.263   4.128   2.829
 9206SOL     OW28516   3.673   5.423   1.487
 9206SOL    HW128517   3.647   5.339   1.440
 9206SOL    HW228518   3.671   5.408   1.586
 9207SOL     OW28519   4.165   5.066   0.418
 9207SOL    HW128520   4.090   5.129   0.434
 9207SOL    HW228521   4.200   5.077   0.325
 9208SOL     OW28522   5.922   4.456   4.432
 9208SOL    HW128523   5.851   4.491   4.371
 9208SOL    HW228524   5.965   4.376   4.391
 9209SOL     OW28525   2.999   1.263   0.218
 9209SOL    HW128526   3.052   1.201   0.276
 9209SOL    HW228527   3.035   1.260   0.124
 9210SOL     OW28528   6.666   1.342   3.345
 9210SOL    HW128529   6.650   1.330   3.247
 9210SOL    HW228530   6.602   1.410   3.381
 9211SOL     OW28531   6.714   2.588   3.995
 9211SOL    HW128532   6.712   2.686   4.014
 9211SOL    HW228533   6.670   2.539   4.070
 9212SOL     OW28534   3.779   5.413   4.495
 9212SOL    HW128535   3.687   5.378   4.474
 9212SOL    HW228536   3.786   5.508   4.464
 9213SOL     OW28537   5.806   3.104   5.362
 9213SOL    HW128538   5.848   3.029   5.310
 9213SOL    HW228539   5.734   3.146   5.307
 9214SOL     OW28540   6.807   5.541   5.476
 9214SOL    HW128541   6.904   5.562   5.491
 9214SOL    HW228542   6.758   5.547   5.563
 9215SOL     OW28543   0.878   2.400   0.186
 9215SOL    HW128544   0.875   2.329   0.257
 9215SOL    HW228545   0.838   2.364   0.102
 9216SOL     OW28546   2.548   0.145   3.743
 9216SOL    HW128547   2.601   0.188   3.670
 9216SOL    HW228548   2.456   0.186   3.746
 9217SOL     OW28549   0.219   1.053   6.164
 9217SOL    HW128550   0.167   0.987   6.217
 9217SOL    HW228551   0.220   1.025   6.068
 9218SOL     OW28552   4.266   6.602   0.311
 9218SOL    HW128553   4.348   6.549   0.332
 9218SOL    HW228554   4.227   6.638   0.396
 9219SOL     OW28555   0.503   3.118   6.877
 9219SOL    HW128556   0.461   3.205   6.902
 9219SOL    HW228557   0.564   3.132   6.798
 9220SOL     OW28558   3.313   6.459   1.306
 9220SOL    HW128559   3.288   6.521   1.232
 9220SOL    HW228560   3.402   6.416   1.285
 9221SOL     OW28561   3.684   0.668   4.261
 9221SOL    HW128562   3.746   0.742   4.286
 9221SOL    HW228563   3.592   0.689   4.294
 9222SOL     OW28564   2.313   0.466   6.624
 9222SOL    HW128565   2.392   0.527   6.625
 9222SOL    HW228566   2.234   0.513   6.663
 9223SOL     OW28567   1.808   2.032   5.050
 9223SOL    HW128568   1.855   2.068   4.970
 9223SOL    HW228569   1.853   2.067   5.133
 9224SOL     OW28570   3.089   5.422   4.520
 9224SOL    HW128571   3.107   5.512   4.559
 9224SOL    HW228572   2.995   5.418   4.486
 9225SOL     OW28573   3.357   6.529   6.284
 9225SOL    HW128574   3.387   6.599   6.220
 9225SOL    HW228575   3.368   6.438   6.242
 9226SOL     OW28576   5.722   6.326   1.569
 9226SOL    HW128577   5.647   6.369   1.520
 9226SOL    HW228578   5.776   6.270   1.506
 9227SOL     OW28579   0.976   4.880   3.706
 9227SOL    HW128580   0.900   4.871   3.641
 9227SOL    HW228581   1.039   4.950   3.673
 9228SOL     OW28582   1.185   0.819   5.935
 9228SOL    HW128583   1.173   0.839   5.838
 9228SOL    HW228584   1.277   0.846   5.964
 9229SOL     OW28585   1.819   5.726   4.342
 9229SOL    HW128586   1.779   5.706   4.252
 9229SOL    HW228587   1.752   5.703   4.413
 9230SOL     OW28588   5.564   0.334   2.438
 9230SOL    HW128589   5.529   0.280   2.362
 9230SOL    HW228590   5.529   0.427   2.431
 9231SOL     OW28591   1.978   3.380   4.294
 9231SOL    HW128592   1.998   3.469   4.335
 9231SOL    HW228593   2.063   3.333   4.272
 9232SOL     OW28594   3.634   5.180   1.334
 9232SOL    HW128595   3.614   5.082   1.322
 9232SOL    HW228596   3.605   5.230   1.253
 9233SOL     OW28597   5.920   5.211   1.655
 9233SOL    HW128598   6.010   5.170   1.639
 9233SOL    HW228599   5.920   5.255   1.745
 9234SOL     OW28600   3.189   5.658   3.985
 9234SOL    HW128601   3.163   5.667   3.889
 9234SOL    HW228602   3.107   5.645   4.041
 9235SOL     OW28603   1.864   1.748   3.214
 9235SOL    HW128604   1.896   1.820   3.153
 9235SOL    HW228605   1.875   1.778   3.309
 9236SOL     OW28606   3.557   4.099   5.438
 9236SOL    HW128607   3.635   4.043   5.466
 9236SOL    HW228608   3.585   4.162   5.365
 9237SOL     OW28609   1.525   4.345   4.589
 9237SOL    HW128610   1.490   4.428   4.634
 9237SOL    HW228611   1.585   4.371   4.514
 9238SOL     OW28612   3.845   2.061   5.849
 9238SOL    HW128613   3.906   2.026   5.778
 9238SOL    HW228614   3.853   2.160   5.854
 9239SOL     OW28615   0.209   3.929   1.112
 9239SOL    HW128616   0.178   4.003   1.053
 9239SOL    HW228617   0.131   3.886   1.157
 9240SOL     OW28618   5.783   1.264   0.624
 9240SOL    HW128619   5.691   1.245   0.591
 9240SOL    HW228620   5.844   1.279   0.546
 9241SOL     OW28621   6.520   5.493   6.437
 9241SOL    HW128622   6.608   5.523   6.476
 9241SOL    HW228623   6.470   5.441   6.506
 9242SOL     OW28624   6.963   5.278   0.531
 9242SOL    HW128625   6.950   5.377   0.524
 9242SOL    HW228626   6.874   5.232   0.530
 9243SOL     OW28627   6.383   5.367   3.033
 9243SOL    HW128628   6.413   5.462   3.021
 9243SOL    HW228629   6.308   5.349   2.970
 9244SOL     OW28630   4.810   6.054   6.502
 9244SOL    HW128631   4.901   6.030   6.535
 9244SOL    HW228632   4.743   6.036   6.574
 9245SOL     OW28633   1.303   5.366   2.424
 9245SOL    HW128634   1.235   5.326   2.486
 9245SOL    HW228635   1.387   5.312   2.427
 9246SOL     OW28636   6.034   4.879   3.392
 9246SOL    HW128637   5.967   4.951   3.379
 9246SOL    HW228638   6.088   4.868   3.309
 9247SOL     OW28639   0.673   6.890   2.986
 9247SOL    HW128640   0.692   6.965   3.050
 9247SOL    HW228641   0.606   6.827   3.026
 9248SOL     OW28642   2.329   2.423   6.154
 9248SOL    HW128643   2.236   2.431   6.116
 9248SOL    HW228644   2.394   2.415   6.079
 9249SOL     OW28645   5.313   2.210   5.429
 9249SOL    HW128646   5.266   2.239   5.512
 9249SOL    HW228647   5.263   2.134   5.388
 9250SOL     OW28648   5.238   4.023   4.406
 9250SOL    HW128649   5.283   3.983   4.486
 9250SOL    HW228650   5.162   3.964   4.378
 9251SOL     OW28651   3.988   1.638   3.088
 9251SOL    HW128652   3.925   1.690   3.031
 9251SOL    HW228653   3.938   1.590   3.159
 9252SOL     OW28654   6.643   0.263   4.872
 9252SOL    HW128655   6.731   0.238   4.913
 9252SOL    HW228656   6.645   0.244   4.774
 9253SOL     OW28657   3.339   6.084   6.219
 9253SOL    HW128658   3.364   5.998   6.175
 9253SOL    HW228659   3.347   6.075   6.318
 9254SOL     OW28660   5.254   3.804   1.326
 9254SOL    HW128661   5.181   3.785   1.391
 9254SOL    HW228662   5.285   3.719   1.283
 9255SOL     OW28663   5.299   2.840   0.052
 9255SOL    HW128664   5.231   2.790   0.104
 9255SOL    HW228665   5.278   2.938   0.053
 9256SOL     OW28666   4.357   4.591   2.950
 9256SOL    HW128667   4.411   4.535   3.013
 9256SOL    HW228668   4.287   4.640   3.002
 9257SOL     OW28669   0.855   4.435   2.721
 9257SOL    HW128670   0.814   4.428   2.813
 9257SOL    HW228671   0.831   4.354   2.668
 9258SOL     OW28672   3.554   3.028   3.690
 9258SOL    HW128673   3.470   2.994   3.732
 9258SOL    HW228674   3.562   3.127   3.707
 9259SOL     OW28675   0.800   2.224   1.111
 9259SOL    HW128676   0.887   2.260   1.077
 9259SOL    HW228677   0.730   2.295   1.104
 9260SOL     OW28678   4.743   2.450   5.389
 9260SOL    HW128679   4.676   2.523   5.375
 9260SOL    HW228680   4.750   2.429   5.486
 9261SOL     OW28681   4.197   0.281   6.630
 9261SOL    HW128682   4.286   0.238   6.643
 9261SOL    HW228683   4.125   0.220   6.663
 9262SOL     OW28684   5.871   2.171   5.804
 9262SOL    HW128685   5.871   2.106   5.879
 9262SOL    HW228686   5.799   2.239   5.817
 9263SOL     OW28687   5.907   4.075   1.355
 9263SOL    HW128688   5.843   4.095   1.429
 9263SOL    HW228689   5.985   4.023   1.391
 9264SOL     OW28690   6.104   3.787   0.273
 9264SOL    HW128691   6.028   3.750   0.327
 9264SOL    HW228692   6.123   3.725   0.197
 9265SOL     OW28693   3.257   1.604   0.335
 9265SOL    HW128694   3.292   1.668   0.403
 9265SOL    HW228695   3.289   1.631   0.244
 9266SOL     OW28696   2.640   6.006   3.224
 9266SOL    HW128697   2.565   6.070   3.243
 9266SOL    HW228698   2.696   5.995   3.306
 9267SOL     OW28699   0.355   4.221   4.544
 9267SOL    HW128700   0.399   4.258   4.625
 9267SOL    HW228701   0.391   4.129   4.526
 9268SOL     OW28702   0.724   6.532   2.739
 9268SOL    HW128703   0.711   6.490   2.829
 9268SOL    HW228704   0.822   6.545   2.723
 9269SOL     OW28705   2.775   2.403   0.250
 9269SOL    HW128706   2.832   2.485   0.252
 9269SOL    HW228707   2.698   2.414   0.313
 9270SOL     OW28708   5.917   7.006   5.578
 9270SOL    HW128709   5.831   0.003   5.532
 9270SOL    HW228710   5.901   6.933   5.645
 9271SOL     OW28711   1.727   6.176   1.156
 9271SOL    HW128712   1.718   6.180   1.056
 9271SOL    HW228713   1.638   6.156   1.196
 9272SOL     OW28714   3.328   4.313   6.076
 9272SOL    HW128715   3.265   4.378   6.119
 9272SOL    HW228716   3.325   4.227   6.127
 9273SOL     OW28717   4.512   5.908   3.757
 9273SOL    HW128718   4.569   5.835   3.719
 9273SOL    HW228719   4.429   5.867   3.795
 9274SOL     OW28720   5.555   1.953   6.428
 9274SOL    HW128721   5.563   1.867   6.479
 9274SOL    HW228722   5.530   2.027   6.490
 9275SOL     OW28723   1.093   1.232   0.224
 9275SOL    HW128724   0.996   1.252   0.213
 9275SOL    HW228725   1.147   1.312   0.197
 9276SOL     OW28726   2.520   5.126   4.390
 9276SOL    HW128727   2.463   5.176   4.325
 9276SOL    HW228728   2.605   5.099   4.346
 9277SOL     OW28729   3.570   3.288   0.603
 9277SOL    HW128730   3.648   3.317   0.548
 9277SOL    HW228731   3.488   3.286   0.545
 9278SOL     OW28732   1.742   1.598   4.017
 9278SOL    HW128733   1.835   1.602   3.979
 9278SOL    HW228734   1.744   1.624   4.114
 9279SOL     OW28735   4.291   0.209   2.184
 9279SOL    HW128736   4.230   0.162   2.249
 9279SOL    HW228737   4.236   0.261   2.118
 9280SOL     OW28738   1.618   6.649   3.675
 9280SOL    HW128739   1.661   6.717   3.735
 9280SOL    HW228740   1.527   6.681   3.649
 9281SOL     OW28741   2.624   3.357   0.989
 9281SOL    HW128742   2.633   3.378   0.892
 9281SOL    HW228743   2.593   3.438   1.038
 9282SOL     OW28744   4.891   1.949   4.362
 9282SOL    HW128745   4.887   1.998   4.275
 9282SOL    HW228746   4.814   1.976   4.420
 9283SOL     OW28747   6.276   1.272   2.930
 9283SOL    HW128748   6.198   1.230   2.882
 9283SOL    HW228749   6.356   1.271   2.869
 9284SOL     OW28750   3.743   4.502   0.034
 9284SOL    HW128751   3.818   4.536   0.091
 9284SOL    HW228752   3.727   4.406   0.054
 9285SOL     OW28753   5.586   2.835   0.107
 9285SOL    HW128754   5.505   2.825   0.049
 9285SOL    HW228755   5.599   2.751   0.161
 9286SOL     OW28756   5.508   6.692   5.799
 9286SOL    HW128757   5.564   6.766   5.837
 9286SOL    HW228758   5.538   6.673   5.706
 9287SOL     OW28759   3.482   5.898   1.046
 9287SOL    HW128760   3.430   5.975   1.009
 9287SOL    HW228761   3.536   5.857   0.973
 9288SOL     OW28762   4.022   1.221   6.032
 9288SOL    HW128763   3.961   1.223   6.111
 9288SOL    HW228764   4.001   1.142   5.975
 9289SOL     OW28765   4.343   1.839   2.260
 9289SOL    HW128766   4.425   1.824   2.204
 9289SOL    HW228767   4.362   1.909   2.328
 9290SOL     OW28768   4.209   1.419   5.260
 9290SOL    HW128769   4.272   1.437   5.184
 9290SOL    HW228770   4.247   1.455   5.345
 9291SOL     OW28771   1.723   0.755   5.176
 9291SOL    HW128772   1.693   0.840   5.221
 9291SOL    HW228773   1.822   0.760   5.160
 9292SOL     OW28774   6.423   3.115   6.275
 9292SOL    HW128775   6.361   3.171   6.329
 9292SOL    HW228776   6.451   3.035   6.328
 9293SOL     OW28777   5.602   4.287   0.734
 9293SOL    HW128778   5.617   4.209   0.794
 9293SOL    HW228779   5.676   4.292   0.667
 9294SOL     OW28780   3.742   6.371   6.877
 9294SOL    HW128781   3.690   6.441   6.828
 9294SOL    HW228782   3.827   6.411   6.910
 9295SOL     OW28783   5.306   1.661   3.229
 9295SOL    HW128784   5.247   1.740   3.211
 9295SOL    HW228785   5.272   1.582   3.179
 9296SOL     OW28786   6.597   6.789   6.445
 9296SOL    HW128787   6.678   6.845   6.428
 9296SOL    HW228788   6.623   6.692   6.447
 9297SOL     OW28789   0.080   0.526   1.252
 9297SOL    HW128790   0.072   0.584   1.333
 9297SOL    HW228791   0.019   0.447   1.262
 9298SOL     OW28792   2.370   6.234   5.740
 9298SOL    HW128793   2.414   6.252   5.827
 9298SOL    HW228794   2.285   6.182   5.755
 9299SOL     OW28795   1.217   2.998   4.257
 9299SOL    HW128796   1.201   2.911   4.303
 9299SOL    HW228797   1.282   2.984   4.182
 9300SOL     OW28798   6.387   5.110   4.324
 9300SOL    HW128799   6.424   5.161   4.247
 9300SOL    HW228800   6.306   5.059   4.294
 9301SOL     OW28801   4.943   4.503   3.323
 9301SOL    HW128802   5.034   4.530   3.355
 9301SOL    HW228803   4.931   4.532   3.228
 9302SOL     OW28804   2.262   2.822   3.664
 9302SOL    HW128805   2.341   2.761   3.657
 9302SOL    HW228806   2.255   2.877   3.581
 9303SOL     OW28807   3.738   6.563   0.420
 9303SOL    HW128808   3.774   6.655   0.435
 9303SOL    HW228809   3.658   6.548   0.477
 9304SOL     OW28810   3.630   3.855   0.304
 9304SOL    HW128811   3.567   3.784   0.271
 9304SOL    HW228812   3.681   3.892   0.227
 9305SOL     OW28813   5.398   1.603   1.773
 9305SOL    HW128814   5.492   1.622   1.801
 9305SOL    HW228815   5.394   1.594   1.674
 9306SOL     OW28816   0.553   4.960   4.492
 9306SOL    HW128817   0.570   4.952   4.590
 9306SOL    HW228818   0.622   4.907   4.442
 9307SOL     OW28819   1.355   2.717   0.893
 9307SOL    HW128820   1.309   2.631   0.870
 9307SOL    HW228821   1.447   2.717   0.853
 9308SOL     OW28822   0.841   4.153   1.280
 9308SOL    HW128823   0.918   4.125   1.339
 9308SOL    HW228824   0.780   4.213   1.331
 9309SOL     OW28825   3.701   5.024   5.168
 9309SOL    HW128826   3.753   4.972   5.236
 9309SOL    HW228827   3.686   5.117   5.201
 9310SOL     OW28828   4.374   5.997   6.318
 9310SOL    HW128829   4.469   5.969   6.326
 9310SOL    HW228830   4.326   5.937   6.253
 9311SOL     OW28831   5.981   4.332   1.060
 9311SOL    HW128832   5.903   4.313   1.119
 9311SOL    HW228833   5.981   4.428   1.034
 9312SOL     OW28834   1.967   4.368   0.502
 9312SOL    HW128835   1.935   4.384   0.409
 9312SOL    HW228836   1.980   4.456   0.548
 9313SOL     OW28837   6.832   1.171   1.514
 9313SOL    HW128838   6.735   1.191   1.498
 9313SOL    HW228839   6.887   1.220   1.446
 9314SOL     OW28840   4.195   5.154   6.729
 9314SOL    HW128841   4.103   5.183   6.700
 9314SOL    HW228842   4.214   5.063   6.693
 9315SOL     OW28843   6.119   0.162   5.526
 9315SOL    HW128844   6.201   0.105   5.522
 9315SOL    HW228845   6.042   0.106   5.560
 9316SOL     OW28846   4.561   5.724   4.635
 9316SOL    HW128847   4.567   5.675   4.722
 9316SOL    HW228848   4.508   5.669   4.570
 9317SOL     OW28849   5.962   6.080   2.908
 9317SOL    HW128850   5.949   5.981   2.904
 9317SOL    HW228851   6.026   6.103   2.981
 9318SOL     OW28852   6.866   0.818   5.397
 9318SOL    HW128853   6.822   0.906   5.418
 9318SOL    HW228854   6.909   0.783   5.480
 9319SOL     OW28855   0.823   2.919   6.012
 9319SOL    HW128856   0.799   2.984   6.084
 9319SOL    HW228857   0.760   2.841   6.015
 9320SOL     OW28858   3.947   2.385   5.740
 9320SOL    HW128859   3.939   2.333   5.656
 9320SOL    HW228860   3.981   2.477   5.719
 9321SOL     OW28861   6.216   0.066   2.400
 9321SOL    HW128862   6.291   0.090   2.461
 9321SOL    HW228863   6.169   7.008   2.434
 9322SOL     OW28864   0.056   6.173   6.109
 9322SOL    HW128865   0.120   6.206   6.039
 9322SOL    HW228866   0.076   6.077   6.128
 9323SOL     OW28867   1.448   6.954   5.795
 9323SOL    HW128868   1.510   6.896   5.743
 9323SOL    HW228869   1.486   6.973   5.885
 9324SOL     OW28870   1.997   5.111   0.438
 9324SOL    HW128871   1.953   5.053   0.506
 9324SOL    HW228872   2.083   5.070   0.408
 9325SOL     OW28873   5.248   1.787   1.523
 9325SOL    HW128874   5.201   1.743   1.446
 9325SOL    HW228875   5.346   1.767   1.518
 9326SOL     OW28876   2.760   6.783   0.615
 9326SOL    HW128877   2.736   6.764   0.520
 9326SOL    HW228878   2.726   6.710   0.674
 9327SOL     OW28879   4.858   6.837   3.350
 9327SOL    HW128880   4.873   6.854   3.252
 9327SOL    HW228881   4.850   6.924   3.398
 9328SOL     OW28882   4.006   1.283   6.807
 9328SOL    HW128883   4.004   1.364   6.748
 9328SOL    HW228884   3.982   1.202   6.754
 9329SOL     OW28885   6.987   3.108   2.986
 9329SOL    HW128886   6.978   3.181   3.053
 9329SOL    HW228887   0.048   3.058   3.001
 9330SOL     OW28888   0.465   6.087   0.278
 9330SOL    HW128889   0.546   6.039   0.313
 9330SOL    HW228890   0.439   6.158   0.343
 9331SOL     OW28891   0.682   1.223   6.541
 9331SOL    HW128892   0.735   1.177   6.470
 9331SOL    HW228893   0.587   1.194   6.536
 9332SOL     OW28894   3.160   4.068   3.341
 9332SOL    HW128895   3.089   3.999   3.358
 9332SOL    HW228896   3.176   4.076   3.243
 9333SOL     OW28897   4.963   4.205   0.695
 9333SOL    HW128898   4.906   4.264   0.752
 9333SOL    HW228899   5.022   4.261   0.637
 9334SOL     OW28900   3.675   0.416   3.295
 9334SOL    HW128901   3.769   0.450   3.296
 9334SOL    HW228902   3.657   0.368   3.381
 9335SOL     OW28903   1.369   1.625   6.636
 9335SOL    HW128904   1.396   1.718   6.614
 9335SOL    HW228905   1.444   1.562   6.614
 9336SOL     OW28906   3.131   6.281   6.288
 9336SOL    HW128907   3.086   6.252   6.373
 9336SOL    HW228908   3.218   6.234   6.278
 9337SOL     OW28909   4.918   0.507   2.681
 9337SOL    HW128910   5.008   0.550   2.687
 9337SOL    HW228911   4.918   0.424   2.737
 9338SOL     OW28912   4.293   0.517   2.267
 9338SOL    HW128913   4.206   0.487   2.228
 9338SOL    HW228914   4.310   0.611   2.240
 9339SOL     OW28915   5.787   6.880   0.811
 9339SOL    HW128916   5.843   6.927   0.743
 9339SOL    HW228917   5.738   6.947   0.867
 9340SOL     OW28918   5.166   3.526   5.379
 9340SOL    HW128919   5.165   3.610   5.324
 9340SOL    HW228920   5.210   3.453   5.327
 9341SOL     OW28921   1.244   5.834   6.614
 9341SOL    HW128922   1.171   5.771   6.584
 9341SOL    HW228923   1.204   5.922   6.637
 9342SOL     OW28924   2.580   0.409   4.312
 9342SOL    HW128925   2.643   0.464   4.367
 9342SOL    HW228926   2.513   0.365   4.371
 9343SOL     OW28927   5.945   4.819   4.533
 9343SOL    HW128928   5.862   4.798   4.482
 9343SOL    HW228929   5.956   4.919   4.538
 9344SOL     OW28930   5.061   6.363   0.542
 9344SOL    HW128931   5.048   6.317   0.630
 9344SOL    HW228932   5.130   6.313   0.488
 9345SOL     OW28933   6.501   2.810   2.803
 9345SOL    HW128934   6.511   2.907   2.827
 9345SOL    HW228935   6.582   2.780   2.753
 9346SOL     OW28936   5.745   0.576   1.119
 9346SOL    HW128937   5.688   0.617   1.047
 9346SOL    HW228938   5.689   0.555   1.199
 9347SOL     OW28939   1.703   5.832   1.202
 9347SOL    HW128940   1.744   5.836   1.111
 9347SOL    HW228941   1.770   5.860   1.271
 9348SOL     OW28942   4.292   5.844   0.845
 9348SOL    HW128943   4.257   5.887   0.762
 9348SOL    HW228944   4.263   5.896   0.925
 9349SOL     OW28945   0.666   6.851   2.244
 9349SOL    HW128946   0.646   6.898   2.158
 9349SOL    HW228947   0.632   6.757   2.239
 9350SOL     OW28948   1.071   2.883   5.895
 9350SOL    HW128949   0.974   2.879   5.917
 9350SOL    HW228950   1.125   2.869   5.978
 9351SOL     OW28951   3.092   2.260   6.534
 9351SOL    HW128952   3.146   2.178   6.555
 9351SOL    HW228953   3.132   2.306   6.455
 9352SOL     OW28954   2.469   3.911   6.918
 9352SOL    HW128955   2.386   3.873   6.960
 9352SOL    HW228956   2.462   4.010   6.914
 9353SOL     OW28957   1.106   5.563   1.836
 9353SOL    HW128958   1.035   5.628   1.808
 9353SOL    HW228959   1.068   5.470   1.837
 9354SOL     OW28960   6.531   2.256   6.745
 9354SOL    HW128961   6.610   2.211   6.702
 9354SOL    HW228962   6.557   2.289   6.836
 9355SOL     OW28963   0.656   1.356   5.062
 9355SOL    HW128964   0.579   1.327   5.006
 9355SOL    HW228965   0.655   1.456   5.071
 9356SOL     OW28966   4.327   6.930   1.906
 9356SOL    HW128967   4.349   6.832   1.904
 9356SOL    HW228968   4.384   6.978   1.839
 9357SOL     OW28969   1.045   2.102   7.004
 9357SOL    HW128970   1.120   2.082   6.942
 9357SOL    HW228971   1.081   2.122   0.071
 9358SOL     OW28972   0.687   3.830   2.665
 9358SOL    HW128973   0.701   3.734   2.643
 9358SOL    HW228974   0.667   3.839   2.763
 9359SOL     OW28975   1.905   6.312   5.779
 9359SOL    HW128976   1.962   6.255   5.838
 9359SOL    HW228977   1.879   6.395   5.828
 9360SOL     OW28978   1.576   6.887   6.569
 9360SOL    HW128979   1.535   6.934   6.490
 9360SOL    HW228980   1.566   6.788   6.557
 9361SOL     OW28981   1.909   5.899   3.555
 9361SOL    HW128982   1.944   5.945   3.474
 9361SOL    HW228983   1.847   5.960   3.604
 9362SOL     OW28984   2.244   1.253   2.440
 9362SOL    HW128985   2.306   1.219   2.511
 9362SOL    HW228986   2.285   1.331   2.393
 9363SOL     OW28987   3.293   5.252   2.305
 9363SOL    HW128988   3.210   5.285   2.351
 9363SOL    HW228989   3.296   5.289   2.212
 9364SOL     OW28990   1.811   2.512   2.038
 9364SOL    HW128991   1.888   2.484   2.095
 9364SOL    HW228992   1.829   2.603   2.001
 9365SOL     OW28993   3.303   1.800   3.981
 9365SOL    HW128994   3.254   1.716   4.004
 9365SOL    HW228995   3.329   1.799   3.885
 9366SOL     OW28996   3.399   6.074   0.673
 9366SOL    HW128997   3.396   6.111   0.766
 9366SOL    HW228998   3.365   5.980   0.673
 9367SOL     OW28999   5.692   0.072   0.949
 9367SOL    HW129000   5.723   0.151   1.002
 9367SOL    HW229001   5.594   0.057   0.966
 9368SOL     OW29002   3.548   0.854   2.391
 9368SOL    HW129003   3.582   0.892   2.304
 9368SOL    HW229004   3.557   0.754   2.389
 9369SOL     OW29005   1.100   4.976   6.558
 9369SOL    HW129006   1.010   4.936   6.540
 9369SOL    HW229007   1.096   5.075   6.544
 9370SOL     OW29008   4.159   1.735   4.613
 9370SOL    HW129009   4.177   1.654   4.557
 9370SOL    HW229010   4.246   1.771   4.648
 9371SOL     OW29011   3.597   6.223   1.376
 9371SOL    HW129012   3.654   6.153   1.332
 9371SOL    HW229013   3.648   6.308   1.382
 9372SOL     OW29014   4.710   6.734   1.852
 9372SOL    HW129015   4.672   6.747   1.761
 9372SOL    HW229016   4.808   6.715   1.845
 9373SOL     OW29017   6.324   1.603   0.055
 9373SOL    HW129018   6.364   1.522   0.013
 9373SOL    HW229019   6.315   1.675   7.010
 9374SOL     OW29020   0.394   4.765   5.714
 9374SOL    HW129021   0.387   4.771   5.614
 9374SOL    HW229022   0.319   4.817   5.755
 9375SOL     OW29023   0.235   1.689   6.337
 9375SOL    HW129024   0.188   1.713   6.252
 9375SOL    HW229025   0.284   1.770   6.371
 9376SOL     OW29026   2.014   3.733   2.396
 9376SOL    HW129027   1.956   3.804   2.356
 9376SOL    HW229028   2.046   3.671   2.324
 9377SOL     OW29029   2.184   5.858   2.272
 9377SOL    HW129030   2.258   5.793   2.290
 9377SOL    HW229031   2.222   5.940   2.229
 9378SOL     OW29032   3.878   0.582   3.653
 9378SOL    HW129033   3.861   0.614   3.747
 9378SOL    HW229034   3.791   0.577   3.604
 9379SOL     OW29035   4.633   6.206   4.566
 9379SOL    HW129036   4.551   6.149   4.566
 9379SOL    HW229037   4.670   6.211   4.658
 9380SOL     OW29038   5.044   5.656   6.837
 9380SOL    HW129039   5.011   5.578   6.784
 9380SOL    HW229040   4.978   5.676   6.910
 9381SOL     OW29041   5.683   2.062   5.017
 9381SOL    HW129042   5.709   1.993   4.950
 9381SOL    HW229043   5.607   2.028   5.073
 9382SOL     OW29044   3.741   0.419   4.431
 9382SOL    HW129045   3.761   0.488   4.361
 9382SOL    HW229046   3.804   0.431   4.508
 9383SOL     OW29047   4.847   4.173   3.538
 9383SOL    HW129048   4.922   4.238   3.545
 9383SOL    HW229049   4.777   4.194   3.606
 9384SOL     OW29050   1.906   0.247   1.943
 9384SOL    HW129051   1.972   0.243   1.868
 9384SOL    HW229052   1.840   0.321   1.926
 9385SOL     OW29053   4.159   1.228   3.767
 9385SOL    HW129054   4.128   1.276   3.685
 9385SOL    HW229055   4.254   1.199   3.755
 9386SOL     OW29056   4.220   6.183   5.632
 9386SOL    HW129057   4.178   6.227   5.553
 9386SOL    HW229058   4.159   6.112   5.667
 9387SOL     OW29059   3.680   2.235   6.954
 9387SOL    HW129060   3.708   2.168   7.022
 9387SOL    HW229061   3.752   2.303   6.942
 9388SOL     OW29062   2.037   6.825   4.435
 9388SOL    HW129063   2.104   6.754   4.413
 9388SOL    HW229064   1.962   6.785   4.487
 9389SOL     OW29065   3.441   5.265   1.799
 9389SOL    HW129066   3.456   5.212   1.882
 9389SOL    HW229067   3.528   5.303   1.767
 9390SOL     OW29068   4.412   4.941   5.870
 9390SOL    HW129069   4.410   4.842   5.863
 9390SOL    HW229070   4.361   4.970   5.952
 9391SOL     OW29071   0.967   6.569   4.228
 9391SOL    HW129072   1.019   6.595   4.147
 9391SOL    HW229073   0.958   6.470   4.232
 9392SOL     OW29074   5.425   4.311   2.941
 9392SOL    HW129075   5.455   4.274   2.853
 9392SOL    HW229076   5.345   4.261   2.973
 9393SOL     OW29077   2.954   6.652   5.456
 9393SOL    HW129078   2.862   6.658   5.418
 9393SOL    HW229079   2.952   6.678   5.553
 9394SOL     OW29080   4.871   6.941   1.108
 9394SOL    HW129081   4.773   6.939   1.128
 9394SOL    HW229082   4.890   6.892   1.023
 9395SOL     OW29083   2.790   1.960   0.527
 9395SOL    HW129084   2.748   1.897   0.462
 9395SOL    HW229085   2.726   1.978   0.602
 9396SOL     OW29086   1.259   6.062   6.800
 9396SOL    HW129087   1.261   6.108   6.888
 9396SOL    HW229088   1.351   6.033   6.775
 9397SOL     OW29089   3.881   0.290   6.562
 9397SOL    HW129090   3.889   0.192   6.546
 9397SOL    HW229091   3.899   0.310   6.658
 9398SOL     OW29092   0.100   1.692   6.579
 9398SOL    HW129093   0.170   1.668   6.511
 9398SOL    HW229094   0.140   1.752   6.648
 9399SOL     OW29095   2.032   2.947   3.943
 9399SOL    HW129096   1.975   3.015   3.988
 9399SOL    HW229097   1.975   2.870   3.913
 9400SOL     OW29098   5.401   1.343   0.706
 9400SOL    HW129099   5.437   1.265   0.655
 9400SOL    HW229100   5.303   1.330   0.720
 9401SOL     OW29101   0.468   2.008   2.927
 9401SOL    HW129102   0.443   2.074   2.998
 9401SOL    HW229103   0.543   2.045   2.872
 9402SOL     OW29104   1.619   5.661   3.034
 9402SOL    HW129105   1.707   5.684   3.076
 9402SOL    HW229106   1.635   5.608   2.951
 9403SOL     OW29107   6.487   2.628   1.828
 9403SOL    HW129108   6.520   2.693   1.759
 9403SOL    HW229109   6.476   2.538   1.786
 9404SOL     OW29110   2.067   3.176   0.832
 9404SOL    HW129111   2.025   3.085   0.840
 9404SOL    HW229112   2.028   3.237   0.901
 9405SOL     OW29113   0.280   5.106   5.459
 9405SOL    HW129114   0.312   5.065   5.373
 9405SOL    HW229115   0.349   5.093   5.530
 9406SOL     OW29116   6.806   3.091   7.012
 9406SOL    HW129117   6.713   3.067   0.014
 9406SOL    HW229118   6.811   3.190   6.997
 9407SOL     OW29119   1.598   4.870   5.334
 9407SOL    HW129120   1.620   4.962   5.303
 9407SOL    HW229121   1.678   4.811   5.322
 9408SOL     OW29122   6.648   4.760   4.414
 9408SOL    HW129123   6.686   4.759   4.322
 9408SOL    HW229124   6.719   4.735   4.480
 9409SOL     OW29125   6.886   5.071   2.153
 9409SOL    HW129126   6.809   5.006   2.153
 9409SOL    HW229127   6.971   5.021   2.137
 9410SOL     OW29128   3.897   1.192   1.817
 9410SOL    HW129129   3.882   1.128   1.892
 9410SOL    HW229130   3.995   1.200   1.800
 9411SOL     OW29131   3.195   3.342   3.913
 9411SOL    HW129132   3.187   3.432   3.956
 9411SOL    HW229133   3.126   3.334   3.840
 9412SOL     OW29134   6.497   6.992   1.724
 9412SOL    HW129135   6.430   0.030   1.763
 9412SOL    HW229136   6.466   6.897   1.736
 9413SOL     OW29137   4.155   5.038   3.775
 9413SOL    HW129138   4.168   4.977   3.697
 9413SOL    HW229139   4.243   5.053   3.821
 9414SOL     OW29140   2.196   2.073   4.458
 9414SOL    HW129141   2.252   2.095   4.538
 9414SOL    HW229142   2.256   2.044   4.383
 9415SOL     OW29143   3.703   1.364   1.888
 9415SOL    HW129144   3.666   1.412   1.808
 9415SOL    HW229145   3.780   1.307   1.860
 9416SOL     OW29146   6.363   5.101   6.447
 9416SOL    HW129147   6.366   5.181   6.507
 9416SOL    HW229148   6.409   5.025   6.492
 9417SOL     OW29149   4.141   6.065   1.695
 9417SOL    HW129150   4.045   6.051   1.673
 9417SOL    HW229151   4.151   6.150   1.748
 9418SOL     OW29152   3.199   2.142   4.251
 9418SOL    HW129153   3.285   2.135   4.301
 9418SOL    HW229154   3.217   2.135   4.153
 9419SOL     OW29155   2.380   2.715   6.895
 9419SOL    HW129156   2.448   2.644   6.882
 9419SOL    HW229157   2.359   2.725   6.992
 9420SOL     OW29158   5.520   3.667   6.967
 9420SOL    HW129159   5.496   3.724   0.022
 9420SOL    HW229160   5.612   3.692   6.935
 9421SOL     OW29161   3.769   6.130   5.775
 9421SOL    HW129162   3.810   6.154   5.863
 9421SOL    HW229163   3.836   6.079   5.721
 9422SOL     OW29164   2.347   5.823   4.517
 9422SOL    HW129165   2.414   5.753   4.493
 9422SOL    HW229166   2.255   5.785   4.512
 9423SOL     OW29167   4.805   5.102   3.676
 9423SOL    HW129168   4.804   5.184   3.618
 9423SOL    HW229169   4.876   5.039   3.643
 9424SOL     OW29170   5.594   0.690   4.799
 9424SOL    HW129171   5.507   0.649   4.773
 9424SOL    HW229172   5.608   0.680   4.898
 9425SOL     OW29173   6.791   5.313   0.054
 9425SOL    HW129174   6.875   5.266   0.027
 9425SOL    HW229175   6.811   5.373   0.132
 9426SOL     OW29176   6.940   2.521   6.175
 9426SOL    HW129177   7.000   2.443   6.156
 9426SOL    HW229178   6.892   2.506   6.261
 9427SOL     OW29179   3.854   5.541   3.280
 9427SOL    HW129180   3.830   5.546   3.377
 9427SOL    HW229181   3.886   5.631   3.250
 9428SOL     OW29182   6.235   6.995   6.003
 9428SOL    HW129183   6.207   0.066   5.991
 9428SOL    HW229184   6.288   6.966   5.923
 9429SOL     OW29185   2.216   1.900   3.968
 9429SOL    HW129186   2.148   1.830   3.992
 9429SOL    HW229187   2.303   1.855   3.948
 9430SOL     OW29188   6.933   1.917   4.397
 9430SOL    HW129189   7.016   1.937   4.449
 9430SOL    HW229190   6.953   1.921   4.299
 9431SOL     OW29191   0.188   4.957   5.784
 9431SOL    HW129192   0.124   4.990   5.716
 9431SOL    HW229193   0.218   5.032   5.842
 9432SOL     OW29194   6.735   1.424   4.010
 9432SOL    HW129195   6.743   1.434   4.109
 9432SOL    HW229196   6.640   1.407   3.985
 9433SOL     OW29197   4.291   5.527   2.962
 9433SOL    HW129198   4.360   5.486   2.903
 9433SOL    HW229199   4.277   5.623   2.937
 9434SOL     OW29200   5.232   5.355   4.271
 9434SOL    HW129201   5.182   5.438   4.293
 9434SOL    HW229202   5.203   5.281   4.331
 9435SOL     OW29203   0.432   2.724   1.793
 9435SOL    HW129204   0.447   2.743   1.890
 9435SOL    HW229205   0.512   2.755   1.741
 9436SOL     OW29206   1.742   0.519   3.345
 9436SOL    HW129207   1.709   0.598   3.397
 9436SOL    HW229208   1.704   0.435   3.384
 9437SOL     OW29209   6.405   5.890   5.115
 9437SOL    HW129210   6.428   5.815   5.176
 9437SOL    HW229211   6.336   5.859   5.048
 9438SOL     OW29212   3.704   5.801   2.571
 9438SOL    HW129213   3.612   5.825   2.604
 9438SOL    HW229214   3.722   5.705   2.590
 9439SOL     OW29215   1.291   2.943   0.718
 9439SOL    HW129216   1.292   2.923   0.620
 9439SOL    HW229217   1.315   2.861   0.769
 9440SOL     OW29218   2.523   5.488   3.465
 9440SOL    HW129219   2.436   5.445   3.488
 9440SOL    HW229220   2.554   5.543   3.543
 9441SOL     OW29221   0.080   6.303   4.722
 9441SOL    HW129222   0.008   6.332   4.785
 9441SOL    HW229223   0.138   6.236   4.768
 9442SOL     OW29224   4.465   3.501   0.393
 9442SOL    HW129225   4.544   3.547   0.432
 9442SOL    HW229226   4.423   3.559   0.323
 9443SOL     OW29227   1.822   4.159   3.140
 9443SOL    HW129228   1.760   4.207   3.201
 9443SOL    HW229229   1.868   4.225   3.081
 9444SOL     OW29230   1.092   4.292   6.982
 9444SOL    HW129231   1.184   4.253   6.979
 9444SOL    HW229232   1.069   4.329   6.892
 9445SOL     OW29233   0.019   1.451   4.371
 9445SOL    HW129234   0.096   1.417   4.318
 9445SOL    HW229235   7.013   1.539   4.334
 9446SOL     OW29236   6.345   5.046   2.829
 9446SOL    HW129237   6.393   4.960   2.845
 9446SOL    HW229238   6.274   5.058   2.898
 9447SOL     OW29239   5.173   4.361   2.254
 9447SOL    HW129240   5.097   4.390   2.196
 9447SOL    HW229241   5.249   4.329   2.196
 9448SOL     OW29242   5.590   6.916   5.099
 9448SOL    HW129243   5.550   6.874   5.018
 9448SOL    HW229244   5.562   6.866   5.180
 9449SOL     OW29245   6.067   0.158   1.964
 9449SOL    HW129246   6.092   0.254   1.973
 9449SOL    HW229247   5.967   0.148   1.973
 9450SOL     OW29248   2.136   5.773   3.948
 9450SOL    HW129249   2.216   5.817   3.907
 9450SOL    HW229250   2.055   5.828   3.929
 9451SOL     OW29251   3.908   5.996   6.426
 9451SOL    HW129252   3.828   5.986   6.485
 9451SOL    HW229253   3.929   5.908   6.383
 9452SOL     OW29254   6.516   3.962   0.275
 9452SOL    HW129255   6.563   4.048   0.294
 9452SOL    HW229256   6.529   3.900   0.352
 9453SOL     OW29257   4.265   6.093   3.025
 9453SOL    HW129258   4.220   6.081   2.937
 9453SOL    HW229259   4.195   6.107   3.096
 9454SOL     OW29260   5.097   3.584   0.095
 9454SOL    HW129261   5.125   3.600   0.000
 9454SOL    HW229262   5.161   3.520   0.138
 9455SOL     OW29263   3.020   2.114   2.270
 9455SOL    HW129264   2.953   2.047   2.302
 9455SOL    HW229265   2.979   2.172   2.201
 9456SOL     OW29266   6.953   3.042   1.963
 9456SOL    HW129267   0.019   3.007   1.934
 9456SOL    HW229268   6.913   3.096   1.888
 9457SOL     OW29269   0.185   5.400   3.728
 9457SOL    HW129270   0.188   5.453   3.813
 9457SOL    HW229271   0.154   5.459   3.653
 9458SOL     OW29272   6.042   3.420   0.082
 9458SOL    HW129273   6.085   3.502   0.043
 9458SOL    HW229274   6.004   3.443   0.171
 9459SOL     OW29275   4.448   4.939   5.036
 9459SOL    HW129276   4.484   4.991   5.113
 9459SOL    HW229277   4.478   4.981   4.950
 9460SOL     OW29278   1.538   1.789   3.167
 9460SOL    HW129279   1.627   1.819   3.132
 9460SOL    HW229280   1.515   1.700   3.126
 9461SOL     OW29281   0.887   2.311   2.847
 9461SOL    HW129282   0.827   2.386   2.875
 9461SOL    HW229283   0.928   2.333   2.759
 9462SOL     OW29284   1.453   1.408   4.313
 9462SOL    HW129285   1.413   1.377   4.227
 9462SOL    HW229286   1.496   1.497   4.300
 9463SOL     OW29287   5.702   5.546   0.977
 9463SOL    HW129288   5.612   5.586   0.960
 9463SOL    HW229289   5.693   5.470   1.042
 9464SOL     OW29290   0.909   1.153   1.560
 9464SOL    HW129291   0.875   1.113   1.475
 9464SOL    HW229292   0.862   1.111   1.638
 9465SOL     OW29293   6.379   4.376   0.618
 9465SOL    HW129294   6.294   4.418   0.647
 9465SOL    HW229295   6.393   4.391   0.520
 9466SOL     OW29296   2.918   5.030   6.152
 9466SOL    HW129297   2.836   5.060   6.103
 9466SOL    HW229298   2.903   4.939   6.189
 9467SOL     OW29299   2.341   3.600   1.067
 9467SOL    HW129300   2.263   3.568   1.121
 9467SOL    HW229301   2.342   3.553   0.979
 9468SOL     OW29302   6.221   2.054   0.538
 9468SOL    HW129303   6.247   2.102   0.454
 9468SOL    HW229304   6.193   2.121   0.607
 9469SOL     OW29305   1.029   6.540   1.332
 9469SOL    HW129306   1.109   6.493   1.369
 9469SOL    HW229307   0.970   6.474   1.285
 9470SOL     OW29308   3.493   4.456   0.648
 9470SOL    HW129309   3.399   4.425   0.659
 9470SOL    HW229310   3.543   4.390   0.592
 9471SOL     OW29311   5.985   3.380   4.991
 9471SOL    HW129312   6.017   3.365   4.897
 9471SOL    HW229313   5.891   3.414   4.988
 9472SOL     OW29314   1.638   2.848   6.232
 9472SOL    HW129315   1.558   2.804   6.273
 9472SOL    HW229316   1.618   2.944   6.216
 9473SOL     OW29317   3.279   5.157   0.207
 9473SOL    HW129318   3.300   5.168   0.304
 9473SOL    HW229319   3.185   5.123   0.198
 9474SOL     OW29320   5.796   2.729   1.473
 9474SOL    HW129321   5.763   2.774   1.390
 9474SOL    HW229322   5.750   2.767   1.553
 9475SOL     OW29323   4.564   3.983   6.018
 9475SOL    HW129324   4.516   4.014   5.935
 9475SOL    HW229325   4.610   3.897   5.999
 9476SOL     OW29326   3.574   3.978   6.202
 9476SOL    HW129327   3.661   4.027   6.194
 9476SOL    HW229328   3.532   3.971   6.111
 9477SOL     OW29329   2.456   4.234   1.019
 9477SOL    HW129330   2.403   4.152   1.043
 9477SOL    HW229331   2.396   4.300   0.973
 9478SOL     OW29332   5.319   2.133   0.174
 9478SOL    HW129333   5.268   2.127   0.088
 9478SOL    HW229334   5.404   2.183   0.159
 9479SOL     OW29335   3.750   0.776   1.316
 9479SOL    HW129336   3.690   0.724   1.377
 9479SOL    HW229337   3.834   0.800   1.364
 9480SOL     OW29338   6.449   6.942   0.011
 9480SOL    HW129339   6.375   6.959   6.970
 9480SOL    HW229340   6.410   6.927   0.102
 9481SOL     OW29341   4.068   1.350   3.298
 9481SOL    HW129342   4.070   1.254   3.271
 9481SOL    HW229343   3.974   1.383   3.297
 9482SOL     OW29344   6.153   6.661   0.591
 9482SOL    HW129345   6.126   6.712   0.673
 9482SOL    HW229346   6.213   6.586   0.617
 9483SOL     OW29347   6.895   0.679   0.818
 9483SOL    HW129348   6.806   0.694   0.861
 9483SOL    HW229349   6.946   0.611   0.871
 9484SOL     OW29350   3.818   6.020   5.193
 9484SOL    HW129351   3.765   6.066   5.122
 9484SOL    HW229352   3.755   5.980   5.260
 9485SOL     OW29353   0.039   1.420   6.734
 9485SOL    HW129354   6.969   1.392   6.712
 9485SOL    HW229355   0.066   1.495   6.674
 9486SOL     OW29356   5.176   5.729   0.190
 9486SOL    HW129357   5.103   5.679   0.142
 9486SOL    HW229358   5.142   5.759   0.279
 9487SOL     OW29359   3.046   3.570   3.504
 9487SOL    HW129360   3.086   3.525   3.424
 9487SOL    HW229361   3.066   3.516   3.586
 9488SOL     OW29362   1.027   1.857   0.569
 9488SOL    HW129363   0.998   1.840   0.663
 9488SOL    HW229364   0.947   1.884   0.514
 9489SOL     OW29365   4.832   4.205   0.097
 9489SOL    HW129366   4.798   4.294   0.066
 9489SOL    HW229367   4.886   4.218   0.180
 9490SOL     OW29368   5.660   3.967   3.832
 9490SOL    HW129369   5.709   3.933   3.751
 9490SOL    HW229370   5.688   4.061   3.851
 9491SOL     OW29371   5.004   6.352   2.819
 9491SOL    HW129372   4.999   6.301   2.733
 9491SOL    HW229373   4.980   6.448   2.802
 9492SOL     OW29374   4.816   2.550   4.738
 9492SOL    HW129375   4.890   2.601   4.693
 9492SOL    HW229376   4.736   2.609   4.748
 9493SOL     OW29377   4.171   0.004   3.274
 9493SOL    HW129378   4.208   0.073   3.212
 9493SOL    HW229379   4.127   6.955   3.221
 9494SOL     OW29380   5.347   2.376   2.024
 9494SOL    HW129381   5.347   2.282   2.058
 9494SOL    HW229382   5.268   2.389   1.963
 9495SOL     OW29383   1.214   1.238   2.423
 9495SOL    HW129384   1.291   1.188   2.385
 9495SOL    HW229385   1.169   1.290   2.351
 9496SOL     OW29386   4.896   2.098   2.219
 9496SOL    HW129387   4.903   2.080   2.121
 9496SOL    HW229388   4.841   2.180   2.234
 9497SOL     OW29389   5.175   5.127   4.882
 9497SOL    HW129390   5.261   5.077   4.895
 9497SOL    HW229391   5.187   5.222   4.911
 9498SOL     OW29392   6.928   5.862   3.849
 9498SOL    HW129393   6.904   5.851   3.945
 9498SOL    HW229394   6.955   5.773   3.811
 9499SOL     OW29395   6.097   6.012   6.115
 9499SOL    HW129396   6.181   6.036   6.164
 9499SOL    HW229397   6.040   5.954   6.173
 9500SOL     OW29398   4.060   1.047   0.976
 9500SOL    HW129399   4.116   1.114   1.026
 9500SOL    HW229400   3.969   1.085   0.962
 9501SOL     OW29401   1.593   3.096   5.093
 9501SOL    HW129402   1.542   3.130   5.171
 9501SOL    HW229403   1.533   3.043   5.033
 9502SOL     OW29404   5.830   4.828   5.034
 9502SOL    HW129405   5.842   4.784   4.945
 9502SOL    HW229406   5.801   4.923   5.020
 9503SOL     OW29407   0.621   2.473   6.849
 9503SOL    HW129408   0.695   2.513   6.903
 9503SOL    HW229409   0.541   2.457   6.908
 9504SOL     OW29410   6.807   5.137   1.887
 9504SOL    HW129411   6.854   5.075   1.949
 9504SOL    HW229412   6.825   5.231   1.914
 9505SOL     OW29413   4.108   4.897   5.134
 9505SOL    HW129414   4.037   4.928   5.071
 9505SOL    HW229415   4.069   4.832   5.199
 9506SOL     OW29416   2.933   1.620   1.170
 9506SOL    HW129417   2.906   1.604   1.075
 9506SOL    HW229418   3.022   1.577   1.187
 9507SOL     OW29419   5.330   0.005   1.956
 9507SOL    HW129420   5.247   6.975   1.970
 9507SOL    HW229421   5.405   6.986   2.006
 9508SOL     OW29422   5.465   1.535   2.905
 9508SOL    HW129423   5.505   1.475   2.974
 9508SOL    HW229424   5.518   1.528   2.820
 9509SOL     OW29425   6.450   0.120   3.062
 9509SOL    HW129426   6.436   0.198   3.123
 9509SOL    HW229427   6.415   0.037   3.106
 9510SOL     OW29428   0.698   2.643   3.567
 9510SOL    HW129429   0.771   2.575   3.576
 9510SOL    HW229430   0.704   2.687   3.477
 9511SOL     OW29431   1.922   1.415   0.560
 9511SOL    HW129432   1.991   1.480   0.530
 9511SOL    HW229433   1.934   1.396   0.657
 9512SOL     OW29434   6.592   1.978   1.126
 9512SOL    HW129435   6.682   2.007   1.156
 9512SOL    HW229436   6.525   2.050   1.146
 9513SOL     OW29437   3.784   4.876   0.303
 9513SOL    HW129438   3.842   4.806   0.344
 9513SOL    HW229439   3.709   4.897   0.366
 9514SOL     OW29440   3.136   3.247   0.482
 9514SOL    HW129441   3.096   3.335   0.509
 9514SOL    HW229442   3.222   3.262   0.435
 9515SOL     OW29443   1.734   5.061   3.887
 9515SOL    HW129444   1.743   5.133   3.818
 9515SOL    HW229445   1.648   5.073   3.937
 9516SOL     OW29446   6.501   4.014   0.580
 9516SOL    HW129447   6.408   3.981   0.564
 9516SOL    HW229448   6.508   4.049   0.673
 9517SOL     OW29449   1.162   4.723   0.325
 9517SOL    HW129450   1.236   4.790   0.324
 9517SOL    HW229451   1.091   4.751   0.260
 9518SOL     OW29452   1.549   1.297   0.185
 9518SOL    HW129453   1.503   1.243   0.115
 9518SOL    HW229454   1.485   1.317   0.259
 9519SOL     OW29455   1.242   2.471   5.266
 9519SOL    HW129456   1.301   2.515   5.334
 9519SOL    HW229457   1.294   2.455   5.182
 9520SOL     OW29458   2.796   6.668   2.331
 9520SOL    HW129459   2.792   6.653   2.232
 9520SOL    HW229460   2.832   6.585   2.375
 9521SOL     OW29461   5.464   5.559   4.303
 9521SOL    HW129462   5.411   5.644   4.306
 9521SOL    HW229463   5.421   5.491   4.362
 9522SOL     OW29464   3.912   6.055   0.869
 9522SOL    HW129465   3.829   6.003   0.849
 9522SOL    HW229466   3.928   6.122   0.796
 9523SOL     OW29467   3.480   5.881   4.309
 9523SOL    HW129468   3.552   5.871   4.240
 9523SOL    HW229469   3.513   5.844   4.396
 9524SOL     OW29470   4.068   3.418   0.993
 9524SOL    HW129471   4.033   3.324   0.991
 9524SOL    HW229472   4.147   3.425   0.931
 9525SOL     OW29473   3.089   0.860   6.413
 9525SOL    HW129474   3.097   0.776   6.467
 9525SOL    HW229475   3.064   0.836   6.319
 9526SOL     OW29476   5.661   4.992   2.313
 9526SOL    HW129477   5.689   5.045   2.234
 9526SOL    HW229478   5.717   4.909   2.319
 9527SOL     OW29479   6.877   1.646   1.881
 9527SOL    HW129480   6.794   1.697   1.900
 9527SOL    HW229481   6.956   1.706   1.891
 9528SOL     OW29482   6.996   1.071   2.282
 9528SOL    HW129483   0.009   1.012   2.211
 9528SOL    HW229484   6.910   1.111   2.252
 9529SOL     OW29485   0.666   3.146   6.134
 9529SOL    HW129486   0.615   3.232   6.134
 9529SOL    HW229487   0.625   3.083   6.068
 9530SOL     OW29488   1.285   2.097   3.840
 9530SOL    HW129489   1.352   2.170   3.826
 9530SOL    HW229490   1.308   2.046   3.923
 9531SOL     OW29491   3.509   6.686   2.647
 9531SOL    HW129492   3.555   6.736   2.574
 9531SOL    HW229493   3.577   6.642   2.706
 9532SOL     OW29494   2.050   0.255   1.710
 9532SOL    HW129495   2.127   0.197   1.737
 9532SOL    HW229496   2.014   0.224   1.623
 9533SOL     OW29497   1.843   0.951   5.462
 9533SOL    HW129498   1.865   1.038   5.505
 9533SOL    HW229499   1.775   0.965   5.391
 9534SOL     OW29500   5.463   2.343   4.705
 9534SOL    HW129501   5.415   2.428   4.685
 9534SOL    HW229502   5.419   2.297   4.782
 9535SOL     OW29503   2.240   1.508   5.527
 9535SOL    HW129504   2.235   1.501   5.626
 9535SOL    HW229505   2.318   1.456   5.493
 9536SOL     OW29506   1.667   6.242   5.646
 9536SOL    HW129507   1.750   6.275   5.691
 9536SOL    HW229508   1.689   6.159   5.595
 9537SOL     OW29509   3.010   6.907   1.207
 9537SOL    HW129510   2.918   6.883   1.239
 9537SOL    HW229511   3.035   6.997   1.244
 9538SOL     OW29512   6.643   2.885   4.279
 9538SOL    HW129513   6.732   2.845   4.259
 9538SOL    HW229514   6.592   2.825   4.341
 9539SOL     OW29515   0.938   5.962   0.880
 9539SOL    HW129516   0.899   5.871   0.892
 9539SOL    HW229517   1.038   5.955   0.882
 9540SOL     OW29518   4.799   4.369   4.976
 9540SOL    HW129519   4.891   4.408   4.972
 9540SOL    HW229520   4.733   4.442   4.994
 9541SOL     OW29521   2.090   2.561   4.146
 9541SOL    HW129522   2.089   2.626   4.222
 9541SOL    HW229523   2.125   2.607   4.064
 9542SOL     OW29524   4.939   3.675   3.905
 9542SOL    HW129525   5.032   3.651   3.878
 9542SOL    HW229526   4.905   3.748   3.846
 9543SOL     OW29527   5.598   1.976   2.516
 9543SOL    HW129528   5.518   1.980   2.576
 9543SOL    HW229529   5.575   1.927   2.432
 9544SOL     OW29530   3.576   1.736   2.160
 9544SOL    HW129531   3.482   1.759   2.183
 9544SOL    HW229532   3.607   1.795   2.085
 9545SOL     OW29533   0.046   0.443   4.101
 9545SOL    HW129534   0.016   0.438   4.197
 9545SOL    HW229535   0.068   0.351   4.069
 9546SOL     OW29536   2.778   5.305   0.635
 9546SOL    HW129537   2.740   5.295   0.727
 9546SOL    HW229538   2.787   5.215   0.593
 9547SOL     OW29539   0.289   6.250   3.289
 9547SOL    HW129540   0.350   6.304   3.231
 9547SOL    HW229541   0.342   6.184   3.341
 9548SOL     OW29542   4.577   5.966   3.048
 9548SOL    HW129543   4.575   5.868   3.071
 9548SOL    HW229544   4.525   6.017   3.117
 9549SOL     OW29545   2.346   5.895   0.532
 9549SOL    HW129546   2.350   5.959   0.608
 9549SOL    HW229547   2.351   5.945   0.445
 9550SOL     OW29548   1.035   1.537   0.246
 9550SOL    HW129549   1.036   1.533   0.346
 9550SOL    HW229550   1.128   1.532   0.211
 9551SOL     OW29551   1.505   6.490   4.777
 9551SOL    HW129552   1.499   6.571   4.719
 9551SOL    HW229553   1.427   6.430   4.758
 9552SOL     OW29554   1.050   5.357   3.193
 9552SOL    HW129555   0.993   5.439   3.193
 9552SOL    HW229556   1.021   5.296   3.267
 9553SOL     OW29557   5.852   4.513   5.362
 9553SOL    HW129558   5.885   4.435   5.415
 9553SOL    HW229559   5.929   4.572   5.338
 9554SOL     OW29560   2.282   1.263   1.895
 9554SOL    HW129561   2.336   1.189   1.937
 9554SOL    HW229562   2.333   1.301   1.818
 9555SOL     OW29563   0.006   2.370   0.155
 9555SOL    HW129564   7.020   2.447   0.218
 9555SOL    HW229565   0.074   2.306   0.190
 9556SOL     OW29566   2.034   2.217   1.792
 9556SOL    HW129567   1.944   2.249   1.821
 9556SOL    HW229568   2.089   2.197   1.873
 9557SOL     OW29569   5.307   1.313   1.938
 9557SOL    HW129570   5.349   1.247   1.875
 9557SOL    HW229571   5.208   1.312   1.927
 9558SOL     OW29572   6.233   4.951   2.330
 9558SOL    HW129573   6.134   4.952   2.348
 9558SOL    HW229574   6.282   4.931   2.415
 9559SOL     OW29575   6.660   3.143   2.495
 9559SOL    HW129576   6.711   3.147   2.581
 9559SOL    HW229577   6.636   3.048   2.475
 9560SOL     OW29578   3.269   1.529   3.995
 9560SOL    HW129579   3.338   1.463   3.964
 9560SOL    HW229580   3.179   1.486   3.991
 9561SOL     OW29581   3.967   6.398   1.226
 9561SOL    HW129582   3.892   6.431   1.283
 9561SOL    HW229583   3.936   6.322   1.170
 9562SOL     OW29584   5.856   5.337   2.767
 9562SOL    HW129585   5.864   5.347   2.668
 9562SOL    HW229586   5.948   5.337   2.808
 9563SOL     OW29587   6.582   5.796   6.757
 9563SOL    HW129588   6.536   5.884   6.745
 9563SOL    HW229589   6.676   5.802   6.721
 9564SOL     OW29590   2.637   6.849   7.009
 9564SOL    HW129591   2.638   6.909   0.065
 9564SOL    HW229592   2.560   6.874   6.950
 9565SOL     OW29593   3.732   6.073   4.292
 9565SOL    HW129594   3.687   6.031   4.371
 9565SOL    HW229595   3.824   6.103   4.317
 9566SOL     OW29596   2.688   4.874   4.996
 9566SOL    HW129597   2.716   4.911   5.085
 9566SOL    HW229598   2.722   4.781   4.987
 9567SOL     OW29599   6.097   5.528   5.653
 9567SOL    HW129600   6.118   5.440   5.694
 9567SOL    HW229601   6.129   5.529   5.558
 9568SOL     OW29602   4.268   3.574   6.524
 9568SOL    HW129603   4.172   3.550   6.509
 9568SOL    HW229604   4.326   3.512   6.471
 9569SOL     OW29605   6.170   1.026   0.502
 9569SOL    HW129606   6.226   1.055   0.579
 9569SOL    HW229607   6.124   1.106   0.463
 9570SOL     OW29608   0.169   0.549   0.482
 9570SOL    HW129609   0.222   0.481   0.432
 9570SOL    HW229610   0.081   0.564   0.437
 9571SOL     OW29611   2.138   3.761   0.296
 9571SOL    HW129612   2.143   3.742   0.198
 9571SOL    HW229613   2.092   3.685   0.343
 9572SOL     OW29614   1.607   4.578   1.375
 9572SOL    HW129615   1.562   4.550   1.291
 9572SOL    HW229616   1.539   4.611   1.440
 9573SOL     OW29617   0.625   2.455   1.182
 9573SOL    HW129618   0.607   2.534   1.124
 9573SOL    HW229619   0.657   2.486   1.272
 9574SOL     OW29620   2.341   1.999   5.478
 9574SOL    HW129621   2.412   2.042   5.422
 9574SOL    HW229622   2.382   1.960   5.560
 9575SOL     OW29623   5.487   0.551   1.667
 9575SOL    HW129624   5.534   0.477   1.714
 9575SOL    HW229625   5.408   0.514   1.617
 9576SOL     OW29626   3.617   1.899   5.885
 9576SOL    HW129627   3.536   1.924   5.833
 9576SOL    HW229628   3.690   1.966   5.868
 9577SOL     OW29629   0.872   6.297   3.142
 9577SOL    HW129630   0.957   6.247   3.133
 9577SOL    HW229631   0.802   6.255   3.084
 9578SOL     OW29632   5.950   3.350   2.075
 9578SOL    HW129633   6.009   3.273   2.101
 9578SOL    HW229634   5.883   3.319   2.008
 9579SOL     OW29635   1.004   6.533   2.667
 9579SOL    HW129636   1.051   6.621   2.667
 9579SOL    HW229637   0.996   6.500   2.573
 9580SOL     OW29638   4.227   3.886   6.242
 9580SOL    HW129639   4.214   3.946   6.163
 9580SOL    HW229640   4.246   3.942   6.323
 9581SOL     OW29641   1.448   4.697   6.390
 9581SOL    HW129642   1.445   4.797   6.384
 9581SOL    HW229643   1.499   4.670   6.472
 9582SOL     OW29644   4.582   5.380   4.545
 9582SOL    HW129645   4.648   5.403   4.616
 9582SOL    HW229646   4.507   5.445   4.548
 9583SOL     OW29647   2.221   4.247   1.783
 9583SOL    HW129648   2.180   4.226   1.694
 9583SOL    HW229649   2.235   4.345   1.792
 9584SOL     OW29650   6.001   5.560   6.331
 9584SOL    HW129651   5.939   5.638   6.324
 9584SOL    HW229652   6.063   5.573   6.409
 9585SOL     OW29653   5.898   0.127   4.488
 9585SOL    HW129654   5.876   0.119   4.586
 9585SOL    HW229655   5.997   0.133   4.477
 9586SOL     OW29656   5.396   3.259   3.279
 9586SOL    HW129657   5.334   3.200   3.228
 9586SOL    HW229658   5.395   3.351   3.240
 9587SOL     OW29659   5.123   6.159   2.111
 9587SOL    HW129660   5.213   6.126   2.139
 9587SOL    HW229661   5.054   6.089   2.132
 9588SOL     OW29662   6.841   0.757   2.207
 9588SOL    HW129663   6.926   0.801   2.236
 9588SOL    HW229664   6.847   0.659   2.227
 9589SOL     OW29665   2.727   1.516   6.075
 9589SOL    HW129666   2.674   1.433   6.059
 9589SOL    HW229667   2.742   1.562   5.987
 9590SOL     OW29668   6.953   4.739   4.827
 9590SOL    HW129669   6.907   4.739   4.915
 9590SOL    HW229670   6.906   4.676   4.765
 9591SOL     OW29671   1.409   4.798   1.989
 9591SOL    HW129672   1.317   4.772   2.019
 9591SOL    HW229673   1.406   4.890   1.951
 9592SOL     OW29674   5.030   5.292   2.207
 9592SOL    HW129675   4.997   5.208   2.164
 9592SOL    HW229676   5.108   5.271   2.265
 9593SOL     OW29677   0.885   2.613   3.983
 9593SOL    HW129678   0.803   2.650   4.026
 9593SOL    HW229679   0.966   2.654   4.025
 9594SOL     OW29680   5.848   6.837   1.958
 9594SOL    HW129681   5.768   6.833   1.899
 9594SOL    HW229682   5.829   6.896   2.036
 9595SOL     OW29683   0.559   4.562   4.513
 9595SOL    HW129684   0.573   4.480   4.569
 9595SOL    HW229685   0.647   4.607   4.497
 9596SOL     OW29686   4.794   6.472   4.183
 9596SOL    HW129687   4.786   6.406   4.258
 9596SOL    HW229688   4.753   6.434   4.100
 9597SOL     OW29689   2.336   3.970   1.276
 9597SOL    HW129690   2.299   4.043   1.333
 9597SOL    HW229691   2.367   3.894   1.333
 9598SOL     OW29692   6.860   5.316   5.839
 9598SOL    HW129693   6.815   5.251   5.777
 9598SOL    HW229694   6.790   5.370   5.886
 9599SOL     OW29695   5.205   1.620   4.869
 9599SOL    HW129696   5.225   1.525   4.847
 9599SOL    HW229697   5.178   1.668   4.786
 9600SOL     OW29698   1.562   6.424   6.993
 9600SOL    HW129699   1.557   6.512   0.016
 9600SOL    HW229700   1.617   6.360   0.023
 9601SOL     OW29701   0.742   5.161   5.786
 9601SOL    HW129702   0.776   5.080   5.739
 9601SOL    HW229703   0.770   5.159   5.882
 9602SOL     OW29704   1.915   5.436   0.689
 9602SOL    HW129705   1.861   5.454   0.607
 9602SOL    HW229706   2.006   5.475   0.679
 9603SOL     OW29707   1.272   5.231   4.435
 9603SOL    HW129708   1.209   5.177   4.490
 9603SOL    HW229709   1.222   5.272   4.358
 9604SOL     OW29710   0.066   1.000   0.116
 9604SOL    HW129711   0.047   0.925   0.179
 9604SOL    HW229712   0.068   1.086   0.166
 9605SOL     OW29713   2.162   5.762   6.675
 9605SOL    HW129714   2.256   5.780   6.646
 9605SOL    HW229715   2.099   5.813   6.616
 9606SOL     OW29716   6.381   6.324   4.430
 9606SOL    HW129717   6.363   6.242   4.376
 9606SOL    HW229718   6.316   6.396   4.403
 9607SOL     OW29719   0.909   2.977   1.825
 9607SOL    HW129720   0.989   2.966   1.766
 9607SOL    HW229721   0.875   3.070   1.818
 9608SOL     OW29722   0.007   6.139   2.865
 9608SOL    HW129723   0.073   6.211   2.841
 9608SOL    HW229724   6.949   6.147   2.808
 9609SOL     OW29725   1.952   2.566   3.751
 9609SOL    HW129726   1.893   2.493   3.719
 9609SOL    HW229727   1.897   2.643   3.784
 9610SOL     OW29728   3.268   1.720   6.046
 9610SOL    HW129729   3.330   1.711   5.968
 9610SOL    HW229730   3.250   1.630   6.085
 9611SOL     OW29731   6.454   6.527   1.088
 9611SOL    HW129732   6.415   6.440   1.116
 9611SOL    HW229733   6.409   6.601   1.138
 9612SOL     OW29734   5.944   3.263   2.414
 9612SOL    HW129735   6.030   3.214   2.397
 9612SOL    HW229736   5.916   3.311   2.332
 9613SOL     OW29737   5.334   6.625   5.993
 9613SOL    HW129738   5.306   6.720   6.007
 9613SOL    HW229739   5.375   6.615   5.903
 9614SOL     OW29740   3.194   2.918   2.597
 9614SOL    HW129741   3.120   2.858   2.568
 9614SOL    HW229742   3.188   3.005   2.547
 9615SOL     OW29743   1.043   6.673   3.667
 9615SOL    HW129744   1.013   6.660   3.572
 9615SOL    HW229745   1.073   6.586   3.704
 9616SOL     OW29746   2.934   3.325   1.616
 9616SOL    HW129747   2.881   3.359   1.694
 9616SOL    HW229748   2.896   3.361   1.531
 9617SOL     OW29749   0.816   3.576   3.696
 9617SOL    HW129750   0.777   3.660   3.735
 9617SOL    HW229751   0.750   3.536   3.632
 9618SOL     OW29752   4.177   5.997   6.951
 9618SOL    HW129753   4.246   5.966   6.884
 9618SOL    HW229754   4.133   6.080   6.917
 9619SOL     OW29755   1.923   0.062   1.082
 9619SOL    HW129756   1.944   0.143   1.026
 9619SOL    HW229757   1.945   7.003   1.030
 9620SOL     OW29758   3.748   1.516   6.943
 9620SOL    HW129759   3.839   1.503   6.982
 9620SOL    HW229760   3.694   1.433   6.955
 9621SOL     OW29761   1.135   1.989   1.781
 9621SOL    HW129762   1.100   1.899   1.805
 9621SOL    HW229763   1.081   2.060   1.825
 9622SOL     OW29764   6.586   0.062   6.004
 9622SOL    HW129765   6.594   0.109   5.917
 9622SOL    HW229766   6.561   0.127   6.076
 9623SOL     OW29767   4.227   6.553   6.505
 9623SOL    HW129768   4.234   6.489   6.582
 9623SOL    HW229769   4.263   6.642   6.533
 9624SOL     OW29770   4.452   4.944   4.294
 9624SOL    HW129771   4.374   4.881   4.298
 9624SOL    HW229772   4.419   5.035   4.271
 9625SOL     OW29773   4.911   3.557   5.652
 9625SOL    HW129774   4.946   3.643   5.688
 9625SOL    HW229775   4.913   3.487   5.723
 9626SOL     OW29776   2.186   3.345   6.131
 9626SOL    HW129777   2.127   3.400   6.190
 9626SOL    HW229778   2.249   3.292   6.187
 9627SOL     OW29779   1.082   5.220   6.460
 9627SOL    HW129780   1.114   5.186   6.372
 9627SOL    HW229781   0.994   5.268   6.447
 9628SOL     OW29782   6.095   1.788   6.348
 9628SOL    HW129783   6.049   1.849   6.283
 9628SOL    HW229784   6.188   1.769   6.316
 9629SOL     OW29785   6.491   5.747   4.386
 9629SOL    HW129786   6.517   5.787   4.474
 9629SOL    HW229787   6.446   5.816   4.330
 9630SOL     OW29788   5.684   6.619   6.239
 9630SOL    HW129789   5.680   6.596   6.142
 9630SOL    HW229790   5.779   6.616   6.270
 9631SOL     OW29791   3.754   0.976   0.507
 9631SOL    HW129792   3.704   1.060   0.484
 9631SOL    HW229793   3.690   0.899   0.505
 9632SOL     OW29794   3.791   5.978   2.341
 9632SOL    HW129795   3.756   5.928   2.262
 9632SOL    HW229796   3.758   5.936   2.425
 9633SOL     OW29797   3.463   3.005   2.987
 9633SOL    HW129798   3.558   3.012   2.957
 9633SOL    HW229799   3.459   2.968   3.079
 9634SOL     OW29800   5.496   4.960   3.057
 9634SOL    HW129801   5.423   4.899   3.088
 9634SOL    HW229802   5.585   4.918   3.077
 9635SOL     OW29803   0.348   5.348   4.005
 9635SOL    HW129804   0.296   5.350   4.090
 9635SOL    HW229805   0.323   5.427   3.949
 9636SOL     OW29806   4.958   3.253   4.150
 9636SOL    HW129807   4.881   3.218   4.096
 9636SOL    HW229808   5.043   3.239   4.100
 9637SOL     OW29809   2.604   2.923   0.010
 9637SOL    HW129810   2.638   2.983   0.083
 9637SOL    HW229811   2.512   2.890   0.034
 9638SOL     OW29812   6.185   4.724   5.480
 9638SOL    HW129813   6.183   4.728   5.380
 9638SOL    HW229814   6.120   4.790   5.517
 9639SOL     OW29815   3.996   1.671   2.174
 9639SOL    HW129816   3.984   1.611   2.095
 9639SOL    HW229817   3.919   1.660   2.237
 9640SOL     OW29818   4.463   0.154   3.068
 9640SOL    HW129819   4.506   0.085   3.010
 9640SOL    HW229820   4.495   0.245   3.041
 9641SOL     OW29821   5.922   3.461   3.059
 9641SOL    HW129822   5.927   3.362   3.076
 9641SOL    HW229823   5.914   3.510   3.146
 9642SOL     OW29824   1.590   0.591   3.881
 9642SOL    HW129825   1.502   0.639   3.888
 9642SOL    HW229826   1.588   0.530   3.801
 9643SOL     OW29827   4.885   5.155   4.194
 9643SOL    HW129828   4.937   5.095   4.255
 9643SOL    HW229829   4.791   5.123   4.189
 9644SOL     OW29830   1.229   5.816   4.436
 9644SOL    HW129831   1.320   5.814   4.477
 9644SOL    HW229832   1.161   5.825   4.509
 9645SOL     OW29833   0.243   4.828   6.293
 9645SOL    HW129834   0.223   4.735   6.263
 9645SOL    HW229835   0.225   4.892   6.218
 9646SOL     OW29836   2.784   5.635   6.114
 9646SOL    HW129837   2.874   5.680   6.112
 9646SOL    HW229838   2.714   5.699   6.084
 9647SOL     OW29839   6.436   0.034   3.552
 9647SOL    HW129840   6.393   0.015   3.464
 9647SOL    HW229841   6.397   6.999   3.622
 9648SOL     OW29842   3.739   1.981   0.736
 9648SOL    HW129843   3.705   2.069   0.769
 9648SOL    HW229844   3.686   1.953   0.656
 9649SOL     OW29845   1.729   6.043   6.914
 9649SOL    HW129846   1.675   6.067   6.833
 9649SOL    HW229847   1.733   5.944   6.924
 9650SOL     OW29848   6.734   5.022   4.551
 9650SOL    HW129849   6.713   5.118   4.536
 9650SOL    HW229850   6.687   4.966   4.483
 9651SOL     OW29851   4.423   1.509   0.582
 9651SOL    HW129852   4.352   1.518   0.511
 9651SOL    HW229853   4.513   1.516   0.540
 9652SOL     OW29854   6.763   3.947   0.620
 9652SOL    HW129855   6.789   3.852   0.635
 9652SOL    HW229856   6.669   3.951   0.586
 9653SOL     OW29857   4.129   4.449   6.404
 9653SOL    HW129858   4.104   4.401   6.488
 9653SOL    HW229859   4.047   4.490   6.363
 9654SOL     OW29860   4.101   3.435   3.367
 9654SOL    HW129861   4.004   3.433   3.345
 9654SOL    HW229862   4.146   3.354   3.329
 9655SOL     OW29863   3.869   1.245   1.346
 9655SOL    HW129864   3.958   1.201   1.362
 9655SOL    HW229865   3.880   1.320   1.282
 9656SOL     OW29866   5.705   4.103   0.951
 9656SOL    HW129867   5.649   4.071   1.028
 9656SOL    HW229868   5.774   4.034   0.930
 9657SOL     OW29869   5.640   4.311   3.122
 9657SOL    HW129870   5.700   4.238   3.154
 9657SOL    HW229871   5.585   4.279   3.045
 9658SOL     OW29872   4.729   2.175   2.518
 9658SOL    HW129873   4.734   2.215   2.427
 9658SOL    HW229874   4.821   2.170   2.557
 9659SOL     OW29875   2.333   3.467   0.844
 9659SOL    HW129876   2.258   3.447   0.781
 9659SOL    HW229877   2.420   3.467   0.794
 9660SOL     OW29878   0.883   5.770   1.622
 9660SOL    HW129879   0.970   5.784   1.577
 9660SOL    HW229880   0.897   5.766   1.721
 9661SOL     OW29881   5.220   4.817   0.739
 9661SOL    HW129882   5.234   4.718   0.725
 9661SOL    HW229883   5.158   4.831   0.816
 9662SOL     OW29884   5.893   5.196   5.674
 9662SOL    HW129885   5.946   5.215   5.757
 9662SOL    HW229886   5.854   5.282   5.639
 9663SOL     OW29887   0.580   5.247   3.246
 9663SOL    HW129888   0.677   5.225   3.252
 9663SOL    HW229889   0.544   5.217   3.158
 9664SOL     OW29890   4.705   4.112   3.277
 9664SOL    HW129891   4.657   4.162   3.205
 9664SOL    HW229892   4.704   4.165   3.361
 9665SOL     OW29893   5.831   5.455   6.745
 9665SOL    HW129894   5.907   5.413   6.795
 9665SOL    HW229895   5.858   5.470   6.650
 9666SOL     OW29896   5.586   3.321   0.848
 9666SOL    HW129897   5.570   3.419   0.840
 9666SOL    HW229898   5.527   3.283   0.919
 9667SOL     OW29899   6.021   6.214   6.432
 9667SOL    HW129900   6.027   6.212   6.532
 9667SOL    HW229901   5.986   6.127   6.400
 9668SOL     OW29902   0.588   0.795   5.802
 9668SOL    HW129903   0.663   0.744   5.844
 9668SOL    HW229904   0.597   0.892   5.824
 9669SOL     OW29905   3.790   0.626   0.484
 9669SOL    HW129906   3.863   0.673   0.535
 9669SOL    HW229907   3.765   0.542   0.532
 9670SOL     OW29908   7.012   6.862   6.833
 9670SOL    HW129909   0.082   6.890   6.815
 9670SOL    HW229910   7.012   6.768   6.866
 9671SOL     OW29911   1.049   5.888   6.347
 9671SOL    HW129912   1.075   5.830   6.425
 9671SOL    HW229913   0.991   5.963   6.379
 9672SOL     OW29914   0.732   3.171   4.310
 9672SOL    HW129915   0.708   3.128   4.223
 9672SOL    HW229916   0.759   3.101   4.376
 9673SOL     OW29917   2.242   3.878   0.612
 9673SOL    HW129918   2.280   3.936   0.684
 9673SOL    HW229919   2.250   3.925   0.524
 9674SOL     OW29920   2.786   6.031   4.617
 9674SOL    HW129921   2.727   6.057   4.541
 9674SOL    HW229922   2.825   5.941   4.599
 9675SOL     OW29923   4.974   3.546   0.702
 9675SOL    HW129924   4.988   3.486   0.623
 9675SOL    HW229925   4.888   3.596   0.691
 9676SOL     OW29926   0.560   3.045   6.434
 9676SOL    HW129927   0.627   3.053   6.360
 9676SOL    HW229928   0.601   3.076   6.520
 9677SOL     OW29929   6.644   5.341   0.856
 9677SOL    HW129930   6.681   5.301   0.940
 9677SOL    HW229931   6.547   5.317   0.848
 9678SOL     OW29932   3.821   3.409   4.995
 9678SOL    HW129933   3.812   3.504   4.968
 9678SOL    HW229934   3.909   3.395   5.042
 9679SOL     OW29935   2.015   1.700   4.548
 9679SOL    HW129936   1.952   1.630   4.515
 9679SOL    HW229937   2.085   1.657   4.606
 9680SOL     OW29938   4.550   5.530   2.520
 9680SOL    HW129939   4.500   5.605   2.564
 9680SOL    HW229940   4.498   5.499   2.440
 9681SOL     OW29941   1.769   1.823   2.625
 9681SOL    HW129942   1.717   1.904   2.654
 9681SOL    HW229943   1.756   1.809   2.527
 9682SOL     OW29944   5.103   5.347   5.348
 9682SOL    HW129945   5.012   5.345   5.390
 9682SOL    HW229946   5.173   5.327   5.417
 9683SOL     OW29947   3.260   6.363   1.854
 9683SOL    HW129948   3.319   6.334   1.929
 9683SOL    HW229949   3.302   6.337   1.767
 9684SOL     OW29950   0.556   3.507   5.683
 9684SOL    HW129951   0.595   3.518   5.775
 9684SOL    HW229952   0.603   3.432   5.636
 9685SOL     OW29953   4.084   4.524   1.591
 9685SOL    HW129954   4.081   4.507   1.493
 9685SOL    HW229955   4.153   4.465   1.633
 9686SOL     OW29956   6.866   1.859   5.739
 9686SOL    HW129957   6.781   1.818   5.707
 9686SOL    HW229958   6.932   1.787   5.761
 9687SOL     OW29959   5.909   1.084   2.235
 9687SOL    HW129960   6.004   1.089   2.206
 9687SOL    HW229961   5.895   1.143   2.314
 9688SOL     OW29962   6.802   4.602   1.288
 9688SOL    HW129963   6.839   4.675   1.230
 9688SOL    HW229964   6.877   4.550   1.328
 9689SOL     OW29965   1.610   6.173   0.888
 9689SOL    HW129966   1.519   6.206   0.914
 9689SOL    HW229967   1.635   6.212   0.799
 9690SOL     OW29968   6.262   5.113   5.143
 9690SOL    HW129969   6.292   5.164   5.062
 9690SOL    HW229970   6.340   5.096   5.203
 9691SOL     OW29971   3.216   3.967   1.914
 9691SOL    HW129972   3.168   3.932   1.834
 9691SOL    HW229973   3.231   4.065   1.903
 9692SOL     OW29974   5.166   5.000   1.432
 9692SOL    HW129975   5.213   5.043   1.509
 9692SOL    HW229976   5.084   5.052   1.410
 9693SOL     OW29977   5.369   3.865   4.580
 9693SOL    HW129978   5.424   3.825   4.653
 9693SOL    HW229979   5.359   3.800   4.505
 9694SOL     OW29980   3.481   6.743   2.234
 9694SOL    HW129981   3.446   6.675   2.299
 9694SOL    HW229982   3.404   6.782   2.183
 9695SOL     OW29983   0.937   2.230   3.171
 9695SOL    HW129984   0.857   2.186   3.213
 9695SOL    HW229985   0.955   2.189   3.082
 9696SOL     OW29986   5.960   2.486   2.251
 9696SOL    HW129987   5.896   2.562   2.242
 9696SOL    HW229988   5.941   2.418   2.181
 9697SOL     OW29989   1.427   6.525   0.681
 9697SOL    HW129990   1.469   6.535   0.591
 9697SOL    HW229991   1.480   6.575   0.749
 9698SOL     OW29992   5.507   3.215   1.108
 9698SOL    HW129993   5.565   3.272   1.168
 9698SOL    HW229994   5.507   3.121   1.141
 9699SOL     OW29995   1.499   5.583   1.096
 9699SOL    HW129996   1.487   5.640   1.015
 9699SOL    HW229997   1.579   5.615   1.147
 9700SOL     OW29998   5.343   0.406   5.254
 9700SOL    HW129999   5.269   0.457   5.298
 9700SOL    HW230000   5.342   0.311   5.288
 9701SOL     OW30001   4.430   3.415   6.364
 9701SOL    HW130002   4.375   3.334   6.346
 9701SOL    HW230003   4.407   3.486   6.297
 9702SOL     OW30004   3.700   3.452   1.422
 9702SOL    HW130005   3.630   3.418   1.484
 9702SOL    HW230006   3.776   3.386   1.417
 9703SOL     OW30007   0.079   4.241   4.551
 9703SOL    HW130008   0.063   4.333   4.587
 9703SOL    HW230009   0.178   4.226   4.542
 9704SOL     OW30010   2.248   4.245   2.529
 9704SOL    HW130011   2.285   4.273   2.440
 9704SOL    HW230012   2.217   4.150   2.524
 9705SOL     OW30013   6.334   3.187   5.615
 9705SOL    HW130014   6.370   3.095   5.599
 9705SOL    HW230015   6.336   3.207   5.713
 9706SOL     OW30016   1.201   1.431   2.218
 9706SOL    HW130017   1.114   1.479   2.210
 9706SOL    HW230018   1.252   1.467   2.296
 9707SOL     OW30019   0.643   5.221   2.445
 9707SOL    HW130020   0.627   5.160   2.522
 9707SOL    HW230021   0.731   5.267   2.456
 9708SOL     OW30022   2.528   0.452   2.742
 9708SOL    HW130023   2.463   0.394   2.694
 9708SOL    HW230024   2.566   0.520   2.679
 9709SOL     OW30025   5.329   1.979   1.735
 9709SOL    HW130026   5.320   1.915   1.659
 9709SOL    HW230027   5.406   2.041   1.717
 9710SOL     OW30028   6.390   5.712   3.753
 9710SOL    HW130029   6.481   5.748   3.775
 9710SOL    HW230030   6.328   5.727   3.830
 9711SOL     OW30031   4.164   0.411   0.227
 9711SOL    HW130032   4.097   0.468   0.274
 9711SOL    HW230033   4.156   0.423   0.128
 9712SOL     OW30034   5.639   1.700   0.172
 9712SOL    HW130035   5.697   1.677   0.250
 9712SOL    HW230036   5.675   1.657   0.090
 9713SOL     OW30037   1.098   6.428   3.372
 9713SOL    HW130038   1.040   6.405   3.294
 9713SOL    HW230039   1.100   6.527   3.385
 9714SOL     OW30040   2.146   4.689   4.506
 9714SOL    HW130041   2.187   4.620   4.565
 9714SOL    HW230042   2.070   4.649   4.455
 9715SOL     OW30043   6.164   3.655   0.001
 9715SOL    HW130044   6.252   3.609   0.013
 9715SOL    HW230045   6.173   3.727   6.956
 9716SOL     OW30046   2.489   5.017   6.622
 9716SOL    HW130047   2.435   5.005   6.706
 9716SOL    HW230048   2.585   4.997   6.642
 9717SOL     OW30049   4.045   1.337   5.589
 9717SOL    HW130050   4.086   1.249   5.615
 9717SOL    HW230051   4.067   1.357   5.494
 9718SOL     OW30052   3.463   2.971   0.062
 9718SOL    HW130053   3.503   2.924   0.141
 9718SOL    HW230054   3.383   2.919   0.030
 9719SOL     OW30055   4.434   6.623   5.310
 9719SOL    HW130056   4.405   6.631   5.214
 9719SOL    HW230057   4.489   6.703   5.334
 9720SOL     OW30058   2.148   3.790   3.373
 9720SOL    HW130059   2.137   3.695   3.344
 9720SOL    HW230060   2.245   3.814   3.371
 9721SOL     OW30061   0.952   1.654   0.816
 9721SOL    HW130062   0.927   1.675   0.910
 9721SOL    HW230063   0.936   1.556   0.799
 9722SOL     OW30064   4.035   3.013   5.206
 9722SOL    HW130065   4.118   2.957   5.202
 9722SOL    HW230066   4.057   3.107   5.178
 9723SOL     OW30067   6.555   6.087   4.755
 9723SOL    HW130068   6.463   6.087   4.795
 9723SOL    HW230069   6.583   5.992   4.737
 9724SOL     OW30070   1.661   5.208   6.871
 9724SOL    HW130071   1.727   5.279   6.846
 9724SOL    HW230072   1.710   5.123   6.892
 9725SOL     OW30073   3.536   5.228   5.480
 9725SOL    HW130074   3.436   5.231   5.469
 9725SOL    HW230075   3.564   5.133   5.494
 9726SOL     OW30076   6.068   2.062   4.430
 9726SOL    HW130077   6.048   2.075   4.333
 9726SOL    HW230078   6.127   1.981   4.441
 9727SOL     OW30079   0.819   1.360   0.191
 9727SOL    HW130080   0.755   1.374   0.116
 9727SOL    HW230081   0.897   1.421   0.180
 9728SOL     OW30082   4.668   1.030   5.562
 9728SOL    HW130083   4.638   1.093   5.490
 9728SOL    HW230084   4.748   1.068   5.608
 9729SOL     OW30085   0.236   5.028   3.344
 9729SOL    HW130086   0.178   5.106   3.369
 9729SOL    HW230087   0.180   4.945   3.341
 9730SOL     OW30088   6.857   4.036   3.321
 9730SOL    HW130089   6.858   3.974   3.243
 9730SOL    HW230090   6.939   4.094   3.319
 9731SOL     OW30091   5.073   3.546   2.198
 9731SOL    HW130092   4.985   3.592   2.212
 9731SOL    HW230093   5.070   3.456   2.241
 9732SOL     OW30094   1.386   2.767   2.815
 9732SOL    HW130095   1.338   2.680   2.801
 9732SOL    HW230096   1.467   2.751   2.872
 9733SOL     OW30097   7.007   4.680   2.206
 9733SOL    HW130098   6.981   4.722   2.293
 9733SOL    HW230099   0.004   4.752   2.139
 9734SOL     OW30100   6.449   5.922   6.035
 9734SOL    HW130101   6.438   5.921   5.936
 9734SOL    HW230102   6.424   6.012   6.071
 9735SOL     OW30103   1.316   2.766   1.843
 9735SOL    HW130104   1.346   2.688   1.787
 9735SOL    HW230105   1.296   2.844   1.784
 9736SOL     OW30106   4.888   2.080   5.144
 9736SOL    HW130107   4.896   2.051   5.048
 9736SOL    HW230108   4.940   2.164   5.157
 9737SOL     OW30109   5.880   2.798   2.522
 9737SOL    HW130110   5.853   2.749   2.604
 9737SOL    HW230111   5.832   2.761   2.443
 9738SOL     OW30112   1.944   5.804   2.014
 9738SOL    HW130113   1.943   5.719   1.961
 9738SOL    HW230114   1.856   5.851   2.003
 9739SOL     OW30115   5.779   0.020   7.009
 9739SOL    HW130116   5.865   0.028   6.958
 9739SOL    HW230117   5.751   6.948   7.012
 9740SOL     OW30118   6.565   0.717   2.237
 9740SOL    HW130119   6.662   0.726   2.216
 9740SOL    HW230120   6.518   0.671   2.162
 9741SOL     OW30121   2.635   1.409   4.556
 9741SOL    HW130122   2.651   1.396   4.653
 9741SOL    HW230123   2.602   1.502   4.540
 9742SOL     OW30124   4.080   2.187   6.209
 9742SOL    HW130125   4.085   2.242   6.126
 9742SOL    HW230126   3.995   2.133   6.208
 9743SOL     OW30127   5.862   3.414   4.129
 9743SOL    HW130128   5.860   3.316   4.150
 9743SOL    HW230129   5.800   3.434   4.054
 9744SOL     OW30130   1.820   0.428   3.975
 9744SOL    HW130131   1.827   0.400   4.071
 9744SOL    HW230132   1.739   0.487   3.964
 9745SOL     OW30133   6.692   0.977   5.517
 9745SOL    HW130134   6.686   1.077   5.527
 9745SOL    HW230135   6.720   0.937   5.604
 9746SOL     OW30136   4.208   5.356   6.262
 9746SOL    HW130137   4.219   5.344   6.361
 9746SOL    HW230138   4.268   5.430   6.230
 9747SOL     OW30139   2.536   2.286   2.837
 9747SOL    HW130140   2.456   2.290   2.778
 9747SOL    HW230141   2.535   2.363   2.900
 9748SOL     OW30142   1.159   0.934   3.386
 9748SOL    HW130143   1.202   1.013   3.344
 9748SOL    HW230144   1.095   0.892   3.322
 9749SOL     OW30145   6.789   1.217   2.200
 9749SOL    HW130146   6.697   1.205   2.236
 9749SOL    HW230147   6.790   1.290   2.132
 9750SOL     OW30148   0.059   4.707   3.778
 9750SOL    HW130149   0.060   4.663   3.868
 9750SOL    HW230150   0.144   4.757   3.764
 9751SOL     OW30151   2.712   0.750   1.467
 9751SOL    HW130152   2.719   0.737   1.368
 9751SOL    HW230153   2.617   0.766   1.492
 9752SOL     OW30154   2.932   3.124   0.299
 9752SOL    HW130155   3.005   3.101   0.235
 9752SOL    HW230156   2.969   3.180   0.373
 9753SOL     OW30157   6.606   5.814   4.664
 9753SOL    HW130158   6.567   5.734   4.711
 9753SOL    HW230159   6.698   5.791   4.632
 9754SOL     OW30160   3.230   1.202   1.186
 9754SOL    HW130161   3.131   1.202   1.173
 9754SOL    HW230162   3.276   1.198   1.098
 9755SOL     OW30163   2.843   3.934   6.422
 9755SOL    HW130164   2.887   4.013   6.379
 9755SOL    HW230165   2.855   3.939   6.521
 9756SOL     OW30166   5.977   0.122   6.133
 9756SOL    HW130167   5.921   0.181   6.191
 9756SOL    HW230168   6.041   0.177   6.081
 9757SOL     OW30169   5.111   4.041   3.696
 9757SOL    HW130170   5.123   4.139   3.680
 9757SOL    HW230171   5.117   3.993   3.608
 9758SOL     OW30172   1.639   0.688   1.249
 9758SOL    HW130173   1.622   0.742   1.166
 9758SOL    HW230174   1.733   0.702   1.279
 9759SOL     OW30175   0.213   1.123   0.875
 9759SOL    HW130176   0.169   1.069   0.947
 9759SOL    HW230177   0.144   1.152   0.808
 9760SOL     OW30178   4.702   2.058   6.787
 9760SOL    HW130179   4.619   2.005   6.769
 9760SOL    HW230180   4.766   2.002   6.839
 9761SOL     OW30181   1.379   2.235   1.365
 9761SOL    HW130182   1.282   2.223   1.388
 9761SOL    HW230183   1.387   2.294   1.285
 9762SOL     OW30184   2.494   1.480   5.369
 9762SOL    HW130185   2.424   1.485   5.297
 9762SOL    HW230186   2.578   1.441   5.331
 9763SOL     OW30187   5.933   1.207   0.837
 9763SOL    HW130188   5.871   1.226   0.761
 9763SOL    HW230189   5.952   1.109   0.841
 9764SOL     OW30190   5.882   2.262   2.132
 9764SOL    HW130191   5.835   2.179   2.163
 9764SOL    HW230192   5.939   2.241   2.052
 9765SOL     OW30193   6.375   0.550   1.386
 9765SOL    HW130194   6.432   0.528   1.465
 9765SOL    HW230195   6.278   0.547   1.413
 9766SOL     OW30196   2.054   1.254   4.340
 9766SOL    HW130197   2.070   1.155   4.348
 9766SOL    HW230198   2.103   1.301   4.414
 9767SOL     OW30199   2.284   3.017   6.107
 9767SOL    HW130200   2.314   3.100   6.155
 9767SOL    HW230201   2.359   2.952   6.104
 9768SOL     OW30202   6.117   2.674   1.095
 9768SOL    HW130203   6.091   2.623   1.177
 9768SOL    HW230204   6.036   2.715   1.053
 9769SOL     OW30205   2.962   1.902   4.944
 9769SOL    HW130206   3.054   1.931   4.969
 9769SOL    HW230207   2.901   1.981   4.946
 9770SOL     OW30208   3.049   2.197   6.001
 9770SOL    HW130209   3.139   2.225   6.034
 9770SOL    HW230210   3.006   2.137   6.068
 9771SOL     OW30211   3.171   6.209   3.157
 9771SOL    HW130212   3.264   6.229   3.124
 9771SOL    HW230213   3.105   6.263   3.104
 9772SOL     OW30214   1.201   6.802   1.587
 9772SOL    HW130215   1.215   6.714   1.542
 9772SOL    HW230216   1.105   6.812   1.612
 9773SOL     OW30217   4.849   4.844   1.886
 9773SOL    HW130218   4.773   4.798   1.840
 9773SOL    HW230219   4.924   4.857   1.822
 9774SOL     OW30220   0.627   5.642   4.523
 9774SOL    HW130221   0.588   5.698   4.450
 9774SOL    HW230222   0.626   5.546   4.496
 9775SOL     OW30223   2.138   1.394   3.684
 9775SOL    HW130224   2.086   1.397   3.770
 9775SOL    HW230225   2.193   1.310   3.682
 9776SOL     OW30226   1.531   6.104   6.715
 9776SOL    HW130227   1.524   6.203   6.703
 9776SOL    HW230228   1.555   6.061   6.628
 9777SOL     OW30229   4.691   0.722   6.036
 9777SOL    HW130230   4.592   0.715   6.032
 9777SOL    HW230231   4.730   0.636   6.069
 9778SOL     OW30232   0.148   3.080   4.062
 9778SOL    HW130233   0.084   3.157   4.063
 9778SOL    HW230234   0.110   3.006   4.006
 9779SOL     OW30235   1.667   0.982   3.910
 9779SOL    HW130236   1.729   1.059   3.927
 9779SOL    HW230237   1.595   0.981   3.979
 9780SOL     OW30238   1.717   2.574   1.702
 9780SOL    HW130239   1.655   2.601   1.628
 9780SOL    HW230240   1.692   2.621   1.786
 9781SOL     OW30241   1.981   2.486   3.396
 9781SOL    HW130242   1.939   2.548   3.461
 9781SOL    HW230243   1.934   2.492   3.308
 9782SOL     OW30244   0.069   2.365   1.284
 9782SOL    HW130245   0.021   2.346   1.198
 9782SOL    HW230246   0.140   2.434   1.268
 9783SOL     OW30247   3.464   1.634   2.867
 9783SOL    HW130248   3.465   1.671   2.960
 9783SOL    HW230249   3.369   1.625   2.836
 9784SOL     OW30250   2.153   1.400   6.831
 9784SOL    HW130251   2.236   1.381   6.884
 9784SOL    HW230252   2.077   1.416   6.894
 9785SOL     OW30253   0.474   2.778   4.338
 9785SOL    HW130254   0.416   2.785   4.419
 9785SOL    HW230255   0.416   2.780   4.256
 9786SOL     OW30256   2.291   4.519   1.215
 9786SOL    HW130257   2.362   4.470   1.264
 9786SOL    HW230258   2.224   4.555   1.280
 9787SOL     OW30259   3.682   3.275   2.895
 9787SOL    HW130260   3.740   3.206   2.938
 9787SOL    HW230261   3.659   3.345   2.962
 9788SOL     OW30262   6.168   6.962   1.294
 9788SOL    HW130263   6.141   0.034   1.291
 9788SOL    HW230264   6.162   6.922   1.202
 9789SOL     OW30265   3.705   0.572   6.831
 9789SOL    HW130266   3.676   0.482   6.798
 9789SOL    HW230267   3.691   0.640   6.759
 9790SOL     OW30268   0.167   4.471   4.159
 9790SOL    HW130269   0.241   4.475   4.227
 9790SOL    HW230270   0.114   4.387   4.173
 9791SOL     OW30271   1.408   6.652   1.113
 9791SOL    HW130272   1.409   6.717   1.038
 9791SOL    HW230273   1.314   6.628   1.137
 9792SOL     OW30274   4.116   5.991   1.029
 9792SOL    HW130275   4.166   6.070   1.064
 9792SOL    HW230276   4.064   6.017   0.948
 9793SOL     OW30277   4.989   1.785   3.422
 9793SOL    HW130278   4.906   1.806   3.474
 9793SOL    HW230279   5.001   1.853   3.350
 9794SOL     OW30280   4.784   4.622   4.797
 9794SOL    HW130281   4.753   4.528   4.783
 9794SOL    HW230282   4.884   4.625   4.794
 9795SOL     OW30283   1.361   3.341   3.451
 9795SOL    HW130284   1.393   3.424   3.496
 9795SOL    HW230285   1.402   3.333   3.360
 9796SOL     OW30286   3.209   3.491   3.312
 9796SOL    HW130287   3.177   3.479   3.218
 9796SOL    HW230288   3.267   3.572   3.318
 9797SOL     OW30289   3.384   6.312   6.598
 9797SOL    HW130290   3.401   6.307   6.696
 9797SOL    HW230291   3.418   6.399   6.563
 9798SOL     OW30292   0.912   3.376   0.221
 9798SOL    HW130293   0.835   3.400   0.162
 9798SOL    HW230294   0.978   3.322   0.168
 9799SOL     OW30295   2.546   6.807   6.414
 9799SOL    HW130296   2.504   6.723   6.448
 9799SOL    HW230297   2.552   6.804   6.314
 9800SOL     OW30298   6.188   3.650   4.843
 9800SOL    HW130299   6.121   3.711   4.885
 9800SOL    HW230300   6.220   3.584   4.911
 9801SOL     OW30301   6.299   5.911   6.994
 9801SOL    HW130302   6.323   5.845   0.041
 9801SOL    HW230303   6.233   5.870   6.931
 9802SOL     OW30304   4.253   4.717   0.675
 9802SOL    HW130305   4.254   4.659   0.756
 9802SOL    HW230306   4.347   4.735   0.646
 9803SOL     OW30307   0.388   3.927   6.765
 9803SOL    HW130308   0.416   3.980   6.846
 9803SOL    HW230309   0.303   3.965   6.729
 9804SOL     OW30310   0.142   5.339   2.362
 9804SOL    HW130311   0.231   5.375   2.391
 9804SOL    HW230312   0.155   5.250   2.319
 9805SOL     OW30313   1.003   6.401   3.745
 9805SOL    HW130314   1.033   6.340   3.818
 9805SOL    HW230315   0.908   6.381   3.721
 9806SOL     OW30316   3.324   2.517   5.996
 9806SOL    HW130317   3.421   2.540   6.000
 9806SOL    HW230318   3.307   2.434   6.048
 9807SOL     OW30319   2.994   3.745   2.273
 9807SOL    HW130320   3.000   3.842   2.299
 9807SOL    HW230321   3.015   3.735   2.176
 9808SOL     OW30322   4.924   6.403   3.720
 9808SOL    HW130323   4.923   6.481   3.782
 9808SOL    HW230324   4.872   6.425   3.638
 9809SOL     OW30325   7.023   3.164   0.664
 9809SOL    HW130326   0.062   3.157   0.742
 9809SOL    HW230327   6.946   3.222   0.689
 9810SOL     OW30328   2.405   1.482   6.268
 9810SOL    HW130329   2.414   1.572   6.226
 9810SOL    HW230330   2.496   1.448   6.294
 9811SOL     OW30331   6.043   3.914   3.906
 9811SOL    HW130332   6.056   3.939   3.810
 9811SOL    HW230333   6.047   3.996   3.963
 9812SOL     OW30334   2.889   5.903   4.968
 9812SOL    HW130335   2.804   5.931   4.922
 9812SOL    HW230336   2.907   5.807   4.948
 9813SOL     OW30337   4.939   2.404   1.348
 9813SOL    HW130338   5.029   2.445   1.363
 9813SOL    HW230339   4.951   2.313   1.308
 9814SOL     OW30340   5.607   1.156   0.209
 9814SOL    HW130341   5.546   1.189   0.137
 9814SOL    HW230342   5.659   1.077   0.177
 9815SOL     OW30343   4.121   2.243   4.803
 9815SOL    HW130344   4.140   2.338   4.829
 9815SOL    HW230345   4.191   2.212   4.738
 9816SOL     OW30346   1.567   0.223   0.588
 9816SOL    HW130347   1.479   0.250   0.548
 9816SOL    HW230348   1.621   0.175   0.519
 9817SOL     OW30349   0.136   6.940   3.504
 9817SOL    HW130350   0.047   6.955   3.460
 9817SOL    HW230351   0.171   0.004   3.539
 9818SOL     OW30352   6.217   2.670   4.801
 9818SOL    HW130353   6.315   2.652   4.790
 9818SOL    HW230354   6.179   2.701   4.713
 9819SOL     OW30355   4.078   1.825   3.453
 9819SOL    HW130356   4.129   1.766   3.391
 9819SOL    HW230357   4.023   1.768   3.515
 9820SOL     OW30358   3.920   4.481   6.050
 9820SOL    HW130359   3.875   4.413   6.109
 9820SOL    HW230360   4.001   4.440   6.007
 9821SOL     OW30361   5.284   6.144   6.719
 9821SOL    HW130362   5.257   6.232   6.759
 9821SOL    HW230363   5.280   6.074   6.790
 9822SOL     OW30364   1.029   0.172   3.188
 9822SOL    HW130365   1.046   0.201   3.283
 9822SOL    HW230366   0.935   0.141   3.180
 9823SOL     OW30367   3.410   0.770   1.814
 9823SOL    HW130368   3.501   0.763   1.773
 9823SOL    HW230369   3.350   0.822   1.753
 9824SOL     OW30370   1.445   4.271   5.192
 9824SOL    HW130371   1.499   4.335   5.245
 9824SOL    HW230372   1.496   4.244   5.110
 9825SOL     OW30373   3.772   4.763   5.680
 9825SOL    HW130374   3.768   4.705   5.761
 9825SOL    HW230375   3.804   4.854   5.706
 9826SOL     OW30376   4.653   6.700   6.180
 9826SOL    HW130377   4.747   6.704   6.215
 9826SOL    HW230378   4.622   6.605   6.180
 9827SOL     OW30379   1.241   4.137   5.075
 9827SOL    HW130380   1.307   4.174   5.139
 9827SOL    HW230381   1.289   4.091   5.000
 9828SOL     OW30382   4.538   2.307   0.472
 9828SOL    HW130383   4.597   2.364   0.415
 9828SOL    HW230384   4.445   2.344   0.471
 9829SOL     OW30385   2.497   5.934   6.852
 9829SOL    HW130386   2.525   5.839   6.860
 9829SOL    HW230387   2.413   5.949   6.904
 9830SOL     OW30388   5.855   1.095   1.276
 9830SOL    HW130389   5.759   1.069   1.281
 9830SOL    HW230390   5.865   1.172   1.213
 9831SOL     OW30391   0.865   6.577   1.596
 9831SOL    HW130392   0.918   6.569   1.511
 9831SOL    HW230393   0.910   6.524   1.668
 9832SOL     OW30394   4.650   5.216   1.719
 9832SOL    HW130395   4.644   5.226   1.818
 9832SOL    HW230396   4.675   5.122   1.696
 9833SOL     OW30397   3.575   4.292   5.231
 9833SOL    HW130398   3.521   4.363   5.277
 9833SOL    HW230399   3.523   4.256   5.153
 9834SOL     OW30400   1.673   4.290   5.596
 9834SOL    HW130401   1.713   4.207   5.558
 9834SOL    HW230402   1.664   4.280   5.695
 9835SOL     OW30403   5.488   1.370   4.170
 9835SOL    HW130404   5.476   1.410   4.261
 9835SOL    HW230405   5.408   1.392   4.114
 9836SOL     OW30406   5.523   3.994   2.893
 9836SOL    HW130407   5.445   3.966   2.836
 9836SOL    HW230408   5.491   4.016   2.985
 9837SOL     OW30409   2.003   6.599   4.022
 9837SOL    HW130410   2.078   6.562   4.076
 9837SOL    HW230411   2.001   6.554   3.932
 9838SOL     OW30412   0.450   6.546   6.198
 9838SOL    HW130413   0.433   6.510   6.106
 9838SOL    HW230414   0.548   6.542   6.218
 9839SOL     OW30415   6.388   1.671   1.688
 9839SOL    HW130416   6.342   1.753   1.654
 9839SOL    HW230417   6.392   1.673   1.787
 9840SOL     OW30418   0.373   0.477   0.822
 9840SOL    HW130419   0.313   0.556   0.839
 9840SOL    HW230420   0.465   0.510   0.799
 9841SOL     OW30421   1.249   4.048   4.668
 9841SOL    HW130422   1.296   4.075   4.753
 9841SOL    HW230423   1.250   4.126   4.604
 9842SOL     OW30424   3.233   3.051   3.337
 9842SOL    HW130425   3.233   3.016   3.244
 9842SOL    HW230426   3.305   3.119   3.348
 9843SOL     OW30427   0.009   1.864   1.304
 9843SOL    HW130428   0.026   1.953   1.347
 9843SOL    HW230429   6.999   1.800   1.373
 9844SOL     OW30430   4.920   6.897   2.716
 9844SOL    HW130431   4.845   6.920   2.777
 9844SOL    HW230432   4.992   6.967   2.724
 9845SOL     OW30433   2.284   1.716   4.361
 9845SOL    HW130434   2.287   1.795   4.300
 9845SOL    HW230435   2.211   1.728   4.428
 9846SOL     OW30436   3.047   3.817   3.380
 9846SOL    HW130437   3.003   3.777   3.299
 9846SOL    HW230438   3.037   3.755   3.458
 9847SOL     OW30439   2.337   2.939   6.755
 9847SOL    HW130440   2.318   3.015   6.817
 9847SOL    HW230441   2.333   2.853   6.805
 9848SOL     OW30442   4.717   2.820   6.488
 9848SOL    HW130443   4.787   2.751   6.469
 9848SOL    HW230444   4.760   2.910   6.497
 9849SOL     OW30445   6.637   0.101   6.938
 9849SOL    HW130446   6.642   0.140   6.846
 9849SOL    HW230447   6.578   0.020   6.937
 9850SOL     OW30448   4.545   6.764   2.601
 9850SOL    HW130449   4.617   6.754   2.670
 9850SOL    HW230450   4.465   6.710   2.627
 9851SOL     OW30451   4.830   2.062   5.420
 9851SOL    HW130452   4.820   2.092   5.325
 9851SOL    HW230453   4.850   1.964   5.423
 9852SOL     OW30454   4.720   2.340   3.718
 9852SOL    HW130455   4.631   2.323   3.761
 9852SOL    HW230456   4.721   2.298   3.627
 9853SOL     OW30457   5.545   4.131   2.391
 9853SOL    HW130458   5.610   4.191   2.344
 9853SOL    HW230459   5.484   4.186   2.448
 9854SOL     OW30460   5.877   5.693   4.411
 9854SOL    HW130461   5.962   5.706   4.361
 9854SOL    HW230462   5.814   5.767   4.390
 9855SOL     OW30463   1.056   4.252   0.812
 9855SOL    HW130464   1.011   4.291   0.893
 9855SOL    HW230465   1.054   4.152   0.818
 9856SOL     OW30466   3.976   3.820   0.887
 9856SOL    HW130467   3.959   3.760   0.809
 9856SOL    HW230468   3.976   3.765   0.971
 9857SOL     OW30469   5.597   2.259   2.842
 9857SOL    HW130470   5.550   2.346   2.828
 9857SOL    HW230471   5.560   2.191   2.780
 9858SOL     OW30472   4.974   0.756   2.016
 9858SOL    HW130473   4.877   0.771   1.994
 9858SOL    HW230474   4.985   0.664   2.054
 9859SOL     OW30475   6.001   0.670   1.146
 9859SOL    HW130476   6.081   0.609   1.149
 9859SOL    HW230477   5.918   0.615   1.154
 9860SOL     OW30478   0.325   0.939   1.396
 9860SOL    HW130479   0.349   0.856   1.345
 9860SOL    HW230480   0.234   0.928   1.436
 9861SOL     OW30481   3.902   6.091   4.825
 9861SOL    HW130482   3.818   6.128   4.787
 9861SOL    HW230483   3.942   6.158   4.888
 9862SOL     OW30484   2.566   3.414   0.701
 9862SOL    HW130485   2.554   3.354   0.622
 9862SOL    HW230486   2.582   3.508   0.670
 9863SOL     OW30487   3.904   0.041   2.893
 9863SOL    HW130488   3.910   6.966   2.906
 9863SOL    HW230489   3.820   0.074   2.936
 9864SOL     OW30490   4.670   5.445   3.551
 9864SOL    HW130491   4.768   5.424   3.551
 9864SOL    HW230492   4.630   5.414   3.465
 9865SOL     OW30493   0.527   0.059   3.606
 9865SOL    HW130494   0.477   0.072   3.520
 9865SOL    HW230495   0.565   0.147   3.637
 9866SOL     OW30496   4.879   3.874   4.475
 9866SOL    HW130497   4.829   3.788   4.472
 9866SOL    HW230498   4.839   3.933   4.546
 9867SOL     OW30499   4.105   1.739   0.854
 9867SOL    HW130500   4.048   1.747   0.772
 9867SOL    HW230501   4.177   1.672   0.837
 9868SOL     OW30502   0.776   4.552   6.599
 9868SOL    HW130503   0.719   4.574   6.519
 9868SOL    HW230504   0.819   4.463   6.585
 9869SOL     OW30505   1.607   3.841   3.324
 9869SOL    HW130506   1.703   3.846   3.300
 9869SOL    HW230507   1.574   3.747   3.312
 9870SOL     OW30508   4.983   5.736   2.928
 9870SOL    HW130509   4.945   5.764   3.016
 9870SOL    HW230510   5.030   5.648   2.938
 9871SOL     OW30511   1.862   0.681   5.839
 9871SOL    HW130512   1.795   0.612   5.866
 9871SOL    HW230513   1.836   0.721   5.751
 9872SOL     OW30514   2.609   5.095   2.967
 9872SOL    HW130515   2.655   5.031   3.029
 9872SOL    HW230516   2.538   5.145   3.016
 9873SOL     OW30517   2.196   2.983   0.499
 9873SOL    HW130518   2.163   2.948   0.411
 9873SOL    HW230519   2.293   2.961   0.510
 9874SOL     OW30520   0.553   2.245   3.524
 9874SOL    HW130521   0.529   2.264   3.620
 9874SOL    HW230522   0.547   2.147   3.507
 9875SOL     OW30523   0.381   0.993   2.128
 9875SOL    HW130524   0.338   1.058   2.064
 9875SOL    HW230525   0.475   1.022   2.146
 9876SOL     OW30526   6.126   0.412   2.056
 9876SOL    HW130527   6.128   0.509   2.083
 9876SOL    HW230528   6.106   0.356   2.136
 9877SOL     OW30529   3.225   6.649   2.460
 9877SOL    HW130530   3.302   6.586   2.469
 9877SOL    HW230531   3.163   6.616   2.388
 9878SOL     OW30532   1.945   5.592   6.354
 9878SOL    HW130533   1.885   5.669   6.332
 9878SOL    HW230534   1.989   5.559   6.270
 9879SOL     OW30535   5.195   5.522   4.654
 9879SOL    HW130536   5.256   5.465   4.600
 9879SOL    HW230537   5.188   5.485   4.747
 9880SOL     OW30538   1.734   2.685   5.221
 9880SOL    HW130539   1.671   2.751   5.261
 9880SOL    HW230540   1.828   2.706   5.249
 9881SOL     OW30541   1.529   2.443   4.684
 9881SOL    HW130542   1.597   2.465   4.614
 9881SOL    HW230543   1.565   2.371   4.744
 9882SOL     OW30544   0.823   2.377   3.904
 9882SOL    HW130545   0.760   2.341   3.973
 9882SOL    HW230546   0.841   2.474   3.923
 9883SOL     OW30547   1.471   0.317   1.457
 9883SOL    HW130548   1.543   0.247   1.453
 9883SOL    HW230549   1.426   0.324   1.368
 9884SOL     OW30550   4.248   1.405   3.523
 9884SOL    HW130551   4.295   1.317   3.523
 9884SOL    HW230552   4.169   1.402   3.462
 9885SOL     OW30553   6.607   4.486   4.774
 9885SOL    HW130554   6.539   4.447   4.837
 9885SOL    HW230555   6.603   4.438   4.687
 9886SOL     OW30556   0.856   5.039   2.263
 9886SOL    HW130557   0.788   5.090   2.211
 9886SOL    HW230558   0.887   4.961   2.210
 9887SOL     OW30559   4.017   1.019   0.221
 9887SOL    HW130560   4.034   1.076   0.301
 9887SOL    HW230561   4.005   1.077   0.141
 9888SOL     OW30562   7.001   3.906   0.922
 9888SOL    HW130563   0.006   3.999   0.944
 9888SOL    HW230564   7.000   3.893   0.823
 9889SOL     OW30565   6.592   5.038   0.726
 9889SOL    HW130566   6.647   5.080   0.654
 9889SOL    HW230567   6.541   5.110   0.774
 9890SOL     OW30568   1.494   2.261   0.774
 9890SOL    HW130569   1.575   2.215   0.811
 9890SOL    HW230570   1.421   2.195   0.759
 9891SOL     OW30571   6.016   2.371   0.605
 9891SOL    HW130572   5.932   2.333   0.565
 9891SOL    HW230573   5.993   2.435   0.678
 9892SOL     OW30574   6.807   5.508   0.258
 9892SOL    HW130575   6.764   5.566   0.328
 9892SOL    HW230576   6.902   5.489   0.285
 9893SOL     OW30577   1.598   0.824   0.651
 9893SOL    HW130578   1.558   0.881   0.579
 9893SOL    HW230579   1.525   0.777   0.701
 9894SOL     OW30580   2.166   2.032   1.200
 9894SOL    HW130581   2.168   2.091   1.119
 9894SOL    HW230582   2.226   2.071   1.270
 9895SOL     OW30583   5.556   3.737   5.280
 9895SOL    HW130584   5.594   3.780   5.198
 9895SOL    HW230585   5.629   3.723   5.347
 9896SOL     OW30586   6.038   6.679   0.062
 9896SOL    HW130587   6.028   6.772   0.024
 9896SOL    HW230588   6.125   6.641   0.033
 9897SOL     OW30589   5.449   5.893   3.308
 9897SOL    HW130590   5.351   5.896   3.293
 9897SOL    HW230591   5.468   5.873   3.405
 9898SOL     OW30592   2.294   6.294   6.145
 9898SOL    HW130593   2.324   6.383   6.178
 9898SOL    HW230594   2.370   6.245   6.103
 9899SOL     OW30595   0.058   5.856   0.470
 9899SOL    HW130596   0.055   5.923   0.544
 9899SOL    HW230597   0.102   5.896   0.389
 9900SOL     OW30598   1.508   3.576   3.326
 9900SOL    HW130599   1.411   3.595   3.311
 9900SOL    HW230600   1.542   3.515   3.254
 9901SOL     OW30601   2.743   2.157   5.685
 9901SOL    HW130602   2.723   2.204   5.599
 9901SOL    HW230603   2.781   2.223   5.750
 9902SOL     OW30604   2.740   4.797   6.831
 9902SOL    HW130605   2.712   4.892   6.847
 9902SOL    HW230606   2.840   4.792   6.830
 9903SOL     OW30607   4.917   1.602   2.727
 9903SOL    HW130608   4.821   1.574   2.732
 9903SOL    HW230609   4.948   1.632   2.817
 9904SOL     OW30610   1.163   2.933   6.687
 9904SOL    HW130611   1.169   3.028   6.719
 9904SOL    HW230612   1.217   2.922   6.604
 9905SOL     OW30613   3.287   0.995   7.018
 9905SOL    HW130614   3.245   1.066   6.961
 9905SOL    HW230615   3.358   0.947   6.966
 9906SOL     OW30616   3.465   2.930   2.582
 9906SOL    HW130617   3.498   2.869   2.510
 9906SOL    HW230618   3.370   2.910   2.602
 9907SOL     OW30619   6.708   0.831   1.177
 9907SOL    HW130620   6.743   0.906   1.119
 9907SOL    HW230621   6.696   0.749   1.121
 9908SOL     OW30622   5.098   2.130   3.025
 9908SOL    HW130623   5.144   2.217   3.042
 9908SOL    HW230624   5.001   2.138   3.051
 9909SOL     OW30625   3.732   6.990   3.826
 9909SOL    HW130626   3.801   6.919   3.814
 9909SOL    HW230627   3.773   0.046   3.871
 9910SOL     OW30628   1.226   4.088   2.680
 9910SOL    HW130629   1.240   4.072   2.778
 9910SOL    HW230630   1.196   4.003   2.636
 9911SOL     OW30631   3.841   6.758   2.131
 9911SOL    HW130632   3.826   6.856   2.139
 9911SOL    HW230633   3.927   6.733   2.175
 9912SOL     OW30634   4.030   2.190   1.021
 9912SOL    HW130635   4.128   2.205   1.030
 9912SOL    HW230636   3.981   2.275   1.043
 9913SOL     OW30637   5.951   3.788   0.520
 9913SOL    HW130638   5.854   3.771   0.508
 9913SOL    HW230639   5.981   3.752   0.608
 9914SOL     OW30640   6.762   3.432   4.486
 9914SOL    HW130641   6.813   3.347   4.496
 9914SOL    HW230642   6.664   3.414   4.494
 9915SOL     OW30643   4.412   1.107   3.161
 9915SOL    HW130644   4.341   1.160   3.115
 9915SOL    HW230645   4.396   1.009   3.146
 9916SOL     OW30646   2.266   2.946   3.419
 9916SOL    HW130647   2.183   2.965   3.472
 9916SOL    HW230648   2.270   3.007   3.340
 9917SOL     OW30649   5.898   3.291   6.918
 9917SOL    HW130650   5.816   3.330   6.876
 9917SOL    HW230651   5.946   3.362   6.969
 9918SOL     OW30652   3.608   1.822   2.728
 9918SOL    HW130653   3.577   1.826   2.633
 9918SOL    HW230654   3.560   1.748   2.775
 9919SOL     OW30655   6.026   5.303   1.904
 9919SOL    HW130656   6.105   5.285   1.964
 9919SOL    HW230657   6.027   5.399   1.876
 9920SOL     OW30658   4.758   1.537   1.920
 9920SOL    HW130659   4.679   1.480   1.940
 9920SOL    HW230660   4.838   1.479   1.901
 9921SOL     OW30661   4.199   5.848   6.145
 9921SOL    HW130662   4.210   5.912   6.069
 9921SOL    HW230663   4.101   5.837   6.166
 9922SOL     OW30664   1.340   4.939   0.289
 9922SOL    HW130665   1.292   4.972   0.208
 9922SOL    HW230666   1.319   5.000   0.366
 9923SOL     OW30667   4.734   4.680   6.422
 9923SOL    HW130668   4.827   4.677   6.386
 9923SOL    HW230669   4.692   4.589   6.414
 9924SOL     OW30670   0.436   2.220   4.625
 9924SOL    HW130671   0.400   2.246   4.714
 9924SOL    HW230672   0.403   2.284   4.555
 9925SOL     OW30673   0.065   4.221   4.164
 9925SOL    HW130674   0.147   4.185   4.120
 9925SOL    HW230675   7.008   4.183   4.118
 9926SOL     OW30676   2.747   3.705   0.360
 9926SOL    HW130677   2.844   3.719   0.379
 9926SOL    HW230678   2.714   3.773   0.295
 9927SOL     OW30679   5.999   6.906   2.351
 9927SOL    HW130680   6.003   6.978   2.282
 9927SOL    HW230681   5.928   6.840   2.327
 9928SOL     OW30682   5.066   5.238   1.605
 9928SOL    HW130683   4.971   5.267   1.589
 9928SOL    HW230684   5.069   5.179   1.686
 9929SOL     OW30685   1.825   5.504   5.281
 9929SOL    HW130686   1.914   5.508   5.327
 9929SOL    HW230687   1.766   5.575   5.318
 9930SOL     OW30688   6.221   0.698   4.827
 9930SOL    HW130689   6.140   0.700   4.769
 9930SOL    HW230690   6.295   0.748   4.782
 9931SOL     OW30691   0.972   4.815   5.081
 9931SOL    HW130692   0.970   4.753   5.159
 9931SOL    HW230693   0.903   4.787   5.014
 9932SOL     OW30694   1.989   5.964   6.554
 9932SOL    HW130695   2.024   6.037   6.496
 9932SOL    HW230696   1.903   5.930   6.517
 9933SOL     OW30697   1.746   4.429   2.755
 9933SOL    HW130698   1.779   4.336   2.740
 9933SOL    HW230699   1.722   4.441   2.851
 9934SOL     OW30700   6.069   1.935   5.726
 9934SOL    HW130701   6.128   1.902   5.801
 9934SOL    HW230702   5.986   1.880   5.724
 9935SOL     OW30703   2.867   0.697   0.194
 9935SOL    HW130704   2.820   0.759   0.257
 9935SOL    HW230705   2.906   0.751   0.118
 9936SOL     OW30706   6.539   4.945   4.736
 9936SOL    HW130707   6.511   4.850   4.722
 9936SOL    HW230708   6.613   4.968   4.673
 9937SOL     OW30709   6.412   2.527   5.629
 9937SOL    HW130710   6.450   2.479   5.708
 9937SOL    HW230711   6.378   2.617   5.658
 9938SOL     OW30712   6.480   5.597   3.317
 9938SOL    HW130713   6.500   5.510   3.362
 9938SOL    HW230714   6.412   5.647   3.370
 9939SOL     OW30715   3.429   2.519   0.700
 9939SOL    HW130716   3.453   2.516   0.797
 9939SOL    HW230717   3.513   2.530   0.646
 9940SOL     OW30718   0.566   0.800   0.996
 9940SOL    HW130719   0.544   0.747   0.915
 9940SOL    HW230720   0.556   0.898   0.976
 9941SOL     OW30721   3.156   3.920   5.336
 9941SOL    HW130722   3.099   3.896   5.414
 9941SOL    HW230723   3.100   3.960   5.264
 9942SOL     OW30724   2.068   6.005   2.493
 9942SOL    HW130725   2.020   6.085   2.456
 9942SOL    HW230726   2.082   5.938   2.420
 9943SOL     OW30727   6.975   5.674   5.832
 9943SOL    HW130728   6.993   5.728   5.750
 9943SOL    HW230729   6.911   5.601   5.810
 9944SOL     OW30730   2.073   4.296   6.754
 9944SOL    HW130731   2.084   4.293   6.654
 9944SOL    HW230732   2.016   4.375   6.778
 9945SOL     OW30733   6.322   5.188   6.902
 9945SOL    HW130734   6.296   5.112   6.961
 9945SOL    HW230735   6.421   5.201   6.905
 9946SOL     OW30736   4.946   1.387   4.781
 9946SOL    HW130737   4.928   1.370   4.878
 9946SOL    HW230738   4.987   1.306   4.740
 9947SOL     OW30739   0.374   4.095   6.249
 9947SOL    HW130740   0.443   4.112   6.179
 9947SOL    HW230741   0.419   4.077   6.337
 9948SOL     OW30742   4.943   4.969   4.389
 9948SOL    HW130743   4.849   4.944   4.413
 9948SOL    HW230744   4.988   5.010   4.469
 9949SOL     OW30745   5.448   4.918   3.793
 9949SOL    HW130746   5.370   4.938   3.851
 9949SOL    HW230747   5.417   4.873   3.709
 9950SOL     OW30748   5.636   6.096   5.549
 9950SOL    HW130749   5.550   6.064   5.511
 9950SOL    HW230750   5.705   6.024   5.541
 9951SOL     OW30751   6.521   1.897   3.752
 9951SOL    HW130752   6.615   1.868   3.773
 9951SOL    HW230753   6.499   1.870   3.658
 9952SOL     OW30754   6.456   3.791   1.003
 9952SOL    HW130755   6.418   3.884   1.009
 9952SOL    HW230756   6.555   3.796   0.992
 9953SOL     OW30757   6.310   2.765   4.125
 9953SOL    HW130758   6.266   2.855   4.120
 9953SOL    HW230759   6.255   2.698   4.076
 9954SOL     OW30760   5.815   6.187   6.043
 9954SOL    HW130761   5.859   6.103   6.074
 9954SOL    HW230762   5.745   6.215   6.109
 9955SOL     OW30763   6.539   4.354   4.551
 9955SOL    HW130764   6.492   4.410   4.482
 9955SOL    HW230765   6.503   4.261   4.549
 9956SOL     OW30766   2.301   0.111   1.749
 9956SOL    HW130767   2.290   0.013   1.766
 9956SOL    HW230768   2.319   0.126   1.651
 9957SOL     OW30769   5.845   5.330   2.513
 9957SOL    HW130770   5.892   5.260   2.459
 9957SOL    HW230771   5.747   5.324   2.497
 9958SOL     OW30772   3.782   5.452   0.327
 9958SOL    HW130773   3.852   5.521   0.307
 9958SOL    HW230774   3.801   5.369   0.275
 9959SOL     OW30775   4.011   3.964   6.018
 9959SOL    HW130776   4.077   3.911   5.965
 9959SOL    HW230777   4.039   4.060   6.017
 9960SOL     OW30778   6.702   0.283   2.202
 9960SOL    HW130779   6.641   0.231   2.142
 9960SOL    HW230780   6.707   0.237   2.291
 9961SOL     OW30781   1.798   5.979   4.131
 9961SOL    HW130782   1.736   5.901   4.142
 9961SOL    HW230783   1.843   5.999   4.218
 9962SOL     OW30784   6.115   6.929   3.404
 9962SOL    HW130785   6.161   6.939   3.493
 9962SOL    HW230786   6.034   6.870   3.416
 9963SOL     OW30787   3.328   2.684   0.431
 9963SOL    HW130788   3.301   2.638   0.347
 9963SOL    HW230789   3.311   2.624   0.509
 9964SOL     OW30790   5.153   5.758   4.527
 9964SOL    HW130791   5.189   5.682   4.581
 9964SOL    HW230792   5.130   5.835   4.587
 9965SOL     OW30793   4.379   6.760   6.920
 9965SOL    HW130794   4.465   6.717   6.892
 9965SOL    HW230795   4.396   6.826   6.993
 9966SOL     OW30796   1.369   5.392   1.519
 9966SOL    HW130797   1.404   5.299   1.518
 9966SOL    HW230798   1.404   5.440   1.600
 9967SOL     OW30799   0.511   5.554   2.194
 9967SOL    HW130800   0.546   5.589   2.282
 9967SOL    HW230801   0.466   5.629   2.145
 9968SOL     OW30802   3.352   3.963   2.266
 9968SOL    HW130803   3.259   3.989   2.239
 9968SOL    HW230804   3.417   4.032   2.233
 9969SOL     OW30805   1.522   3.818   2.699
 9969SOL    HW130806   1.446   3.756   2.682
 9969SOL    HW230807   1.608   3.768   2.692
 9970SOL     OW30808   5.097   4.096   1.638
 9970SOL    HW130809   5.144   4.105   1.551
 9970SOL    HW230810   5.163   4.098   1.713
 9971SOL     OW30811   1.416   4.861   1.148
 9971SOL    HW130812   1.317   4.864   1.132
 9971SOL    HW230813   1.451   4.771   1.125
 9972SOL     OW30814   6.076   3.902   1.859
 9972SOL    HW130815   6.032   3.985   1.893
 9972SOL    HW230816   6.127   3.859   1.933
 9973SOL     OW30817   5.279   1.932   3.439
 9973SOL    HW130818   5.298   1.937   3.341
 9973SOL    HW230819   5.286   1.836   3.469
 9974SOL     OW30820   1.136   1.558   3.052
 9974SOL    HW130821   1.073   1.481   3.043
 9974SOL    HW230822   1.091   1.643   3.024
 9975SOL     OW30823   6.580   2.930   0.696
 9975SOL    HW130824   6.621   2.906   0.607
 9975SOL    HW230825   6.537   3.019   0.690
 9976SOL     OW30826   0.722   6.460   5.578
 9976SOL    HW130827   0.692   6.555   5.580
 9976SOL    HW230828   0.820   6.455   5.599
 9977SOL     OW30829   5.744   5.199   5.276
 9977SOL    HW130830   5.699   5.182   5.188
 9977SOL    HW230831   5.795   5.118   5.305
 9978SOL     OW30832   0.663   2.412   4.979
 9978SOL    HW130833   0.581   2.385   5.030
 9978SOL    HW230834   0.737   2.348   5.000
 9979SOL     OW30835   5.993   4.737   5.227
 9979SOL    HW130836   6.087   4.766   5.207
 9979SOL    HW230837   5.936   4.747   5.146
 9980SOL     OW30838   2.746   0.047   6.786
 9980SOL    HW130839   2.813   6.997   6.782
 9980SOL    HW230840   2.658   0.014   6.750
 9981SOL     OW30841   3.138   1.587   3.080
 9981SOL    HW130842   3.107   1.632   3.164
 9981SOL    HW230843   3.125   1.649   3.003
 9982SOL     OW30844   6.675   5.783   3.555
 9982SOL    HW130845   6.638   5.874   3.537
 9982SOL    HW230846   6.668   5.762   3.652
 9983SOL     OW30847   7.011   1.453   2.676
 9983SOL    HW130848   0.083   1.484   2.672
 9983SOL    HW230849   6.951   1.531   2.661
 9984SOL     OW30850   2.100   2.118   6.675
 9984SOL    HW130851   2.192   2.122   6.714
 9984SOL    HW230852   2.033   2.105   6.748
 9985SOL     OW30853   2.322   0.800   2.054
 9985SOL    HW130854   2.307   0.835   2.146
 9985SOL    HW230855   2.234   0.782   2.010
 9986SOL     OW30856   5.525   4.484   5.169
 9986SOL    HW130857   5.499   4.460   5.075
 9986SOL    HW230858   5.567   4.405   5.213
 9987SOL     OW30859   5.602   3.165   6.039
 9987SOL    HW130860   5.633   3.139   6.130
 9987SOL    HW230861   5.682   3.184   5.981
 9988SOL     OW30862   6.568   6.893   5.042
 9988SOL    HW130863   6.608   6.977   5.078
 9988SOL    HW230864   6.469   6.893   5.057
 9989SOL     OW30865   6.837   3.180   4.489
 9989SOL    HW130866   6.754   3.159   4.436
 9989SOL    HW230867   6.916   3.179   4.428
 9990SOL     OW30868   1.775   5.142   3.440
 9990SOL    HW130869   1.819   5.167   3.526
 9990SOL    HW230870   1.805   5.203   3.367
 9991SOL     OW30871   3.009   1.963   4.337
 9991SOL    HW130872   2.955   1.980   4.420
 9991SOL    HW230873   3.062   2.045   4.314
 9992SOL     OW30874   5.861   4.808   6.258
 9992SOL    HW130875   5.870   4.815   6.358
 9992SOL    HW230876   5.765   4.817   6.232
 9993SOL     OW30877   2.375   1.401   1.227
 9993SOL    HW130878   2.295   1.408   1.286
 9993SOL    HW230879   2.432   1.482   1.238
 9994SOL     OW30880   5.995   4.602   3.184
 9994SOL    HW130881   5.948   4.667   3.124
 9994SOL    HW230882   5.929   4.562   3.248
 9995SOL     OW30883   5.200   1.710   3.950
 9995SOL    HW130884   5.236   1.659   3.872
 9995SOL    HW230885   5.102   1.690   3.960
 9996SOL     OW30886   2.926   4.410   6.893
 9996SOL    HW130887   2.919   4.381   6.798
 9996SOL    HW230888   2.843   4.383   6.942
 9997SOL     OW30889   2.978   1.725   5.737
 9997SOL    HW130890   3.042   1.800   5.755
 9997SOL    HW230891   3.021   1.638   5.759
 9998SOL     OW30892   5.962   5.345   5.170
 9998SOL    HW130893   6.034   5.310   5.230
 9998SOL    HW230894   5.873   5.324   5.211
 9999SOL     OW30895   5.683   2.388   5.423
 9999SOL    HW130896   5.594   2.432   5.425
 9999SOL    HW230897   5.703   2.357   5.330
10000SOL     OW30898   6.985   2.559   0.344
10000SOL    HW130899   0.038   2.508   0.383
10000SOL    HW230900   7.019   2.642   0.299
10001SOL     OW30901   4.609   1.080   1.883
10001SOL    HW130902   4.701   1.119   1.876
10001SOL    HW230903   4.550   1.118   1.812
10002SOL     OW30904   1.355   6.261   1.891
10002SOL    HW130905   1.385   6.188   1.952
10002SOL    HW230906   1.409   6.343   1.908
10003SOL     OW30907   3.635   1.971   3.466
10003SOL    HW130908   3.624   1.872   3.465
10003SOL    HW230909   3.733   1.994   3.460
10004SOL     OW30910   0.269   2.161   3.401
10004SOL    HW130911   0.278   2.260   3.408
10004SOL    HW230912   0.265   2.121   3.493
10005SOL     OW30913   5.484   0.628   2.920
10005SOL    HW130914   5.556   0.560   2.907
10005SOL    HW230915   5.435   0.608   3.005
10006SOL     OW30916   3.994   6.776   4.777
10006SOL    HW130917   4.050   6.859   4.783
10006SOL    HW230918   3.966   6.761   4.682
10007SOL     OW30919   0.516   3.377   4.825
10007SOL    HW130920   0.530   3.300   4.886
10007SOL    HW230921   0.418   3.388   4.808
10008SOL     OW30922   3.536   0.280   4.699
10008SOL    HW130923   3.572   0.187   4.686
10008SOL    HW230924   3.438   0.281   4.681
10009SOL     OW30925   2.335   4.208   2.082
10009SOL    HW130926   2.361   4.281   2.020
10009SOL    HW230927   2.304   4.128   2.029
10010SOL     OW30928   2.212   1.075   6.949
10010SOL    HW130929   2.207   1.051   6.852
10010SOL    HW230930   2.272   1.154   6.960
10011SOL     OW30931   6.646   6.657   5.156
10011SOL    HW130932   6.639   6.732   5.091
10011SOL    HW230933   6.662   6.571   5.107
10012SOL     OW30934   5.924   1.371   3.922
10012SOL    HW130935   5.839   1.393   3.970
10012SOL    HW230936   5.989   1.446   3.934
10013SOL     OW30937   0.152   0.581   2.593
10013SOL    HW130938   0.164   0.632   2.678
10013SOL    HW230939   0.199   0.493   2.600
10014SOL     OW30940   0.985   4.007   6.474
10014SOL    HW130941   0.997   3.931   6.538
10014SOL    HW230942   0.903   3.991   6.419
10015SOL     OW30943   2.438   4.791   0.335
10015SOL    HW130944   2.504   4.811   0.263
10015SOL    HW230945   2.483   4.741   0.408
10016SOL     OW30946   2.246   1.382   6.589
10016SOL    HW130947   2.191   1.382   6.672
10016SOL    HW230948   2.200   1.436   6.518
10017SOL     OW30949   2.607   2.015   4.284
10017SOL    HW130950   2.662   2.088   4.324
10017SOL    HW230951   2.659   1.930   4.286
10018SOL     OW30952   5.357   0.609   5.718
10018SOL    HW130953   5.409   0.533   5.678
10018SOL    HW230954   5.393   0.630   5.808
10019SOL     OW30955   1.274   0.652   3.027
10019SOL    HW130956   1.292   0.590   3.103
10019SOL    HW230957   1.360   0.689   2.992
10020SOL     OW30958   1.416   2.916   1.331
10020SOL    HW130959   1.322   2.926   1.366
10020SOL    HW230960   1.474   2.985   1.374
10021SOL     OW30961   0.029   3.323   1.099
10021SOL    HW130962   6.994   3.402   1.080
10021SOL    HW230963   6.997   3.240   1.102
10022SOL     OW30964   1.679   1.961   6.768
10022SOL    HW130965   1.767   1.913   6.762
10022SOL    HW230966   1.694   2.059   6.758
10023SOL     OW30967   6.262   3.622   0.863
10023SOL    HW130968   6.230   3.587   0.951
10023SOL    HW230969   6.329   3.695   0.879
10024SOL     OW30970   1.624   4.519   3.764
10024SOL    HW130971   1.656   4.533   3.671
10024SOL    HW230972   1.525   4.500   3.763
10025SOL     OW30973   1.896   1.035   1.586
10025SOL    HW130974   1.976   0.999   1.539
10025SOL    HW230975   1.925   1.080   1.671
10026SOL     OW30976   5.830   0.775   3.045
10026SOL    HW130977   5.829   0.678   3.071
10026SOL    HW230978   5.924   0.809   3.047
10027SOL     OW30979   5.923   3.720   4.934
10027SOL    HW130980   5.853   3.791   4.932
10027SOL    HW230981   5.880   3.630   4.921
10028SOL     OW30982   2.042   1.136   0.530
10028SOL    HW130983   1.994   1.213   0.489
10028SOL    HW230984   2.121   1.170   0.581
10029SOL     OW30985   5.690   1.837   3.315
10029SOL    HW130986   5.644   1.889   3.243
10029SOL    HW230987   5.645   1.749   3.327
10030SOL     OW30988   1.421   7.012   4.193
10030SOL    HW130989   1.498   7.008   4.257
10030SOL    HW230990   1.448   0.040   4.112
10031SOL     OW30991   6.012   4.640   3.533
10031SOL    HW130992   6.026   4.704   3.458
10031SOL    HW230993   6.021   4.547   3.499
10032SOL     OW30994   2.614   1.762   5.264
10032SOL    HW130995   2.601   1.845   5.318
10032SOL    HW230996   2.706   1.763   5.223
10033SOL     OW30997   5.737   3.193   4.400
10033SOL    HW130998   5.763   3.200   4.497
10033SOL    HW230999   5.656   3.249   4.383
10034SOL     OW31000   4.449   0.060   5.639
10034SOL    HW131001   4.533   0.047   5.690
10034SOL    HW231002   4.393   0.131   5.682
10035SOL     OW31003   6.898   4.863   1.163
10035SOL    HW131004   6.923   4.940   1.222
10035SOL    HW231005   6.838   4.895   1.089
10036SOL     OW31006   6.779   1.757   6.877
10036SOL    HW131007   6.699   1.769   6.936
10036SOL    HW231008   6.862   1.783   6.926
10037SOL     OW31009   0.237   0.423   6.841
10037SOL    HW131010   0.294   0.340   6.836
10037SOL    HW231011   0.141   0.397   6.843
10038SOL     OW31012   6.689   6.977   1.012
10038SOL    HW131013   6.649   6.885   1.017
10038SOL    HW231014   6.758   6.987   1.084
10039SOL     OW31015   3.724   0.587   3.982
10039SOL    HW131016   3.703   0.648   3.906
10039SOL    HW231017   3.706   0.634   4.069
10040SOL     OW31018   6.871   3.095   1.159
10040SOL    HW131019   6.788   3.132   1.201
10040SOL    HW231020   6.846   3.026   1.091
10041SOL     OW31021   2.531   6.625   0.139
10041SOL    HW131022   2.435   6.635   0.165
10041SOL    HW231023   2.549   6.675   0.055
10042SOL     OW31024   6.788   1.904   2.631
10042SOL    HW131025   6.729   1.883   2.552
10042SOL    HW231026   6.736   1.891   2.715
10043SOL     OW31027   0.042   1.674   5.787
10043SOL    HW131028   0.065   1.587   5.831
10043SOL    HW231029   0.114   1.741   5.805
10044SOL     OW31030   3.058   2.447   5.581
10044SOL    HW131031   3.019   2.392   5.507
10044SOL    HW231032   2.985   2.492   5.632
10045SOL     OW31033   3.459   1.146   0.688
10045SOL    HW131034   3.487   1.052   0.665
10045SOL    HW231035   3.539   1.201   0.709
10046SOL     OW31036   1.828   5.468   1.483
10046SOL    HW131037   1.920   5.429   1.485
10046SOL    HW231038   1.762   5.401   1.515
10047SOL     OW31039   0.350   3.304   6.986
10047SOL    HW131040   0.313   3.281   0.052
10047SOL    HW231041   0.298   3.258   6.915
10048SOL     OW31042   5.960   6.377   2.864
10048SOL    HW131043   5.906   6.310   2.915
10048SOL    HW231044   6.032   6.330   2.813
10049SOL     OW31045   0.011   1.159   5.280
10049SOL    HW131046   0.038   1.097   5.354
10049SOL    HW231047   6.937   1.179   5.288
10050SOL     OW31048   6.227   2.988   6.058
10050SOL    HW131049   6.292   2.978   6.133
10050SOL    HW231050   6.149   3.043   6.088
10051SOL     OW31051   1.079   3.658   4.078
10051SOL    HW131052   1.048   3.699   4.164
10051SOL    HW231053   1.013   3.590   4.048
10052SOL     OW31054   1.455   6.964   3.001
10052SOL    HW131055   1.417   7.009   2.921
10052SOL    HW231056   1.382   6.950   3.068
10053SOL     OW31057   5.460   5.755   4.657
10053SOL    HW131058   5.498   5.663   4.660
10053SOL    HW231059   5.502   5.807   4.583
10054SOL     OW31060   5.850   4.123   4.581
10054SOL    HW131061   5.887   4.155   4.668
10054SOL    HW231062   5.770   4.178   4.556
10055SOL     OW31063   0.560   1.901   6.221
10055SOL    HW131064   0.485   1.898   6.287
10055SOL    HW231065   0.639   1.946   6.262
10056SOL     OW31066   6.430   2.616   3.891
10056SOL    HW131067   6.362   2.628   3.819
10056SOL    HW231068   6.443   2.703   3.939
10057SOL     OW31069   5.497   4.740   5.781
10057SOL    HW131070   5.585   4.713   5.741
10057SOL    HW231071   5.513   4.807   5.853
10058SOL     OW31072   6.560   3.917   5.441
10058SOL    HW131073   6.497   3.843   5.417
10058SOL    HW231074   6.654   3.887   5.422
10059SOL     OW31075   7.009   0.708   6.952
10059SOL    HW131076   6.913   0.733   6.946
10059SOL    HW231077   0.013   0.660   6.869
10060SOL     OW31078   2.338   2.331   2.417
10060SOL    HW131079   2.267   2.330   2.347
10060SOL    HW231080   2.365   2.237   2.439
10061SOL     OW31081   3.972   0.215   2.699
10061SOL    HW131082   3.956   0.143   2.768
10061SOL    HW231083   3.908   0.290   2.715
10062SOL     OW31084   6.019   0.627   4.492
10062SOL    HW131085   5.920   0.637   4.501
10062SOL    HW231086   6.051   0.552   4.551
10063SOL     OW31087   1.570   2.859   5.341
10063SOL    HW131088   1.575   2.880   5.439
10063SOL    HW231089   1.548   2.942   5.290
10064SOL     OW31090   2.725   6.699   0.337
10064SOL    HW131091   2.775   6.612   0.341
10064SOL    HW231092   2.646   6.689   0.278
10065SOL     OW31093   1.154   1.759   1.966
10065SOL    HW131094   1.207   1.843   1.979
10065SOL    HW231095   1.212   1.680   1.980
10066SOL     OW31096   6.031   3.402   3.466
10066SOL    HW131097   5.980   3.334   3.413
10066SOL    HW231098   6.119   3.363   3.494
10067SOL     OW31099   6.687   2.521   5.284
10067SOL    HW131100   6.664   2.578   5.363
10067SOL    HW231101   6.663   2.569   5.200
10068SOL     OW31102   1.930   2.935   2.694
10068SOL    HW131103   1.973   2.891   2.773
10068SOL    HW231104   1.998   2.986   2.642
10069SOL     OW31105   2.959   5.643   0.890
10069SOL    HW131106   2.919   5.570   0.834
10069SOL    HW231107   2.936   5.732   0.850
10070SOL     OW31108   3.782   6.543   5.968
10070SOL    HW131109   3.874   6.542   6.006
10070SOL    HW231110   3.735   6.457   5.988
10071SOL     OW31111   6.407   0.367   3.978
10071SOL    HW131112   6.478   0.372   4.047
10071SOL    HW231113   6.448   0.346   3.889
10072SOL     OW31114   6.613   2.877   1.740
10072SOL    HW131115   6.705   2.853   1.770
10072SOL    HW231116   6.566   2.927   1.813
10073SOL     OW31117   6.859   4.580   4.154
10073SOL    HW131118   6.781   4.641   4.137
10073SOL    HW231119   6.941   4.619   4.114
10074SOL     OW31120   1.563   4.873   0.114
10074SOL    HW131121   1.528   4.796   0.060
10074SOL    HW231122   1.489   4.911   0.170
10075SOL     OW31123   1.750   3.598   1.746
10075SOL    HW131124   1.817   3.560   1.810
10075SOL    HW231125   1.659   3.562   1.768
10076SOL     OW31126   5.027   5.644   4.289
10076SOL    HW131127   5.059   5.698   4.366
10076SOL    HW231128   4.931   5.621   4.302
10077SOL     OW31129   5.215   3.249   6.062
10077SOL    HW131130   5.285   3.299   6.010
10077SOL    HW231131   5.234   3.151   6.057
10078SOL     OW31132   6.358   6.405   5.017
10078SOL    HW131133   6.261   6.413   4.996
10078SOL    HW231134   6.410   6.471   4.963
10079SOL     OW31135   4.628   2.613   3.427
10079SOL    HW131136   4.663   2.702   3.398
10079SOL    HW231137   4.698   2.565   3.479
10080SOL     OW31138   4.670   0.961   5.886
10080SOL    HW131139   4.753   0.996   5.841
10080SOL    HW231140   4.689   0.873   5.928
10081SOL     OW31141   1.960   3.772   1.047
10081SOL    HW131142   2.002   3.807   0.964
10081SOL    HW231143   1.878   3.719   1.023
10082SOL     OW31144   1.660   4.438   0.862
10082SOL    HW131145   1.582   4.500   0.847
10082SOL    HW231146   1.629   4.358   0.913
10083SOL     OW31147   3.389   4.964   3.167
10083SOL    HW131148   3.350   5.056   3.175
10083SOL    HW231149   3.466   4.955   3.230
10084SOL     OW31150   1.368   1.036   4.687
10084SOL    HW131151   1.371   1.123   4.637
10084SOL    HW231152   1.326   0.966   4.629
10085SOL     OW31153   5.153   7.013   0.474
10085SOL    HW131154   5.143   0.087   0.457
10085SOL    HW231155   5.222   6.998   0.545
10086SOL     OW31156   6.925   6.479   3.494
10086SOL    HW131157   6.926   6.545   3.569
10086SOL    HW231158   6.954   6.389   3.528
10087SOL     OW31159   1.220   6.832   5.888
10087SOL    HW131160   1.291   6.892   5.852
10087SOL    HW231161   1.262   6.756   5.938
10088SOL     OW31162   0.527   2.678   0.101
10088SOL    HW131163   0.565   2.738   0.030
10088SOL    HW231164   0.467   2.731   0.160
10089SOL     OW31165   3.648   1.953   1.573
10089SOL    HW131166   3.604   2.043   1.577
10089SOL    HW231167   3.578   1.883   1.557
10090SOL     OW31168   2.787   5.768   3.135
10090SOL    HW131169   2.735   5.850   3.160
10090SOL    HW231170   2.737   5.687   3.165
10091SOL     OW31171   6.910   4.044   5.173
10091SOL    HW131172   6.886   3.950   5.198
10091SOL    HW231173   6.921   4.098   5.256
10092SOL     OW31174   0.599   1.831   3.760
10092SOL    HW131175   0.642   1.761   3.703
10092SOL    HW231176   0.669   1.892   3.797
10093SOL     OW31177   4.649   4.702   5.643
10093SOL    HW131178   4.567   4.655   5.609
10093SOL    HW231179   4.659   4.790   5.595
10094SOL     OW31180   3.462   1.591   0.760
10094SOL    HW131181   3.421   1.517   0.706
10094SOL    HW231182   3.527   1.641   0.703
10095SOL     OW31183   4.827   2.930   5.214
10095SOL    HW131184   4.750   2.973   5.260
10095SOL    HW231185   4.909   2.986   5.225
10096SOL     OW31186   5.702   2.564   2.441
10096SOL    HW131187   5.646   2.540   2.521
10096SOL    HW231188   5.697   2.490   2.374
10097SOL     OW31189   0.860   1.432   6.543
10097SOL    HW131190   0.902   1.433   6.453
10097SOL    HW231191   0.806   1.348   6.554
10098SOL     OW31192   3.237   5.383   3.817
10098SOL    HW131193   3.230   5.390   3.917
10098SOL    HW231194   3.295   5.306   3.793
10099SOL     OW31195   0.560   4.842   0.981
10099SOL    HW131196   0.640   4.789   1.009
10099SOL    HW231197   0.491   4.840   1.054
10100SOL     OW31198   4.751   5.488   4.349
10100SOL    HW131199   4.679   5.447   4.406
10100SOL    HW231200   4.840   5.457   4.380
10101SOL     OW31201   0.448   2.621   1.404
10101SOL    HW131202   0.534   2.571   1.416
10101SOL    HW231203   0.381   2.587   1.470
10102SOL     OW31204   6.730   5.564   2.946
10102SOL    HW131205   6.803   5.602   2.888
10102SOL    HW231206   6.708   5.629   3.018
10103SOL     OW31207   6.757   6.343   6.172
10103SOL    HW131208   6.782   6.316   6.080
10103SOL    HW231209   6.801   6.283   6.238
10104SOL     OW31210   2.211   0.273   4.260
10104SOL    HW131211   2.232   0.198   4.197
10104SOL    HW231212   2.226   0.241   4.354
10105SOL     OW31213   3.416   0.986   5.952
10105SOL    HW131214   3.475   1.014   6.029
10105SOL    HW231215   3.370   0.900   5.976
10106SOL     OW31216   5.569   5.267   1.693
10106SOL    HW131217   5.471   5.287   1.698
10106SOL    HW231218   5.621   5.350   1.711
10107SOL     OW31219   4.911   4.579   7.002
10107SOL    HW131220   4.944   4.653   6.943
10107SOL    HW231221   4.813   4.590   7.018
10108SOL     OW31222   1.826   2.211   0.631
10108SOL    HW131223   1.780   2.286   0.583
10108SOL    HW231224   1.760   2.164   0.690
10109SOL     OW31225   1.476   2.218   1.624
10109SOL    HW131226   1.436   2.229   1.533
10109SOL    HW231227   1.461   2.124   1.656
10110SOL     OW31228   5.119   6.092   2.700
10110SOL    HW131229   5.187   6.022   2.677
10110SOL    HW231230   5.138   6.127   2.791
10111SOL     OW31231   1.146   2.464   2.098
10111SOL    HW131232   1.166   2.520   2.017
10111SOL    HW231233   1.055   2.487   2.131
10112SOL     OW31234   6.980   2.119   2.925
10112SOL    HW131235   0.038   2.062   2.925
10112SOL    HW231236   6.936   2.113   3.015
10113SOL     OW31237   0.178   0.898   5.879
10113SOL    HW131238   0.083   0.883   5.910
10113SOL    HW231239   0.207   0.821   5.823
10114SOL     OW31240   5.417   1.498   1.493
10114SOL    HW131241   5.348   1.498   1.421
10114SOL    HW231242   5.500   1.451   1.461
10115SOL     OW31243   3.585   2.670   5.979
10115SOL    HW131244   3.653   2.673   6.053
10115SOL    HW231245   3.611   2.598   5.914
10116SOL     OW31246   6.727   0.603   5.025
10116SOL    HW131247   6.718   0.663   4.946
10116SOL    HW231248   6.655   0.533   5.022
10117SOL     OW31249   6.458   4.736   3.223
10117SOL    HW131250   6.462   4.711   3.319
10117SOL    HW231251   6.545   4.778   3.195
10118SOL     OW31252   4.726   6.367   3.930
10118SOL    HW131253   4.665   6.300   3.889
10118SOL    HW231254   4.817   6.327   3.940
10119SOL     OW31255   0.451   5.361   5.549
10119SOL    HW131256   0.485   5.274   5.582
10119SOL    HW231257   0.517   5.401   5.485
10120SOL     OW31258   2.115   3.291   2.680
10120SOL    HW131259   2.116   3.344   2.596
10120SOL    HW231260   2.111   3.193   2.658
10121SOL     OW31261   6.058   4.612   1.239
10121SOL    HW131262   6.020   4.582   1.326
10121SOL    HW231263   5.985   4.619   1.171
10122SOL     OW31264   1.376   0.185   3.950
10122SOL    HW131265   1.408   0.200   3.857
10122SOL    HW231266   1.276   0.181   3.951
10123SOL     OW31267   6.440   5.304   6.626
10123SOL    HW131268   6.394   5.254   6.699
10123SOL    HW231269   6.538   5.285   6.629
10124SOL     OW31270   1.554   5.248   2.463
10124SOL    HW131271   1.640   5.293   2.486
10124SOL    HW231272   1.550   5.160   2.512
10125SOL     OW31273   2.374   1.159   5.013
10125SOL    HW131274   2.432   1.237   5.033
10125SOL    HW231275   2.419   1.075   5.042
10126SOL     OW31276   6.309   6.850   6.591
10126SOL    HW131277   6.390   6.817   6.543
10126SOL    HW231278   6.240   6.878   6.525
10127SOL     OW31279   2.704   6.904   5.875
10127SOL    HW131280   2.681   6.976   5.809
10127SOL    HW231281   2.629   6.839   5.880
10128SOL     OW31282   2.943   2.372   6.808
10128SOL    HW131283   3.004   2.404   6.735
10128SOL    HW231284   2.872   2.313   6.768
10129SOL     OW31285   6.307   2.090   4.849
10129SOL    HW131286   6.299   2.003   4.898
10129SOL    HW231287   6.226   2.146   4.865
10130SOL     OW31288   1.212   1.100   2.941
10130SOL    HW131289   1.285   1.040   2.910
10130SOL    HW231290   1.183   1.160   2.866
10131SOL     OW31291   1.726   6.045   3.714
10131SOL    HW131292   1.642   6.025   3.664
10131SOL    HW231293   1.706   6.101   3.794
10132SOL     OW31294   6.685   0.544   1.329
10132SOL    HW131295   6.729   0.544   1.239
10132SOL    HW231296   6.602   0.490   1.325
10133SOL     OW31297   5.770   6.179   0.248
10133SOL    HW131298   5.821   6.261   0.222
10133SOL    HW231299   5.815   6.137   0.327
10134SOL     OW31300   6.814   6.385   2.344
10134SOL    HW131301   6.842   6.459   2.283
10134SOL    HW231302   6.715   6.372   2.337
10135SOL     OW31303   6.409   0.117   2.577
10135SOL    HW131304   6.500   0.155   2.561
10135SOL    HW231305   6.382   0.133   2.672
10136SOL     OW31306   4.761   1.985   2.789
10136SOL    HW131307   4.858   1.965   2.805
10136SOL    HW231308   4.743   1.984   2.691
10137SOL     OW31309   6.166   5.255   5.711
10137SOL    HW131310   6.165   5.213   5.802
10137SOL    HW231311   6.167   5.183   5.641
10138SOL     OW31312   0.500   2.431   0.801
10138SOL    HW131313   0.455   2.421   0.889
10138SOL    HW231314   0.597   2.452   0.816
10139SOL     OW31315   2.925   2.991   6.872
10139SOL    HW131316   2.862   2.914   6.868
10139SOL    HW231317   2.993   2.983   6.799
10140SOL     OW31318   0.650   6.260   5.743
10140SOL    HW131319   0.682   6.335   5.686
10140SOL    HW231320   0.670   6.279   5.839
10141SOL     OW31321   2.086   2.766   4.415
10141SOL    HW131322   2.074   2.691   4.480
10141SOL    HW231323   1.997   2.802   4.390
10142SOL     OW31324   3.868   6.810   3.664
10142SOL    HW131325   3.853   6.739   3.595
10142SOL    HW231326   3.873   6.899   3.620
10143SOL     OW31327   4.890   2.585   6.456
10143SOL    HW131328   4.872   2.540   6.368
10143SOL    HW231329   4.985   2.567   6.483
10144SOL     OW31330   3.925   6.786   6.879
10144SOL    HW131331   3.830   6.781   6.848
10144SOL    HW231332   3.945   6.879   6.910
10145SOL     OW31333   5.400   6.956   6.089
10145SOL    HW131334   5.444   0.016   6.123
10145SOL    HW231335   5.404   6.885   6.159
10146SOL     OW31336   6.951   2.949   4.802
10146SOL    HW131337   6.939   2.859   4.760
10146SOL    HW231338   6.903   2.951   4.890
10147SOL     OW31339   4.347   5.600   5.888
10147SOL    HW131340   4.303   5.534   5.828
10147SOL    HW231341   4.351   5.689   5.842
10148SOL     OW31342   0.460   4.236   0.936
10148SOL    HW131343   0.437   4.190   0.850
10148SOL    HW231344   0.522   4.179   0.989
10149SOL     OW31345   3.519   3.866   0.973
10149SOL    HW131346   3.598   3.902   1.023
10149SOL    HW231347   3.490   3.780   1.014
10150SOL     OW31348   4.143   4.442   0.792
10150SOL    HW131349   4.241   4.434   0.807
10150SOL    HW231350   4.113   4.369   0.730
10151SOL     OW31351   5.919   6.949   5.974
10151SOL    HW131352   5.934   6.875   6.040
10151SOL    HW231353   5.977   0.003   5.998
10152SOL     OW31354   4.006   7.011   2.544
10152SOL    HW131355   3.974   0.006   2.452
10152SOL    HW231356   4.013   0.073   2.596
10153SOL     OW31357   4.627   4.464   2.568
10153SOL    HW131358   4.594   4.556   2.546
10153SOL    HW231359   4.668   4.423   2.486
10154SOL     OW31360   4.652   5.751   5.554
10154SOL    HW131361   4.577   5.685   5.546
10154SOL    HW231362   4.619   5.843   5.531
10155SOL     OW31363   4.454   1.733   4.650
10155SOL    HW131364   4.526   1.752   4.583
10155SOL    HW231365   4.434   1.635   4.651
10156SOL     OW31366   4.871   1.814   0.685
10156SOL    HW131367   4.958   1.823   0.733
10156SOL    HW231368   4.838   1.720   0.694
10157SOL     OW31369   0.492   3.723   1.385
10157SOL    HW131370   0.458   3.631   1.401
10157SOL    HW231371   0.592   3.724   1.397
10158SOL     OW31372   6.043   4.651   0.080
10158SOL    HW131373   6.068   4.556   0.098
10158SOL    HW231374   6.106   4.690   0.012
10159SOL     OW31375   3.339   2.959   2.251
10159SOL    HW131376   3.432   2.929   2.273
10159SOL    HW231377   3.299   3.002   2.332
10160SOL     OW31378   0.565   4.866   2.970
10160SOL    HW131379   0.638   4.812   2.929
10160SOL    HW231380   0.477   4.837   2.932
10161SOL     OW31381   5.341   3.666   5.091
10161SOL    HW131382   5.424   3.632   5.135
10161SOL    HW231383   5.279   3.701   5.162
10162SOL     OW31384   1.464   3.164   2.201
10162SOL    HW131385   1.461   3.147   2.299
10162SOL    HW231386   1.371   3.182   2.168
10163SOL     OW31387   2.356   6.174   5.123
10163SOL    HW131388   2.280   6.109   5.117
10163SOL    HW231389   2.369   6.200   5.218
10164SOL     OW31390   0.933   1.487   3.637
10164SOL    HW131391   0.852   1.466   3.691
10164SOL    HW231392   0.953   1.411   3.576
10165SOL     OW31393   0.179   3.515   4.292
10165SOL    HW131394   0.089   3.501   4.333
10165SOL    HW231395   0.238   3.438   4.315
10166SOL     OW31396   2.411   0.550   1.556
10166SOL    HW131397   2.427   0.647   1.575
10166SOL    HW231398   2.475   0.496   1.611
10167SOL     OW31399   2.472   1.246   6.545
10167SOL    HW131400   2.407   1.322   6.550
10167SOL    HW231401   2.562   1.277   6.577
10168SOL     OW31402   6.414   0.242   6.488
10168SOL    HW131403   6.352   0.170   6.456
10168SOL    HW231404   6.393   0.328   6.441
10169SOL     OW31405   4.833   3.890   3.724
10169SOL    HW131406   4.794   3.899   3.633
10169SOL    HW231407   4.896   3.967   3.741
10170SOL     OW31408   5.590   5.419   0.020
10170SOL    HW131409   5.642   5.333   0.019
10170SOL    HW231410   5.501   5.404   7.001
10171SOL     OW31411   2.044   4.049   5.791
10171SOL    HW131412   2.099   4.120   5.833
10171SOL    HW231413   2.051   3.964   5.844
10172SOL     OW31414   6.054   0.567   2.927
10172SOL    HW131415   6.122   0.618   2.979
10172SOL    HW231416   6.082   0.560   2.831
10173SOL     OW31417   3.659   4.007   4.879
10173SOL    HW131418   3.633   4.044   4.789
10173SOL    HW231419   3.599   4.045   4.949
10174SOL     OW31420   4.792   5.372   2.398
10174SOL    HW131421   4.863   5.430   2.357
10174SOL    HW231422   4.737   5.427   2.461
10175SOL     OW31423   0.206   0.237   4.021
10175SOL    HW131424   0.257   0.210   4.104
10175SOL    HW231425   0.262   0.300   3.968
10176SOL     OW31426   6.867   1.236   5.572
10176SOL    HW131427   6.806   1.181   5.628
10176SOL    HW231428   6.960   1.230   5.609
10177SOL     OW31429   3.134   0.850   3.833
10177SOL    HW131430   3.109   0.759   3.801
10177SOL    HW231431   3.092   0.866   3.922
10178SOL     OW31432   0.879   1.610   1.089
10178SOL    HW131433   0.792   1.566   1.068
10178SOL    HW231434   0.863   1.700   1.128
10179SOL     OW31435   0.670   4.058   0.768
10179SOL    HW131436   0.661   4.061   0.867
10179SOL    HW231437   0.668   3.963   0.737
10180SOL     OW31438   4.340   6.381   5.818
10180SOL    HW131439   4.276   6.311   5.787
10180SOL    HW231440   4.301   6.471   5.802
10181SOL     OW31441   6.088   3.552   2.499
10181SOL    HW131442   6.128   3.640   2.525
10181SOL    HW231443   6.106   3.485   2.571
10182SOL     OW31444   4.937   1.480   1.520
10182SOL    HW131445   4.852   1.526   1.547
10182SOL    HW231446   4.995   1.545   1.471
10183SOL     OW31447   6.349   1.034   6.430
10183SOL    HW131448   6.296   1.100   6.377
10183SOL    HW231449   6.346   1.059   6.527
10184SOL     OW31450   5.830   1.776   5.728
10184SOL    HW131451   5.868   1.685   5.714
10184SOL    HW231452   5.771   1.800   5.651
10185SOL     OW31453   4.177   5.574   2.139
10185SOL    HW131454   4.241   5.636   2.184
10185SOL    HW231455   4.218   5.483   2.130
10186SOL     OW31456   3.836   3.265   5.968
10186SOL    HW131457   3.827   3.170   5.999
10186SOL    HW231458   3.853   3.324   6.047
10187SOL     OW31459   2.163   4.154   6.272
10187SOL    HW131460   2.257   4.151   6.237
10187SOL    HW231461   2.108   4.086   6.224
10188SOL     OW31462   3.232   0.492   5.987
10188SOL    HW131463   3.165   0.561   5.958
10188SOL    HW231464   3.190   0.401   5.983
10189SOL     OW31465   1.241   1.784   6.024
10189SOL    HW131466   1.267   1.863   5.968
10189SOL    HW231467   1.255   1.806   6.121
10190SOL     OW31468   4.510   5.278   1.069
10190SOL    HW131469   4.449   5.215   1.022
10190SOL    HW231470   4.590   5.296   1.012
10191SOL     OW31471   5.490   6.778   6.314
10191SOL    HW131472   5.554   6.714   6.270
10191SOL    HW231473   5.528   6.807   6.402
10192SOL     OW31474   1.913   1.544   3.803
10192SOL    HW131475   1.899   1.451   3.771
10192SOL    HW231476   1.857   1.607   3.749
10193SOL     OW31477   3.686   3.271   4.023
10193SOL    HW131478   3.738   3.356   4.034
10193SOL    HW231479   3.744   3.193   4.045
10194SOL     OW31480   2.582   0.285   3.514
10194SOL    HW131481   2.664   0.289   3.456
10194SOL    HW231482   2.505   0.251   3.459
10195SOL     OW31483   4.239   6.267   2.643
10195SOL    HW131484   4.199   6.280   2.552
10195SOL    HW231485   4.266   6.355   2.681
10196SOL     OW31486   6.137   2.565   4.035
10196SOL    HW131487   6.176   2.482   3.993
10196SOL    HW231488   6.063   2.540   4.096
10197SOL     OW31489   5.187   0.247   1.973
10197SOL    HW131490   5.121   0.232   2.046
10197SOL    HW231491   5.240   0.164   1.958
10198SOL     OW31492   2.295   6.802   0.918
10198SOL    HW131493   2.219   6.810   0.983
10198SOL    HW231494   2.368   6.864   0.944
10199SOL     OW31495   0.978   1.339   1.035
10199SOL    HW131496   0.923   1.417   1.065
10199SOL    HW231497   1.072   1.368   1.019
10200SOL     OW31498   5.904   4.208   5.221
10200SOL    HW131499   5.949   4.298   5.217
10200SOL    HW231500   5.971   4.136   5.202
10201SOL     OW31501   1.883   5.413   2.689
10201SOL    HW131502   1.888   5.378   2.596
10201SOL    HW231503   1.869   5.512   2.687
10202SOL     OW31504   0.418   2.897   2.413
10202SOL    HW131505   0.328   2.940   2.417
10202SOL    HW231506   0.414   2.809   2.460
10203SOL     OW31507   1.195   3.852   2.513
10203SOL    HW131508   1.101   3.860   2.544
10203SOL    HW231509   1.201   3.871   2.415
10204SOL     OW31510   3.125   4.924   4.521
10204SOL    HW131511   3.214   4.892   4.486
10204SOL    HW231512   3.054   4.860   4.492
10205SOL     OW31513   4.655   1.226   2.904
10205SOL    HW131514   4.700   1.228   2.993
10205SOL    HW231515   4.585   1.155   2.903
10206SOL     OW31516   5.234   6.988   6.378
10206SOL    HW131517   5.333   6.997   6.387
10206SOL    HW231518   5.209   6.892   6.371
10207SOL     OW31519   4.699   0.675   2.719
10207SOL    HW131520   4.770   0.604   2.715
10207SOL    HW231521   4.639   0.657   2.797
10208SOL     OW31522   5.646   4.266   5.299
10208SOL    HW131523   5.627   4.316   5.383
10208SOL    HW231524   5.745   4.266   5.283
10209SOL     OW31525   5.737   6.987   6.265
10209SOL    HW131526   5.807   0.004   6.206
10209SOL    HW231527   5.672   6.936   6.208
10210SOL     OW31528   5.326   5.363   1.626
10210SOL    HW131529   5.311   5.406   1.715
10210SOL    HW231530   5.245   5.311   1.600
10211SOL     OW31531   4.033   5.575   5.174
10211SOL    HW131532   3.986   5.487   5.181
10211SOL    HW231533   4.068   5.586   5.081
10212SOL     OW31534   6.234   0.313   5.310
10212SOL    HW131535   6.261   0.236   5.252
10212SOL    HW231536   6.187   0.278   5.391
10213SOL     OW31537   6.070   0.760   3.308
10213SOL    HW131538   6.065   0.673   3.358
10213SOL    HW231539   6.009   0.827   3.351
10214SOL     OW31540   6.897   0.434   2.084
10214SOL    HW131541   6.849   0.482   2.010
10214SOL    HW231542   6.830   0.386   2.141
10215SOL     OW31543   3.784   3.490   0.463
10215SOL    HW131544   3.858   3.428   0.439
10215SOL    HW231545   3.711   3.483   0.394
10216SOL     OW31546   4.662   0.241   1.383
10216SOL    HW131547   4.651   0.289   1.470
10216SOL    HW231548   4.576   0.195   1.360
10217SOL     OW31549   2.920   1.711   5.416
10217SOL    HW131550   2.927   1.798   5.465
10217SOL    HW231551   2.868   1.725   5.332
10218SOL     OW31552   2.005   2.071   0.502
10218SOL    HW131553   2.067   2.129   0.449
10218SOL    HW231554   1.947   2.129   0.560
10219SOL     OW31555   0.831   3.719   0.031
10219SOL    HW131556   0.855   3.731   0.128
10219SOL    HW231557   0.732   3.711   0.022
10220SOL     OW31558   4.174   2.265   0.728
10220SOL    HW131559   4.200   2.273   0.825
10220SOL    HW231560   4.244   2.213   0.679
10221SOL     OW31561   2.770   0.482   5.225
10221SOL    HW131562   2.769   0.435   5.136
10221SOL    HW231563   2.680   0.475   5.267
10222SOL     OW31564   1.420   5.334   5.548
10222SOL    HW131565   1.463   5.245   5.531
10222SOL    HW231566   1.427   5.356   5.645
10223SOL     OW31567   0.199   4.291   0.353
10223SOL    HW131568   0.289   4.299   0.397
10223SOL    HW231569   0.212   4.269   0.256
10224SOL     OW31570   1.716   6.960   4.586
10224SOL    HW131571   1.766   6.877   4.561
10224SOL    HW231572   1.672   6.948   4.675
10225SOL     OW31573   6.018   6.173   4.161
10225SOL    HW131574   5.974   6.254   4.199
10225SOL    HW231575   6.017   6.178   4.061
10226SOL     OW31576   1.116   1.993   0.982
10226SOL    HW131577   1.028   1.993   0.935
10226SOL    HW231578   1.105   1.953   1.073
10227SOL     OW31579   5.532   5.126   6.174
10227SOL    HW131580   5.521   5.082   6.263
10227SOL    HW231581   5.530   5.057   6.101
10228SOL     OW31582   0.958   4.819   3.279
10228SOL    HW131583   0.879   4.879   3.274
10228SOL    HW231584   0.988   4.810   3.374
10229SOL     OW31585   1.942   0.273   2.537
10229SOL    HW131586   1.925   0.220   2.620
10229SOL    HW231587   1.917   0.369   2.553
10230SOL     OW31588   6.632   0.041   3.951
10230SOL    HW131589   6.570   0.099   3.898
10230SOL    HW231590   6.674   0.094   4.024
10231SOL     OW31591   5.202   0.199   4.126
10231SOL    HW131592   5.150   0.238   4.202
10231SOL    HW231593   5.286   0.157   4.161
10232SOL     OW31594   3.408   2.033   4.910
10232SOL    HW131595   3.498   2.074   4.897
10232SOL    HW231596   3.364   2.018   4.821
10233SOL     OW31597   4.635   1.260   6.014
10233SOL    HW131598   4.611   1.178   5.961
10233SOL    HW231599   4.551   1.309   6.039
10234SOL     OW31600   5.642   6.169   1.784
10234SOL    HW131601   5.565   6.207   1.834
10234SOL    HW231602   5.667   6.229   1.709
10235SOL     OW31603   5.359   1.248   6.649
10235SOL    HW131604   5.424   1.306   6.599
10235SOL    HW231605   5.403   1.213   6.732
10236SOL     OW31606   2.616   5.705   2.197
10236SOL    HW131607   2.546   5.641   2.226
10236SOL    HW231608   2.610   5.789   2.252
10237SOL     OW31609   6.740   2.723   2.667
10237SOL    HW131610   6.742   2.723   2.567
10237SOL    HW231611   6.758   2.631   2.701
10238SOL     OW31612   5.172   4.806   4.442
10238SOL    HW131613   5.152   4.713   4.410
10238SOL    HW231614   5.093   4.865   4.423
10239SOL     OW31615   0.155   4.345   3.496
10239SOL    HW131616   0.118   4.336   3.589
10239SOL    HW231617   0.227   4.278   3.483
10240SOL     OW31618   6.774   4.354   3.740
10240SOL    HW131619   6.766   4.431   3.676
10240SOL    HW231620   6.815   4.276   3.693
10241SOL     OW31621   2.380   1.181   2.678
10241SOL    HW131622   2.299   1.170   2.736
10241SOL    HW231623   2.461   1.190   2.736
10242SOL     OW31624   6.828   6.884   6.359
10242SOL    HW131625   6.839   6.838   6.271
10242SOL    HW231626   6.883   6.838   6.428
10243SOL     OW31627   1.606   5.687   1.922
10243SOL    HW131628   1.640   5.594   1.907
10243SOL    HW231629   1.641   5.721   2.009
10244SOL     OW31630   2.264   6.392   6.809
10244SOL    HW131631   2.280   6.335   6.889
10244SOL    HW231632   2.230   6.482   6.837
10245SOL     OW31633   2.454   2.217   0.042
10245SOL    HW131634   2.455   2.207   0.141
10245SOL    HW231635   2.547   2.235   0.009
10246SOL     OW31636   3.733   3.861   4.531
10246SOL    HW131637   3.740   3.809   4.445
10246SOL    HW231638   3.783   3.947   4.522
10247SOL     OW31639   1.019   5.062   5.242
10247SOL    HW131640   1.068   5.053   5.329
10247SOL    HW231641   1.027   4.976   5.191
10248SOL     OW31642   4.512   0.325   1.761
10248SOL    HW131643   4.421   0.303   1.726
10248SOL    HW231644   4.546   0.407   1.714
10249SOL     OW31645   4.150   1.141   6.984
10249SOL    HW131646   4.208   1.068   6.948
10249SOL    HW231647   4.105   1.188   6.908
10250SOL     OW31648   6.673   0.863   0.047
10250SOL    HW131649   6.597   0.819   0.095
10250SOL    HW231650   6.648   0.956   0.023
10251SOL     OW31651   3.107   4.199   6.940
10251SOL    HW131652   3.055   4.284   6.953
10251SOL    HW231653   3.043   4.124   6.924
10252SOL     OW31654   6.815   5.401   1.988
10252SOL    HW131655   6.907   5.440   1.987
10252SOL    HW231656   6.760   5.443   1.916
10253SOL     OW31657   3.527   5.365   6.629
10253SOL    HW131658   3.597   5.414   6.578
10253SOL    HW231659   3.451   5.342   6.568
10254SOL     OW31660   2.708   2.044   4.790
10254SOL    HW131661   2.656   2.129   4.786
10254SOL    HW231662   2.654   1.970   4.751
10255SOL     OW31663   3.204   6.035   2.590
10255SOL    HW131664   3.260   6.085   2.656
10255SOL    HW231665   3.168   6.098   2.522
10256SOL     OW31666   5.926   6.544   6.533
10256SOL    HW131667   5.920   6.641   6.508
10256SOL    HW231668   6.017   6.525   6.571
10257SOL     OW31669   1.304   6.097   6.011
10257SOL    HW131670   1.231   6.070   5.948
10257SOL    HW231671   1.385   6.122   5.958
10258SOL     OW31672   4.058   0.886   2.983
10258SOL    HW131673   4.157   0.879   2.992
10258SOL    HW231674   4.034   0.978   2.950
10259SOL     OW31675   0.005   4.207   2.908
10259SOL    HW131676   6.993   4.127   2.861
10259SOL    HW231677   6.990   4.212   3.001
10260SOL     OW31678   0.756   0.292   1.440
10260SOL    HW131679   0.774   0.389   1.455
10260SOL    HW231680   0.703   0.255   1.516
10261SOL     OW31681   1.573   6.140   2.025
10261SOL    HW131682   1.574   6.046   2.058
10261SOL    HW231683   1.654   6.157   1.969
10262SOL     OW31684   1.331   5.307   4.892
10262SOL    HW131685   1.306   5.264   4.978
10262SOL    HW231686   1.250   5.318   4.835
10263SOL     OW31687   6.058   2.223   6.463
10263SOL    HW131688   6.001   2.231   6.546
10263SOL    HW231689   6.145   2.182   6.487
10264SOL     OW31690   0.193   0.371   6.331
10264SOL    HW131691   0.201   0.303   6.404
10264SOL    HW231692   0.272   0.432   6.333
10265SOL     OW31693   4.579   1.816   2.094
10265SOL    HW131694   4.599   1.879   2.019
10265SOL    HW231695   4.647   1.743   2.095
10266SOL     OW31696   3.153   4.529   6.775
10266SOL    HW131697   3.105   4.598   6.721
10266SOL    HW231698   3.086   4.475   6.827
10267SOL     OW31699   6.851   1.979   6.289
10267SOL    HW131700   6.829   2.057   6.231
10267SOL    HW231701   6.775   1.914   6.287
10268SOL     OW31702   6.192   5.123   1.612
10268SOL    HW131703   6.268   5.181   1.640
10268SOL    HW231704   6.228   5.034   1.581
10269SOL     OW31705   2.786   2.945   5.976
10269SOL    HW131706   2.864   2.956   5.915
10269SOL    HW231707   2.817   2.902   6.061
10270SOL     OW31708   2.109   5.887   0.790
10270SOL    HW131709   2.057   5.891   0.704
10270SOL    HW231710   2.192   5.942   0.781
10271SOL     OW31711   3.890   4.874   0.778
10271SOL    HW131712   3.919   4.782   0.804
10271SOL    HW231713   3.943   4.905   0.699
10272SOL     OW31714   0.784   0.676   5.934
10272SOL    HW131715   0.856   0.615   5.901
10272SOL    HW231716   0.822   0.742   5.998
10273SOL     OW31717   4.733   6.090   4.367
10273SOL    HW131718   4.795   6.015   4.392
10273SOL    HW231719   4.718   6.148   4.448
10274SOL     OW31720   1.345   5.814   5.780
10274SOL    HW131721   1.315   5.880   5.848
10274SOL    HW231722   1.282   5.736   5.779
10275SOL     OW31723   1.195   6.297   2.397
10275SOL    HW131724   1.123   6.361   2.369
10275SOL    HW231725   1.262   6.289   2.323
10276SOL     OW31726   5.977   5.287   6.291
10276SOL    HW131727   5.979   5.387   6.298
10276SOL    HW231728   6.066   5.254   6.259
10277SOL     OW31729   2.337   6.032   4.187
10277SOL    HW131730   2.399   6.111   4.191
10277SOL    HW231731   2.295   6.018   4.276
10278SOL     OW31732   5.800   0.460   5.392
10278SOL    HW131733   5.704   0.485   5.405
10278SOL    HW231734   5.847   0.532   5.340
10279SOL     OW31735   3.589   6.879   4.047
10279SOL    HW131736   3.656   6.907   3.980
10279SOL    HW231737   3.498   6.875   4.005
10280SOL     OW31738   2.063   3.527   6.285
10280SOL    HW131739   2.073   3.627   6.286
10280SOL    HW231740   2.136   3.486   6.340
10281SOL     OW31741   4.357   0.734   4.014
10281SOL    HW131742   4.383   0.644   3.980
10281SOL    HW231743   4.332   0.794   3.938
10282SOL     OW31744   0.891   1.730   4.400
10282SOL    HW131745   0.947   1.649   4.420
10282SOL    HW231746   0.934   1.811   4.441
10283SOL     OW31747   1.009   3.754   6.621
10283SOL    HW131748   1.017   3.695   6.541
10283SOL    HW231749   1.100   3.773   6.657
10284SOL     OW31750   5.178   2.878   5.438
10284SOL    HW131751   5.250   2.943   5.461
10284SOL    HW231752   5.213   2.809   5.374
10285SOL     OW31753   6.414   6.834   1.075
10285SOL    HW131754   6.397   6.792   1.164
10285SOL    HW231755   6.395   6.932   1.081
10286SOL     OW31756   4.051   0.971   3.603
10286SOL    HW131757   4.046   0.974   3.703
10286SOL    HW231758   4.000   1.048   3.565
10287SOL     OW31759   3.225   6.073   1.231
10287SOL    HW131760   3.134   6.036   1.211
10287SOL    HW231761   3.287   6.052   1.155
10288SOL     OW31762   5.624   6.692   4.004
10288SOL    HW131763   5.597   6.596   4.015
10288SOL    HW231764   5.557   6.752   4.047
10289SOL     OW31765   3.287   0.573   1.935
10289SOL    HW131766   3.344   0.643   1.892
10289SOL    HW231767   3.289   0.490   1.879
10290SOL     OW31768   3.511   3.932   1.989
10290SOL    HW131769   3.415   3.909   2.004
10290SOL    HW231770   3.527   3.950   1.892
10291SOL     OW31771   3.524   0.042   5.619
10291SOL    HW131772   3.511   0.141   5.614
10291SOL    HW231773   3.617   0.019   5.591
10292SOL     OW31774   0.430   1.122   4.978
10292SOL    HW131775   0.414   1.145   5.074
10292SOL    HW231776   0.353   1.153   4.923
10293SOL     OW31777   2.194   6.120   3.400
10293SOL    HW131778   2.098   6.110   3.377
10293SOL    HW231779   2.214   6.073   3.485
10294SOL     OW31780   5.964   1.663   3.049
10294SOL    HW131781   6.027   1.717   3.104
10294SOL    HW231782   5.982   1.678   2.952
10295SOL     OW31783   0.711   5.536   6.225
10295SOL    HW131784   0.651   5.607   6.262
10295SOL    HW231785   0.658   5.452   6.209
10296SOL     OW31786   6.439   2.477   0.319
10296SOL    HW131787   6.384   2.477   0.235
10296SOL    HW231788   6.518   2.536   0.306
10297SOL     OW31789   2.193   5.310   5.033
10297SOL    HW131790   2.198   5.400   4.991
10297SOL    HW231791   2.200   5.239   4.963
10298SOL     OW31792   5.009   3.391   3.783
10298SOL    HW131793   5.079   3.371   3.852
10298SOL    HW231794   4.959   3.473   3.809
10299SOL     OW31795   5.245   4.736   3.061
10299SOL    HW131796   5.339   4.713   3.085
10299SOL    HW231797   5.201   4.657   3.019
10300SOL     OW31798   1.304   4.534   2.792
10300SOL    HW131799   1.225   4.549   2.732
10300SOL    HW231800   1.388   4.543   2.740
10301SOL     OW31801   5.646   1.356   1.391
10301SOL    HW131802   5.683   1.340   1.300
10301SOL    HW231803   5.720   1.375   1.455
10302SOL     OW31804   1.825   5.289   3.196
10302SOL    HW131805   1.810   5.343   3.114
10302SOL    HW231806   1.921   5.261   3.202
10303SOL     OW31807   2.991   3.014   1.065
10303SOL    HW131808   2.972   3.059   1.152
10303SOL    HW231809   3.085   3.034   1.037
10304SOL     OW31810   6.391   6.550   3.062
10304SOL    HW131811   6.347   6.591   2.983
10304SOL    HW231812   6.361   6.597   3.145
10305SOL     OW31813   1.990   5.761   1.002
10305SOL    HW131814   2.044   5.823   0.946
10305SOL    HW231815   1.895   5.761   0.972
10306SOL     OW31816   4.526   5.915   0.050
10306SOL    HW131817   4.479   5.994   0.089
10306SOL    HW231818   4.542   5.847   0.122
10307SOL     OW31819   2.091   1.265   5.642
10307SOL    HW131820   2.149   1.314   5.577
10307SOL    HW231821   2.001   1.249   5.601
10308SOL     OW31822   3.384   5.926   3.746
10308SOL    HW131823   3.297   5.954   3.705
10308SOL    HW231824   3.398   5.829   3.730
10309SOL     OW31825   0.280   6.448   3.580
10309SOL    HW131826   0.296   6.362   3.628
10309SOL    HW231827   0.197   6.492   3.615
10310SOL     OW31828   3.819   3.968   3.470
10310SOL    HW131829   3.906   3.933   3.434
10310SOL    HW231830   3.829   3.988   3.568
10311SOL     OW31831   0.533   5.599   0.614
10311SOL    HW131832   0.450   5.648   0.590
10311SOL    HW231833   0.604   5.664   0.643
10312SOL     OW31834   1.990   4.679   1.190
10312SOL    HW131835   1.897   4.662   1.159
10312SOL    HW231836   2.054   4.656   1.117
10313SOL     OW31837   5.319   6.550   3.154
10313SOL    HW131838   5.291   6.474   3.096
10313SOL    HW231839   5.282   6.636   3.117
10314SOL     OW31840   6.650   6.005   0.474
10314SOL    HW131841   6.697   6.093   0.464
10314SOL    HW231842   6.601   5.984   0.390
10315SOL     OW31843   6.073   5.808   4.626
10315SOL    HW131844   6.103   5.724   4.672
10315SOL    HW231845   5.973   5.810   4.622
10316SOL     OW31846   6.938   4.744   2.733
10316SOL    HW131847   6.875   4.822   2.733
10316SOL    HW231848   7.005   4.754   2.806
10317SOL     OW31849   3.415   4.725   0.649
10317SOL    HW131850   3.456   4.641   0.612
10317SOL    HW231851   3.486   4.794   0.660
10318SOL     OW31852   6.370   5.507   1.852
10318SOL    HW131853   6.316   5.442   1.906
10318SOL    HW231854   6.351   5.600   1.884
10319SOL     OW31855   6.136   6.590   3.384
10319SOL    HW131856   6.118   6.509   3.327
10319SOL    HW231857   6.052   6.644   3.391
10320SOL     OW31858   5.847   6.686   1.630
10320SOL    HW131859   5.930   6.711   1.681
10320SOL    HW231860   5.872   6.660   1.537
10321SOL     OW31861   4.202   5.735   4.630
10321SOL    HW131862   4.174   5.695   4.718
10321SOL    HW231863   4.152   5.820   4.615
10322SOL     OW31864   6.011   2.869   0.223
10322SOL    HW131865   5.994   2.889   0.319
10322SOL    HW231866   5.973   2.942   0.166
10323SOL     OW31867   5.855   3.082   5.001
10323SOL    HW131868   5.869   3.040   5.090
10323SOL    HW231869   5.795   3.024   4.945
10324SOL     OW31870   3.138   3.583   4.005
10324SOL    HW131871   3.190   3.624   3.931
10324SOL    HW231872   3.068   3.647   4.037
10325SOL     OW31873   0.148   3.891   2.971
10325SOL    HW131874   0.190   3.803   2.994
10325SOL    HW231875   0.194   3.930   2.891
10326SOL     OW31876   5.488   2.039   0.813
10326SOL    HW131877   5.453   2.059   0.721
10326SOL    HW231878   5.442   1.958   0.850
10327SOL     OW31879   6.933   0.756   3.706
10327SOL    HW131880   6.952   0.723   3.798
10327SOL    HW231881   6.979   0.843   3.691
10328SOL     OW31882   6.146   2.694   1.614
10328SOL    HW131883   6.186   2.708   1.705
10328SOL    HW231884   6.067   2.632   1.623
10329SOL     OW31885   3.818   6.827   2.640
10329SOL    HW131886   3.797   6.772   2.559
10329SOL    HW231887   3.870   6.908   2.612
10330SOL     OW31888   4.264   5.216   1.381
10330SOL    HW131889   4.283   5.120   1.398
10330SOL    HW231890   4.334   5.273   1.425
10331SOL     OW31891   6.031   0.625   3.755
10331SOL    HW131892   6.048   0.591   3.663
10331SOL    HW231893   6.103   0.593   3.817
10332SOL     OW31894   0.191   2.890   6.471
10332SOL    HW131895   0.257   2.917   6.541
10332SOL    HW231896   0.186   2.961   6.401
10333SOL     OW31897   4.634   4.362   4.723
10333SOL    HW131898   4.662   4.323   4.811
10333SOL    HW231899   4.653   4.296   4.650
10334SOL     OW31900   1.427   4.565   5.534
10334SOL    HW131901   1.498   4.604   5.476
10334SOL    HW231902   1.339   4.571   5.487
10335SOL     OW31903   2.241   5.003   2.088
10335SOL    HW131904   2.333   4.988   2.052
10335SOL    HW231905   2.203   4.917   2.121
10336SOL     OW31906   4.077   6.805   2.787
10336SOL    HW131907   4.095   6.845   2.698
10336SOL    HW231908   4.096   6.707   2.784
10337SOL     OW31909   0.592   5.343   5.283
10337SOL    HW131910   0.689   5.340   5.261
10337SOL    HW231911   0.539   5.307   5.207
10338SOL     OW31912   3.540   5.542   3.453
10338SOL    HW131913   3.461   5.565   3.395
10338SOL    HW231914   3.523   5.575   3.546
10339SOL     OW31915   3.222   5.429   0.811
10339SOL    HW131916   3.190   5.358   0.874
10339SOL    HW231917   3.254   5.508   0.864
10340SOL     OW31918   2.258   0.130   0.190
10340SOL    HW131919   2.354   0.134   0.163
10340SOL    HW231920   2.202   0.098   0.113
10341SOL     OW31921   1.928   1.466   2.374
10341SOL    HW131922   1.928   1.480   2.473
10341SOL    HW231923   2.016   1.496   2.336
10342SOL     OW31924   2.273   6.267   4.657
10342SOL    HW131925   2.279   6.309   4.566
10342SOL    HW231926   2.281   6.338   4.726
10343SOL     OW31927   2.107   3.159   4.940
10343SOL    HW131928   2.125   3.209   5.025
10343SOL    HW231929   2.163   3.077   4.938
10344SOL     OW31930   4.015   4.650   5.725
10344SOL    HW131931   3.940   4.618   5.668
10344SOL    HW231932   4.011   4.749   5.735
10345SOL     OW31933   1.920   1.812   6.754
10345SOL    HW131934   1.874   1.746   6.815
10345SOL    HW231935   2.005   1.772   6.721
10346SOL     OW31936   4.853   5.613   0.034
10346SOL    HW131937   4.871   5.516   0.049
10346SOL    HW231938   4.823   5.655   0.120
10347SOL     OW31939   5.283   1.922   2.358
10347SOL    HW131940   5.300   1.845   2.296
10347SOL    HW231941   5.284   1.889   2.453
10348SOL     OW31942   0.274   5.318   5.731
10348SOL    HW131943   0.309   5.360   5.647
10348SOL    HW231944   0.325   5.351   5.810
10349SOL     OW31945   0.227   1.829   0.518
10349SOL    HW131946   0.285   1.775   0.457
10349SOL    HW231947   0.228   1.788   0.609
10350SOL     OW31948   2.256   4.477   4.660
10350SOL    HW131949   2.326   4.429   4.713
10350SOL    HW231950   2.221   4.416   4.588
10351SOL     OW31951   4.608   4.538   5.068
10351SOL    HW131952   4.513   4.537   5.036
10351SOL    HW231953   4.654   4.618   5.029
10352SOL     OW31954   5.394   1.499   0.101
10352SOL    HW131955   5.434   1.589   0.086
10352SOL    HW231956   5.298   1.508   0.128
10353SOL     OW31957   6.345   2.398   4.005
10353SOL    HW131958   6.387   2.483   3.974
10353SOL    HW231959   6.374   2.323   3.946
10354SOL     OW31960   0.393   3.155   1.288
10354SOL    HW131961   0.365   3.059   1.286
10354SOL    HW231962   0.485   3.164   1.250
10355SOL     OW31963   0.378   1.929   1.200
10355SOL    HW131964   0.298   1.981   1.231
10355SOL    HW231965   0.456   1.948   1.259
10356SOL     OW31966   6.293   3.535   6.011
10356SOL    HW131967   6.255   3.452   5.970
10356SOL    HW231968   6.393   3.534   6.002
10357SOL     OW31969   1.065   2.711   5.410
10357SOL    HW131970   1.072   2.748   5.502
10357SOL    HW231971   1.156   2.705   5.370
10358SOL     OW31972   0.709   2.415   3.145
10358SOL    HW131973   0.751   2.454   3.063
10358SOL    HW231974   0.773   2.354   3.191
10359SOL     OW31975   6.365   2.098   2.286
10359SOL    HW131976   6.382   2.195   2.302
10359SOL    HW231977   6.370   2.049   2.373
10360SOL     OW31978   5.944   4.216   1.715
10360SOL    HW131979   5.943   4.164   1.800
10360SOL    HW231980   5.870   4.284   1.717
10361SOL     OW31981   0.428   1.800   2.056
10361SOL    HW131982   0.519   1.761   2.047
10361SOL    HW231983   0.412   1.866   1.983
10362SOL     OW31984   1.179   5.143   1.468
10362SOL    HW131985   1.157   5.185   1.379
10362SOL    HW231986   1.260   5.189   1.507
10363SOL     OW31987   5.272   4.129   6.771
10363SOL    HW131988   5.261   4.208   6.710
10363SOL    HW231989   5.223   4.051   6.733
10364SOL     OW31990   5.879   4.457   1.914
10364SOL    HW131991   5.805   4.389   1.915
10364SOL    HW231992   5.847   4.542   1.953
10365SOL     OW31993   5.554   5.789   0.340
10365SOL    HW131994   5.644   5.765   0.305
10365SOL    HW231995   5.497   5.706   0.344
10366SOL     OW31996   2.633   5.935   3.687
10366SOL    HW131997   2.698   5.966   3.618
10366SOL    HW231998   2.680   5.923   3.774
10367SOL     OW31999   6.128   0.659   1.546
10367SOL    HW132000   6.067   0.642   1.468
10367SOL    HW232001   6.157   0.755   1.546
10368SOL     OW32002   2.308   6.167   2.568
10368SOL    HW132003   2.351   6.143   2.482
10368SOL    HW232004   2.229   6.107   2.584
10369SOL     OW32005   2.685   0.228   6.424
10369SOL    HW132006   2.784   0.223   6.440
10369SOL    HW232007   2.653   0.321   6.440
10370SOL     OW32008   1.046   0.818   6.173
10370SOL    HW132009   1.082   0.793   6.083
10370SOL    HW232010   1.074   0.911   6.196
10371SOL     OW32011   3.854   5.797   3.159
10371SOL    HW132012   3.889   5.875   3.211
10371SOL    HW232013   3.902   5.790   3.072
10372SOL     OW32014   3.000   6.527   1.891
10372SOL    HW132015   3.076   6.462   1.887
10372SOL    HW232016   3.013   6.597   1.821
10373SOL     OW32017   0.991   1.135   5.427
10373SOL    HW132018   0.952   1.155   5.337
10373SOL    HW232019   0.932   1.071   5.476
10374SOL     OW32020   4.091   5.718   3.994
10374SOL    HW132021   4.174   5.664   3.986
10374SOL    HW232022   4.104   5.791   4.062
10375SOL     OW32023   2.222   3.796   7.001
10375SOL    HW132024   2.162   3.875   7.011
10375SOL    HW232025   2.168   3.716   6.973
10376SOL     OW32026   1.828   4.523   3.249
10376SOL    HW132027   1.915   4.475   3.257
10376SOL    HW232028   1.768   4.496   3.325
10377SOL     OW32029   1.676   0.446   2.527
10377SOL    HW132030   1.691   0.353   2.493
10377SOL    HW232031   1.765   0.491   2.539
10378SOL     OW32032   0.329   4.750   3.721
10378SOL    HW132033   0.418   4.730   3.761
10378SOL    HW232034   0.309   4.684   3.648
10379SOL     OW32035   1.800   6.707   4.547
10379SOL    HW132036   1.809   6.646   4.468
10379SOL    HW232037   1.824   6.657   4.631
10380SOL     OW32038   2.191   2.600   4.750
10380SOL    HW132039   2.232   2.691   4.759
10380SOL    HW232040   2.232   2.538   4.816
10381SOL     OW32041   4.620   4.694   2.313
10381SOL    HW132042   4.615   4.633   2.234
10381SOL    HW232043   4.529   4.705   2.353
10382SOL     OW32044   3.895   5.592   2.349
10382SOL    HW132045   3.927   5.507   2.390
10382SOL    HW232046   3.819   5.573   2.287
10383SOL     OW32047   1.901   4.160   0.229
10383SOL    HW132048   1.814   4.112   0.241
10383SOL    HW232049   1.970   4.121   0.289
10384SOL     OW32050   6.381   6.745   1.721
10384SOL    HW132051   6.344   6.765   1.812
10384SOL    HW232052   6.332   6.666   1.683
10385SOL     OW32053   4.261   4.579   0.088
10385SOL    HW132054   4.341   4.519   0.091
10385SOL    HW232055   4.279   4.655   0.025
10386SOL     OW32056   0.058   1.318   0.276
10386SOL    HW132057   0.122   1.254   0.319
10386SOL    HW232058   0.108   1.374   0.210
10387SOL     OW32059   5.203   2.829   2.052
10387SOL    HW132060   5.137   2.827   1.977
10387SOL    HW232061   5.200   2.918   2.097
10388SOL     OW32062   2.808   0.799   5.532
10388SOL    HW132063   2.827   0.709   5.570
10388SOL    HW232064   2.710   0.810   5.518
10389SOL     OW32065   1.028   3.602   0.733
10389SOL    HW132066   0.974   3.608   0.650
10389SOL    HW232067   0.974   3.635   0.811
10390SOL     OW32068   2.207   2.651   1.674
10390SOL    HW132069   2.273   2.676   1.745
10390SOL    HW232070   2.239   2.687   1.586
10391SOL     OW32071   5.355   6.799   4.013
10391SOL    HW132072   5.302   6.843   4.085
10391SOL    HW232073   5.318   6.707   3.997
10392SOL     OW32074   6.755   4.942   3.964
10392SOL    HW132075   6.851   4.960   3.986
10392SOL    HW232076   6.709   5.027   3.941
10393SOL     OW32077   1.359   4.094   3.489
10393SOL    HW132078   1.361   4.063   3.394
10393SOL    HW232079   1.302   4.176   3.496
10394SOL     OW32080   2.697   6.039   4.346
10394SOL    HW132081   2.796   6.040   4.331
10394SOL    HW232082   2.656   5.963   4.296
10395SOL     OW32083   0.596   0.337   0.663
10395SOL    HW132084   0.674   0.360   0.606
10395SOL    HW232085   0.628   0.302   0.752
10396SOL     OW32086   2.799   1.760   4.753
10396SOL    HW132087   2.840   1.816   4.825
10396SOL    HW232088   2.703   1.787   4.741
10397SOL     OW32089   3.303   2.105   2.233
10397SOL    HW132090   3.357   2.189   2.245
10397SOL    HW232091   3.209   2.121   2.264
10398SOL     OW32092   6.947   2.633   1.694
10398SOL    HW132093   6.873   2.663   1.754
10398SOL    HW232094   7.009   2.709   1.677
10399SOL     OW32095   6.589   3.251   1.852
10399SOL    HW132096   6.593   3.184   1.926
10399SOL    HW232097   6.557   3.338   1.889
10400SOL     OW32098   3.759   6.994   0.627
10400SOL    HW132099   3.724   0.063   0.629
10400SOL    HW232100   3.742   6.950   0.716
10401SOL     OW32101   6.631   0.580   4.571
10401SOL    HW132102   6.570   0.619   4.502
10401SOL    HW232103   6.665   0.492   4.539
10402SOL     OW32104   6.259   3.010   4.672
10402SOL    HW132105   6.222   3.037   4.761
10402SOL    HW232106   6.249   3.085   4.607
10403SOL     OW32107   2.849   0.313   3.385
10403SOL    HW132108   2.948   0.329   3.383
10403SOL    HW232109   2.802   0.397   3.358
10404SOL     OW32110   0.080   6.457   6.125
10404SOL    HW132111   0.041   6.368   6.149
10404SOL    HW232112   0.104   6.459   6.028
10405SOL     OW32113   0.218   1.406   5.936
10405SOL    HW132114   0.255   1.481   5.991
10405SOL    HW232115   0.159   1.349   5.994
10406SOL     OW32116   3.412   4.921   1.506
10406SOL    HW132117   3.391   4.866   1.586
10406SOL    HW232118   3.339   4.912   1.438
10407SOL     OW32119   3.423   6.865   0.044
10407SOL    HW132120   3.352   6.853   0.113
10407SOL    HW232121   3.394   6.823   6.982
10408SOL     OW32122   4.344   0.572   0.374
10408SOL    HW132123   4.282   0.521   0.315
10408SOL    HW232124   4.318   0.560   0.470
10409SOL     OW32125   6.352   4.760   0.327
10409SOL    HW132126   6.412   4.782   0.250
10409SOL    HW232127   6.352   4.662   0.343
10410SOL     OW32128   5.817   1.339   0.263
10410SOL    HW132129   5.741   1.276   0.249
10410SOL    HW232130   5.822   1.403   0.187
10411SOL     OW32131   2.272   5.222   3.320
10411SOL    HW132132   2.260   5.129   3.355
10411SOL    HW232133   2.255   5.288   3.393
10412SOL     OW32134   5.658   1.272   0.962
10412SOL    HW132135   5.753   1.295   0.983
10412SOL    HW232136   5.655   1.203   0.889
10413SOL     OW32137   6.601   2.166   1.378
10413SOL    HW132138   6.572   2.200   1.289
10413SOL    HW232139   6.600   2.241   1.445
10414SOL     OW32140   5.179   3.165   5.100
10414SOL    HW132141   5.206   3.258   5.074
10414SOL    HW232142   5.210   3.100   5.030
10415SOL     OW32143   0.576   5.784   6.352
10415SOL    HW132144   0.558   5.844   6.274
10415SOL    HW232145   0.493   5.735   6.377
10416SOL     OW32146   6.220   2.810   4.487
10416SOL    HW132147   6.161   2.851   4.417
10416SOL    HW232148   6.239   2.877   4.558
10417SOL     OW32149   2.828   4.800   4.134
10417SOL    HW132150   2.742   4.825   4.091
10417SOL    HW232151   2.837   4.700   4.137
10418SOL     OW32152   0.696   4.363   5.407
10418SOL    HW132153   0.685   4.450   5.359
10418SOL    HW232154   0.768   4.309   5.362
10419SOL     OW32155   0.990   0.640   0.479
10419SOL    HW132156   0.997   0.547   0.442
10419SOL    HW232157   0.950   0.701   0.410
10420SOL     OW32158   0.173   3.377   2.895
10420SOL    HW132159   0.107   3.302   2.892
10420SOL    HW232160   0.257   3.351   2.847
10421SOL     OW32161   1.330   0.858   3.595
10421SOL    HW132162   1.381   0.940   3.621
10421SOL    HW232163   1.259   0.882   3.530
10422SOL     OW32164   6.733   2.634   5.643
10422SOL    HW132165   6.658   2.607   5.703
10422SOL    HW232166   6.819   2.593   5.675
10423SOL     OW32167   5.170   4.552   4.346
10423SOL    HW132168   5.075   4.562   4.316
10423SOL    HW232169   5.171   4.510   4.437
10424SOL     OW32170   5.202   1.763   6.872
10424SOL    HW132171   5.168   1.784   6.781
10424SOL    HW232172   5.295   1.798   6.882
10425SOL     OW32173   1.589   6.139   2.382
10425SOL    HW132174   1.606   6.200   2.459
10425SOL    HW232175   1.525   6.181   2.318
10426SOL     OW32176   6.162   4.072   0.785
10426SOL    HW132177   6.256   4.039   0.791
10426SOL    HW232178   6.107   4.028   0.856
10427SOL     OW32179   4.895   2.317   0.874
10427SOL    HW132180   4.813   2.281   0.831
10427SOL    HW232181   4.882   2.414   0.896
10428SOL     OW32182   4.162   0.731   4.929
10428SOL    HW132183   4.138   0.716   4.833
10428SOL    HW232184   4.231   0.804   4.934
10429SOL     OW32185   6.785   5.771   1.327
10429SOL    HW132186   6.729   5.802   1.404
10429SOL    HW232187   6.747   5.806   1.242
10430SOL     OW32188   4.091   6.742   3.457
10430SOL    HW132189   4.143   6.752   3.373
10430SOL    HW232190   4.131   6.801   3.528
10431SOL     OW32191   2.885   0.337   5.463
10431SOL    HW132192   2.855   0.372   5.374
10431SOL    HW232193   2.806   0.312   5.518
10432SOL     OW32194   6.217   0.815   3.970
10432SOL    HW132195   6.186   0.721   3.988
10432SOL    HW232196   6.288   0.814   3.900
10433SOL     OW32197   2.274   6.487   1.567
10433SOL    HW132198   2.353   6.430   1.591
10433SOL    HW232199   2.196   6.429   1.544
10434SOL     OW32200   3.472   0.065   3.449
10434SOL    HW132201   3.539   0.136   3.472
10434SOL    HW232202   3.466   7.023   3.525
10435SOL     OW32203   6.032   6.612   5.655
10435SOL    HW132204   6.122   6.628   5.696
10435SOL    HW232205   6.015   6.513   5.650
10436SOL     OW32206   0.506   5.256   4.293
10436SOL    HW132207   0.546   5.193   4.226
10436SOL    HW232208   0.407   5.259   4.280
10437SOL     OW32209   6.327   5.011   5.852
10437SOL    HW132210   6.320   4.922   5.896
10437SOL    HW232211   6.274   5.078   5.903
10438SOL     OW32212   5.325   6.721   0.407
10438SOL    HW132213   5.357   6.786   0.338
10438SOL    HW232214   5.227   6.734   0.422
10439SOL     OW32215   3.785   0.002   5.555
10439SOL    HW132216   3.788   6.926   5.563
10439SOL    HW232217   3.822   0.043   5.638
10440SOL     OW32218   0.864   6.727   1.140
10440SOL    HW132219   0.822   6.780   1.214
10440SOL    HW232220   0.954   6.694   1.170
10441SOL     OW32221   5.309   1.586   6.534
10441SOL    HW132222   5.223   1.542   6.558
10441SOL    HW232223   5.308   1.613   6.438
10442SOL     OW32224   3.248   5.214   5.459
10442SOL    HW132225   3.254   5.174   5.550
10442SOL    HW232226   3.154   5.209   5.427
10443SOL     OW32227   6.193   3.922   4.631
10443SOL    HW132228   6.154   3.925   4.539
10443SOL    HW232229   6.268   3.856   4.633
10444SOL     OW32230   3.610   5.411   4.789
10444SOL    HW132231   3.556   5.346   4.843
10444SOL    HW232232   3.700   5.421   4.831
10445SOL     OW32233   6.484   5.389   4.615
10445SOL    HW132234   6.436   5.307   4.586
10445SOL    HW232235   6.570   5.398   4.565
10446SOL     OW32236   0.595   4.365   6.345
10446SOL    HW132237   0.527   4.360   6.419
10446SOL    HW232238   0.611   4.274   6.308
10447SOL     OW32239   6.833   2.050   1.231
10447SOL    HW132240   6.795   2.081   1.318
10447SOL    HW232241   6.877   1.961   1.243
10448SOL     OW32242   3.715   4.107   1.387
10448SOL    HW132243   3.718   4.119   1.486
10448SOL    HW232244   3.756   4.020   1.362
10449SOL     OW32245   2.442   5.552   4.562
10449SOL    HW132246   2.458   5.541   4.464
10449SOL    HW232247   2.436   5.461   4.605
10450SOL     OW32248   6.971   2.161   0.352
10450SOL    HW132249   6.927   2.073   0.331
10450SOL    HW232250   6.918   2.235   0.311
10451SOL     OW32251   2.326   4.341   2.849
10451SOL    HW132252   2.313   4.297   2.937
10451SOL    HW232253   2.288   4.283   2.776
10452SOL     OW32254   0.599   3.096   3.899
10452SOL    HW132255   0.564   3.004   3.884
10452SOL    HW232256   0.698   3.093   3.910
10453SOL     OW32257   5.506   5.494   1.462
10453SOL    HW132258   5.462   5.431   1.526
10453SOL    HW232259   5.564   5.443   1.399
10454SOL     OW32260   5.198   3.048   2.228
10454SOL    HW132261   5.108   3.073   2.193
10454SOL    HW232262   5.194   3.037   2.327
10455SOL     OW32263   0.365   5.092   3.931
10455SOL    HW132264   0.368   5.069   3.833
10455SOL    HW232265   0.358   5.191   3.941
10456SOL     OW32266   3.848   6.197   1.098
10456SOL    HW132267   3.864   6.160   1.007
10456SOL    HW232268   3.774   6.146   1.142
10457SOL     OW32269   4.053   3.856   3.377
10457SOL    HW132270   4.047   3.777   3.439
10457SOL    HW232271   4.083   3.826   3.287
10458SOL     OW32272   1.151   6.601   1.095
10458SOL    HW132273   1.135   6.594   1.193
10458SOL    HW232274   1.120   6.518   1.049
10459SOL     OW32275   6.016   5.067   2.107
10459SOL    HW132276   5.919   5.089   2.094
10459SOL    HW232277   6.069   5.102   2.030
10460SOL     OW32278   3.021   5.060   2.147
10460SOL    HW132279   3.034   5.085   2.051
10460SOL    HW232280   2.997   4.962   2.153
10461SOL     OW32281   2.559   0.023   6.570
10461SOL    HW132282   2.599   0.094   6.512
10461SOL    HW232283   2.560   6.959   6.522
10462SOL     OW32284   6.249   0.730   1.003
10462SOL    HW132285   6.315   0.730   1.078
10462SOL    HW232286   6.165   0.684   1.033
10463SOL     OW32287   3.133   4.299   0.328
10463SOL    HW132288   3.052   4.245   0.305
10463SOL    HW232289   3.131   4.386   0.279
10464SOL     OW32290   4.677   0.368   0.449
10464SOL    HW132291   4.650   0.277   0.417
10464SOL    HW232292   4.634   0.386   0.537
10465SOL     OW32293   0.157   5.424   6.188
10465SOL    HW132294   0.070   5.462   6.155
10465SOL    HW232295   0.140   5.360   6.263
10466SOL     OW32296   4.593   5.725   5.136
10466SOL    HW132297   4.575   5.764   5.046
10466SOL    HW232298   4.690   5.702   5.144
10467SOL     OW32299   2.279   1.771   5.317
10467SOL    HW132300   2.317   1.700   5.376
10467SOL    HW232301   2.299   1.861   5.356
10468SOL     OW32302   3.065   6.695   4.579
10468SOL    HW132303   3.041   6.773   4.637
10468SOL    HW232304   2.984   6.665   4.528
10469SOL     OW32305   1.668   4.079   0.697
10469SOL    HW132306   1.750   4.061   0.751
10469SOL    HW232307   1.678   4.166   0.649
10470SOL     OW32308   2.688   1.436   3.749
10470SOL    HW132309   2.663   1.408   3.842
10470SOL    HW232310   2.613   1.414   3.687
10471SOL     OW32311   2.764   3.599   1.344
10471SOL    HW132312   2.717   3.518   1.380
10471SOL    HW232313   2.711   3.638   1.268
10472SOL     OW32314   3.670   0.528   1.718
10472SOL    HW132315   3.729   0.585   1.774
10472SOL    HW232316   3.631   0.455   1.774
10473SOL     OW32317   5.475   6.197   0.275
10473SOL    HW132318   5.574   6.186   0.266
10473SOL    HW232319   5.431   6.107   0.274
10474SOL     OW32320   3.949   0.395   4.628
10474SOL    HW132321   4.015   0.394   4.703
10474SOL    HW232322   3.977   0.462   4.559
10475SOL     OW32323   3.843   0.030   1.416
10475SOL    HW132324   3.782   0.098   1.458
10475SOL    HW232325   3.938   0.053   1.436
10476SOL     OW32326   6.789   5.322   6.382
10476SOL    HW132327   6.747   5.256   6.321
10476SOL    HW232328   6.740   5.409   6.376
10477SOL     OW32329   6.044   4.245   4.817
10477SOL    HW132330   5.962   4.224   4.870
10477SOL    HW232331   6.117   4.183   4.843
10478SOL     OW32332   0.148   6.163   0.998
10478SOL    HW132333   0.198   6.156   0.912
10478SOL    HW232334   0.118   6.072   1.027
10479SOL     OW32335   1.962   3.615   2.716
10479SOL    HW132336   2.014   3.610   2.630
10479SOL    HW232337   2.005   3.554   2.784
10480SOL     OW32338   5.543   6.774   2.343
10480SOL    HW132339   5.565   6.871   2.360
10480SOL    HW232340   5.625   6.719   2.355
10481SOL     OW32341   1.781   0.420   4.906
10481SOL    HW132342   1.682   0.432   4.919
10481SOL    HW232343   1.807   0.453   4.816
10482SOL     OW32344   1.268   6.040   4.805
10482SOL    HW132345   1.231   6.102   4.874
10482SOL    HW232346   1.222   5.951   4.812
10483SOL     OW32347   0.001   5.746   6.876
10483SOL    HW132348   6.968   5.815   6.829
10483SOL    HW232349   0.037   5.784   6.961
10484SOL     OW32350   0.653   1.412   1.819
10484SOL    HW132351   0.581   1.397   1.886
10484SOL    HW232352   0.629   1.368   1.733
10485SOL     OW32353   3.321   3.752   3.381
10485SOL    HW132354   3.231   3.793   3.393
10485SOL    HW232355   3.377   3.771   3.462
10486SOL     OW32356   6.074   6.444   5.020
10486SOL    HW132357   6.053   6.540   5.036
10486SOL    HW232358   5.989   6.392   5.018
10487SOL     OW32359   4.255   1.957   1.738
10487SOL    HW132360   4.220   1.945   1.832
10487SOL    HW232361   4.180   1.987   1.679
10488SOL     OW32362   6.838   2.045   5.084
10488SOL    HW132363   6.768   2.005   5.143
10488SOL    HW232364   6.827   2.145   5.082
10489SOL     OW32365   5.723   4.286   4.054
10489SOL    HW132366   5.727   4.384   4.035
10489SOL    HW232367   5.681   4.271   4.144
10490SOL     OW32368   5.759   6.248   6.541
10490SOL    HW132369   5.829   6.319   6.545
10490SOL    HW232370   5.723   6.240   6.448
10491SOL     OW32371   1.166   3.103   6.223
10491SOL    HW132372   1.243   3.073   6.279
10491SOL    HW232373   1.197   3.171   6.157
10492SOL     OW32374   4.285   0.559   0.668
10492SOL    HW132375   4.205   0.508   0.636
10492SOL    HW232376   4.280   0.568   0.768
10493SOL     OW32377   4.111   5.618   0.768
10493SOL    HW132378   4.172   5.666   0.830
10493SOL    HW232379   4.109   5.664   0.680
10494SOL     OW32380   0.819   4.374   5.850
10494SOL    HW132381   0.822   4.402   5.946
10494SOL    HW232382   0.746   4.424   5.804
10495SOL     OW32383   0.466   6.507   6.526
10495SOL    HW132384   0.391   6.472   6.470
10495SOL    HW232385   0.455   6.475   6.620
10496SOL     OW32386   6.866   3.963   5.464
10496SOL    HW132387   6.940   3.909   5.504
10496SOL    HW232388   6.840   4.036   5.526
10497SOL     OW32389   2.407   6.566   1.344
10497SOL    HW132390   2.330   6.564   1.408
10497SOL    HW232391   2.486   6.608   1.390
10498SOL     OW32392   4.503   5.512   0.395
10498SOL    HW132393   4.437   5.437   0.387
10498SOL    HW232394   4.581   5.482   0.449
10499SOL     OW32395   6.046   4.820   2.005
10499SOL    HW132396   6.084   4.813   1.912
10499SOL    HW232397   6.071   4.909   2.045
10500SOL     OW32398   6.549   4.080   5.867
10500SOL    HW132399   6.560   3.981   5.859
10500SOL    HW232400   6.611   4.115   5.938
10501SOL     OW32401   2.919   5.423   2.650
10501SOL    HW132402   2.916   5.326   2.628
10501SOL    HW232403   2.868   5.440   2.734
10502SOL     OW32404   3.062   4.029   2.324
10502SOL    HW132405   3.107   4.023   2.413
10502SOL    HW232406   3.053   4.125   2.298
10503SOL     OW32407   6.011   2.610   6.868
10503SOL    HW132408   5.972   2.702   6.872
10503SOL    HW232409   5.980   2.565   6.784
10504SOL     OW32410   1.447   2.679   6.356
10504SOL    HW132411   1.390   2.657   6.277
10504SOL    HW232412   1.508   2.602   6.374
10505SOL     OW32413   5.683   6.828   1.315
10505SOL    HW132414   5.739   6.907   1.291
10505SOL    HW232415   5.602   6.825   1.256
10506SOL     OW32416   1.108   2.518   0.662
10506SOL    HW132417   1.100   2.581   0.739
10506SOL    HW232418   1.094   2.569   0.576
10507SOL     OW32419   1.755   4.845   6.040
10507SOL    HW132420   1.729   4.903   6.116
10507SOL    HW232421   1.687   4.851   5.967
10508SOL     OW32422   1.161   5.500   5.112
10508SOL    HW132423   1.082   5.476   5.055
10508SOL    HW232424   1.228   5.426   5.108
10509SOL     OW32425   4.877   2.663   3.557
10509SOL    HW132426   4.861   2.735   3.624
10509SOL    HW232427   4.967   2.623   3.572
10510SOL     OW32428   5.360   5.469   4.045
10510SOL    HW132429   5.396   5.495   4.135
10510SOL    HW232430   5.263   5.494   4.039
10511SOL     OW32431   3.767   2.102   2.317
10511SOL    HW132432   3.838   2.038   2.289
10511SOL    HW232433   3.741   2.159   2.239
10512SOL     OW32434   4.389   1.198   4.991
10512SOL    HW132435   4.460   1.245   4.938
10512SOL    HW232436   4.301   1.209   4.946
10513SOL     OW32437   5.372   3.009   1.723
10513SOL    HW132438   5.343   3.086   1.780
10513SOL    HW232439   5.383   2.928   1.781
10514SOL     OW32440   0.748   3.307   1.511
10514SOL    HW132441   0.717   3.227   1.458
10514SOL    HW232442   0.682   3.325   1.584
10515SOL     OW32443   1.975   2.814   5.305
10515SOL    HW132444   1.984   2.899   5.357
10515SOL    HW232445   2.011   2.828   5.213
10516SOL     OW32446   3.753   2.374   1.222
10516SOL    HW132447   3.774   2.399   1.316
10516SOL    HW232448   3.714   2.453   1.174
10517SOL     OW32449   1.024   2.797   3.712
10517SOL    HW132450   0.956   2.869   3.725
10517SOL    HW232451   0.978   2.709   3.697
10518SOL     OW32452   0.949   5.504   2.628
10518SOL    HW132453   1.039   5.472   2.655
10518SOL    HW232454   0.885   5.495   2.704
10519SOL     OW32455   3.350   6.342   0.866
10519SOL    HW132456   3.263   6.380   0.835
10519SOL    HW232457   3.420   6.413   0.863
10520SOL     OW32458   0.243   2.103   5.083
10520SOL    HW132459   0.163   2.133   5.135
10520SOL    HW232460   0.239   2.004   5.070
10521SOL     OW32461   6.610   2.985   1.263
10521SOL    HW132462   6.545   2.912   1.243
10521SOL    HW232463   6.573   3.073   1.231
10522SOL     OW32464   5.221   2.452   4.063
10522SOL    HW132465   5.249   2.358   4.040
10522SOL    HW232466   5.121   2.457   4.065
10523SOL     OW32467   6.793   4.450   3.254
10523SOL    HW132468   6.768   4.443   3.351
10523SOL    HW232469   6.872   4.510   3.244
10524SOL     OW32470   6.287   6.868   5.049
10524SOL    HW132471   6.220   6.895   4.979
10524SOL    HW232472   6.241   6.814   5.120
10525SOL     OW32473   4.809   1.600   4.848
10525SOL    HW132474   4.861   1.686   4.852
10525SOL    HW232475   4.872   1.523   4.846
10526SOL     OW32476   1.880   4.953   0.605
10526SOL    HW132477   1.862   5.020   0.677
10526SOL    HW232478   1.828   4.869   0.624
10527SOL     OW32479   1.026   0.075   4.632
10527SOL    HW132480   1.040   7.023   4.695
10527SOL    HW232481   1.078   0.059   4.548
10528SOL     OW32482   0.825   3.791   5.831
10528SOL    HW132483   0.874   3.797   5.744
10528SOL    HW232484   0.875   3.844   5.900
10529SOL     OW32485   1.183   5.910   0.067
10529SOL    HW132486   1.119   5.985   0.050
10529SOL    HW232487   1.154   5.829   0.015
10530SOL     OW32488   0.239   6.619   0.719
10530SOL    HW132489   0.179   6.657   0.649
10530SOL    HW232490   0.320   6.678   0.728
10531SOL     OW32491   2.672   2.919   5.426
10531SOL    HW132492   2.691   2.942   5.521
10531SOL    HW232493   2.611   2.987   5.386
10532SOL     OW32494   5.592   6.063   6.665
10532SOL    HW132495   5.545   6.060   6.577
10532SOL    HW232496   5.689   6.085   6.651
10533SOL     OW32497   2.653   5.253   3.391
10533SOL    HW132498   2.655   5.177   3.456
10533SOL    HW232499   2.618   5.335   3.436
10534SOL     OW32500   1.387   6.114   2.996
10534SOL    HW132501   1.368   6.166   2.913
10534SOL    HW232502   1.430   6.173   3.064
10535SOL     OW32503   3.083   2.095   2.708
10535SOL    HW132504   3.044   2.035   2.639
10535SOL    HW232505   3.181   2.102   2.696
10536SOL     OW32506   5.691   1.472   4.024
10536SOL    HW132507   5.631   1.416   4.080
10536SOL    HW232508   5.655   1.478   3.932
10537SOL     OW32509   4.108   0.439   3.768
10537SOL    HW132510   4.026   0.479   3.729
10537SOL    HW232511   4.125   0.349   3.727
10538SOL     OW32512   6.455   3.299   2.765
10538SOL    HW132513   6.481   3.219   2.818
10538SOL    HW232514   6.409   3.271   2.681
10539SOL     OW32515   6.819   0.392   3.168
10539SOL    HW132516   6.719   0.398   3.173
10539SOL    HW232517   6.859   0.425   3.253
10540SOL     OW32518   2.581   3.481   6.211
10540SOL    HW132519   2.560   3.577   6.191
10540SOL    HW232520   2.501   3.424   6.189
10541SOL     OW32521   3.181   3.243   5.179
10541SOL    HW132522   3.267   3.255   5.228
10541SOL    HW232523   3.171   3.147   5.153
10542SOL     OW32524   4.803   0.041   4.136
10542SOL    HW132525   4.832   0.069   4.045
10542SOL    HW232526   4.857   6.986   4.166
10543SOL     OW32527   0.437   3.449   5.152
10543SOL    HW132528   0.432   3.375   5.085
10543SOL    HW232529   0.411   3.535   5.108
10544SOL     OW32530   1.849   1.161   3.379
10544SOL    HW132531   1.780   1.209   3.432
10544SOL    HW232532   1.899   1.226   3.321
10545SOL     OW32533   2.035   2.002   2.941
10545SOL    HW132534   2.056   2.093   2.907
10545SOL    HW232535   2.058   1.996   3.038
10546SOL     OW32536   3.186   6.786   0.216
10546SOL    HW132537   3.116   6.830   0.273
10546SOL    HW232538   3.149   6.769   0.125
10547SOL     OW32539   3.981   0.345   5.173
10547SOL    HW132540   3.927   0.314   5.251
10547SOL    HW232541   3.945   0.304   5.089
10548SOL     OW32542   0.304   4.917   4.337
10548SOL    HW132543   0.264   4.826   4.344
10548SOL    HW232544   0.376   4.928   4.407
10549SOL     OW32545   0.065   1.212   0.686
10549SOL    HW132546   7.003   1.243   0.728
10549SOL    HW232547   0.101   1.285   0.628
10550SOL     OW32548   4.223   6.505   3.817
10550SOL    HW132549   4.181   6.419   3.845
10550SOL    HW232550   4.320   6.489   3.796
10551SOL     OW32551   3.376   2.044   5.808
10551SOL    HW132552   3.291   1.997   5.787
10551SOL    HW232553   3.408   2.094   5.727
10552SOL     OW32554   3.294   0.994   4.501
10552SOL    HW132555   3.279   1.093   4.499
10552SOL    HW232556   3.346   0.970   4.582
10553SOL     OW32557   0.249   5.165   0.441
10553SOL    HW132558   0.157   5.177   0.477
10553SOL    HW232559   0.245   5.118   0.353
10554SOL     OW32560   6.361   5.327   2.426
10554SOL    HW132561   6.381   5.266   2.503
10554SOL    HW232562   6.419   5.408   2.434
10555SOL     OW32563   3.716   2.941   0.516
10555SOL    HW132564   3.684   3.003   0.587
10555SOL    HW232565   3.742   2.994   0.435
10556SOL     OW32566   2.066   1.586   3.317
10556SOL    HW132567   2.143   1.646   3.341
10556SOL    HW232568   1.995   1.640   3.271
10557SOL     OW32569   1.858   4.256   3.701
10557SOL    HW132570   1.767   4.263   3.740
10557SOL    HW232571   1.915   4.331   3.733
10558SOL     OW32572   2.479   5.468   5.550
10558SOL    HW132573   2.454   5.456   5.646
10558SOL    HW232574   2.567   5.516   5.545
10559SOL     OW32575   4.041   6.725   6.313
10559SOL    HW132576   4.023   6.635   6.354
10559SOL    HW232577   4.033   6.796   6.383
10560SOL     OW32578   5.572   6.564   2.120
10560SOL    HW132579   5.478   6.579   2.152
10560SOL    HW232580   5.580   6.597   2.026
10561SOL     OW32581   5.775   4.338   0.234
10561SOL    HW132582   5.813   4.302   0.149
10561SOL    HW232583   5.754   4.435   0.222
10562SOL     OW32584   4.060   6.015   2.394
10562SOL    HW132585   3.987   5.975   2.340
10562SOL    HW232586   4.139   6.035   2.335
10563SOL     OW32587   0.751   0.077   1.118
10563SOL    HW132588   0.669   0.089   1.173
10563SOL    HW232589   0.828   0.124   1.161
10564SOL     OW32590   5.589   5.682   3.932
10564SOL    HW132591   5.539   5.635   4.005
10564SOL    HW232592   5.604   5.618   3.856
10565SOL     OW32593   0.485   6.831   5.150
10565SOL    HW132594   0.433   6.910   5.117
10565SOL    HW232595   0.569   6.822   5.097
10566SOL     OW32596   2.401   3.378   0.335
10566SOL    HW132597   2.470   3.402   0.267
10566SOL    HW232598   2.433   3.300   0.389
10567SOL     OW32599   1.101   2.248   6.262
10567SOL    HW132600   1.151   2.164   6.241
10567SOL    HW232601   1.072   2.247   6.358
10568SOL     OW32602   5.322   2.314   5.708
10568SOL    HW132603   5.252   2.385   5.714
10568SOL    HW232604   5.387   2.324   5.783
10569SOL     OW32605   5.488   6.421   1.035
10569SOL    HW132606   5.548   6.501   1.039
10569SOL    HW232607   5.401   6.448   0.994
10570SOL     OW32608   1.126   4.681   3.800
10570SOL    HW132609   1.160   4.689   3.894
10570SOL    HW232610   1.060   4.754   3.782
10571SOL     OW32611   0.009   4.122   5.757
10571SOL    HW132612   6.950   4.168   5.727
10571SOL    HW232613   0.087   4.154   5.704
10572SOL     OW32614   6.132   4.483   0.548
10572SOL    HW132615   6.047   4.530   0.573
10572SOL    HW232616   6.109   4.399   0.499
10573SOL     OW32617   5.394   1.312   3.577
10573SOL    HW132618   5.438   1.227   3.549
10573SOL    HW232619   5.300   1.294   3.605
10574SOL     OW32620   6.865   2.008   3.683
10574SOL    HW132621   6.948   2.054   3.713
10574SOL    HW232622   6.810   2.072   3.628
10575SOL     OW32623   6.192   0.498   1.181
10575SOL    HW132624   6.199   0.418   1.121
10575SOL    HW232625   6.270   0.499   1.244
10576SOL     OW32626   2.107   4.637   3.963
10576SOL    HW132627   2.153   4.674   4.044
10576SOL    HW232628   2.067   4.712   3.910
10577SOL     OW32629   4.166   5.973   0.622
10577SOL    HW132630   4.094   6.042   0.633
10577SOL    HW232631   4.125   5.885   0.598
10578SOL     OW32632   6.892   3.566   4.283
10578SOL    HW132633   6.859   3.532   4.371
10578SOL    HW232634   6.852   3.656   4.264
10579SOL     OW32635   1.625   3.434   0.207
10579SOL    HW132636   1.592   3.386   0.125
10579SOL    HW232637   1.720   3.461   0.193
10580SOL     OW32638   6.626   6.621   6.780
10580SOL    HW132639   6.610   6.718   6.759
10580SOL    HW232640   6.639   6.610   6.878
10581SOL     OW32641   5.552   6.824   2.822
10581SOL    HW132642   5.480   6.777   2.770
10581SOL    HW232643   5.599   6.759   2.881
10582SOL     OW32644   5.642   4.356   6.262
10582SOL    HW132645   5.607   4.442   6.300
10582SOL    HW232646   5.588   4.331   6.182
10583SOL     OW32647   2.802   1.367   5.615
10583SOL    HW132648   2.876   1.416   5.568
10583SOL    HW232649   2.840   1.288   5.663
10584SOL     OW32650   0.532   0.302   5.315
10584SOL    HW132651   0.566   0.376   5.372
10584SOL    HW232652   0.450   0.332   5.266
10585SOL     OW32653   0.737   6.965   4.961
10585SOL    HW132654   0.687   6.882   4.936
10585SOL    HW232655   0.794   6.993   4.883
10586SOL     OW32656   4.042   4.440   5.310
10586SOL    HW132657   3.981   4.382   5.256
10586SOL    HW232658   4.125   4.458   5.257
10587SOL     OW32659   2.102   5.970   5.435
10587SOL    HW132660   2.187   5.920   5.450
10587SOL    HW232661   2.108   6.022   5.350
10588SOL     OW32662   0.958   4.172   4.715
10588SOL    HW132663   0.901   4.100   4.754
10588SOL    HW232664   1.049   4.136   4.695
10589SOL     OW32665   5.252   6.064   3.894
10589SOL    HW132666   5.245   6.164   3.898
10589SOL    HW232667   5.235   6.034   3.800
10590SOL     OW32668   0.820   5.473   2.874
10590SOL    HW132669   0.866   5.444   2.958
10590SOL    HW232670   0.744   5.534   2.897
10591SOL     OW32671   0.281   2.437   1.547
10591SOL    HW132672   0.186   2.424   1.574
10591SOL    HW232673   0.332   2.352   1.559
10592SOL     OW32674   6.147   2.488   4.997
10592SOL    HW132675   6.166   2.536   4.911
10592SOL    HW232676   6.226   2.498   5.058
10593SOL     OW32677   3.434   5.911   2.678
10593SOL    HW132678   3.362   5.901   2.609
10593SOL    HW232679   3.393   5.939   2.765
10594SOL     OW32680   2.863   0.204   3.801
10594SOL    HW132681   2.779   0.158   3.771
10594SOL    HW232682   2.885   0.175   3.895
10595SOL     OW32683   6.283   6.439   0.699
10595SOL    HW132684   6.233   6.368   0.650
10595SOL    HW232685   6.379   6.410   0.711
10596SOL     OW32686   5.251   2.529   7.012
10596SOL    HW132687   5.239   2.574   0.077
10596SOL    HW232688   5.165   2.485   6.985
10597SOL     OW32689   2.187   0.872   6.034
10597SOL    HW132690   2.203   0.801   6.103
10597SOL    HW232691   2.110   0.929   6.062
10598SOL     OW32692   2.401   2.201   6.263
10598SOL    HW132693   2.311   2.163   6.284
10598SOL    HW232694   2.391   2.291   6.219
10599SOL     OW32695   6.497   2.913   6.447
10599SOL    HW132696   6.456   2.975   6.515
10599SOL    HW232697   6.593   2.937   6.435
10600SOL     OW32698   2.969   1.805   0.863
10600SOL    HW132699   2.987   1.708   0.883
10600SOL    HW232700   3.055   1.854   0.856
10601SOL     OW32701   0.675   6.364   6.000
10601SOL    HW132702   0.713   6.456   6.002
10601SOL    HW232703   0.744   6.299   6.034
10602SOL     OW32704   0.170   0.737   0.974
10602SOL    HW132705   0.179   0.756   0.876
10602SOL    HW232706   0.132   0.646   0.986
10603SOL     OW32707   4.914   6.876   2.182
10603SOL    HW132708   4.879   6.783   2.182
10603SOL    HW232709   4.863   6.931   2.248
10604SOL     OW32710   5.745   0.019   4.277
10604SOL    HW132711   5.787   0.077   4.348
10604SOL    HW232712   5.778   0.048   4.187
10605SOL     OW32713   2.299   2.179   1.421
10605SOL    HW132714   2.380   2.231   1.393
10605SOL    HW232715   2.242   2.236   1.481
10606SOL     OW32716   5.974   0.525   0.869
10606SOL    HW132717   5.987   0.561   0.961
10606SOL    HW232718   5.986   0.599   0.802
10607SOL     OW32719   3.603   4.001   6.624
10607SOL    HW132720   3.513   4.000   6.668
10607SOL    HW232721   3.607   3.929   6.555
10608SOL     OW32722   5.523   3.446   3.087
10608SOL    HW132723   5.585   3.369   3.101
10608SOL    HW232724   5.574   3.532   3.099
10609SOL     OW32725   4.201   1.767   6.766
10609SOL    HW132726   4.174   1.724   6.853
10609SOL    HW232727   4.136   1.839   6.744
10610SOL     OW32728   0.726   0.420   3.996
10610SOL    HW132729   0.736   0.512   3.959
10610SOL    HW232730   0.796   0.404   4.066
10611SOL     OW32731   3.296   5.608   4.931
10611SOL    HW132732   3.297   5.670   5.009
10611SOL    HW232733   3.355   5.644   4.859
10612SOL     OW32734   5.593   1.628   3.560
10612SOL    HW132735   5.690   1.650   3.571
10612SOL    HW232736   5.576   1.597   3.466
10613SOL     OW32737   5.477   0.356   4.410
10613SOL    HW132738   5.563   0.369   4.460
10613SOL    HW232739   5.460   0.434   4.351
10614SOL     OW32740   4.447   0.779   6.434
10614SOL    HW132741   4.457   0.699   6.375
10614SOL    HW232742   4.537   0.818   6.452
10615SOL     OW32743   1.383   1.715   6.297
10615SOL    HW132744   1.435   1.640   6.257
10615SOL    HW232745   1.440   1.798   6.298
10616SOL     OW32746   2.813   6.703   6.595
10616SOL    HW132747   2.719   6.671   6.583
10616SOL    HW232748   2.861   6.700   6.508
10617SOL     OW32749   2.534   3.266   1.715
10617SOL    HW132750   2.525   3.335   1.787
10617SOL    HW232751   2.611   3.206   1.737
10618SOL     OW32752   0.433   5.187   4.611
10618SOL    HW132753   0.482   5.269   4.579
10618SOL    HW232754   0.463   5.108   4.559
10619SOL     OW32755   1.327   2.460   3.051
10619SOL    HW132756   1.347   2.434   3.146
10619SOL    HW232757   1.378   2.543   3.028
10620SOL     OW32758   2.607   1.013   6.640
10620SOL    HW132759   2.539   1.082   6.615
10620SOL    HW232760   2.631   0.959   6.559
10621SOL     OW32761   0.740   3.369   3.481
10621SOL    HW132762   0.764   3.303   3.552
10621SOL    HW232763   0.805   3.362   3.406
10622SOL     OW32764   4.489   2.881   0.274
10622SOL    HW132765   4.581   2.918   0.287
10622SOL    HW232766   4.447   2.923   0.194
10623SOL     OW32767   5.444   6.076   6.440
10623SOL    HW132768   5.536   6.087   6.404
10623SOL    HW232769   5.411   5.983   6.421
10624SOL     OW32770   0.395   2.832   5.383
10624SOL    HW132771   0.417   2.928   5.362
10624SOL    HW232772   0.431   2.773   5.310
10625SOL     OW32773   6.304   4.535   6.505
10625SOL    HW132774   6.351   4.614   6.544
10625SOL    HW232775   6.276   4.555   6.411
10626SOL     OW32776   5.280   3.549   1.242
10626SOL    HW132777   5.257   3.506   1.329
10626SOL    HW232778   5.308   3.478   1.176
10627SOL     OW32779   5.779   5.890   5.835
10627SOL    HW132780   5.685   5.864   5.858
10627SOL    HW232781   5.842   5.837   5.892
10628SOL     OW32782   4.139   0.005   1.374
10628SOL    HW132783   4.146   6.930   1.385
10628SOL    HW232784   4.158   0.049   1.462
10629SOL     OW32785   2.691   5.528   4.211
10629SOL    HW132786   2.746   5.460   4.163
10629SOL    HW232787   2.739   5.556   4.294
10630SOL     OW32788   3.902   0.648   2.352
10630SOL    HW132789   3.855   0.654   2.440
10630SOL    HW232790   3.835   0.649   2.278
10631SOL     OW32791   4.279   5.984   6.581
10631SOL    HW132792   4.345   5.944   6.644
10631SOL    HW232793   4.314   5.980   6.487
10632SOL     OW32794   4.009   5.888   3.601
10632SOL    HW132795   4.018   5.923   3.508
10632SOL    HW232796   3.916   5.855   3.615
10633SOL     OW32797   1.707   3.035   1.340
10633SOL    HW132798   1.796   3.012   1.379
10633SOL    HW232799   1.653   3.086   1.407
10634SOL     OW32800   6.878   4.085   6.868
10634SOL    HW132801   6.806   4.049   6.928
10634SOL    HW232802   6.873   4.040   6.779
10635SOL     OW32803   2.364   3.796   6.216
10635SOL    HW132804   2.461   3.779   6.234
10635SOL    HW232805   2.349   3.802   6.117
10636SOL     OW32806   6.375   2.253   6.270
10636SOL    HW132807   6.403   2.161   6.295
10636SOL    HW232808   6.383   2.314   6.349
10637SOL     OW32809   2.748   0.545   6.951
10637SOL    HW132810   2.743   0.617   6.882
10637SOL    HW232811   2.774   0.585   0.015
10638SOL     OW32812   0.006   5.224   1.551
10638SOL    HW132813   6.937   5.255   1.531
10638SOL    HW232814   0.045   5.281   1.623
10639SOL     OW32815   1.756   4.613   1.073
10639SOL    HW132816   1.795   4.674   1.004
10639SOL    HW232817   1.696   4.546   1.029
10640SOL     OW32818   3.927   0.026   3.523
10640SOL    HW132819   4.026   0.039   3.530
10640SOL    HW232820   3.899   0.034   3.427
10641SOL     OW32821   1.545   0.286   3.330
10641SOL    HW132822   1.560   0.233   3.247
10641SOL    HW232823   1.470   0.351   3.315
10642SOL     OW32824   5.424   2.410   6.583
10642SOL    HW132825   5.504   2.444   6.532
10642SOL    HW232826   5.411   2.467   6.664
10643SOL     OW32827   1.588   5.107   5.545
10643SOL    HW132828   1.525   5.032   5.527
10643SOL    HW232829   1.680   5.071   5.558
10644SOL     OW32830   0.239   2.467   3.088
10644SOL    HW132831   0.315   2.426   3.039
10644SOL    HW232832   0.200   2.541   3.034
10645SOL     OW32833   2.461   2.639   3.661
10645SOL    HW132834   2.496   2.548   3.637
10645SOL    HW232835   2.473   2.654   3.759
10646SOL     OW32836   5.233   0.950   4.111
10646SOL    HW132837   5.276   1.024   4.162
10646SOL    HW232838   5.220   0.871   4.172
10647SOL     OW32839   3.928   5.004   4.488
10647SOL    HW132840   4.010   4.948   4.476
10647SOL    HW232841   3.924   5.072   4.415
10648SOL     OW32842   5.565   5.617   5.309
10648SOL    HW132843   5.580   5.608   5.210
10648SOL    HW232844   5.485   5.563   5.336
10649SOL     OW32845   6.983   3.628   2.848
10649SOL    HW132846   6.948   3.651   2.939
10649SOL    HW232847   0.036   3.565   2.857
10650SOL     OW32848   0.176   0.801   4.300
10650SOL    HW132849   0.249   0.754   4.249
10650SOL    HW232850   0.165   0.757   4.389
10651SOL     OW32851   3.610   5.923   6.369
10651SOL    HW132852   3.586   5.946   6.275
10651SOL    HW232853   3.614   6.007   6.424
10652SOL     OW32854   1.883   6.929   6.936
10652SOL    HW132855   1.902   6.992   6.860
10652SOL    HW232856   1.786   6.908   6.938
10653SOL     OW32857   4.066   6.480   4.432
10653SOL    HW132858   4.003   6.540   4.383
10653SOL    HW232859   4.158   6.518   4.428
10654SOL     OW32860   5.805   2.311   4.623
10654SOL    HW132861   5.728   2.251   4.607
10654SOL    HW232862   5.830   2.310   4.720
10655SOL     OW32863   0.983   4.600   1.188
10655SOL    HW132864   1.009   4.549   1.269
10655SOL    HW232865   0.981   4.698   1.209
10656SOL     OW32866   6.395   1.019   1.924
10656SOL    HW132867   6.315   1.009   1.865
10656SOL    HW232868   6.475   0.981   1.877
10657SOL     OW32869   6.092   0.541   3.482
10657SOL    HW132870   6.180   0.494   3.472
10657SOL    HW232871   6.018   0.475   3.464
10658SOL     OW32872   6.620   3.305   5.134
10658SOL    HW132873   6.607   3.401   5.111
10658SOL    HW232874   6.620   3.249   5.051
10659SOL     OW32875   1.094   5.176   0.718
10659SOL    HW132876   1.096   5.078   0.739
10659SOL    HW232877   1.112   5.228   0.802
10660SOL     OW32878   6.882   3.623   5.685
10660SOL    HW132879   6.891   3.673   5.771
10660SOL    HW232880   6.945   3.545   5.685
10661SOL     OW32881   1.948   3.938   6.473
10661SOL    HW132882   1.962   3.998   6.552
10661SOL    HW232883   2.036   3.907   6.439
10662SOL     OW32884   2.699   1.188   2.820
10662SOL    HW132885   2.637   1.265   2.837
10662SOL    HW232886   2.777   1.193   2.883
10663SOL     OW32887   1.850   1.803   4.323
10663SOL    HW132888   1.880   1.784   4.416
10663SOL    HW232889   1.924   1.848   4.273
10664SOL     OW32890   1.101   5.350   4.765
10664SOL    HW132891   1.089   5.259   4.726
10664SOL    HW232892   1.033   5.412   4.727
10665SOL     OW32893   2.537   2.583   6.291
10665SOL    HW132894   2.561   2.541   6.378
10665SOL    HW232895   2.464   2.530   6.246
10666SOL     OW32896   3.530   3.739   2.259
10666SOL    HW132897   3.456   3.805   2.266
10666SOL    HW232898   3.580   3.753   2.173
10667SOL     OW32899   5.802   2.056   2.929
10667SOL    HW132900   5.751   2.140   2.914
10667SOL    HW232901   5.798   2.031   3.026
10668SOL     OW32902   3.332   2.192   5.309
10668SOL    HW132903   3.283   2.106   5.301
10668SOL    HW232904   3.279   2.265   5.265
10669SOL     OW32905   5.237   1.514   0.990
10669SOL    HW132906   5.154   1.502   0.936
10669SOL    HW232907   5.250   1.611   1.010
10670SOL     OW32908   5.062   3.834   4.285
10670SOL    HW132909   5.004   3.835   4.366
10670SOL    HW232910   5.005   3.835   4.203
10671SOL     OW32911   1.339   1.754   4.348
10671SOL    HW132912   1.434   1.733   4.326
10671SOL    HW232913   1.318   1.848   4.322
10672SOL     OW32914   5.401   3.641   1.759
10672SOL    HW132915   5.322   3.701   1.771
10672SOL    HW232916   5.481   3.681   1.805
10673SOL     OW32917   1.973   1.143   1.246
10673SOL    HW132918   2.029   1.133   1.164
10673SOL    HW232919   1.876   1.145   1.221
10674SOL     OW32920   3.555   3.591   4.828
10674SOL    HW132921   3.499   3.667   4.795
10674SOL    HW232922   3.648   3.601   4.792
10675SOL     OW32923   3.558   6.775   5.621
10675SOL    HW132924   3.523   6.866   5.596
10675SOL    HW232925   3.494   6.705   5.587
10676SOL     OW32926   1.392   6.280   5.596
10676SOL    HW132927   1.491   6.272   5.594
10676SOL    HW232928   1.351   6.190   5.577
10677SOL     OW32929   0.803   2.178   0.699
10677SOL    HW132930   0.703   2.174   0.695
10677SOL    HW232931   0.834   2.146   0.789
10678SOL     OW32932   4.304   5.532   3.973
10678SOL    HW132933   4.357   5.593   4.031
10678SOL    HW232934   4.366   5.472   3.921
10679SOL     OW32935   4.129   3.991   6.832
10679SOL    HW132936   4.200   4.033   6.888
10679SOL    HW232937   4.171   3.932   6.763
10680SOL     OW32938   3.748   1.830   4.251
10680SOL    HW132939   3.703   1.797   4.167
10680SOL    HW232940   3.715   1.922   4.273
10681SOL     OW32941   6.666   2.777   6.914
10681SOL    HW132942   6.753   2.745   6.952
10681SOL    HW232943   6.684   2.827   6.829
10682SOL     OW32944   6.088   3.316   5.653
10682SOL    HW132945   6.009   3.256   5.640
10682SOL    HW232946   6.172   3.261   5.649
10683SOL     OW32947   3.848   0.955   3.281
10683SOL    HW132948   3.877   0.873   3.331
10683SOL    HW232949   3.777   1.002   3.334
10684SOL     OW32950   4.786   4.961   1.183
10684SOL    HW132951   4.741   4.964   1.094
10684SOL    HW232952   4.766   4.875   1.229
10685SOL     OW32953   1.003   5.283   1.619
10685SOL    HW132954   0.985   5.254   1.713
10685SOL    HW232955   1.072   5.223   1.579
10686SOL     OW32956   1.919   3.940   0.407
10686SOL    HW132957   1.825   3.926   0.436
10686SOL    HW232958   1.961   3.853   0.383
10687SOL     OW32959   6.581   4.847   2.679
10687SOL    HW132960   6.580   4.770   2.742
10687SOL    HW232961   6.648   4.915   2.709
10688SOL     OW32962   5.892   1.551   2.353
10688SOL    HW132963   5.804   1.569   2.398
10688SOL    HW232964   5.904   1.616   2.277
10689SOL     OW32965   7.022   0.184   2.362
10689SOL    HW132966   0.075   0.165   2.423
10689SOL    HW232967   0.033   0.223   2.276
10690SOL     OW32968   6.534   6.066   3.469
10690SOL    HW132969   6.444   6.028   3.488
10690SOL    HW232970   6.554   6.060   3.371
10691SOL     OW32971   3.330   1.813   2.252
10691SOL    HW132972   3.240   1.773   2.237
10691SOL    HW232973   3.322   1.912   2.261
10692SOL     OW32974   2.723   1.011   5.223
10692SOL    HW132975   2.789   1.055   5.162
10692SOL    HW232976   2.754   0.919   5.245
10693SOL     OW32977   1.262   6.057   1.237
10693SOL    HW132978   1.203   6.037   1.159
10693SOL    HW232979   1.208   6.057   1.321
10694SOL     OW32980   5.041   5.931   5.947
10694SOL    HW132981   5.004   5.868   6.016
10694SOL    HW232982   5.001   6.021   5.960
10695SOL     OW32983   0.699   3.466   1.271
10695SOL    HW132984   0.601   3.465   1.250
10695SOL    HW232985   0.717   3.410   1.352
10696SOL     OW32986   6.139   4.673   4.379
10696SOL    HW132987   6.063   4.727   4.416
10696SOL    HW232988   6.160   4.598   4.442
10697SOL     OW32989   1.145   5.815   5.056
10697SOL    HW132990   1.174   5.721   5.039
10697SOL    HW232991   1.221   5.867   5.096
10698SOL     OW32992   4.935   4.126   6.683
10698SOL    HW132993   4.942   4.030   6.708
10698SOL    HW232994   5.006   4.178   6.731
10699SOL     OW32995   3.304   4.293   0.891
10699SOL    HW132996   3.359   4.341   0.959
10699SOL    HW232997   3.344   4.203   0.874
10700SOL     OW32998   5.416   6.574   0.626
10700SOL    HW132999   5.422   6.641   0.552
10700SOL    HW233000   5.509   6.545   0.652
10701SOL     OW33001   2.736   0.025   6.262
10701SOL    HW133002   2.738   0.102   6.325
10701SOL    HW233003   2.654   0.032   6.204
10702SOL     OW33004   4.976   3.450   2.541
10702SOL    HW133005   5.075   3.461   2.537
10702SOL    HW233006   4.948   3.437   2.636
10703SOL     OW33007   2.207   2.111   5.762
10703SOL    HW133008   2.218   2.205   5.793
10703SOL    HW233009   2.221   2.106   5.663
10704SOL     OW33010   0.428   5.654   2.654
10704SOL    HW133011   0.370   5.735   2.661
10704SOL    HW233012   0.485   5.660   2.572
10705SOL     OW33013   5.686   5.096   1.007
10705SOL    HW133014   5.632   5.053   1.080
10705SOL    HW233015   5.669   5.195   1.008
10706SOL     OW33016   4.577   0.117   2.207
10706SOL    HW133017   4.497   0.159   2.250
10706SOL    HW233018   4.574   0.134   2.108
10707SOL     OW33019   6.322   0.244   4.765
10707SOL    HW133020   6.377   0.265   4.684
10707SOL    HW233021   6.364   0.287   4.845
10708SOL     OW33022   4.730   1.693   2.513
10708SOL    HW133023   4.816   1.721   2.557
10708SOL    HW233024   4.687   1.772   2.470
10709SOL     OW33025   5.492   5.833   3.563
10709SOL    HW133026   5.573   5.790   3.602
10709SOL    HW233027   5.473   5.919   3.610
10710SOL     OW33028   5.287   0.683   3.204
10710SOL    HW133029   5.326   0.774   3.220
10710SOL    HW233030   5.213   0.691   3.137
10711SOL     OW33031   2.972   6.468   3.601
10711SOL    HW133032   2.919   6.431   3.524
10711SOL    HW233033   2.976   6.568   3.593
10712SOL     OW33034   4.147   0.763   2.268
10712SOL    HW133035   4.074   0.707   2.231
10712SOL    HW233036   4.142   0.763   2.368
10713SOL     OW33037   1.223   2.971   0.419
10713SOL    HW133038   1.150   3.029   0.382
10713SOL    HW233039   1.312   3.004   0.386
10714SOL     OW33040   4.318   3.376   5.317
10714SOL    HW133041   4.261   3.300   5.349
10714SOL    HW233042   4.414   3.350   5.324
10715SOL     OW33043   4.971   0.229   2.142
10715SOL    HW133044   4.906   0.185   2.204
10715SOL    HW233045   4.930   0.313   2.105
10716SOL     OW33046   6.567   2.465   3.475
10716SOL    HW133047   6.607   2.527   3.542
10716SOL    HW233048   6.596   2.492   3.383
10717SOL     OW33049   1.860   2.674   0.423
10717SOL    HW133050   1.937   2.715   0.471
10717SOL    HW233051   1.884   2.658   0.327
10718SOL     OW33052   1.160   4.364   6.675
10718SOL    HW133053   1.176   4.455   6.636
10718SOL    HW233054   1.190   4.294   6.610
10719SOL     OW33055   6.298   5.920   3.475
10719SOL    HW133056   6.295   5.823   3.499
10719SOL    HW233057   6.274   5.931   3.379
10720SOL     OW33058   5.723   5.506   4.274
10720SOL    HW133059   5.625   5.526   4.285
10720SOL    HW233060   5.777   5.578   4.317
10721SOL     OW33061   5.000   3.813   5.516
10721SOL    HW133062   4.943   3.745   5.471
10721SOL    HW233063   5.014   3.891   5.455
10722SOL     OW33064   5.994   3.777   6.784
10722SOL    HW133065   5.954   3.686   6.770
10722SOL    HW233066   6.015   3.818   6.695
10723SOL     OW33067   0.205   1.882   6.755
10723SOL    HW133068   0.252   1.953   6.703
10723SOL    HW233069   0.174   1.919   6.842
10724SOL     OW33070   0.512   7.024   6.418
10724SOL    HW133071   0.575   0.011   6.341
10724SOL    HW233072   0.483   6.928   6.424
10725SOL     OW33073   2.081   5.565   5.464
10725SOL    HW133074   2.149   5.574   5.391
10725SOL    HW233075   2.116   5.505   5.536
10726SOL     OW33076   4.737   0.689   4.049
10726SOL    HW133077   4.809   0.620   4.060
10726SOL    HW233078   4.659   0.665   4.108
10727SOL     OW33079   0.878   4.671   6.234
10727SOL    HW133080   0.930   4.677   6.150
10727SOL    HW233081   0.939   4.647   6.310
10728SOL     OW33082   0.523   5.262   6.998
10728SOL    HW133083   0.502   5.360   7.001
10728SOL    HW233084   0.440   5.211   6.975
10729SOL     OW33085   6.387   1.748   1.950
10729SOL    HW133086   6.335   1.829   1.977
10729SOL    HW233087   6.377   1.677   2.020
10730SOL     OW33088   3.278   6.822   0.707
10730SOL    HW133089   3.314   6.913   0.688
10730SOL    HW233090   3.310   6.757   0.638
10731SOL     OW33091   3.773   0.865   1.007
10731SOL    HW133092   3.773   0.859   1.107
10731SOL    HW233093   3.798   0.957   0.979
10732SOL     OW33094   0.504   4.268   5.598
10732SOL    HW133095   0.492   4.358   5.639
10732SOL    HW233096   0.573   4.273   5.525
10733SOL     OW33097   5.792   1.085   6.641
10733SOL    HW133098   5.831   1.161   6.693
10733SOL    HW233099   5.692   1.091   6.643
10734SOL     OW33100   1.440   1.878   1.446
10734SOL    HW133101   1.530   1.862   1.407
10734SOL    HW233102   1.369   1.840   1.386
10735SOL     OW33103   0.555   2.577   2.231
10735SOL    HW133104   0.560   2.479   2.210
10735SOL    HW233105   0.527   2.589   2.327
10736SOL     OW33106   1.765   0.200   3.501
10736SOL    HW133107   1.697   0.190   3.429
10736SOL    HW233108   1.795   0.110   3.532
10737SOL     OW33109   0.826   2.009   0.953
10737SOL    HW133110   0.806   2.069   1.030
10737SOL    HW233111   0.771   1.926   0.960
10738SOL     OW33112   3.456   5.748   2.896
10738SOL    HW133113   3.488   5.777   2.805
10738SOL    HW233114   3.534   5.717   2.950
10739SOL     OW33115   1.865   2.190   1.491
10739SOL    HW133116   1.963   2.208   1.486
10739SOL    HW233117   1.826   2.237   1.570
10740SOL     OW33118   6.300   4.544   5.769
10740SOL    HW133119   6.215   4.535   5.717
10740SOL    HW233120   6.337   4.453   5.788
10741SOL     OW33121   4.041   1.496   1.502
10741SOL    HW133122   4.107   1.478   1.576
10741SOL    HW233123   4.085   1.479   1.414
10742SOL     OW33124   6.712   6.639   1.112
10742SOL    HW133125   6.767   6.620   1.031
10742SOL    HW233126   6.621   6.598   1.102
10743SOL     OW33127   1.784   1.581   4.932
10743SOL    HW133128   1.725   1.505   4.904
10743SOL    HW233129   1.743   1.667   4.903
10744SOL     OW33130   3.636   1.686   0.565
10744SOL    HW133131   3.628   1.618   0.493
10744SOL    HW233132   3.648   1.777   0.524
10745SOL     OW33133   0.169   5.350   5.322
10745SOL    HW133134   0.231   5.287   5.367
10745SOL    HW233135   0.080   5.305   5.308
10746SOL     OW33136   1.015   3.572   6.902
10746SOL    HW133137   0.949   3.631   6.950
10746SOL    HW233138   1.026   3.604   6.808
10747SOL     OW33139   3.086   0.959   4.876
10747SOL    HW133140   3.024   0.890   4.915
10747SOL    HW233141   3.173   0.957   4.925
10748SOL     OW33142   5.411   0.924   2.290
10748SOL    HW133143   5.327   0.871   2.276
10748SOL    HW233144   5.396   1.018   2.262
10749SOL     OW33145   0.941   6.085   5.217
10749SOL    HW133146   0.954   6.007   5.279
10749SOL    HW233147   0.927   6.051   5.124
10750SOL     OW33148   4.143   6.906   5.098
10750SOL    HW133149   4.082   6.826   5.094
10750SOL    HW233150   4.165   6.927   5.193
10751SOL     OW33151   2.043   4.508   4.310
10751SOL    HW133152   2.113   4.437   4.301
10751SOL    HW233153   1.969   4.475   4.368
10752SOL     OW33154   6.073   4.309   5.432
10752SOL    HW133155   6.093   4.339   5.339
10752SOL    HW233156   6.143   4.244   5.462
10753SOL     OW33157   0.219   4.324   3.775
10753SOL    HW133158   0.217   4.251   3.844
10753SOL    HW233159   0.269   4.402   3.812
10754SOL     OW33160   1.598   0.124   3.109
10754SOL    HW133161   1.690   0.138   3.073
10754SOL    HW233162   1.557   0.044   3.065
10755SOL     OW33163   0.018   0.456   1.718
10755SOL    HW133164   0.103   0.492   1.758
10755SOL    HW233165   6.970   0.525   1.726
10756SOL     OW33166   6.428   5.361   5.417
10756SOL    HW133167   6.329   5.353   5.407
10756SOL    HW233168   6.451   5.361   5.515
10757SOL     OW33169   2.944   2.545   6.484
10757SOL    HW133170   2.923   2.459   6.437
10757SOL    HW233171   2.867   2.608   6.475
10758SOL     OW33172   0.868   6.084   3.756
10758SOL    HW133173   0.802   6.011   3.773
10758SOL    HW233174   0.890   6.086   3.658
10759SOL     OW33175   1.463   3.099   0.378
10759SOL    HW133176   1.539   3.151   0.416
10759SOL    HW233177   1.482   3.077   0.282
10760SOL     OW33178   5.631   0.847   3.227
10760SOL    HW133179   5.654   0.861   3.131
10760SOL    HW233180   5.713   0.861   3.283
10761SOL     OW33181   1.445   5.528   5.331
10761SOL    HW133182   1.445   5.450   5.394
10761SOL    HW233183   1.473   5.496   5.240
10762SOL     OW33184   2.955   0.663   4.617
10762SOL    HW133185   3.040   0.612   4.622
10762SOL    HW233186   2.975   0.761   4.618
10763SOL     OW33187   4.172   0.289   2.919
10763SOL    HW133188   4.149   0.212   2.859
10763SOL    HW233189   4.176   0.257   3.014
10764SOL     OW33190   4.902   1.824   5.259
10764SOL    HW133191   4.921   1.745   5.201
10764SOL    HW233192   4.929   1.908   5.211
10765SOL     OW33193   5.117   2.609   1.066
10765SOL    HW133194   5.117   2.708   1.055
10765SOL    HW233195   5.095   2.586   1.161
10766SOL     OW33196   3.882   4.595   0.513
10766SOL    HW133197   3.908   4.690   0.497
10766SOL    HW233198   3.876   4.579   0.612
10767SOL     OW33199   2.621   0.524   0.865
10767SOL    HW133200   2.596   0.621   0.854
10767SOL    HW233201   2.614   0.499   0.961
10768SOL     OW33202   5.823   4.948   1.810
10768SOL    HW133203   5.893   4.886   1.774
10768SOL    HW233204   5.841   5.041   1.779
10769SOL     OW33205   1.718   3.610   5.808
10769SOL    HW133206   1.638   3.572   5.761
10769SOL    HW233207   1.709   3.709   5.815
10770SOL     OW33208   5.158   6.331   3.588
10770SOL    HW133209   5.206   6.409   3.550
10770SOL    HW233210   5.059   6.347   3.583
10771SOL     OW33211   4.127   0.150   3.826
10771SOL    HW133212   4.036   0.123   3.856
10771SOL    HW233213   4.133   0.142   3.726
10772SOL     OW33214   6.014   6.472   4.226
10772SOL    HW133215   5.941   6.515   4.279
10772SOL    HW233216   5.995   6.481   4.128
10773SOL     OW33217   5.713   4.479   5.878
10773SOL    HW133218   5.738   4.536   5.800
10773SOL    HW233219   5.762   4.511   5.960
10774SOL     OW33220   1.741   1.389   4.640
10774SOL    HW133221   1.801   1.373   4.718
10774SOL    HW233222   1.706   1.302   4.607
10775SOL     OW33223   0.258   4.638   1.940
10775SOL    HW133224   0.344   4.667   1.982
10775SOL    HW233225   0.238   4.696   1.861
10776SOL     OW33226   0.765   0.802   6.437
10776SOL    HW133227   0.799   0.810   6.531
10776SOL    HW233228   0.809   0.725   6.392
10777SOL     OW33229   3.932   5.420   1.163
10777SOL    HW133230   3.915   5.416   1.065
10777SOL    HW233231   3.910   5.512   1.197
10778SOL     OW33232   4.895   0.248   3.609
10778SOL    HW133233   4.865   0.239   3.704
10778SOL    HW233234   4.993   0.271   3.608
10779SOL     OW33235   5.740   2.918   2.966
10779SOL    HW133236   5.670   2.919   3.038
10779SOL    HW233237   5.733   3.001   2.912
10780SOL     OW33238   1.124   0.911   3.926
10780SOL    HW133239   1.057   0.984   3.938
10780SOL    HW233240   1.089   0.844   3.860
10781SOL     OW33241   3.899   1.188   3.513
10781SOL    HW133242   3.911   1.261   3.581
10781SOL    HW233243   3.922   1.224   3.422
10782SOL     OW33244   6.789   0.162   4.147
10782SOL    HW133245   6.878   0.130   4.114
10782SOL    HW233246   6.756   0.099   4.218
10783SOL     OW33247   0.168   3.110   2.741
10783SOL    HW133248   0.258   3.149   2.761
10783SOL    HW233249   0.122   3.166   2.671
10784SOL     OW33250   3.526   1.004   3.956
10784SOL    HW133251   3.474   1.048   4.029
10784SOL    HW233252   3.492   0.911   3.943
10785SOL     OW33253   1.253   3.688   0.592
10785SOL    HW133254   1.300   3.636   0.520
10785SOL    HW233255   1.159   3.655   0.601
10786SOL     OW33256   5.956   5.620   2.536
10786SOL    HW133257   5.896   5.650   2.461
10786SOL    HW233258   5.904   5.619   2.621
10787SOL     OW33259   0.721   0.314   5.047
10787SOL    HW133260   0.747   0.283   5.138
10787SOL    HW233261   0.771   0.397   5.024
10788SOL     OW33262   0.725   3.386   0.931
10788SOL    HW133263   0.811   3.423   0.966
10788SOL    HW233264   0.651   3.451   0.949
10789SOL     OW33265   6.191   3.191   0.128
10789SOL    HW133266   6.128   3.268   0.122
10789SOL    HW233267   6.284   3.224   0.145
10790SOL     OW33268   0.647   6.517   1.772
10790SOL    HW133269   0.693   6.515   1.683
10790SOL    HW233270   0.548   6.506   1.758
10791SOL     OW33271   6.809   6.288   2.069
10791SOL    HW133272   6.866   6.261   1.991
10791SOL    HW233273   6.850   6.366   2.115
10792SOL     OW33274   3.497   3.190   5.224
10792SOL    HW133275   3.458   3.103   5.255
10792SOL    HW233276   3.595   3.177   5.205
10793SOL     OW33277   6.073   3.612   5.572
10793SOL    HW133278   6.153   3.557   5.596
10793SOL    HW233279   5.990   3.560   5.593
10794SOL     OW33280   3.738   3.371   4.623
10794SOL    HW133281   3.812   3.424   4.664
10794SOL    HW233282   3.731   3.283   4.668
10795SOL     OW33283   0.276   5.135   3.092
10795SOL    HW133284   0.372   5.136   3.066
10795SOL    HW233285   0.267   5.098   3.185
10796SOL     OW33286   6.386   6.521   5.405
10796SOL    HW133287   6.436   6.462   5.469
10796SOL    HW233288   6.426   6.613   5.408
10797SOL     OW33289   3.857   3.051   0.821
10797SOL    HW133290   3.765   3.012   0.831
10797SOL    HW233291   3.919   3.006   0.886
10798SOL     OW33292   2.115   1.606   0.489
10798SOL    HW133293   2.196   1.664   0.493
10798SOL    HW233294   2.035   1.658   0.520
10799SOL     OW33295   4.408   0.664   2.636
10799SOL    HW133296   4.465   0.677   2.555
10799SOL    HW233297   4.316   0.696   2.617
10800SOL     OW33298   0.628   6.210   6.812
10800SOL    HW133299   0.710   6.267   6.799
10800SOL    HW233300   0.612   6.156   6.729
10801SOL     OW33301   1.373   6.858   0.927
10801SOL    HW133302   1.276   6.854   0.952
10801SOL    HW233303   1.414   6.940   0.967
10802SOL     OW33304   0.173   6.318   2.731
10802SOL    HW133305   0.105   6.385   2.700
10802SOL    HW233306   0.208   6.268   2.652
10803SOL     OW33307   1.562   6.001   6.180
10803SOL    HW133308   1.497   6.055   6.234
10803SOL    HW233309   1.531   5.907   6.174
10804SOL     OW33310   6.919   2.922   3.392
10804SOL    HW133311   6.820   2.940   3.383
10804SOL    HW233312   6.945   2.848   3.330
10805SOL     OW33313   5.657   1.293   5.128
10805SOL    HW133314   5.606   1.209   5.145
10805SOL    HW233315   5.739   1.273   5.075
10806SOL     OW33316   3.537   5.088   6.589
10806SOL    HW133317   3.455   5.083   6.532
10806SOL    HW233318   3.544   5.180   6.629
10807SOL     OW33319   1.352   5.727   4.129
10807SOL    HW133320   1.332   5.756   4.036
10807SOL    HW233321   1.309   5.789   4.194
10808SOL     OW33322   0.136   3.034   6.239
10808SOL    HW133323   0.050   3.060   6.195
10808SOL    HW233324   0.163   2.942   6.208
10809SOL     OW33325   1.706   4.094   4.243
10809SOL    HW133326   1.758   4.121   4.161
10809SOL    HW233327   1.753   4.018   4.288
10810SOL     OW33328   6.488   0.232   3.755
10810SOL    HW133329   6.450   0.177   3.681
10810SOL    HW233330   6.581   0.259   3.731
10811SOL     OW33331   4.742   5.169   4.577
10811SOL    HW133332   4.708   5.077   4.556
10811SOL    HW233333   4.668   5.235   4.566
10812SOL     OW33334   6.626   3.326   6.775
10812SOL    HW133335   6.636   3.424   6.756
10812SOL    HW233336   6.682   3.273   6.710
10813SOL     OW33337   7.021   3.855   6.390
10813SOL    HW133338   6.985   3.762   6.381
10813SOL    HW233339   0.094   3.851   6.414
10814SOL     OW33340   2.516   6.935   1.015
10814SOL    HW133341   2.574   6.981   0.949
10814SOL    HW233342   2.515   6.987   1.101
10815SOL     OW33343   5.577   1.582   3.289
10815SOL    HW133344   5.581   1.505   3.226
10815SOL    HW233345   5.489   1.629   3.280
10816SOL     OW33346   3.757   2.874   3.104
10816SOL    HW133347   3.676   2.833   3.145
10816SOL    HW233348   3.814   2.914   3.176
10817SOL     OW33349   3.213   0.671   3.511
10817SOL    HW133350   3.158   0.678   3.428
10817SOL    HW233351   3.242   0.763   3.538
10818SOL     OW33352   4.469   5.244   5.438
10818SOL    HW133353   4.399   5.236   5.368
10818SOL    HW233354   4.440   5.194   5.520
10819SOL     OW33355   6.220   5.190   6.241
10819SOL    HW133356   6.250   5.156   6.330
10819SOL    HW233357   6.283   5.261   6.209
10820SOL     OW33358   0.689   5.841   5.264
10820SOL    HW133359   0.777   5.840   5.311
10820SOL    HW233360   0.704   5.847   5.165
10821SOL     OW33361   4.657   5.451   2.987
10821SOL    HW133362   4.611   5.485   2.905
10821SOL    HW233363   4.608   5.372   3.022
10822SOL     OW33364   5.457   2.608   1.286
10822SOL    HW133365   5.494   2.558   1.208
10822SOL    HW233366   5.375   2.657   1.259
10823SOL     OW33367   0.433   0.088   3.354
10823SOL    HW133368   0.447   0.000   3.307
10823SOL    HW233369   0.343   0.125   3.331
10824SOL     OW33370   1.033   1.281   3.465
10824SOL    HW133371   1.111   1.254   3.521
10824SOL    HW233372   1.057   1.271   3.368
10825SOL     OW33373   1.282   2.419   0.845
10825SOL    HW133374   1.219   2.432   0.768
10825SOL    HW233375   1.361   2.365   0.815
10826SOL     OW33376   0.897   1.855   2.798
10826SOL    HW133377   0.895   1.760   2.768
10826SOL    HW233378   0.972   1.867   2.864
10827SOL     OW33379   6.432   3.702   5.147
10827SOL    HW133380   6.363   3.657   5.090
10827SOL    HW233381   6.403   3.698   5.243
10828SOL     OW33382   6.364   3.500   0.091
10828SOL    HW133383   6.409   3.538   0.172
10828SOL    HW233384   6.420   3.425   0.054
10829SOL     OW33385   4.667   3.467   6.689
10829SOL    HW133386   4.754   3.502   6.723
10829SOL    HW233387   4.595   3.533   6.710
10830SOL     OW33388   4.548   1.636   4.114
10830SOL    HW133389   4.504   1.553   4.147
10830SOL    HW233390   4.637   1.647   4.158
10831SOL     OW33391   3.726   0.669   2.135
10831SOL    HW133392   3.626   0.674   2.145
10831SOL    HW233393   3.750   0.678   2.039
10832SOL     OW33394   6.841   3.357   7.022
10832SOL    HW133395   6.890   3.341   6.936
10832SOL    HW233396   6.824   3.455   0.008
10833SOL     OW33397   0.165   2.397   0.821
10833SOL    HW133398   0.089   2.343   0.785
10833SOL    HW233399   0.214   2.343   0.889
10834SOL     OW33400   6.546   0.456   0.897
10834SOL    HW133401   6.511   0.536   0.849
10834SOL    HW233402   6.612   0.408   0.838
10835SOL     OW33403   5.293   3.153   0.336
10835SOL    HW133404   5.351   3.084   0.380
10835SOL    HW233405   5.197   3.135   0.359
10836SOL     OW33406   1.141   0.789   2.713
10836SOL    HW133407   1.222   0.848   2.707
10836SOL    HW233408   1.170   0.694   2.724
10837SOL     OW33409   6.144   4.466   1.954
10837SOL    HW133410   6.196   4.395   1.907
10837SOL    HW233411   6.051   4.469   1.916
10838SOL     OW33412   5.225   6.569   3.452
10838SOL    HW133413   5.228   6.550   3.354
10838SOL    HW233414   5.293   6.639   3.474
10839SOL     OW33415   4.644   3.251   7.006
10839SOL    HW133416   4.732   3.299   7.012
10839SOL    HW233417   4.657   3.164   6.960
10840SOL     OW33418   3.079   0.459   2.083
10840SOL    HW133419   3.154   0.510   2.042
10840SOL    HW233420   3.000   0.520   2.094
10841SOL     OW33421   6.915   5.272   4.732
10841SOL    HW133422   7.002   5.315   4.707
10841SOL    HW233423   6.925   5.173   4.727
10842SOL     OW33424   4.309   3.049   1.687
10842SOL    HW133425   4.404   3.046   1.717
10842SOL    HW233426   4.249   3.029   1.764
10843SOL     OW33427   2.329   1.803   1.134
10843SOL    HW133428   2.377   1.785   1.220
10843SOL    HW233429   2.273   1.886   1.144
10844SOL     OW33430   0.540   5.933   4.656
10844SOL    HW133431   0.518   6.030   4.645
10844SOL    HW233432   0.595   5.921   4.739
10845SOL     OW33433   4.536   5.959   4.980
10845SOL    HW133434   4.443   5.930   4.958
10845SOL    HW233435   4.537   6.000   5.071
10846SOL     OW33436   5.952   6.279   6.935
10846SOL    HW133437   5.994   6.257   6.847
10846SOL    HW233438   5.855   6.258   6.932
10847SOL     OW33439   2.094   1.574   0.083
10847SOL    HW133440   2.121   1.520   0.163
10847SOL    HW233441   2.175   1.605   0.035
10848SOL     OW33442   1.037   3.934   1.138
10848SOL    HW133443   1.091   3.969   1.062
10848SOL    HW233444   1.048   3.993   1.218
10849SOL     OW33445   2.658   4.679   4.310
10849SOL    HW133446   2.638   4.608   4.378
10849SOL    HW233447   2.572   4.721   4.281
10850SOL     OW33448   4.496   6.458   0.353
10850SOL    HW133449   4.513   6.429   0.447
10850SOL    HW233450   4.433   6.393   0.309
10851SOL     OW33451   3.045   4.248   1.698
10851SOL    HW133452   3.011   4.339   1.722
10851SOL    HW233453   2.968   4.186   1.682
10852SOL     OW33454   2.002   1.244   0.128
10852SOL    HW133455   2.075   1.236   0.060
10852SOL    HW233456   2.035   1.296   0.207
10853SOL     OW33457   2.237   2.728   6.350
10853SOL    HW133458   2.233   2.631   6.374
10853SOL    HW233459   2.321   2.768   6.389
10854SOL     OW33460   4.080   5.633   4.864
10854SOL    HW133461   4.111   5.538   4.850
10854SOL    HW233462   3.984   5.641   4.838
10855SOL     OW33463   3.696   1.304   0.697
10855SOL    HW133464   3.724   1.348   0.612
10855SOL    HW233465   3.689   1.374   0.769
10856SOL     OW33466   6.644   0.495   6.104
10856SOL    HW133467   6.651   0.423   6.173
10856SOL    HW233468   6.548   0.523   6.095
10857SOL     OW33469   0.250   1.577   2.710
10857SOL    HW133470   0.250   1.674   2.684
10857SOL    HW233471   0.314   1.527   2.653
10858SOL     OW33472   2.484   6.313   1.584
10858SOL    HW133473   2.516   6.255   1.659
10858SOL    HW233474   2.546   6.391   1.574
10859SOL     OW33475   7.002   4.914   4.432
10859SOL    HW133476   6.998   5.008   4.396
10859SOL    HW233477   6.937   4.905   4.507
10860SOL     OW33478   6.909   3.627   3.165
10860SOL    HW133479   6.844   3.666   3.230
10860SOL    HW233480   6.999   3.620   3.209
10861SOL     OW33481   3.054   3.346   3.693
10861SOL    HW133482   3.019   3.257   3.663
10861SOL    HW233483   3.139   3.366   3.643
10862SOL     OW33484   2.079   0.848   5.476
10862SOL    HW133485   2.110   0.846   5.571
10862SOL    HW233486   1.987   0.887   5.473
10863SOL     OW33487   2.232   6.708   4.690
10863SOL    HW133488   2.152   6.684   4.635
10863SOL    HW233489   2.220   6.799   4.728
10864SOL     OW33490   3.401   6.604   1.940
10864SOL    HW133491   3.355   6.602   1.851
10864SOL    HW233492   3.365   6.531   1.998
10865SOL     OW33493   6.318   1.086   6.694
10865SOL    HW133494   6.359   1.025   6.762
10865SOL    HW233495   6.222   1.062   6.682
10866SOL     OW33496   4.987   4.562   6.667
10866SOL    HW133497   5.016   4.535   6.575
10866SOL    HW233498   4.922   4.638   6.661
10867SOL     OW33499   3.161   4.859   0.818
10867SOL    HW133500   3.078   4.914   0.826
10867SOL    HW233501   3.153   4.777   0.875
10868SOL     OW33502   4.392   1.875   3.547
10868SOL    HW133503   4.319   1.926   3.502
10868SOL    HW233504   4.466   1.857   3.482
10869NA      NA33505   6.018   2.132   5.620
10870NA      NA33506   4.315   4.761   5.076
10871NA      NA33507   1.843   3.605   1.522
10872NA      NA33508   4.939   3.473   5.427
10873NA      NA33509   4.184   2.169   5.032
10874NA      NA33510   3.695   4.736   1.675
10875NA      NA33511   6.573   5.312   5.209
10876NA      NA33512   3.430   3.392   4.848
10877NA      NA33513   5.132   6.535   6.749
10878NA      NA33514   3.450   6.514   5.379
10879NA      NA33515   6.735   5.294   2.205
10880NA      NA33516   2.351   0.532   3.934
10881NA      NA33517   4.047   5.234   1.249
10882NA      NA33518   3.659   3.567   2.407
   7.02378   7.02378   7.02378
