Generated by trjconv : CNT in water t= 362.00000
33518
    1C        C    1   2.845   2.770   4.743
    1C        C    2   2.898   2.717   4.863
    1C        C    3   2.842   2.769   4.981
    1C        C    4   2.846   2.769   4.259
    1C        C    5   2.898   2.719   4.380
    1C        C    6   2.843   2.769   4.500
    1C        C    7   3.005   2.631   4.620
    1C        C    8   2.892   2.715   4.621
    1C        C    9   3.071   2.593   4.739
    1C        C   10   3.008   2.628   4.860
    1C        C   11   3.178   2.482   4.971
    1C        C   12   3.057   2.552   4.967
    1C        C   13   2.843   2.765   3.770
    1C        C   14   2.896   2.719   3.892
    1C        C   15   2.845   2.770   4.014
    1C        C   16   3.012   2.640   4.134
    1C        C   17   2.897   2.722   4.136
    1C        C   18   3.078   2.606   4.254
    1C        C   19   3.015   2.640   4.376
    1C        C   20   3.201   2.543   4.501
    1C        C   21   3.072   2.600   4.499
    1C        C   22   3.272   2.522   4.621
    1C        C   23   3.202   2.539   4.743
    1C        C   24   3.411   2.482   4.860
    1C        C   25   3.268   2.496   4.861
    1C        C   26   3.488   2.477   4.976
    1C        C   27   2.843   2.764   3.280
    1C        C   28   2.896   2.717   3.402
    1C        C   29   2.849   2.765   3.526
    1C        C   30   3.013   2.634   3.646
    1C        C   31   2.898   2.717   3.649
    1C        C   32   3.073   2.601   3.770
    1C        C   33   3.011   2.637   3.892
    1C        C   34   3.198   2.534   4.013
    1C        C   35   3.072   2.598   4.013
    1C        C   36   3.271   2.524   4.133
    1C        C   37   3.208   2.549   4.257
    1C        C   38   3.412   2.502   4.377
    1C        C   39   3.273   2.526   4.380
    1C        C   40   3.483   2.494   4.499
    1C        C   41   3.411   2.494   4.621
    1C        C   42   3.627   2.472   4.740
    1C        C   43   3.485   2.471   4.739
    1C        C   44   3.701   2.478   4.860
    1C        C   45   3.627   2.478   4.979
    1C        C   46   2.836   2.751   2.790
    1C        C   47   2.893   2.709   2.912
    1C        C   48   2.844   2.759   3.035
    1C        C   49   3.010   2.631   3.159
    1C        C   50   2.897   2.715   3.158
    1C        C   51   3.076   2.601   3.280
    1C        C   52   3.014   2.639   3.402
    1C        C   53   3.203   2.544   3.522
    1C        C   54   3.073   2.598   3.523
    1C        C   55   3.269   2.527   3.647
    1C        C   56   3.203   2.546   3.770
    1C        C   57   3.410   2.497   3.892
    1C        C   58   3.270   2.518   3.892
    1C        C   59   3.480   2.495   4.014
    1C        C   60   3.409   2.494   4.136
    1C        C   61   3.625   2.497   4.254
    1C        C   62   3.484   2.489   4.256
    1C        C   63   3.695   2.509   4.376
    1C        C   64   3.624   2.497   4.498
    1C        C   65   3.832   2.534   4.618
    1C        C   66   3.696   2.496   4.619
    1C        C   67   3.899   2.558   4.740
    1C        C   68   3.837   2.518   4.860
    1C        C   69   4.051   2.576   4.971
    1C        C   70   3.919   2.528   4.973
    1C        C   71   2.823   2.736   2.305
    1C        C   72   2.881   2.692   2.426
    1C        C   73   2.832   2.743   2.548
    1C        C   74   3.003   2.620   2.669
    1C        C   75   2.882   2.692   2.670
    1C        C   76   3.065   2.587   2.792
    1C        C   77   3.003   2.620   2.914
    1C        C   78   3.199   2.538   3.034
    1C        C   79   3.068   2.590   3.036
    1C        C   80   3.270   2.519   3.154
    1C        C   81   3.205   2.544   3.277
    1C        C   82   3.411   2.500   3.399
    1C        C   83   3.271   2.524   3.400
    1C        C   84   3.478   2.494   3.523
    1C        C   85   3.408   2.502   3.645
    1C        C   86   3.618   2.504   3.765
    1C        C   87   3.477   2.490   3.768
    1C        C   88   3.688   2.514   3.887
    1C        C   89   3.621   2.506   4.011
    1C        C   90   3.831   2.545   4.131
    1C        C   91   3.694   2.509   4.132
    1C        C   92   3.898   2.566   4.253
    1C        C   93   3.831   2.547   4.376
    1C        C   94   4.025   2.630   4.494
    1C        C   95   3.900   2.565   4.498
    1C        C   96   4.086   2.665   4.617
    1C        C   97   4.026   2.622   4.737
    1C        C   98   4.190   2.759   4.855
    1C        C   99   4.094   2.653   4.858
    1C        C  100   4.204   2.840   4.969
    1C        C  101   2.816   2.722   2.068
    1C        C  102   2.986   2.587   2.190
    1C        C  103   2.875   2.677   2.187
    1C        C  104   3.064   2.572   2.308
    1C        C  105   3.001   2.617   2.426
    1C        C  106   3.195   2.527   2.549
    1C        C  107   3.066   2.584   2.547
    1C        C  108   3.267   2.512   2.670
    1C        C  109   3.194   2.530   2.790
    1C        C  110   3.404   2.491   2.910
    1C        C  111   3.265   2.514   2.911
    1C        C  112   3.477   2.497   3.031
    1C        C  113   3.411   2.507   3.155
    1C        C  114   3.623   2.503   3.276
    1C        C  115   3.482   2.496   3.277
    1C        C  116   3.690   2.516   3.400
    1C        C  117   3.619   2.503   3.521
    1C        C  118   3.828   2.542   3.643
    1C        C  119   3.690   2.510   3.643
    1C        C  120   3.895   2.564   3.766
    1C        C  121   3.826   2.542   3.887
    1C        C  122   4.019   2.639   4.008
    1C        C  123   3.894   2.573   4.007
    1C        C  124   4.080   2.671   4.131
    1C        C  125   4.022   2.633   4.254
    1C        C  126   4.196   2.762   4.370
    1C        C  127   4.086   2.672   4.374
    1C        C  128   4.237   2.817   4.494
    1C        C  129   4.187   2.764   4.614
    1C        C  130   4.321   2.933   4.737
    1C        C  131   4.237   2.818   4.735
    1C        C  132   4.356   2.998   4.858
    1C        C  133   4.279   2.957   4.967
    1C        C  134   3.169   2.465   2.074
    1C        C  135   3.036   2.507   2.083
    1C        C  136   3.254   2.474   2.185
    1C        C  137   3.194   2.514   2.307
    1C        C  138   3.402   2.476   2.423
    1C        C  139   3.262   2.495   2.429
    1C        C  140   3.476   2.480   2.544
    1C        C  141   3.406   2.491   2.666
    1C        C  142   3.617   2.489   2.786
    1C        C  143   3.476   2.483   2.789
    1C        C  144   3.688   2.503   2.907
    1C        C  145   3.618   2.494   3.030
    1C        C  146   3.827   2.535   3.151
    1C        C  147   3.690   2.502   3.152
    1C        C  148   3.894   2.563   3.272
    1C        C  149   3.828   2.547   3.396
    1C        C  150   4.021   2.626   3.519
    1C        C  151   3.893   2.567   3.520
    1C        C  152   4.079   2.666   3.642
    1C        C  153   4.020   2.630   3.765
    1C        C  154   4.188   2.764   3.885
    1C        C  155   4.080   2.673   3.885
    1C        C  156   4.245   2.809   4.007
    1C        C  157   4.190   2.759   4.127
    1C        C  158   4.339   2.915   4.248
    1C        C  159   4.248   2.807   4.247
    1C        C  160   4.372   2.978   4.370
    1C        C  161   4.327   2.926   4.493
    1C        C  162   4.434   3.111   4.611
    1C        C  163   4.360   2.990   4.615
    1C        C  164   4.466   3.180   4.730
    1C        C  165   4.433   3.116   4.851
    1C        C  166   4.508   3.317   4.970
    1C        C  167   4.480   3.181   4.966
    1C        C  168   3.473   2.438   2.069
    1C        C  169   3.393   2.451   2.184
    1C        C  170   3.613   2.463   2.302
    1C        C  171   3.471   2.457   2.301
    1C        C  172   3.688   2.482   2.421
    1C        C  173   3.617   2.484   2.542
    1C        C  174   3.822   2.544   2.661
    1C        C  175   3.688   2.498   2.664
    1C        C  176   3.888   2.569   2.784
    1C        C  177   3.823   2.544   2.907
    1C        C  178   4.022   2.621   3.027
    1C        C  179   3.893   2.563   3.029
    1C        C  180   4.085   2.655   3.149
    1C        C  181   4.021   2.624   3.271
    1C        C  182   4.192   2.745   3.395
    1C        C  183   4.080   2.659   3.395
    1C        C  184   4.242   2.798   3.516
    1C        C  185   4.191   2.752   3.640
    1C        C  186   4.330   2.914   3.758
    1C        C  187   4.241   2.805   3.761
    1C        C  188   4.375   2.970   3.880
    1C        C  189   4.340   2.913   4.004
    1C        C  190   4.443   3.099   4.125
    1C        C  191   4.383   2.971   4.126
    1C        C  192   4.469   3.169   4.245
    1C        C  193   4.440   3.102   4.366
    1C        C  194   4.506   3.307   4.486
    1C        C  195   4.465   3.171   4.487
    1C        C  196   4.517   3.382   4.605
    1C        C  197   4.503   3.318   4.730
    1C        C  198   4.549   3.530   4.846
    1C        C  199   4.529   3.388   4.851
    1C        C  200   4.578   3.616   4.956
    1C        C  201   3.611   2.415   2.069
    1C        C  202   3.821   2.511   2.177
    1C        C  203   3.685   2.468   2.180
    1C        C  204   3.896   2.536   2.296
    1C        C  205   3.825   2.519   2.417
    1C        C  206   4.015   2.619   2.539
    1C        C  207   3.889   2.555   2.537
    1C        C  208   4.076   2.659   2.660
    1C        C  209   4.017   2.624   2.783
    1C        C  210   4.194   2.743   2.904
    1C        C  211   4.081   2.658   2.905
    1C        C  212   4.244   2.795   3.025
    1C        C  213   4.196   2.742   3.148
    1C        C  214   4.335   2.899   3.266
    1C        C  215   4.243   2.792   3.271
    1C        C  216   4.369   2.962   3.388
    1C        C  217   4.330   2.908   3.512
    1C        C  218   4.437   3.093   3.634
    1C        C  219   4.370   2.969   3.634
    1C        C  220   4.464   3.159   3.756
    1C        C  221   4.441   3.095   3.879
    1C        C  222   4.504   3.298   3.998
    1C        C  223   4.469   3.161   4.001
    1C        C  224   4.515   3.372   4.118
    1C        C  225   4.502   3.306   4.243
    1C        C  226   4.509   3.519   4.366
    1C        C  227   4.511   3.377   4.364
    1C        C  228   4.511   3.595   4.484
    1C        C  229   4.524   3.523   4.605
    1C        C  230   4.498   3.738   4.724
    1C        C  231   4.534   3.600   4.723
    1C        C  232   4.491   3.816   4.841
    1C        C  233   4.539   3.751   4.955
    1C        C  234   4.014   2.607   2.058
    1C        C  235   3.890   2.543   2.060
    1C        C  236   4.081   2.646   2.174
    1C        C  237   4.022   2.601   2.295
    1C        C  238   4.197   2.727   2.415
    1C        C  239   4.077   2.651   2.415
    1C        C  240   4.250   2.777   2.536
    1C        C  241   4.193   2.739   2.659
    1C        C  242   4.337   2.894   2.779
    1C        C  243   4.251   2.783   2.780
    1C        C  244   4.382   2.953   2.900
    1C        C  245   4.337   2.901   3.023
    1C        C  246   4.440   3.085   3.144
    1C        C  247   4.381   2.957   3.145
    1C        C  248   4.462   3.152   3.267
    1C        C  249   4.429   3.089   3.389
    1C        C  250   4.494   3.294   3.509
    1C        C  251   4.456   3.158   3.510
    1C        C  252   4.502   3.367   3.631
    1C        C  253   4.495   3.297   3.753
    1C        C  254   4.517   3.508   3.875
    1C        C  255   4.515   3.366   3.875
    1C        C  256   4.508   3.581   3.995
    1C        C  257   4.518   3.513   4.119
    1C        C  258   4.483   3.723   4.238
    1C        C  259   4.509   3.585   4.241
    1C        C  260   4.463   3.795   4.359
    1C        C  261   4.482   3.733   4.484
    1C        C  262   4.420   3.939   4.600
    1C        C  263   4.469   3.807   4.604
    1C        C  264   4.399   4.008   4.722
    1C        C  265   4.432   3.945   4.843
    1C        C  266   4.311   4.131   4.956
    1C        C  267   4.381   4.010   4.956
    1C        C  268   4.254   2.777   2.061
    1C        C  269   4.193   2.732   2.178
    1C        C  270   4.352   2.881   2.294
    1C        C  271   4.254   2.778   2.297
    1C        C  272   4.385   2.945   2.416
    1C        C  273   4.341   2.886   2.536
    1C        C  274   4.444   3.074   2.656
    1C        C  275   4.382   2.948   2.656
    1C        C  276   4.470   3.147   2.774
    1C        C  277   4.442   3.081   2.896
    1C        C  278   4.503   3.283   3.019
    1C        C  279   4.465   3.147   3.019
    1C        C  280   4.508   3.355   3.140
    1C        C  281   4.495   3.289   3.264
    1C        C  282   4.507   3.502   3.383
    1C        C  283   4.505   3.361   3.385
    1C        C  284   4.509   3.574   3.504
    1C        C  285   4.509   3.508   3.629
    1C        C  286   4.478   3.715   3.749
    1C        C  287   4.510   3.577   3.752
    1C        C  288   4.465   3.785   3.871
    1C        C  289   4.483   3.720   3.995
    1C        C  290   4.414   3.923   4.111
    1C        C  291   4.463   3.790   4.116
    1C        C  292   4.388   3.990   4.232
    1C        C  293   4.414   3.928   4.356
    1C        C  294   4.315   4.119   4.476
    1C        C  295   4.386   3.997   4.476
    1C        C  296   4.278   4.184   4.596
    1C        C  297   4.325   4.130   4.717
    1C        C  298   4.200   4.313   4.835
    1C        C  299   4.281   4.196   4.836
    1C        C  300   4.166   4.399   4.944
    1C        C  301   4.350   2.878   2.056
    1C        C  302   4.467   3.064   2.168
    1C        C  303   4.398   2.939   2.173
    1C        C  304   4.483   3.135   2.290
    1C        C  305   4.447   3.072   2.411
    1C        C  306   4.504   3.277   2.533
    1C        C  307   4.471   3.139   2.533
    1C        C  308   4.512   3.352   2.653
    1C        C  309   4.499   3.285   2.776
    1C        C  310   4.519   3.496   2.893
    1C        C  311   4.518   3.354   2.898
    1C        C  312   4.514   3.566   3.015
    1C        C  313   4.514   3.497   3.138
    1C        C  314   4.480   3.709   3.259
    1C        C  315   4.505   3.570   3.259
    1C        C  316   4.468   3.779   3.381
    1C        C  317   4.487   3.713   3.505
    1C        C  318   4.411   3.914   3.623
    1C        C  319   4.462   3.782   3.626
    1C        C  320   4.388   3.981   3.745
    1C        C  321   4.416   3.918   3.868
    1C        C  322   4.309   4.106   3.989
    1C        C  323   4.383   3.985   3.988
    1C        C  324   4.273   4.167   4.110
    1C        C  325   4.319   4.113   4.233
    1C        C  326   4.184   4.282   4.352
    1C        C  327   4.275   4.174   4.353
    1C        C  328   4.138   4.342   4.471
    1C        C  329   4.188   4.293   4.594
    1C        C  330   4.021   4.432   4.708
    1C        C  331   4.136   4.349   4.713
    1C        C  332   3.965   4.485   4.826
    1C        C  333   4.048   4.476   4.938
    1C        C  334   4.547   3.264   2.053
    1C        C  335   4.533   3.125   2.057
    1C        C  336   4.538   3.341   2.170
    1C        C  337   4.514   3.274   2.292
    1C        C  338   4.519   3.489   2.410
    1C        C  339   4.519   3.348   2.412
    1C        C  340   4.512   3.565   2.528
    1C        C  341   4.516   3.493   2.650
    1C        C  342   4.490   3.706   2.771
    1C        C  343   4.513   3.566   2.771
    1C        C  344   4.468   3.775   2.893
    1C        C  345   4.482   3.704   3.014
    1C        C  346   4.413   3.907   3.134
    1C        C  347   4.458   3.773   3.135
    1C        C  348   4.381   3.972   3.255
    1C        C  349   4.416   3.910   3.377
    1C        C  350   4.310   4.096   3.501
    1C        C  351   4.384   3.975   3.498
    1C        C  352   4.268   4.157   3.621
    1C        C  353   4.312   4.100   3.742
    1C        C  354   4.173   4.262   3.863
    1C        C  355   4.269   4.158   3.864
    1C        C  356   4.122   4.316   3.983
    1C        C  357   4.173   4.267   4.106
    1C        C  358   4.008   4.397   4.227
    1C        C  359   4.123   4.316   4.229
    1C        C  360   3.948   4.441   4.347
    1C        C  361   4.015   4.411   4.468
    1C        C  362   3.825   4.516   4.586
    1C        C  363   3.953   4.455   4.587
    1C        C  364   3.758   4.545   4.706
    1C        C  365   3.833   4.536   4.825
    1C        C  366   3.621   4.592   4.948
    1C        C  367   3.757   4.567   4.939
    1C        C  368   4.509   3.559   2.055
    1C        C  369   4.521   3.481   2.171
    1C        C  370   4.492   3.700   2.285
    1C        C  371   4.510   3.560   2.288
    1C        C  372   4.482   3.774   2.404
    1C        C  373   4.491   3.705   2.527
    1C        C  374   4.418   3.905   2.644
    1C        C  375   4.469   3.773   2.649
    1C        C  376   4.383   3.967   2.766
    1C        C  377   4.409   3.903   2.889
    1C        C  378   4.311   4.091   3.008
    1C        C  379   4.382   3.969   3.011
    1C        C  380   4.268   4.148   3.130
    1C        C  381   4.309   4.094   3.254
    1C        C  382   4.169   4.250   3.374
    1C        C  383   4.270   4.151   3.377
    1C        C  384   4.114   4.299   3.495
    1C        C  385   4.168   4.257   3.619
    1C        C  386   4.002   4.388   3.736
    1C        C  387   4.116   4.304   3.741
    1C        C  388   3.945   4.428   3.859
    1C        C  389   4.007   4.397   3.982
    1C        C  390   3.814   4.484   4.105
    1C        C  391   3.943   4.428   4.105
    1C        C  392   3.744   4.507   4.226
    1C        C  393   3.816   4.492   4.347
    1C        C  394   3.611   4.552   4.471
    1C        C  395   3.749   4.521   4.468
    1C        C  396   3.540   4.560   4.593
    1C        C  397   3.617   4.561   4.711
    1C        C  398   3.405   4.548   4.834
    1C        C  399   3.545   4.572   4.832
    1C        C  400   3.335   4.513   4.950
    1C        C  401   4.496   3.697   2.048
    1C        C  402   4.446   3.909   2.163
    1C        C  403   4.486   3.774   2.165
    1C        C  404   4.411   3.976   2.282
    1C        C  405   4.433   3.907   2.403
    1C        C  406   4.321   4.094   2.521
    1C        C  407   4.393   3.972   2.522
    1C        C  408   4.275   4.150   2.642
    1C        C  409   4.308   4.086   2.764
    1C        C  410   4.169   4.248   2.885
    1C        C  411   4.267   4.146   2.886
    1C        C  412   4.118   4.297   3.007
    1C        C  413   4.171   4.251   3.130
    1C        C  414   3.999   4.375   3.250
    1C        C  415   4.117   4.297   3.252
    1C        C  416   3.941   4.419   3.371
    1C        C  417   4.006   4.389   3.493
    1C        C  418   3.811   4.477   3.612
    1C        C  419   3.941   4.424   3.614
    1C        C  420   3.746   4.498   3.736
    1C        C  421   3.812   4.476   3.859
    1C        C  422   3.608   4.527   3.980
    1C        C  423   3.746   4.498   3.982
    1C        C  424   3.537   4.536   4.102
    1C        C  425   3.605   4.531   4.226
    1C        C  426   3.398   4.537   4.350
    1C        C  427   3.539   4.548   4.350
    1C        C  428   3.327   4.541   4.473
    1C        C  429   3.399   4.555   4.593
    1C        C  430   3.189   4.518   4.718
    1C        C  431   3.329   4.543   4.715
    1C        C  432   3.119   4.489   4.838
    1C        C  433   3.198   4.489   4.954
    1C        C  434   4.385   4.121   2.047
    1C        C  435   4.441   3.993   2.050
    1C        C  436   4.302   4.161   2.157
    1C        C  437   4.333   4.095   2.279
    1C        C  438   4.183   4.252   2.397
    1C        C  439   4.283   4.152   2.398
    1C        C  440   4.124   4.294   2.518
    1C        C  441   4.175   4.249   2.642
    1C        C  442   4.000   4.375   2.762
    1C        C  443   4.115   4.293   2.762
    1C        C  444   3.938   4.408   2.884
    1C        C  445   3.999   4.373   3.007
    1C        C  446   3.810   4.472   3.126
    1C        C  447   3.938   4.412   3.128
    1C        C  448   3.742   4.495   3.248
    1C        C  449   3.810   4.473   3.370
    1C        C  450   3.603   4.523   3.494
    1C        C  451   3.742   4.498   3.491
    1C        C  452   3.535   4.534   3.618
    1C        C  453   3.608   4.527   3.738
    1C        C  454   3.394   4.534   3.861
    1C        C  455   3.535   4.537   3.859
    1C        C  456   3.327   4.524   3.985
    1C        C  457   3.396   4.537   4.107
    1C        C  458   3.187   4.500   4.231
    1C        C  459   3.326   4.526   4.229
    1C        C  460   3.120   4.484   4.354
    1C        C  461   3.190   4.505   4.475
    1C        C  462   2.992   4.433   4.597
    1C        C  463   3.122   4.489   4.597
    1C        C  464   2.923   4.405   4.717
    1C        C  465   2.983   4.444   4.840
    1C        C  466   2.790   4.338   4.952
    1C        C  467   2.903   4.420   4.956
    1C        C  468   4.123   4.280   2.036
    1C        C  469   4.186   4.244   2.157
    1C        C  470   4.009   4.376   2.273
    1C        C  471   4.126   4.295   2.275
    1C        C  472   3.944   4.405   2.395
    1C        C  473   4.009   4.377   2.517
    1C        C  474   3.812   4.463   2.638
    1C        C  475   3.942   4.409   2.637
    1C        C  476   3.744   4.489   2.759
    1C        C  477   3.807   4.461   2.882
    1C        C  478   3.603   4.517   3.003
    1C        C  479   3.741   4.490   3.003
    1C        C  480   3.533   4.526   3.126
    1C        C  481   3.603   4.520   3.249
    1C        C  482   3.392   4.529   3.372
    1C        C  483   3.533   4.525   3.371
    1C        C  484   3.323   4.524   3.496
    1C        C  485   3.394   4.538   3.617
    1C        C  486   3.185   4.497   3.742
    1C        C  487   3.322   4.531   3.739
    1C        C  488   3.119   4.472   3.864
    1C        C  489   3.189   4.494   3.986
    1C        C  490   2.996   4.409   4.110
    1C        C  491   3.124   4.468   4.109
    1C        C  492   2.936   4.378   4.235
    1C        C  493   2.993   4.422   4.356
    1C        C  494   2.820   4.302   4.478
    1C        C  495   2.928   4.393   4.478
    1C        C  496   2.769   4.251   4.600
    1C        C  497   2.818   4.309   4.718
    1C        C  498   2.662   4.161   4.841
    1C        C  499   2.747   4.273   4.835
    1C        C  500   2.591   4.114   4.952
    1C        C  501   4.002   4.350   2.038
    1C        C  502   3.811   4.458   2.150
    1C        C  503   3.942   4.403   2.152
    1C        C  504   3.744   4.470   2.274
    1C        C  505   3.810   4.451   2.397
    1C        C  506   3.602   4.502   2.516
    1C        C  507   3.741   4.479   2.517
    1C        C  508   3.533   4.504   2.639
    1C        C  509   3.603   4.507   2.761
    1C        C  510   3.390   4.526   2.880
    1C        C  511   3.531   4.523   2.882
    1C        C  512   3.321   4.513   3.003
    1C        C  513   3.392   4.522   3.124
    1C        C  514   3.187   4.486   3.250
    1C        C  515   3.325   4.518   3.249
    1C        C  516   3.119   4.469   3.373
    1C        C  517   3.186   4.491   3.495
    1C        C  518   2.995   4.408   3.620
    1C        C  519   3.119   4.475   3.619
    1C        C  520   2.935   4.368   3.741
    1C        C  521   2.994   4.406   3.864
    1C        C  522   2.828   4.282   3.990
    1C        C  523   2.937   4.370   3.988
    1C        C  524   2.778   4.235   4.114
    1C        C  525   2.829   4.286   4.235
    1C        C  526   2.696   4.124   4.362
    1C        C  527   2.778   4.239   4.359
    1C        C  528   2.656   4.067   4.485
    1C        C  529   2.683   4.139   4.604
    1C        C  530   2.577   3.955   4.731
    1C        C  531   2.631   4.087   4.724
    1C        C  532   2.532   3.896   4.852
    1C        C  533   2.521   3.993   4.957
    1C        C  534   3.617   4.556   2.040
    1C        C  535   3.748   4.508   2.036
    1C        C  536   3.535   4.523   2.153
    1C        C  537   3.605   4.500   2.274
    1C        C  538   3.389   4.510   2.393
    1C        C  539   3.530   4.507   2.394
    1C        C  540   3.318   4.506   2.515
    1C        C  541   3.392   4.509   2.635
    1C        C  542   3.185   4.476   2.761
    1C        C  543   3.321   4.515   2.757
    1C        C  544   3.120   4.451   2.884
    1C        C  545   3.184   4.476   3.007
    1C        C  546   2.992   4.393   3.130
    1C        C  547   3.117   4.460   3.130
    1C        C  548   2.933   4.363   3.255
    1C        C  549   2.994   4.404   3.376
    1C        C  550   2.829   4.271   3.500
    1C        C  551   2.934   4.366   3.499
    1C        C  552   2.777   4.225   3.623
    1C        C  553   2.827   4.276   3.744
    1C        C  554   2.692   4.118   3.873
    1C        C  555   2.775   4.232   3.868
    1C        C  556   2.655   4.059   3.996
    1C        C  557   2.692   4.123   4.117
    1C        C  558   2.591   3.940   4.241
    1C        C  559   2.650   4.069   4.240
    1C        C  560   2.566   3.875   4.364
    1C        C  561   2.595   3.940   4.486
    1C        C  562   2.530   3.744   4.611
    1C        C  563   2.568   3.880   4.611
    1C        C  564   2.513   3.676   4.734
    1C        C  565   2.510   3.755   4.852
    1C        C  566   2.524   3.542   4.974
    1C        C  567   2.515   3.680   4.971
    1C        C  568   3.322   4.469   2.037
    1C        C  569   3.394   4.508   2.151
    1C        C  570   3.179   4.472   2.275
    1C        C  571   3.318   4.500   2.271
    1C        C  572   3.111   4.451   2.397
    1C        C  573   3.180   4.476   2.518
    1C        C  574   2.985   4.398   2.642
    1C        C  575   3.112   4.459   2.641
    1C        C  576   2.929   4.355   2.764
    1C        C  577   2.994   4.388   2.885
    1C        C  578   2.823   4.265   3.010
    1C        C  579   2.932   4.355   3.008
    1C        C  580   2.772   4.220   3.135
    1C        C  581   2.824   4.273   3.255
    1C        C  582   2.691   4.110   3.382
    1C        C  583   2.779   4.220   3.378
    1C        C  584   2.653   4.052   3.505
    1C        C  585   2.693   4.111   3.627
    1C        C  586   2.589   3.931   3.752
    1C        C  587   2.656   4.055   3.751
    1C        C  588   2.568   3.865   3.876
    1C        C  589   2.599   3.930   3.998
    1C        C  590   2.534   3.732   4.126
    1C        C  591   2.571   3.868   4.122
    1C        C  592   2.524   3.662   4.248
    1C        C  593   2.532   3.738   4.367
    1C        C  594   2.506   3.530   4.494
    1C        C  595   2.520   3.670   4.491
    1C        C  596   2.510   3.458   4.616
    1C        C  597   2.513   3.534   4.735
    1C        C  598   2.535   3.324   4.860
    1C        C  599   2.519   3.464   4.858
    1C        C  600   2.524   3.241   4.973
    1C        C  601   3.190   4.429   2.037
    1C        C  602   2.976   4.393   2.154
    1C        C  603   3.114   4.430   2.155
    1C        C  604   2.922   4.353   2.279
    1C        C  605   2.985   4.388   2.400
    1C        C  606   2.813   4.266   2.523
    1C        C  607   2.921   4.357   2.522
    1C        C  608   2.766   4.214   2.645
    1C        C  609   2.819   4.266   2.765
    1C        C  610   2.685   4.105   2.890
    1C        C  611   2.770   4.217   2.889
    1C        C  612   2.646   4.053   3.016
    1C        C  613   2.680   4.113   3.139
    1C        C  614   2.586   3.923   3.261
    1C        C  615   2.644   4.053   3.262
    1C        C  616   2.566   3.860   3.385
    1C        C  617   2.591   3.925   3.508
    1C        C  618   2.518   3.728   3.635
    1C        C  619   2.563   3.862   3.632
    1C        C  620   2.514   3.658   3.758
    1C        C  621   2.526   3.730   3.878
    1C        C  622   2.505   3.523   4.005
    1C        C  623   2.519   3.663   4.003
    1C        C  624   2.507   3.452   4.127
    1C        C  625   2.505   3.522   4.250
    1C        C  626   2.533   3.315   4.373
    1C        C  627   2.510   3.455   4.374
    1C        C  628   2.553   3.248   4.496
    1C        C  629   2.535   3.319   4.616
    1C        C  630   2.595   3.117   4.740
    1C        C  631   2.551   3.253   4.740
    1C        C  632   2.616   3.046   4.862
    1C        C  633   2.557   3.105   4.978
    1C        C  634   2.773   4.305   2.052
    1C        C  635   2.884   4.390   2.044
    1C        C  636   2.746   4.225   2.164
    1C        C  637   2.805   4.272   2.283
    1C        C  638   2.663   4.111   2.404
    1C        C  639   2.753   4.220   2.404
    1C        C  640   2.630   4.050   2.527
    1C        C  641   2.679   4.102   2.648
    1C        C  642   2.579   3.916   2.774
    1C        C  643   2.644   4.042   2.771
    1C        C  644   2.561   3.852   2.898
    1C        C  645   2.591   3.923   3.017
    1C        C  646   2.519   3.722   3.145
    1C        C  647   2.565   3.856   3.139
    1C        C  648   2.508   3.653   3.268
    1C        C  649   2.532   3.723   3.389
    1C        C  650   2.500   3.516   3.517
    1C        C  651   2.513   3.657   3.513
    1C        C  652   2.501   3.445   3.639
    1C        C  653   2.499   3.517   3.761
    1C        C  654   2.524   3.309   3.887
    1C        C  655   2.502   3.449   3.885
    1C        C  656   2.536   3.240   4.009
    1C        C  657   2.522   3.311   4.131
    1C        C  658   2.581   3.107   4.254
    1C        C  659   2.545   3.243   4.252
    1C        C  660   2.628   3.051   4.375
    1C        C  661   2.605   3.116   4.499
    1C        C  662   2.703   2.929   4.621
    1C        C  663   2.634   3.052   4.621
    1C        C  664   2.748   2.874   4.743
    1C        C  665   2.694   2.926   4.863
    1C        C  666   2.743   2.866   4.980
    1C        C  667   2.672   4.022   2.049
    1C        C  668   2.675   4.103   2.163
    1C        C  669   2.581   3.910   2.287
    1C        C  670   2.634   4.042   2.284
    1C        C  671   2.551   3.848   2.410
    1C        C  672   2.573   3.920   2.529
    1C        C  673   2.513   3.716   2.656
    1C        C  674   2.550   3.852   2.651
    1C        C  675   2.504   3.646   2.778
    1C        C  676   2.520   3.717   2.899
    1C        C  677   2.502   3.510   3.028
    1C        C  678   2.514   3.650   3.024
    1C        C  679   2.503   3.438   3.150
    1C        C  680   2.503   3.512   3.271
    1C        C  681   2.526   3.306   3.399
    1C        C  682   2.502   3.445   3.395
    1C        C  683   2.549   3.238   3.521
    1C        C  684   2.527   3.306   3.643
    1C        C  685   2.600   3.109   3.768
    1C        C  686   2.546   3.239   3.766
    1C        C  687   2.634   3.051   3.892
    1C        C  688   2.591   3.110   4.014
    1C        C  689   2.709   2.933   4.136
    1C        C  690   2.618   3.041   4.134
    1C        C  691   2.753   2.876   4.257
    1C        C  692   2.708   2.935   4.378
    1C        C  693   2.751   2.876   4.499
    1C        C  694   2.618   3.893   2.051
    1C        C  695   2.519   3.703   2.173
    1C        C  696   2.562   3.837   2.167
    1C        C  697   2.502   3.636   2.296
    1C        C  698   2.511   3.712   2.414
    1C        C  699   2.494   3.501   2.541
    1C        C  700   2.500   3.642   2.536
    1C        C  701   2.501   3.432   2.664
    1C        C  702   2.497   3.505   2.786
    1C        C  703   2.525   3.296   2.908
    1C        C  704   2.502   3.435   2.908
    1C        C  705   2.542   3.230   3.031
    1C        C  706   2.530   3.300   3.153
    1C        C  707   2.595   3.103   3.276
    1C        C  708   2.548   3.236   3.278
    1C        C  709   2.629   3.043   3.399
    1C        C  710   2.605   3.108   3.522
    1C        C  711   2.712   2.929   3.645
    1C        C  712   2.630   3.044   3.646
    1C        C  713   2.755   2.875   3.769
    1C        C  714   2.715   2.935   3.890
    1C        C  715   2.755   2.879   4.014
    1C        C  716   2.446   3.492   2.056
    1C        C  717   2.482   3.627   2.061
    1C        C  718   2.464   3.420   2.178
    1C        C  719   2.479   3.495   2.297
    1C        C  720   2.511   3.287   2.420
    1C        C  721   2.489   3.427   2.421
    1C        C  722   2.529   3.220   2.543
    1C        C  723   2.518   3.292   2.664
    1C        C  724   2.591   3.093   2.787
    1C        C  725   2.539   3.225   2.786
    1C        C  726   2.620   3.032   2.911
    1C        C  727   2.588   3.096   3.033
    1C        C  728   2.706   2.920   3.154
    1C        C  729   2.627   3.037   3.155
    1C        C  730   2.748   2.868   3.279
    1C        C  731   2.705   2.924   3.402
    1C        C  732   2.754   2.871   3.523
    1C        C  733   2.489   3.194   2.066
    1C        C  734   2.486   3.278   2.178
    1C        C  735   2.585   3.087   2.303
    1C        C  736   2.525   3.216   2.300
    1C        C  737   2.613   3.019   2.424
    1C        C  738   2.585   3.090   2.543
    1C        C  739   2.691   2.906   2.667
    1C        C  740   2.619   3.028   2.665
    1C        C  741   2.744   2.858   2.788
    1C        C  742   2.702   2.917   2.910
    1C        C  743   2.745   2.860   3.032
    1C        C  744   2.548   3.068   2.068
    1C        C  745   2.683   2.897   2.181
    1C        C  746   2.608   3.017   2.183
    1C        C  747   2.728   2.842   2.302
    1C        C  748   2.684   2.897   2.425
    1C        C  749   2.733   2.845   2.547
    1C        C  750   2.731   2.832   2.066
    1C        C  751   3.649   2.289   2.001
    1C        O  752   3.650   2.176   2.057
    1C        O  753   3.722   2.286   1.882
    1C        C  754   4.624   3.048   1.969
    1C        O  755   4.586   3.017   1.853
    1C        O  756   4.760   3.023   1.994
    1C        C  757   4.425   4.218   1.942
    1C        O  758   4.527   4.290   1.964
    1C        O  759   4.406   4.184   1.808
    1C        C  760   3.592   4.687   1.974
    1C        O  761   3.661   4.790   1.993
    1C        O  762   3.565   4.667   1.838
    1C        C  763   2.867   4.508   1.956
    1C        O  764   2.869   4.483   1.833
    1C        O  765   2.921   4.636   1.975
    1C        C  766   2.347   3.461   1.950
    1C        O  767   2.377   3.439   1.830
    1C        O  768   2.214   3.502   1.964
    1C        C  769   4.700   3.576   5.030
    1C        O  770   4.706   3.534   5.148
    1C        O  771   4.830   3.607   4.989
    1C        C  772   4.263   4.427   5.052
    1C        O  773   4.249   4.427   5.177
    1C        O  774   4.363   4.521   5.023
    1C        C  775   4.153   2.506   5.052
    1C        O  776   4.222   2.416   4.998
    1C        O  777   4.189   2.530   5.185
    1C        C  778   2.885   4.531   5.053
    1C        O  779   2.857   4.648   5.018
    1C        O  780   2.953   4.528   5.176
    1C        C  781   2.462   3.027   5.061
    1C        O  782   2.359   2.977   5.008
    1C        O  783   2.442   3.053   5.196
    1C        C  784   2.420   3.999   5.066
    1C        O  785   2.295   4.001   5.054
    1C        O  786   2.457   3.975   5.199
    1C        C  787   2.944   2.414   2.013
    1C        O  788   2.935   2.406   1.887
    1C        O  789   2.865   2.329   2.088
    1C        C  790   3.166   2.344   5.023
    1C        O  791   3.167   2.240   4.951
    1C        O  792   3.175   2.322   5.161
    1C        H  793   4.256   3.029   5.043
    1C        H  794   4.195   2.791   5.064
    1C        H  795   4.478   3.130   5.060
    1C        H  796   4.545   3.359   5.061
    1C        H  797   4.502   3.783   5.050
    1C        H  798   4.400   3.964   5.051
    1C        H  799   4.228   4.140   5.023
    1C        H  800   4.044   4.558   5.007
    1C        H  801   3.812   4.586   5.029
    1C        H  802   3.581   4.652   5.026
    1C        H  803   3.387   4.499   5.043
    1C        H  804   3.151   4.523   5.043
    1C        H  805   3.871   2.545   5.068
    1C        H  806   3.681   2.441   5.064
    1C        H  807   2.980   2.518   5.033
    1C        H  808   3.438   2.443   5.064
    1C        H  809   2.847   2.704   5.065
    1C        H  810   2.704   2.897   5.075
    1C        H  811   2.533   3.288   5.068
    1C        H  812   2.540   3.505   5.074
    1C        H  813   2.522   3.733   5.064
    1C        H  814   2.648   4.114   5.042
    1C        H  815   2.740   4.314   5.044
    1C        H  816   2.702   2.878   1.974
    1C        H  817   2.847   2.673   1.978
    1C        H  818   3.200   2.401   1.994
    1C        H  819   3.437   2.484   1.979
    1C        H  820   3.855   2.507   1.965
    1C        H  821   4.066   2.620   1.965
    1C        H  822   4.257   2.720   1.970
    1C        H  823   4.380   2.904   1.956
    1C        H  824   4.566   3.313   1.960
    1C        H  825   4.504   3.507   1.962
    1C        H  826   4.502   3.744   1.952
    1C        H  827   3.811   4.542   1.956
    1C        H  828   3.961   4.368   1.941
    1C        H  829   4.152   4.226   1.948
    1C        H  830   4.519   3.975   1.979
    1C        H  831   2.647   3.832   1.968
    1C        H  832   2.703   4.063   1.955
    1C        H  833   2.720   4.288   1.960
    1C        H  834   3.377   4.438   1.951
    1C        H  835   3.162   4.354   1.967
    1C        H  836   2.521   3.005   1.985
    1C        H  837   2.424   3.213   1.982
    1C        H  838   2.493   3.676   1.966
    2V3OU   H29  839   2.794   3.543   3.710
    2V3OU   C27  840   2.787   3.500   3.813
    2V3OU   H27  841   2.737   3.572   3.882
    2V3OU   H28  842   2.734   3.402   3.802
    2V3OU   O11  843   2.911   3.469   3.877
    2V3OU   C15  844   2.926   3.395   3.992
    2V3OU   C13  845   3.055   3.366   4.041
    2V3OU   C14  846   3.078   3.263   4.133
    2V3OU   C16  847   2.978   3.183   4.187
    2V3OU    H6  848   2.991   3.097   4.255
    2V3OU   C12  849   3.213   3.226   4.181
    2V3OU    O2  850   3.233   3.115   4.234
    2V3OU   C10  851   3.327   3.308   4.138
    2V3OU    C8  852   3.455   3.268   4.173
    2V3OU   O10  853   3.482   3.153   4.240
    2V3OU   H26  854   3.396   3.108   4.245
    2V3OU    C6  855   3.565   3.347   4.125
    2V3OU    C5  856   3.535   3.464   4.056
    2V3OU    C4  857   3.702   3.289   4.129
    2V3OU    H4  858   3.720   3.223   4.218
    2V3OU    H5  859   3.704   3.221   4.039
    2V3OU    C2  860   3.813   3.394   4.114
    2V3OU    O6  861   3.810   3.462   4.240
    2V3OU   H21  862   3.768   3.547   4.219
    2V3OU    C3  863   3.777   3.491   4.001
    2V3OU    H2  864   3.860   3.566   3.992
    2V3OU    H3  865   3.778   3.436   3.904
    2V3OU   C25  866   3.948   3.324   4.094
    2V3OU    O7  867   3.989   3.287   3.984
    2V3OU   C26  868   4.022   3.284   4.220
    2V3OU   H22  869   4.061   3.380   4.262
    2V3OU   H23  870   4.115   3.228   4.193
    2V3OU    O8  871   3.955   3.202   4.313
    2V3OU   H24  872   3.912   3.260   4.379
    2V3OU    C1  873   3.644   3.561   4.021
    2V3OU    H1  874   3.621   3.618   3.926
    2V3OU    O3  875   3.650   3.646   4.136
    2V3OU   C19  876   3.616   3.785   4.123
    2V3OU    H9  877   3.518   3.793   4.066
    2V3OU    O4  878   3.715   3.840   4.040
    2V3OU   C20  879   3.846   3.868   4.091
    2V3OU   H10  880   3.904   3.776   4.124
    2V3OU   C24  881   3.608   3.851   4.261
    2V3OU   H16  882   3.543   3.785   4.323
    2V3OU   H17  883   3.565   3.954   4.250
    2V3OU   C23  884   3.747   3.877   4.319
    2V3OU   H15  885   3.788   3.773   4.341
    2V3OU    N1  886   3.734   3.952   4.442
    2V3OU   H19  887   3.810   3.913   4.495
    2V3OU   H20  888   3.642   3.932   4.476
    2V3OU   C21  889   3.847   3.947   4.222
    2V3OU   H11  890   3.951   3.928   4.261
    2V3OU    O5  891   3.823   4.087   4.222
    2V3OU   H18  892   3.782   4.104   4.308
    2V3OU   C22  893   3.907   3.947   3.977
    2V3OU   H12  894   3.856   4.046   3.967
    2V3OU   H13  895   3.897   3.894   3.879
    2V3OU   H14  896   4.018   3.957   3.989
    2V3OU   C11  897   3.162   3.464   4.019
    2V3OU    O1  898   3.131   3.583   3.993
    2V3OU    C9  899   3.298   3.420   4.055
    2V3OU    C7  900   3.404   3.500   4.013
    2V3OU    O9  901   3.389   3.618   3.942
    2V3OU   H25  902   3.293   3.626   3.930
    2V3OU   C17  903   2.826   3.314   4.051
    2V3OU    H7  904   2.728   3.356   4.028
    2V3OU   C18  905   2.850   3.212   4.142
    2V3OU    H8  906   2.784   3.171   4.220
    3SOL     OW  907   2.828   4.678   5.346
    3SOL    HW1  908   2.875   4.618   5.282
    3SOL    HW2  909   2.779   4.749   5.296
    4SOL     OW  910   6.928   0.000   0.093
    4SOL    HW1  911   6.891   0.069   0.156
    4SOL    HW2  912   6.879   0.006   0.006
    5SOL     OW  913   4.954   1.738   2.409
    5SOL    HW1  914   5.028   1.752   2.476
    5SOL    HW2  915   4.907   1.824   2.393
    6SOL     OW  916   5.460   1.838   2.949
    6SOL    HW1  917   5.371   1.849   2.906
    6SOL    HW2  918   5.532   1.857   2.882
    7SOL     OW  919   1.139   4.244   4.872
    7SOL    HW1  920   1.154   4.145   4.872
    7SOL    HW2  921   1.225   4.291   4.854
    8SOL     OW  922   2.579   2.467   5.206
    8SOL    HW1  923   2.551   2.560   5.182
    8SOL    HW2  924   2.612   2.466   5.300
    9SOL     OW  925   6.575   1.546   5.902
    9SOL    HW1  926   6.546   1.590   5.817
    9SOL    HW2  927   6.666   1.578   5.928
   10SOL     OW  928   3.670   5.099   4.039
   10SOL    HW1  929   3.739   5.138   3.978
   10SOL    HW2  930   3.630   5.018   3.996
   11SOL     OW  931   2.057   0.582   0.215
   11SOL    HW1  932   2.074   0.655   0.282
   11SOL    HW2  933   1.986   0.521   0.250
   12SOL     OW  934   2.761   4.746   3.856
   12SOL    HW1  935   2.696   4.694   3.801
   12SOL    HW2  936   2.840   4.771   3.800
   13SOL     OW  937   3.306   6.328   2.826
   13SOL    HW1  938   3.404   6.320   2.842
   13SOL    HW2  939   3.285   6.417   2.787
   14SOL     OW  940   4.465   5.161   5.707
   14SOL    HW1  941   4.378   5.112   5.707
   14SOL    HW2  942   4.504   5.159   5.799
   15SOL     OW  943   0.355   6.407   6.601
   15SOL    HW1  944   0.451   6.397   6.628
   15SOL    HW2  945   0.350   6.446   6.509
   16SOL     OW  946   5.130   2.550   6.018
   16SOL    HW1  947   5.076   2.564   5.935
   16SOL    HW2  948   5.098   2.468   6.065
   17SOL     OW  949   6.033   0.497   6.256
   17SOL    HW1  950   6.051   0.531   6.164
   17SOL    HW2  951   6.015   0.398   6.252
   18SOL     OW  952   3.394   1.444   5.187
   18SOL    HW1  953   3.401   1.419   5.091
   18SOL    HW2  954   3.470   1.404   5.238
   19SOL     OW  955   0.558   2.097   2.544
   19SOL    HW1  956   0.523   2.004   2.529
   19SOL    HW2  957   0.525   2.157   2.471
   20SOL     OW  958   5.809   1.700   5.513
   20SOL    HW1  959   5.791   1.781   5.567
   20SOL    HW2  960   5.724   1.649   5.498
   21SOL     OW  961   3.127   6.851   2.540
   21SOL    HW1  962   3.060   6.877   2.609
   21SOL    HW2  963   3.171   6.932   2.503
   22SOL     OW  964   0.851   5.977   5.738
   22SOL    HW1  965   0.825   5.950   5.646
   22SOL    HW2  966   0.949   5.962   5.751
   23SOL     OW  967   4.613   5.086   2.208
   23SOL    HW1  968   4.629   5.140   2.290
   23SOL    HW2  969   4.655   4.995   2.219
   24SOL     OW  970   3.801   0.430   2.136
   24SOL    HW1  971   3.773   0.494   2.208
   24SOL    HW2  972   3.894   0.399   2.154
   25SOL     OW  973   3.110   0.083   3.797
   25SOL    HW1  974   3.026   0.058   3.749
   25SOL    HW2  975   3.090   0.149   3.869
   26SOL     OW  976   1.403   2.156   0.121
   26SOL    HW1  977   1.393   2.061   0.094
   26SOL    HW2  978   1.369   2.168   0.214
   27SOL     OW  979   0.949   1.283   2.184
   27SOL    HW1  980   1.030   1.243   2.140
   27SOL    HW2  981   0.896   1.211   2.229
   28SOL     OW  982   1.118   0.777   4.509
   28SOL    HW1  983   1.027   0.762   4.471
   28SOL    HW2  984   1.120   0.746   4.604
   29SOL     OW  985   6.070   1.031   1.022
   29SOL    HW1  986   6.168   1.044   1.035
   29SOL    HW2  987   6.020   1.099   1.075
   30SOL     OW  988   3.652   0.605   4.894
   30SOL    HW1  989   3.643   0.551   4.810
   30SOL    HW2  990   3.730   0.666   4.886
   31SOL     OW  991   0.121   2.187   5.146
   31SOL    HW1  992   0.191   2.249   5.184
   31SOL    HW2  993   0.163   2.129   5.076
   32SOL     OW  994   1.241   1.786   2.094
   32SOL    HW1  995   1.188   1.732   2.159
   32SOL    HW2  996   1.233   1.883   2.117
   33SOL     OW  997   0.210   3.775   5.247
   33SOL    HW1  998   0.227   3.793   5.150
   33SOL    HW2  999   0.204   3.861   5.297
   34SOL     OW 1000   2.459   5.184   5.143
   34SOL    HW1 1001   2.363   5.202   5.161
   34SOL    HW2 1002   2.481   5.090   5.171
   35SOL     OW 1003   3.915   1.669   5.600
   35SOL    HW1 1004   3.880   1.716   5.681
   35SOL    HW2 1005   3.987   1.605   5.627
   36SOL     OW 1006   5.074   1.356   4.169
   36SOL    HW1 1007   5.017   1.312   4.100
   36SOL    HW2 1008   5.147   1.407   4.123
   37SOL     OW 1009   1.905   1.237   3.785
   37SOL    HW1 1010   1.957   1.315   3.821
   37SOL    HW2 1011   1.836   1.210   3.852
   38SOL     OW 1012   2.393   4.535   1.507
   38SOL    HW1 1013   2.332   4.458   1.488
   38SOL    HW2 1014   2.389   4.558   1.604
   39SOL     OW 1015   6.442   4.251   6.582
   39SOL    HW1 1016   6.514   4.188   6.554
   39SOL    HW2 1017   6.411   4.226   6.674
   40SOL     OW 1018   3.244   0.173   6.052
   40SOL    HW1 1019   3.280   0.187   6.144
   40SOL    HW2 1020   3.280   0.087   6.015
   41SOL     OW 1021   6.345   3.965   2.732
   41SOL    HW1 1022   6.319   3.984   2.637
   41SOL    HW2 1023   6.395   3.879   2.737
   42SOL     OW 1024   2.870   6.805   4.482
   42SOL    HW1 1025   2.949   6.804   4.420
   42SOL    HW2 1026   2.791   6.842   4.435
   43SOL     OW 1027   3.825   6.803   4.742
   43SOL    HW1 1028   3.837   6.705   4.756
   43SOL    HW2 1029   3.787   6.844   4.824
   44SOL     OW 1030   5.771   2.957   4.989
   44SOL    HW1 1031   5.747   2.879   4.931
   44SOL    HW2 1032   5.773   2.926   5.085
   45SOL     OW 1033   4.543   5.819   2.152
   45SOL    HW1 1034   4.457   5.768   2.141
   45SOL    HW2 1035   4.613   5.780   2.093
   46SOL     OW 1036   0.527   2.840   4.193
   46SOL    HW1 1037   0.587   2.803   4.122
   46SOL    HW2 1038   0.525   2.939   4.186
   47SOL     OW 1039   5.441   4.253   1.508
   47SOL    HW1 1040   5.537   4.278   1.500
   47SOL    HW2 1041   5.404   4.233   1.418
   48SOL     OW 1042   0.355   2.653   6.680
   48SOL    HW1 1043   0.382   2.692   6.768
   48SOL    HW2 1044   0.264   2.687   6.656
   49SOL     OW 1045   5.221   2.753   1.064
   49SOL    HW1 1046   5.217   2.715   1.156
   49SOL    HW2 1047   5.262   2.686   1.002
   50SOL     OW 1048   6.007   1.641   6.131
   50SOL    HW1 1049   6.010   1.689   6.044
   50SOL    HW2 1050   6.038   1.702   6.204
   51SOL     OW 1051   2.084   5.171   2.676
   51SOL    HW1 1052   2.012   5.110   2.642
   51SOL    HW2 1053   2.090   5.164   2.775
   52SOL     OW 1054   5.686   2.407   1.441
   52SOL    HW1 1055   5.687   2.307   1.428
   52SOL    HW2 1056   5.686   2.452   1.352
   53SOL     OW 1057   4.875   0.185   3.128
   53SOL    HW1 1058   4.940   0.219   3.060
   53SOL    HW2 1059   4.787   0.230   3.115
   54SOL     OW 1060   5.942   6.332   0.248
   54SOL    HW1 1061   5.968   6.252   0.302
   54SOL    HW2 1062   5.846   6.353   0.265
   55SOL     OW 1063   1.768   2.515   5.996
   55SOL    HW1 1064   1.715   2.599   5.981
   55SOL    HW2 1065   1.708   2.443   6.030
   56SOL     OW 1066   1.418   1.399   0.833
   56SOL    HW1 1067   1.518   1.397   0.821
   56SOL    HW2 1068   1.388   1.494   0.841
   57SOL     OW 1069   3.565   0.695   6.679
   57SOL    HW1 1070   3.571   0.795   6.679
   57SOL    HW2 1071   3.654   0.657   6.702
   58SOL     OW 1072   0.764   1.173   6.527
   58SOL    HW1 1073   0.787   1.157   6.623
   58SOL    HW2 1074   0.688   1.238   6.522
   59SOL     OW 1075   6.485   3.619   5.902
   59SOL    HW1 1076   6.478   3.692   5.970
   59SOL    HW2 1077   6.397   3.606   5.857
   60SOL     OW 1078   5.816   1.563   3.741
   60SOL    HW1 1079   5.744   1.632   3.726
   60SOL    HW2 1080   5.807   1.526   3.834
   61SOL     OW 1081   0.590   1.108   4.507
   61SOL    HW1 1082   0.666   1.055   4.469
   61SOL    HW2 1083   0.593   1.201   4.471
   62SOL     OW 1084   1.106   1.463   1.752
   62SOL    HW1 1085   1.018   1.483   1.708
   62SOL    HW2 1086   1.107   1.367   1.781
   63SOL     OW 1087   3.950   6.911   4.193
   63SOL    HW1 1088   3.873   6.929   4.132
   63SOL    HW2 1089   3.928   6.833   4.252
   64SOL     OW 1090   1.499   3.558   6.452
   64SOL    HW1 1091   1.542   3.647   6.438
   64SOL    HW2 1092   1.424   3.546   6.387
   65SOL     OW 1093   0.119   0.022   5.787
   65SOL    HW1 1094   0.067   0.028   5.701
   65SOL    HW2 1095   0.061   0.054   5.862
   66SOL     OW 1096   3.093   0.609   2.820
   66SOL    HW1 1097   3.126   0.548   2.892
   66SOL    HW2 1098   3.144   0.593   2.736
   67SOL     OW 1099   0.356   2.335   6.756
   67SOL    HW1 1100   0.406   2.337   6.670
   67SOL    HW2 1101   0.412   2.375   6.828
   68SOL     OW 1102   6.889   1.642   5.822
   68SOL    HW1 1103   6.847   1.731   5.802
   68SOL    HW2 1104   6.949   1.616   5.747
   69SOL     OW 1105   1.686   4.616   6.141
   69SOL    HW1 1106   1.717   4.629   6.047
   69SOL    HW2 1107   1.737   4.677   6.202
   70SOL     OW 1108   5.325   4.144   5.002
   70SOL    HW1 1109   5.402   4.147   4.938
   70SOL    HW2 1110   5.318   4.052   5.041
   71SOL     OW 1111   4.802   2.171   4.213
   71SOL    HW1 1112   4.734   2.213   4.272
   71SOL    HW2 1113   4.780   2.190   4.118
   72SOL     OW 1114   0.315   0.799   3.090
   72SOL    HW1 1115   0.337   0.722   3.149
   72SOL    HW2 1116   0.216   0.811   3.085
   73SOL     OW 1117   3.622   0.151   0.194
   73SOL    HW1 1118   3.624   0.229   0.131
   73SOL    HW2 1119   3.566   0.174   0.273
   74SOL     OW 1120   2.310   1.766   6.320
   74SOL    HW1 1121   2.340   1.833   6.388
   74SOL    HW2 1122   2.321   1.805   6.228
   75SOL     OW 1123   4.275   2.128   1.478
   75SOL    HW1 1124   4.348   2.066   1.450
   75SOL    HW2 1125   4.316   2.211   1.516
   76SOL     OW 1126   2.567   4.684   5.967
   76SOL    HW1 1127   2.520   4.646   5.887
   76SOL    HW2 1128   2.648   4.735   5.938
   77SOL     OW 1129   2.044   5.323   4.132
   77SOL    HW1 1130   2.001   5.367   4.211
   77SOL    HW2 1131   2.037   5.224   4.141
   78SOL     OW 1132   4.267   1.355   1.233
   78SOL    HW1 1133   4.366   1.355   1.224
   78SOL    HW2 1134   4.236   1.264   1.260
   79SOL     OW 1135   2.349   5.727   2.135
   79SOL    HW1 1136   2.384   5.813   2.173
   79SOL    HW2 1137   2.310   5.744   2.045
   80SOL     OW 1138   5.034   2.098   4.905
   80SOL    HW1 1139   5.018   2.151   4.988
   80SOL    HW2 1140   5.036   2.160   4.826
   81SOL     OW 1141   1.820   0.458   0.295
   81SOL    HW1 1142   1.880   0.432   0.370
   81SOL    HW2 1143   1.735   0.497   0.332
   82SOL     OW 1144   0.368   6.141   2.371
   82SOL    HW1 1145   0.313   6.190   2.304
   82SOL    HW2 1146   0.320   6.057   2.398
   83SOL     OW 1147   6.784   1.836   5.637
   83SOL    HW1 1148   6.794   1.935   5.627
   83SOL    HW2 1149   6.829   1.791   5.559
   84SOL     OW 1150   6.150   3.381   3.316
   84SOL    HW1 1151   6.144   3.327   3.400
   84SOL    HW2 1152   6.089   3.459   3.322
   85SOL     OW 1153   1.833   6.847   3.736
   85SOL    HW1 1154   1.822   6.936   3.692
   85SOL    HW2 1155   1.751   6.792   3.720
   86SOL     OW 1156   6.144   0.977   6.573
   86SOL    HW1 1157   6.239   0.992   6.601
   86SOL    HW2 1158   6.121   1.041   6.499
   87SOL     OW 1159   4.189   4.560   0.020
   87SOL    HW1 1160   4.256   4.505   6.987
   87SOL    HW2 1161   4.234   4.611   0.093
   88SOL     OW 1162   2.881   2.227   5.682
   88SOL    HW1 1163   2.845   2.310   5.639
   88SOL    HW2 1164   2.811   2.156   5.682
   89SOL     OW 1165   3.109   3.909   1.895
   89SOL    HW1 1166   3.179   3.862   1.841
   89SOL    HW2 1167   3.056   3.970   1.835
   90SOL     OW 1168   4.678   4.468   2.665
   90SOL    HW1 1169   4.649   4.540   2.727
   90SOL    HW2 1170   4.630   4.477   2.578
   91SOL     OW 1171   5.971   6.209   5.837
   91SOL    HW1 1172   5.874   6.233   5.829
   91SOL    HW2 1173   6.015   6.267   5.905
   92SOL     OW 1174   5.092   3.809   0.544
   92SOL    HW1 1175   5.152   3.889   0.548
   92SOL    HW2 1176   5.047   3.805   0.455
   93SOL     OW 1177   3.108   3.411   0.580
   93SOL    HW1 1178   3.011   3.429   0.598
   93SOL    HW2 1179   3.154   3.388   0.665
   94SOL     OW 1180   2.592   6.858   6.874
   94SOL    HW1 1181   2.540   6.844   6.790
   94SOL    HW2 1182   2.552   6.803   6.947
   95SOL     OW 1183   0.922   0.550   4.402
   95SOL    HW1 1184   0.849   0.508   4.456
   95SOL    HW2 1185   0.995   0.483   4.387
   96SOL     OW 1186   5.016   4.861   6.890
   96SOL    HW1 1187   5.061   4.948   6.908
   96SOL    HW2 1188   5.039   4.830   6.798
   97SOL     OW 1189   2.066   5.057   5.315
   97SOL    HW1 1190   1.967   5.060   5.328
   97SOL    HW2 1191   2.087   5.046   5.218
   98SOL     OW 1192   0.919   2.578   1.472
   98SOL    HW1 1193   0.922   2.512   1.397
   98SOL    HW2 1194   0.959   2.537   1.554
   99SOL     OW 1195   3.183   4.067   3.135
   99SOL    HW1 1196   3.266   4.088   3.188
   99SOL    HW2 1197   3.137   3.988   3.176
  100SOL     OW 1198   6.949   0.500   4.004
  100SOL    HW1 1199   6.986   0.525   3.915
  100SOL    HW2 1200   6.934   0.401   4.008
  101SOL     OW 1201   1.003   4.996   2.613
  101SOL    HW1 1202   0.976   4.902   2.636
  101SOL    HW2 1203   1.068   5.030   2.680
  102SOL     OW 1204   2.471   6.181   2.367
  102SOL    HW1 1205   2.490   6.267   2.319
  102SOL    HW2 1206   2.492   6.191   2.464
  103SOL     OW 1207   1.470   1.337   2.006
  103SOL    HW1 1208   1.557   1.385   1.999
  103SOL    HW2 1209   1.396   1.403   2.014
  104SOL     OW 1210   1.291   4.814   2.170
  104SOL    HW1 1211   1.344   4.796   2.253
  104SOL    HW2 1212   1.333   4.768   2.092
  105SOL     OW 1213   4.986   1.166   6.575
  105SOL    HW1 1214   5.037   1.121   6.649
  105SOL    HW2 1215   4.959   1.098   6.508
  106SOL     OW 1216   5.202   5.167   1.667
  106SOL    HW1 1217   5.123   5.211   1.626
  106SOL    HW2 1218   5.194   5.168   1.766
  107SOL     OW 1219   6.446   0.793   0.240
  107SOL    HW1 1220   6.466   0.868   0.176
  107SOL    HW2 1221   6.362   0.747   0.212
  108SOL     OW 1222   2.823   6.961   4.696
  108SOL    HW1 1223   2.725   6.949   4.714
  108SOL    HW2 1224   2.845   6.923   4.606
  109SOL     OW 1225   3.393   0.899   2.871
  109SOL    HW1 1226   3.346   0.859   2.950
  109SOL    HW2 1227   3.347   0.870   2.787
  110SOL     OW 1228   2.293   4.550   5.167
  110SOL    HW1 1229   2.388   4.557   5.197
  110SOL    HW2 1230   2.257   4.460   5.192
  111SOL     OW 1231   7.004   1.434   2.628
  111SOL    HW1 1232   0.053   1.357   2.633
  111SOL    HW2 1233   0.032   1.516   2.666
  112SOL     OW 1234   4.292   6.234   6.589
  112SOL    HW1 1235   4.335   6.292   6.658
  112SOL    HW2 1236   4.215   6.184   6.629
  113SOL     OW 1237   6.618   5.122   2.916
  113SOL    HW1 1238   6.586   5.045   2.861
  113SOL    HW2 1239   6.611   5.207   2.862
  114SOL     OW 1240   1.074   4.890   3.288
  114SOL    HW1 1241   1.012   4.880   3.210
  114SOL    HW2 1242   1.113   4.982   3.289
  115SOL     OW 1243   5.581   1.728   3.693
  115SOL    HW1 1244   5.594   1.778   3.779
  115SOL    HW2 1245   5.636   1.771   3.622
  116SOL     OW 1246   0.008   6.006   1.239
  116SOL    HW1 1247   0.039   5.971   1.327
  116SOL    HW2 1248   0.088   6.028   1.182
  117SOL     OW 1249   2.751   1.400   0.099
  117SOL    HW1 1250   2.744   1.449   0.012
  117SOL    HW2 1251   2.707   1.454   0.171
  118SOL     OW 1252   1.677   1.505   3.459
  118SOL    HW1 1253   1.776   1.501   3.450
  118SOL    HW2 1254   1.650   1.470   3.549
  119SOL     OW 1255   0.588   6.961   6.741
  119SOL    HW1 1256   0.654   6.902   6.786
  119SOL    HW2 1257   0.568   0.025   6.800
  120SOL     OW 1258   4.563   0.366   4.865
  120SOL    HW1 1259   4.559   0.275   4.905
  120SOL    HW2 1260   4.516   0.432   4.924
  121SOL     OW 1261   1.479   4.153   7.015
  121SOL    HW1 1262   1.428   4.069   6.996
  121SOL    HW2 1263   1.478   4.171   0.098
  122SOL     OW 1264   1.047   4.175   0.528
  122SOL    HW1 1265   1.137   4.168   0.571
  122SOL    HW2 1266   1.035   4.266   0.490
  123SOL     OW 1267   1.478   0.734   1.256
  123SOL    HW1 1268   1.536   0.717   1.336
  123SOL    HW2 1269   1.384   0.751   1.285
  124SOL     OW 1270   3.261   2.384   0.585
  124SOL    HW1 1271   3.231   2.454   0.520
  124SOL    HW2 1272   3.360   2.370   0.576
  125SOL     OW 1273   3.127   2.920   0.012
  125SOL    HW1 1274   3.044   2.964   0.047
  125SOL    HW2 1275   3.157   2.966   6.944
  126SOL     OW 1276   3.019   3.129   3.306
  126SOL    HW1 1277   3.098   3.133   3.245
  126SOL    HW2 1278   2.937   3.106   3.253
  127SOL     OW 1279   6.877   5.981   5.540
  127SOL    HW1 1280   6.802   6.025   5.590
  127SOL    HW2 1281   6.884   5.885   5.570
  128SOL     OW 1282   4.876   3.927   2.224
  128SOL    HW1 1283   4.965   3.927   2.179
  128SOL    HW2 1284   4.877   3.991   2.301
  129SOL     OW 1285   1.956   5.246   1.024
  129SOL    HW1 1286   1.903   5.296   1.092
  129SOL    HW2 1287   2.028   5.194   1.069
  130SOL     OW 1288   6.208   1.432   3.997
  130SOL    HW1 1289   6.262   1.512   4.023
  130SOL    HW2 1290   6.201   1.369   4.074
  131SOL     OW 1291   6.324   0.968   4.213
  131SOL    HW1 1292   6.399   0.927   4.265
  131SOL    HW2 1293   6.304   0.911   4.133
  132SOL     OW 1294   3.310   3.633   1.447
  132SOL    HW1 1295   3.390   3.641   1.389
  132SOL    HW2 1296   3.327   3.564   1.518
  133SOL     OW 1297   4.893   1.449   3.227
  133SOL    HW1 1298   4.867   1.438   3.323
  133SOL    HW2 1299   4.974   1.507   3.221
  134SOL     OW 1300   0.053   0.767   2.545
  134SOL    HW1 1301   0.134   0.772   2.604
  134SOL    HW2 1302   0.070   0.701   2.472
  135SOL     OW 1303   4.953   3.545   4.560
  135SOL    HW1 1304   4.954   3.519   4.656
  135SOL    HW2 1305   4.916   3.470   4.505
  136SOL     OW 1306   2.501   5.816   4.766
  136SOL    HW1 1307   2.485   5.879   4.690
  136SOL    HW2 1308   2.546   5.733   4.732
  137SOL     OW 1309   4.271   1.390   4.280
  137SOL    HW1 1310   4.343   1.334   4.322
  137SOL    HW2 1311   4.307   1.433   4.197
  138SOL     OW 1312   0.673   5.618   3.577
  138SOL    HW1 1313   0.623   5.653   3.498
  138SOL    HW2 1314   0.759   5.576   3.547
  139SOL     OW 1315   2.143   5.530   6.987
  139SOL    HW1 1316   2.151   5.573   6.897
  139SOL    HW2 1317   2.072   5.460   6.984
  140SOL     OW 1318   1.542   0.310   2.918
  140SOL    HW1 1319   1.471   0.377   2.938
  140SOL    HW2 1320   1.511   0.219   2.944
  141SOL     OW 1321   6.672   3.322   0.115
  141SOL    HW1 1322   6.665   3.399   0.052
  141SOL    HW2 1323   6.609   3.336   0.191
  142SOL     OW 1324   2.370   4.217   1.528
  142SOL    HW1 1325   2.452   4.180   1.484
  142SOL    HW2 1326   2.289   4.173   1.490
  143SOL     OW 1327   5.861   6.461   1.356
  143SOL    HW1 1328   5.950   6.506   1.347
  143SOL    HW2 1329   5.810   6.501   1.432
  144SOL     OW 1330   3.189   4.971   3.996
  144SOL    HW1 1331   3.165   5.054   3.947
  144SOL    HW2 1332   3.109   4.937   4.045
  145SOL     OW 1333   0.761   4.464   2.563
  145SOL    HW1 1334   0.808   4.463   2.652
  145SOL    HW2 1335   0.784   4.381   2.512
  146SOL     OW 1336   5.727   1.632   5.846
  146SOL    HW1 1337   5.642   1.607   5.799
  146SOL    HW2 1338   5.705   1.685   5.928
  147SOL     OW 1339   5.278   1.489   4.680
  147SOL    HW1 1340   5.209   1.561   4.672
  147SOL    HW2 1341   5.237   1.401   4.661
  148SOL     OW 1342   1.397   4.677   1.403
  148SOL    HW1 1343   1.470   4.706   1.465
  148SOL    HW2 1344   1.314   4.660   1.455
  149SOL     OW 1345   2.742   2.289   5.011
  149SOL    HW1 1346   2.728   2.192   5.031
  149SOL    HW2 1347   2.697   2.345   5.081
  150SOL     OW 1348   3.903   1.372   5.405
  150SOL    HW1 1349   3.857   1.342   5.488
  150SOL    HW2 1350   4.002   1.364   5.417
  151SOL     OW 1351   4.448   1.419   1.512
  151SOL    HW1 1352   4.509   1.408   1.435
  151SOL    HW2 1353   4.501   1.421   1.597
  152SOL     OW 1354   0.020   1.518   6.703
  152SOL    HW1 1355   7.013   1.477   6.614
  152SOL    HW2 1356   7.005   1.613   6.704
  153SOL     OW 1357   3.151   1.009   3.319
  153SOL    HW1 1358   3.250   1.022   3.314
  153SOL    HW2 1359   3.112   1.082   3.375
  154SOL     OW 1360   6.814   2.420   0.839
  154SOL    HW1 1361   6.895   2.469   0.808
  154SOL    HW2 1362   6.795   2.442   0.934
  155SOL     OW 1363   0.389   0.369   1.639
  155SOL    HW1 1364   0.307   0.420   1.614
  155SOL    HW2 1365   0.400   0.370   1.739
  156SOL     OW 1366   6.193   1.431   0.423
  156SOL    HW1 1367   6.174   1.347   0.473
  156SOL    HW2 1368   6.155   1.509   0.472
  157SOL     OW 1369   5.841   2.913   0.011
  157SOL    HW1 1370   5.877   2.825   6.997
  157SOL    HW2 1371   5.915   2.980   0.014
  158SOL     OW 1372   1.282   2.499   2.184
  158SOL    HW1 1373   1.280   2.575   2.249
  158SOL    HW2 1374   1.292   2.413   2.234
  159SOL     OW 1375   4.806   4.911   0.630
  159SOL    HW1 1376   4.737   4.864   0.685
  159SOL    HW2 1377   4.792   4.889   0.534
  160SOL     OW 1378   6.779   0.107   0.730
  160SOL    HW1 1379   6.684   0.076   0.733
  160SOL    HW2 1380   6.832   0.059   0.799
  161SOL     OW 1381   1.174   6.717   1.271
  161SOL    HW1 1382   1.172   6.632   1.219
  161SOL    HW2 1383   1.094   6.772   1.249
  162SOL     OW 1384   2.422   6.022   0.289
  162SOL    HW1 1385   2.451   6.101   0.343
  162SOL    HW2 1386   2.414   5.942   0.349
  163SOL     OW 1387   6.803   4.977   3.037
  163SOL    HW1 1388   6.747   5.048   2.994
  163SOL    HW2 1389   6.762   4.887   3.018
  164SOL     OW 1390   1.828   1.772   3.125
  164SOL    HW1 1391   1.817   1.858   3.075
  164SOL    HW2 1392   1.811   1.788   3.222
  165SOL     OW 1393   6.698   5.271   2.495
  165SOL    HW1 1394   6.665   5.345   2.436
  165SOL    HW2 1395   6.668   5.183   2.459
  166SOL     OW 1396   6.277   3.968   1.191
  166SOL    HW1 1397   6.254   4.059   1.226
  166SOL    HW2 1398   6.347   3.926   1.250
  167SOL     OW 1399   5.186   1.980   6.767
  167SOL    HW1 1400   5.211   2.073   6.742
  167SOL    HW2 1401   5.175   1.925   6.685
  168SOL     OW 1402   4.082   3.071   1.873
  168SOL    HW1 1403   4.131   3.152   1.905
  168SOL    HW2 1404   4.117   3.044   1.783
  169SOL     OW 1405   6.305   2.935   0.601
  169SOL    HW1 1406   6.383   2.996   0.586
  169SOL    HW2 1407   6.272   2.901   0.513
  170SOL     OW 1408   0.942   6.148   3.350
  170SOL    HW1 1409   0.921   6.187   3.440
  170SOL    HW2 1410   0.866   6.167   3.287
  171SOL     OW 1411   1.552   3.184   0.066
  171SOL    HW1 1412   1.620   3.208   7.012
  171SOL    HW2 1413   1.597   3.141   0.144
  172SOL     OW 1414   5.601   2.383   2.099
  172SOL    HW1 1415   5.567   2.356   2.008
  172SOL    HW2 1416   5.690   2.426   2.089
  173SOL     OW 1417   5.757   1.027   5.123
  173SOL    HW1 1418   5.659   1.018   5.142
  173SOL    HW2 1419   5.807   0.954   5.169
  174SOL     OW 1420   4.922   5.030   4.971
  174SOL    HW1 1421   5.000   5.086   4.999
  174SOL    HW2 1422   4.924   4.943   5.020
  175SOL     OW 1423   2.695   0.811   0.901
  175SOL    HW1 1424   2.639   0.728   0.908
  175SOL    HW2 1425   2.668   0.862   0.819
  176SOL     OW 1426   5.041   5.130   3.180
  176SOL    HW1 1427   4.988   5.058   3.226
  176SOL    HW2 1428   5.047   5.210   3.240
  177SOL     OW 1429   5.319   2.192   5.488
  177SOL    HW1 1430   5.249   2.122   5.481
  177SOL    HW2 1431   5.379   2.188   5.408
  178SOL     OW 1432   2.387   5.426   4.877
  178SOL    HW1 1433   2.472   5.460   4.916
  178SOL    HW2 1434   2.357   5.487   4.803
  179SOL     OW 1435   4.187   6.203   0.504
  179SOL    HW1 1436   4.118   6.132   0.496
  179SOL    HW2 1437   4.273   6.163   0.537
  180SOL     OW 1438   2.980   6.836   0.732
  180SOL    HW1 1439   2.906   6.899   0.708
  180SOL    HW2 1440   3.012   6.856   0.824
  181SOL     OW 1441   2.931   2.310   5.236
  181SOL    HW1 1442   2.886   2.312   5.146
  181SOL    HW2 1443   3.030   2.302   5.223
  182SOL     OW 1444   5.183   3.301   0.815
  182SOL    HW1 1445   5.110   3.236   0.792
  182SOL    HW2 1446   5.168   3.387   0.765
  183SOL     OW 1447   4.269   2.270   4.401
  183SOL    HW1 1448   4.196   2.260   4.468
  183SOL    HW2 1449   4.293   2.180   4.364
  184SOL     OW 1450   1.267   6.736   3.207
  184SOL    HW1 1451   1.191   6.797   3.230
  184SOL    HW2 1452   1.235   6.662   3.149
  185SOL     OW 1453   1.090   1.643   4.075
  185SOL    HW1 1454   1.034   1.568   4.110
  185SOL    HW2 1455   1.086   1.645   3.975
  186SOL     OW 1456   5.706   5.941   4.431
  186SOL    HW1 1457   5.743   5.913   4.342
  186SOL    HW2 1458   5.765   5.908   4.504
  187SOL     OW 1459   4.592   5.401   2.831
  187SOL    HW1 1460   4.654   5.466   2.787
  187SOL    HW2 1461   4.504   5.400   2.782
  188SOL     OW 1462   1.634   2.291   3.277
  188SOL    HW1 1463   1.594   2.204   3.307
  188SOL    HW2 1464   1.573   2.336   3.212
  189SOL     OW 1465   6.348   5.126   6.381
  189SOL    HW1 1466   6.411   5.198   6.409
  189SOL    HW2 1467   6.399   5.051   6.339
  190SOL     OW 1468   6.236   4.888   6.524
  190SOL    HW1 1469   6.248   4.812   6.589
  190SOL    HW2 1470   6.290   4.966   6.555
  191SOL     OW 1471   6.582   1.249   5.814
  191SOL    HW1 1472   6.668   1.219   5.854
  191SOL    HW2 1473   6.576   1.349   5.819
  192SOL     OW 1474   0.367   4.138   1.687
  192SOL    HW1 1475   0.402   4.222   1.729
  192SOL    HW2 1476   0.292   4.161   1.625
  193SOL     OW 1477   3.796   4.484   5.838
  193SOL    HW1 1478   3.787   4.412   5.770
  193SOL    HW2 1479   3.787   4.444   5.930
  194SOL     OW 1480   4.019   6.968   1.756
  194SOL    HW1 1481   4.091   0.021   1.758
  194SOL    HW2 1482   3.947   6.993   1.821
  195SOL     OW 1483   2.907   0.945   2.632
  195SOL    HW1 1484   2.819   0.979   2.600
  195SOL    HW2 1485   2.971   0.941   2.556
  196SOL     OW 1486   2.729   1.033   6.638
  196SOL    HW1 1487   2.658   1.002   6.702
  196SOL    HW2 1488   2.689   1.043   6.546
  197SOL     OW 1489   2.163   5.869   6.640
  197SOL    HW1 1490   2.187   5.952   6.591
  197SOL    HW2 1491   2.064   5.861   6.647
  198SOL     OW 1492   4.629   5.794   1.156
  198SOL    HW1 1493   4.538   5.756   1.140
  198SOL    HW2 1494   4.624   5.866   1.225
  199SOL     OW 1495   6.538   1.221   1.952
  199SOL    HW1 1496   6.506   1.128   1.969
  199SOL    HW2 1497   6.500   1.282   2.022
  200SOL     OW 1498   1.206   3.086   2.528
  200SOL    HW1 1499   1.172   3.180   2.524
  200SOL    HW2 1500   1.209   3.048   2.436
  201SOL     OW 1501   2.379   0.329   6.687
  201SOL    HW1 1502   2.286   0.292   6.680
  201SOL    HW2 1503   2.436   0.267   6.741
  202SOL     OW 1504   5.148   0.262   5.064
  202SOL    HW1 1505   5.112   0.307   4.982
  202SOL    HW2 1506   5.082   0.194   5.097
  203SOL     OW 1507   4.981   2.599   5.775
  203SOL    HW1 1508   4.911   2.670   5.778
  203SOL    HW2 1509   5.053   2.626   5.711
  204SOL     OW 1510   1.420   0.125   7.008
  204SOL    HW1 1511   1.486   0.071   0.044
  204SOL    HW2 1512   1.348   0.066   6.973
  205SOL     OW 1513   0.828   1.472   1.109
  205SOL    HW1 1514   0.831   1.379   1.073
  205SOL    HW2 1515   0.747   1.484   1.166
  206SOL     OW 1516   0.576   4.376   1.335
  206SOL    HW1 1517   0.483   4.351   1.307
  206SOL    HW2 1518   0.572   4.441   1.411
  207SOL     OW 1519   4.056   0.168   5.124
  207SOL    HW1 1520   4.029   0.245   5.182
  207SOL    HW2 1521   3.982   0.147   5.060
  208SOL     OW 1522   5.064   4.609   5.675
  208SOL    HW1 1523   5.145   4.553   5.691
  208SOL    HW2 1524   4.996   4.554   5.626
  209SOL     OW 1525   0.524   5.808   5.803
  209SOL    HW1 1526   0.592   5.818   5.875
  209SOL    HW2 1527   0.432   5.815   5.842
  210SOL     OW 1528   4.400   2.201   2.176
  210SOL    HW1 1529   4.379   2.276   2.113
  210SOL    HW2 1530   4.357   2.218   2.264
  211SOL     OW 1531   0.886   0.593   3.037
  211SOL    HW1 1532   0.819   0.667   3.047
  211SOL    HW2 1533   0.878   0.554   2.945
  212SOL     OW 1534   1.505   4.797   2.432
  212SOL    HW1 1535   1.557   4.870   2.476
  212SOL    HW2 1536   1.407   4.812   2.448
  213SOL     OW 1537   4.863   0.986   6.417
  213SOL    HW1 1538   4.795   0.916   6.395
  213SOL    HW2 1539   4.954   0.954   6.389
  214SOL     OW 1540   1.769   6.104   3.186
  214SOL    HW1 1541   1.827   6.181   3.215
  214SOL    HW2 1542   1.821   6.046   3.123
  215SOL     OW 1543   3.783   3.834   1.525
  215SOL    HW1 1544   3.785   3.736   1.505
  215SOL    HW2 1545   3.733   3.850   1.611
  216SOL     OW 1546   1.358   0.154   5.328
  216SOL    HW1 1547   1.375   0.186   5.235
  216SOL    HW2 1548   1.348   0.055   5.328
  217SOL     OW 1549   1.514   2.779   4.085
  217SOL    HW1 1550   1.602   2.814   4.118
  217SOL    HW2 1551   1.440   2.838   4.118
  218SOL     OW 1552   1.686   2.678   4.758
  218SOL    HW1 1553   1.743   2.744   4.710
  218SOL    HW2 1554   1.590   2.707   4.754
  219SOL     OW 1555   3.401   3.909   6.372
  219SOL    HW1 1556   3.440   4.001   6.378
  219SOL    HW2 1557   3.303   3.913   6.389
  220SOL     OW 1558   2.647   5.755   0.128
  220SOL    HW1 1559   2.601   5.814   0.061
  220SOL    HW2 1560   2.594   5.671   0.140
  221SOL     OW 1561   5.571   4.083   3.174
  221SOL    HW1 1562   5.591   4.050   3.082
  221SOL    HW2 1563   5.497   4.151   3.170
  222SOL     OW 1564   1.489   5.403   5.382
  222SOL    HW1 1565   1.396   5.381   5.351
  222SOL    HW2 1566   1.505   5.501   5.371
  223SOL     OW 1567   0.631   3.296   1.426
  223SOL    HW1 1568   0.683   3.299   1.511
  223SOL    HW2 1569   0.642   3.382   1.377
  224SOL     OW 1570   2.933   2.245   3.217
  224SOL    HW1 1571   2.878   2.277   3.293
  224SOL    HW2 1572   3.017   2.204   3.251
  225SOL     OW 1573   5.674   0.906   6.566
  225SOL    HW1 1574   5.657   0.985   6.508
  225SOL    HW2 1575   5.735   0.842   6.520
  226SOL     OW 1576   0.571   0.108   0.307
  226SOL    HW1 1577   0.554   0.029   0.248
  226SOL    HW2 1578   0.593   0.187   0.251
  227SOL     OW 1579   0.992   4.316   3.605
  227SOL    HW1 1580   0.909   4.304   3.550
  227SOL    HW2 1581   0.966   4.331   3.701
  228SOL     OW 1582   3.730   0.238   4.536
  228SOL    HW1 1583   3.643   0.193   4.556
  228SOL    HW2 1584   3.802   0.169   4.526
  229SOL     OW 1585   6.079   5.987   1.717
  229SOL    HW1 1586   6.125   5.915   1.768
  229SOL    HW2 1587   6.104   6.076   1.754
  230SOL     OW 1588   2.144   4.703   3.714
  230SOL    HW1 1589   2.063   4.754   3.745
  230SOL    HW2 1590   2.124   4.662   3.625
  231SOL     OW 1591   6.106   2.789   5.841
  231SOL    HW1 1592   6.149   2.724   5.778
  231SOL    HW2 1593   6.050   2.738   5.907
  232SOL     OW 1594   0.909   4.036   5.742
  232SOL    HW1 1595   0.999   4.079   5.755
  232SOL    HW2 1596   0.922   3.946   5.700
  233SOL     OW 1597   1.955   0.416   4.900
  233SOL    HW1 1598   1.973   0.319   4.885
  233SOL    HW2 1599   1.897   0.427   4.981
  234SOL     OW 1600   2.715   5.312   6.167
  234SOL    HW1 1601   2.680   5.263   6.247
  234SOL    HW2 1602   2.765   5.248   6.108
  235SOL     OW 1603   3.654   3.293   2.824
  235SOL    HW1 1604   3.650   3.376   2.768
  235SOL    HW2 1605   3.739   3.244   2.805
  236SOL     OW 1606   6.764   3.232   6.848
  236SOL    HW1 1607   6.771   3.295   6.771
  236SOL    HW2 1608   6.676   3.245   6.894
  237SOL     OW 1609   0.718   6.815   0.675
  237SOL    HW1 1610   0.664   6.830   0.757
  237SOL    HW2 1611   0.814   6.803   0.699
  238SOL     OW 1612   6.197   3.042   1.554
  238SOL    HW1 1613   6.188   3.092   1.468
  238SOL    HW2 1614   6.154   2.952   1.545
  239SOL     OW 1615   6.300   5.208   6.877
  239SOL    HW1 1616   6.201   5.200   6.863
  239SOL    HW2 1617   6.345   5.124   6.849
  240SOL     OW 1618   0.824   3.326   5.882
  240SOL    HW1 1619   0.864   3.308   5.792
  240SOL    HW2 1620   0.889   3.298   5.954
  241SOL     OW 1621   0.766   0.727   3.436
  241SOL    HW1 1622   0.827   0.741   3.514
  241SOL    HW2 1623   0.761   0.811   3.382
  242SOL     OW 1624   1.457   2.928   5.405
  242SOL    HW1 1625   1.528   2.996   5.385
  242SOL    HW2 1626   1.386   2.971   5.461
  243SOL     OW 1627   4.503   6.960   6.162
  243SOL    HW1 1628   4.431   0.008   6.135
  243SOL    HW2 1629   4.465   6.891   6.224
  244SOL     OW 1630   4.639   2.715   4.347
  244SOL    HW1 1631   4.562   2.660   4.315
  244SOL    HW2 1632   4.672   2.772   4.272
  245SOL     OW 1633   6.750   2.485   4.442
  245SOL    HW1 1634   6.736   2.392   4.476
  245SOL    HW2 1635   6.822   2.485   4.373
  246SOL     OW 1636   5.138   4.134   3.668
  246SOL    HW1 1637   5.227   4.167   3.701
  246SOL    HW2 1638   5.129   4.154   3.571
  247SOL     OW 1639   2.913   1.718   3.052
  247SOL    HW1 1640   2.949   1.627   3.030
  247SOL    HW2 1641   2.948   1.784   2.985
  248SOL     OW 1642   4.648   2.257   4.454
  248SOL    HW1 1643   4.548   2.265   4.459
  248SOL    HW2 1644   4.682   2.225   4.543
  249SOL     OW 1645   2.994   6.785   4.926
  249SOL    HW1 1646   2.990   6.695   4.885
  249SOL    HW2 1647   2.955   6.853   4.864
  250SOL     OW 1648   5.370   1.741   5.620
  250SOL    HW1 1649   5.287   1.779   5.579
  250SOL    HW2 1650   5.422   1.816   5.663
  251SOL     OW 1651   4.287   3.267   6.237
  251SOL    HW1 1652   4.383   3.269   6.211
  251SOL    HW2 1653   4.246   3.180   6.209
  252SOL     OW 1654   0.300   1.369   5.432
  252SOL    HW1 1655   0.339   1.454   5.466
  252SOL    HW2 1656   0.300   1.370   5.332
  253SOL     OW 1657   1.737   3.954   0.944
  253SOL    HW1 1658   1.697   3.890   0.878
  253SOL    HW2 1659   1.822   3.917   0.979
  254SOL     OW 1660   6.260   2.478   4.075
  254SOL    HW1 1661   6.247   2.403   4.141
  254SOL    HW2 1662   6.315   2.550   4.118
  255SOL     OW 1663   3.360   1.777   4.051
  255SOL    HW1 1664   3.352   1.869   4.090
  255SOL    HW2 1665   3.398   1.782   3.959
  256SOL     OW 1666   6.553   5.041   6.958
  256SOL    HW1 1667   6.574   5.136   6.980
  256SOL    HW2 1668   6.638   4.990   6.948
  257SOL     OW 1669   3.330   5.596   5.769
  257SOL    HW1 1670   3.379   5.626   5.850
  257SOL    HW2 1671   3.234   5.621   5.777
  258SOL     OW 1672   4.922   4.244   5.072
  258SOL    HW1 1673   4.927   4.230   4.973
  258SOL    HW2 1674   4.897   4.159   5.117
  259SOL     OW 1675   1.483   2.821   2.498
  259SOL    HW1 1676   1.558   2.763   2.466
  259SOL    HW2 1677   1.503   2.852   2.591
  260SOL     OW 1678   4.871   0.197   0.015
  260SOL    HW1 1679   4.883   0.215   0.113
  260SOL    HW2 1680   4.829   0.278   6.987
  261SOL     OW 1681   0.777   3.298   1.649
  261SOL    HW1 1682   0.840   3.222   1.665
  261SOL    HW2 1683   0.801   3.375   1.707
  262SOL     OW 1684   1.099   3.357   2.586
  262SOL    HW1 1685   1.110   3.405   2.674
  262SOL    HW2 1686   1.002   3.343   2.568
  263SOL     OW 1687   0.268   2.111   4.455
  263SOL    HW1 1688   0.256   2.148   4.363
  263SOL    HW2 1689   0.181   2.111   4.503
  264SOL     OW 1690   0.454   3.358   5.526
  264SOL    HW1 1691   0.376   3.401   5.483
  264SOL    HW2 1692   0.487   3.283   5.469
  265SOL     OW 1693   4.602   4.347   4.046
  265SOL    HW1 1694   4.667   4.405   4.094
  265SOL    HW2 1695   4.521   4.400   4.021
  266SOL     OW 1696   3.373   2.109   0.014
  266SOL    HW1 1697   3.472   2.118   0.028
  266SOL    HW2 1698   3.349   2.012   0.010
  267SOL     OW 1699   1.883   2.493   0.413
  267SOL    HW1 1700   1.858   2.398   0.431
  267SOL    HW2 1701   1.814   2.536   0.355
  268SOL     OW 1702   4.485   4.622   4.601
  268SOL    HW1 1703   4.487   4.722   4.600
  268SOL    HW2 1704   4.523   4.589   4.688
  269SOL     OW 1705   1.610   1.827   6.779
  269SOL    HW1 1706   1.594   1.734   6.745
  269SOL    HW2 1707   1.682   1.870   6.726
  270SOL     OW 1708   5.277   1.114   2.308
  270SOL    HW1 1709   5.280   1.207   2.271
  270SOL    HW2 1710   5.324   1.052   2.246
  271SOL     OW 1711   2.244   1.111   1.010
  271SOL    HW1 1712   2.318   1.121   0.943
  271SOL    HW2 1713   2.250   1.020   1.052
  272SOL     OW 1714   3.900   5.387   4.302
  272SOL    HW1 1715   3.982   5.435   4.337
  272SOL    HW2 1716   3.825   5.399   4.367
  273SOL     OW 1717   1.239   5.340   5.259
  273SOL    HW1 1718   1.222   5.406   5.186
  273SOL    HW2 1719   1.176   5.358   5.335
  274SOL     OW 1720   4.826   3.018   3.269
  274SOL    HW1 1721   4.811   2.923   3.296
  274SOL    HW2 1722   4.815   3.026   3.170
  275SOL     OW 1723   0.381   5.719   6.293
  275SOL    HW1 1724   0.342   5.712   6.385
  275SOL    HW2 1725   0.342   5.798   6.246
  276SOL     OW 1726   6.896   5.426   4.109
  276SOL    HW1 1727   6.914   5.338   4.154
  276SOL    HW2 1728   6.917   5.418   4.012
  277SOL     OW 1729   3.067   0.828   5.607
  277SOL    HW1 1730   3.080   0.740   5.652
  277SOL    HW2 1731   3.119   0.898   5.656
  278SOL     OW 1732   5.203   4.561   2.752
  278SOL    HW1 1733   5.124   4.547   2.693
  278SOL    HW2 1734   5.173   4.600   2.839
  279SOL     OW 1735   6.600   3.339   4.141
  279SOL    HW1 1736   6.695   3.316   4.119
  279SOL    HW2 1737   6.542   3.259   4.122
  280SOL     OW 1738   4.583   6.492   3.645
  280SOL    HW1 1739   4.593   6.539   3.733
  280SOL    HW2 1740   4.572   6.394   3.661
  281SOL     OW 1741   3.648   5.529   3.836
  281SOL    HW1 1742   3.688   5.474   3.763
  281SOL    HW2 1743   3.651   5.626   3.811
  282SOL     OW 1744   3.932   1.456   5.928
  282SOL    HW1 1745   3.842   1.481   5.894
  282SOL    HW2 1746   3.977   1.536   5.968
  283SOL     OW 1747   5.907   0.247   5.299
  283SOL    HW1 1748   5.887   0.256   5.201
  283SOL    HW2 1749   5.968   0.321   5.327
  284SOL     OW 1750   0.624   4.817   4.456
  284SOL    HW1 1751   0.548   4.882   4.448
  284SOL    HW2 1752   0.629   4.784   4.550
  285SOL     OW 1753   5.783   6.879   0.280
  285SOL    HW1 1754   5.711   6.903   0.215
  285SOL    HW2 1755   5.769   6.786   0.312
  286SOL     OW 1756   3.457   5.234   5.050
  286SOL    HW1 1757   3.402   5.202   5.127
  286SOL    HW2 1758   3.447   5.171   4.974
  287SOL     OW 1759   1.483   5.830   6.297
  287SOL    HW1 1760   1.456   5.924   6.278
  287SOL    HW2 1761   1.508   5.784   6.212
  288SOL     OW 1762   4.322   0.699   1.248
  288SOL    HW1 1763   4.303   0.622   1.309
  288SOL    HW2 1764   4.391   0.758   1.289
  289SOL     OW 1765   1.118   5.321   5.587
  289SOL    HW1 1766   1.058   5.252   5.629
  289SOL    HW2 1767   1.068   5.369   5.515
  290SOL     OW 1768   4.234   0.789   3.133
  290SOL    HW1 1769   4.280   0.877   3.131
  290SOL    HW2 1770   4.244   0.744   3.044
  291SOL     OW 1771   3.863   0.806   4.095
  291SOL    HW1 1772   3.913   0.813   4.009
  291SOL    HW2 1773   3.919   0.757   4.162
  292SOL     OW 1774   3.822   0.524   3.921
  292SOL    HW1 1775   3.801   0.499   3.827
  292SOL    HW2 1776   3.896   0.465   3.955
  293SOL     OW 1777   4.221   6.423   2.759
  293SOL    HW1 1778   4.261   6.332   2.746
  293SOL    HW2 1779   4.266   6.469   2.836
  294SOL     OW 1780   5.854   6.509   5.725
  294SOL    HW1 1781   5.939   6.524   5.777
  294SOL    HW2 1782   5.779   6.556   5.772
  295SOL     OW 1783   1.147   2.704   4.987
  295SOL    HW1 1784   1.221   2.689   5.053
  295SOL    HW2 1785   1.108   2.795   5.002
  296SOL     OW 1786   6.065   1.598   1.306
  296SOL    HW1 1787   6.148   1.619   1.254
  296SOL    HW2 1788   6.088   1.587   1.402
  297SOL     OW 1789   5.248   5.409   3.757
  297SOL    HW1 1790   5.270   5.507   3.757
  297SOL    HW2 1791   5.149   5.398   3.752
  298SOL     OW 1792   4.606   0.702   1.131
  298SOL    HW1 1793   4.518   0.698   1.083
  298SOL    HW2 1794   4.593   0.676   1.226
  299SOL     OW 1795   3.446   1.772   0.561
  299SOL    HW1 1796   3.391   1.700   0.603
  299SOL    HW2 1797   3.388   1.826   0.500
  300SOL     OW 1798   3.174   1.259   2.376
  300SOL    HW1 1799   3.145   1.174   2.332
  300SOL    HW2 1800   3.127   1.269   2.464
  301SOL     OW 1801   4.977   6.583   1.680
  301SOL    HW1 1802   5.038   6.526   1.625
  301SOL    HW2 1803   4.925   6.644   1.620
  302SOL     OW 1804   0.057   6.684   1.465
  302SOL    HW1 1805   7.014   6.603   1.456
  302SOL    HW2 1806   0.131   6.680   1.398
  303SOL     OW 1807   5.860   5.885   2.246
  303SOL    HW1 1808   5.790   5.902   2.176
  303SOL    HW2 1809   5.896   5.972   2.279
  304SOL     OW 1810   1.519   0.040   5.798
  304SOL    HW1 1811   1.454   0.002   5.732
  304SOL    HW2 1812   1.610   0.004   5.779
  305SOL     OW 1813   1.347   3.209   1.370
  305SOL    HW1 1814   1.351   3.110   1.388
  305SOL    HW2 1815   1.431   3.238   1.325
  306SOL     OW 1816   0.444   1.195   2.135
  306SOL    HW1 1817   0.392   1.275   2.107
  306SOL    HW2 1818   0.459   1.198   2.234
  307SOL     OW 1819   3.196   3.665   0.662
  307SOL    HW1 1820   3.284   3.643   0.704
  307SOL    HW2 1821   3.156   3.581   0.625
  308SOL     OW 1822   5.616   2.370   4.443
  308SOL    HW1 1823   5.626   2.339   4.348
  308SOL    HW2 1824   5.621   2.470   4.447
  309SOL     OW 1825   0.783   6.790   6.856
  309SOL    HW1 1826   0.868   6.828   6.818
  309SOL    HW2 1827   0.806   6.730   6.933
  310SOL     OW 1828   5.849   6.615   4.305
  310SOL    HW1 1829   5.944   6.612   4.272
  310SOL    HW2 1830   5.842   6.560   4.389
  311SOL     OW 1831   2.343   4.926   2.375
  311SOL    HW1 1832   2.437   4.960   2.376
  311SOL    HW2 1833   2.328   4.868   2.455
  312SOL     OW 1834   4.633   2.478   3.850
  312SOL    HW1 1835   4.717   2.467   3.797
  312SOL    HW2 1836   4.558   2.430   3.805
  313SOL     OW 1837   3.482   3.847   2.421
  313SOL    HW1 1838   3.559   3.911   2.416
  313SOL    HW2 1839   3.397   3.895   2.401
  314SOL     OW 1840   1.775   5.735   5.399
  314SOL    HW1 1841   1.852   5.711   5.339
  314SOL    HW2 1842   1.788   5.693   5.488
  315SOL     OW 1843   0.135   1.158   3.017
  315SOL    HW1 1844   0.110   1.246   3.056
  315SOL    HW2 1845   0.206   1.171   2.947
  316SOL     OW 1846   4.579   1.755   4.951
  316SOL    HW1 1847   4.506   1.769   4.884
  316SOL    HW2 1848   4.637   1.836   4.955
  317SOL     OW 1849   1.455   1.637   2.009
  317SOL    HW1 1850   1.412   1.618   1.921
  317SOL    HW2 1851   1.395   1.695   2.064
  318SOL     OW 1852   6.637   6.913   6.403
  318SOL    HW1 1853   6.647   6.846   6.329
  318SOL    HW2 1854   6.554   6.894   6.454
  319SOL     OW 1855   6.943   2.419   2.947
  319SOL    HW1 1856   6.855   2.392   2.909
  319SOL    HW2 1857   6.982   2.343   2.999
  320SOL     OW 1858   6.106   2.370   0.020
  320SOL    HW1 1859   6.009   2.362   7.013
  320SOL    HW2 1860   6.138   2.286   0.064
  321SOL     OW 1861   3.508   3.042   0.182
  321SOL    HW1 1862   3.524   2.977   0.256
  321SOL    HW2 1863   3.583   3.036   0.116
  322SOL     OW 1864   3.852   2.928   4.910
  322SOL    HW1 1865   3.777   2.976   4.865
  322SOL    HW2 1866   3.936   2.938   4.856
  323SOL     OW 1867   0.982   2.591   3.783
  323SOL    HW1 1868   0.936   2.557   3.701
  323SOL    HW2 1869   0.944   2.680   3.808
  324SOL     OW 1870   2.450   6.808   3.526
  324SOL    HW1 1871   2.427   6.896   3.566
  324SOL    HW2 1872   2.383   6.784   3.456
  325SOL     OW 1873   1.583   3.544   2.791
  325SOL    HW1 1874   1.570   3.623   2.731
  325SOL    HW2 1875   1.674   3.548   2.832
  326SOL     OW 1876   1.869   4.110   6.048
  326SOL    HW1 1877   1.928   4.123   5.968
  326SOL    HW2 1878   1.776   4.141   6.025
  327SOL     OW 1879   2.665   4.624   2.307
  327SOL    HW1 1880   2.597   4.633   2.234
  327SOL    HW2 1881   2.750   4.588   2.268
  328SOL     OW 1882   2.247   4.764   1.468
  328SOL    HW1 1883   2.314   4.690   1.474
  328SOL    HW2 1884   2.282   4.845   1.513
  329SOL     OW 1885   2.968   3.877   6.785
  329SOL    HW1 1886   3.049   3.820   6.771
  329SOL    HW2 1887   2.985   3.940   6.861
  330SOL     OW 1888   4.081   5.935   0.132
  330SOL    HW1 1889   4.062   6.033   0.127
  330SOL    HW2 1890   4.068   5.894   0.042
  331SOL     OW 1891   5.375   4.678   0.886
  331SOL    HW1 1892   5.314   4.613   0.842
  331SOL    HW2 1893   5.379   4.762   0.832
  332SOL     OW 1894   5.766   2.277   3.618
  332SOL    HW1 1895   5.798   2.183   3.627
  332SOL    HW2 1896   5.723   2.306   3.704
  333SOL     OW 1897   3.996   0.803   5.390
  333SOL    HW1 1898   4.091   0.817   5.361
  333SOL    HW2 1899   3.986   0.710   5.426
  334SOL     OW 1900   3.768   3.028   1.407
  334SOL    HW1 1901   3.827   2.954   1.376
  334SOL    HW2 1902   3.678   3.020   1.364
  335SOL     OW 1903   4.440   0.228   6.817
  335SOL    HW1 1904   4.391   0.314   6.800
  335SOL    HW2 1905   4.421   0.164   6.742
  336SOL     OW 1906   3.222   1.816   2.564
  336SOL    HW1 1907   3.180   1.903   2.539
  336SOL    HW2 1908   3.290   1.832   2.636
  337SOL     OW 1909   1.378   2.324   5.830
  337SOL    HW1 1910   1.416   2.234   5.806
  337SOL    HW2 1911   1.429   2.362   5.906
  338SOL     OW 1912   3.671   3.389   0.768
  338SOL    HW1 1913   3.723   3.331   0.705
  338SOL    HW2 1914   3.715   3.479   0.775
  339SOL     OW 1915   4.239   4.981   4.403
  339SOL    HW1 1916   4.249   5.061   4.461
  339SOL    HW2 1917   4.214   4.902   4.459
  340SOL     OW 1918   5.017   3.667   5.166
  340SOL    HW1 1919   5.055   3.738   5.107
  340SOL    HW2 1920   4.934   3.629   5.124
  341SOL     OW 1921   5.799   5.783   4.657
  341SOL    HW1 1922   5.851   5.731   4.726
  341SOL    HW2 1923   5.733   5.722   4.613
  342SOL     OW 1924   4.771   3.260   0.997
  342SOL    HW1 1925   4.822   3.209   1.066
  342SOL    HW2 1926   4.687   3.211   0.975
  343SOL     OW 1927   6.953   6.172   2.364
  343SOL    HW1 1928   6.956   6.231   2.444
  343SOL    HW2 1929   0.020   6.114   2.361
  344SOL     OW 1930   1.070   2.168   1.803
  344SOL    HW1 1931   1.084   2.242   1.869
  344SOL    HW2 1932   1.049   2.207   1.713
  345SOL     OW 1933   6.556   2.030   3.871
  345SOL    HW1 1934   6.462   2.064   3.877
  345SOL    HW2 1935   6.596   2.056   3.783
  346SOL     OW 1936   1.800   0.415   2.442
  346SOL    HW1 1937   1.734   0.382   2.509
  346SOL    HW2 1938   1.787   0.514   2.429
  347SOL     OW 1939   2.716   5.728   6.795
  347SOL    HW1 1940   2.645   5.719   6.725
  347SOL    HW2 1941   2.687   5.795   6.864
  348SOL     OW 1942   4.651   5.147   3.206
  348SOL    HW1 1943   4.587   5.216   3.240
  348SOL    HW2 1944   4.700   5.107   3.283
  349SOL     OW 1945   6.996   4.184   2.537
  349SOL    HW1 1946   0.051   4.164   2.605
  349SOL    HW2 1947   6.942   4.263   2.567
  350SOL     OW 1948   2.753   2.854   0.405
  350SOL    HW1 1949   2.721   2.837   0.312
  350SOL    HW2 1950   2.690   2.916   0.451
  351SOL     OW 1951   2.756   3.336   0.447
  351SOL    HW1 1952   2.788   3.242   0.454
  351SOL    HW2 1953   2.786   3.388   0.527
  352SOL     OW 1954   3.626   6.470   3.919
  352SOL    HW1 1955   3.646   6.560   3.881
  352SOL    HW2 1956   3.710   6.417   3.926
  353SOL     OW 1957   2.952   0.397   6.417
  353SOL    HW1 1958   3.029   0.334   6.428
  353SOL    HW2 1959   2.921   0.429   6.507
  354SOL     OW 1960   4.963   2.662   0.619
  354SOL    HW1 1961   4.928   2.573   0.648
  354SOL    HW2 1962   4.993   2.657   0.524
  355SOL     OW 1963   1.904   3.434   2.418
  355SOL    HW1 1964   1.820   3.484   2.436
  355SOL    HW2 1965   1.925   3.375   2.496
  356SOL     OW 1966   1.818   0.852   4.462
  356SOL    HW1 1967   1.783   0.817   4.549
  356SOL    HW2 1968   1.917   0.858   4.466
  357SOL     OW 1969   0.477   6.115   4.488
  357SOL    HW1 1970   0.499   6.066   4.404
  357SOL    HW2 1971   0.539   6.085   4.561
  358SOL     OW 1972   4.852   6.504   0.739
  358SOL    HW1 1973   4.871   6.541   0.831
  358SOL    HW2 1974   4.774   6.551   0.699
  359SOL     OW 1975   3.203   0.726   1.759
  359SOL    HW1 1976   3.249   0.684   1.680
  359SOL    HW2 1977   3.222   0.673   1.841
  360SOL     OW 1978   1.230   4.240   4.198
  360SOL    HW1 1979   1.211   4.196   4.286
  360SOL    HW2 1980   1.231   4.171   4.126
  361SOL     OW 1981   6.979   6.090   2.962
  361SOL    HW1 1982   0.014   6.170   2.929
  361SOL    HW2 1983   0.028   6.021   2.994
  362SOL     OW 1984   3.445   3.568   0.758
  362SOL    HW1 1985   3.489   3.631   0.823
  362SOL    HW2 1986   3.499   3.484   0.753
  363SOL     OW 1987   6.191   4.797   2.884
  363SOL    HW1 1988   6.191   4.896   2.899
  363SOL    HW2 1989   6.102   4.759   2.907
  364SOL     OW 1990   0.344   4.943   6.292
  364SOL    HW1 1991   0.408   5.019   6.279
  364SOL    HW2 1992   0.361   4.900   6.380
  365SOL     OW 1993   4.521   1.021   1.345
  365SOL    HW1 1994   4.552   1.102   1.395
  365SOL    HW2 1995   4.576   1.010   1.262
  366SOL     OW 1996   5.433   2.482   0.026
  366SOL    HW1 1997   5.383   2.482   0.113
  366SOL    HW2 1998   5.382   2.535   6.973
  367SOL     OW 1999   6.053   2.467   6.443
  367SOL    HW1 2000   6.102   2.382   6.462
  367SOL    HW2 2001   6.035   2.515   6.528
  368SOL     OW 2002   6.697   2.431   5.435
  368SOL    HW1 2003   6.633   2.373   5.486
  368SOL    HW2 2004   6.791   2.407   5.460
  369SOL     OW 2005   5.887   4.463   2.926
  369SOL    HW1 2006   5.798   4.442   2.967
  369SOL    HW2 2007   5.958   4.408   2.969
  370SOL     OW 2008   0.895   2.008   4.009
  370SOL    HW1 2009   0.798   2.013   4.033
  370SOL    HW2 2010   0.913   2.068   3.931
  371SOL     OW 2011   2.025   4.078   6.870
  371SOL    HW1 2012   1.967   4.159   6.880
  371SOL    HW2 2013   2.121   4.106   6.864
  372SOL     OW 2014   1.760   6.878   5.319
  372SOL    HW1 2015   1.790   6.788   5.349
  372SOL    HW2 2016   1.829   6.946   5.342
  373SOL     OW 2017   5.045   6.270   5.172
  373SOL    HW1 2018   5.096   6.315   5.098
  373SOL    HW2 2019   5.045   6.329   5.253
  374SOL     OW 2020   2.509   2.200   3.087
  374SOL    HW1 2021   2.523   2.292   3.122
  374SOL    HW2 2022   2.588   2.143   3.111
  375SOL     OW 2023   0.797   4.623   4.298
  375SOL    HW1 2024   0.886   4.665   4.280
  375SOL    HW2 2025   0.735   4.692   4.337
  376SOL     OW 2026   1.476   2.207   5.324
  376SOL    HW1 2027   1.528   2.289   5.348
  376SOL    HW2 2028   1.415   2.228   5.247
  377SOL     OW 2029   2.012   2.465   0.008
  377SOL    HW1 2030   2.009   2.532   0.082
  377SOL    HW2 2031   1.958   2.385   0.033
  378SOL     OW 2032   3.709   1.476   6.901
  378SOL    HW1 2033   3.632   1.489   6.839
  378SOL    HW2 2034   3.762   1.560   6.907
  379SOL     OW 2035   5.332   2.609   6.820
  379SOL    HW1 2036   5.258   2.542   6.809
  379SOL    HW2 2037   5.328   2.676   6.747
  380SOL     OW 2038   3.448   1.179   1.067
  380SOL    HW1 2039   3.535   1.218   1.099
  380SOL    HW2 2040   3.452   1.166   0.968
  381SOL     OW 2041   1.414   3.885   3.968
  381SOL    HW1 2042   1.507   3.858   3.993
  381SOL    HW2 2043   1.351   3.809   3.988
  382SOL     OW 2044   5.603   0.696   0.009
  382SOL    HW1 2045   5.668   0.621   7.013
  382SOL    HW2 2046   5.636   0.777   6.976
  383SOL     OW 2047   4.191   3.493   0.607
  383SOL    HW1 2048   4.244   3.511   0.524
  383SOL    HW2 2049   4.251   3.500   0.687
  384SOL     OW 2050   6.858   5.214   4.564
  384SOL    HW1 2051   6.906   5.280   4.622
  384SOL    HW2 2052   6.762   5.240   4.558
  385SOL     OW 2053   3.183   5.885   5.967
  385SOL    HW1 2054   3.103   5.945   5.960
  385SOL    HW2 2055   3.174   5.828   6.048
  386SOL     OW 2056   3.596   0.451   4.311
  386SOL    HW1 2057   3.634   0.542   4.322
  386SOL    HW2 2058   3.649   0.400   4.244
  387SOL     OW 2059   1.084   5.688   2.041
  387SOL    HW1 2060   1.157   5.629   2.077
  387SOL    HW2 2061   1.075   5.769   2.100
  388SOL     OW 2062   2.033   2.240   6.587
  388SOL    HW1 2063   2.075   2.282   6.507
  388SOL    HW2 2064   2.069   2.147   6.599
  389SOL     OW 2065   3.361   3.469   2.108
  389SOL    HW1 2066   3.454   3.505   2.109
  389SOL    HW2 2067   3.353   3.396   2.176
  390SOL     OW 2068   3.121   0.709   3.346
  390SOL    HW1 2069   3.113   0.790   3.404
  390SOL    HW2 2070   3.030   0.670   3.331
  391SOL     OW 2071   2.330   2.371   6.071
  391SOL    HW1 2072   2.368   2.295   6.124
  391SOL    HW2 2073   2.235   2.351   6.048
  392SOL     OW 2074   1.393   4.127   0.262
  392SOL    HW1 2075   1.465   4.102   0.327
  392SOL    HW2 2076   1.355   4.217   0.288
  393SOL     OW 2077   0.278   4.813   5.783
  393SOL    HW1 2078   0.265   4.837   5.879
  393SOL    HW2 2079   0.208   4.747   5.755
  394SOL     OW 2080   0.396   0.915   6.899
  394SOL    HW1 2081   0.408   0.990   6.963
  394SOL    HW2 2082   0.325   0.939   6.832
  395SOL     OW 2083   4.981   4.063   3.134
  395SOL    HW1 2084   4.939   3.993   3.077
  395SOL    HW2 2085   5.067   4.094   3.092
  396SOL     OW 2086   3.990   4.070   1.757
  396SOL    HW1 2087   3.968   4.071   1.660
  396SOL    HW2 2088   4.010   4.163   1.788
  397SOL     OW 2089   4.102   2.479   5.579
  397SOL    HW1 2090   4.181   2.474   5.641
  397SOL    HW2 2091   4.022   2.440   5.624
  398SOL     OW 2092   0.655   6.521   2.549
  398SOL    HW1 2093   0.754   6.533   2.539
  398SOL    HW2 2094   0.631   6.426   2.529
  399SOL     OW 2095   4.795   6.718   2.982
  399SOL    HW1 2096   4.885   6.723   2.939
  399SOL    HW2 2097   4.780   6.801   3.036
  400SOL     OW 2098   5.911   6.329   5.088
  400SOL    HW1 2099   5.895   6.375   5.175
  400SOL    HW2 2100   5.940   6.396   5.020
  401SOL     OW 2101   4.977   0.860   5.205
  401SOL    HW1 2102   4.984   0.852   5.304
  401SOL    HW2 2103   4.973   0.768   5.165
  402SOL     OW 2104   6.231   0.257   3.286
  402SOL    HW1 2105   6.137   0.224   3.298
  402SOL    HW2 2106   6.255   0.254   3.188
  403SOL     OW 2107   4.319   2.044   4.974
  403SOL    HW1 2108   4.324   2.086   4.883
  403SOL    HW2 2109   4.392   2.082   5.032
  404SOL     OW 2110   1.672   6.065   4.147
  404SOL    HW1 2111   1.623   6.039   4.064
  404SOL    HW2 2112   1.771   6.054   4.132
  405SOL     OW 2113   1.523   3.945   2.146
  405SOL    HW1 2114   1.437   3.916   2.103
  405SOL    HW2 2115   1.553   4.031   2.104
  406SOL     OW 2116   0.680   3.952   4.026
  406SOL    HW1 2117   0.707   4.048   4.033
  406SOL    HW2 2118   0.613   3.931   4.097
  407SOL     OW 2119   1.822   0.321   3.677
  407SOL    HW1 2120   1.821   0.387   3.603
  407SOL    HW2 2121   1.887   0.350   3.747
  408SOL     OW 2122   0.848   1.564   3.192
  408SOL    HW1 2123   0.872   1.471   3.220
  408SOL    HW2 2124   0.829   1.619   3.272
  409SOL     OW 2125   6.126   2.612   1.131
  409SOL    HW1 2126   6.079   2.605   1.043
  409SOL    HW2 2127   6.224   2.625   1.115
  410SOL     OW 2128   1.757   0.325   0.057
  410SOL    HW1 2129   1.774   0.228   0.075
  410SOL    HW2 2130   1.779   0.379   0.138
  411SOL     OW 2131   5.478   6.732   6.545
  411SOL    HW1 2132   5.557   6.703   6.490
  411SOL    HW2 2133   5.406   6.663   6.538
  412SOL     OW 2134   5.171   6.592   3.713
  412SOL    HW1 2135   5.259   6.548   3.732
  412SOL    HW2 2136   5.098   6.544   3.762
  413SOL     OW 2137   5.431   5.328   1.661
  413SOL    HW1 2138   5.341   5.284   1.670
  413SOL    HW2 2139   5.502   5.258   1.660
  414SOL     OW 2140   3.852   4.909   3.774
  414SOL    HW1 2141   3.846   5.003   3.808
  414SOL    HW2 2142   3.914   4.857   3.832
  415SOL     OW 2143   1.160   6.241   6.478
  415SOL    HW1 2144   1.247   6.221   6.434
  415SOL    HW2 2145   1.110   6.155   6.493
  416SOL     OW 2146   5.112   5.614   3.989
  416SOL    HW1 2147   5.199   5.653   3.959
  416SOL    HW2 2148   5.103   5.521   3.953
  417SOL     OW 2149   2.024   5.151   0.774
  417SOL    HW1 2150   1.999   5.182   0.865
  417SOL    HW2 2151   2.121   5.124   0.774
  418SOL     OW 2152   4.335   5.957   2.017
  418SOL    HW1 2153   4.276   5.900   2.074
  418SOL    HW2 2154   4.420   5.977   2.066
  419SOL     OW 2155   1.789   7.010   0.911
  419SOL    HW1 2156   1.770   6.930   0.967
  419SOL    HW2 2157   1.806   6.980   0.816
  420SOL     OW 2158   6.087   2.071   0.842
  420SOL    HW1 2159   6.062   1.976   0.862
  420SOL    HW2 2160   6.010   2.117   0.799
  421SOL     OW 2161   0.033   5.084   5.945
  421SOL    HW1 2162   6.961   5.124   5.919
  421SOL    HW2 2163   0.108   5.134   5.901
  422SOL     OW 2164   5.157   4.558   0.493
  422SOL    HW1 2165   5.169   4.519   0.401
  422SOL    HW2 2166   5.060   4.561   0.515
  423SOL     OW 2167   0.617   2.887   0.124
  423SOL    HW1 2168   0.669   2.809   0.092
  423SOL    HW2 2169   0.669   2.936   0.194
  424SOL     OW 2170   2.751   3.366   1.242
  424SOL    HW1 2171   2.729   3.317   1.326
  424SOL    HW2 2172   2.830   3.426   1.257
  425SOL     OW 2173   5.948   1.102   2.097
  425SOL    HW1 2174   5.885   1.116   2.020
  425SOL    HW2 2175   5.919   1.023   2.150
  426SOL     OW 2176   4.754   2.709   3.933
  426SOL    HW1 2177   4.697   2.635   3.896
  426SOL    HW2 2178   4.768   2.778   3.862
  427SOL     OW 2179   5.308   5.161   2.745
  427SOL    HW1 2180   5.351   5.144   2.833
  427SOL    HW2 2181   5.264   5.077   2.712
  428SOL     OW 2182   4.202   0.535   4.709
  428SOL    HW1 2183   4.274   0.472   4.681
  428SOL    HW2 2184   4.216   0.624   4.666
  429SOL     OW 2185   2.880   3.695   1.126
  429SOL    HW1 2186   2.846   3.713   1.219
  429SOL    HW2 2187   2.879   3.779   1.073
  430SOL     OW 2188   6.925   0.221   4.004
  430SOL    HW1 2189   6.937   0.174   3.916
  430SOL    HW2 2190   6.895   0.155   4.073
  431SOL     OW 2191   4.034   6.732   0.529
  431SOL    HW1 2192   4.046   6.633   0.535
  431SOL    HW2 2193   4.031   6.759   0.433
  432SOL     OW 2194   6.630   1.640   1.531
  432SOL    HW1 2195   6.623   1.560   1.591
  432SOL    HW2 2196   6.622   1.612   1.436
  433SOL     OW 2197   3.315   6.354   4.500
  433SOL    HW1 2198   3.284   6.423   4.435
  433SOL    HW2 2199   3.245   6.284   4.511
  434SOL     OW 2200   3.556   5.917   1.977
  434SOL    HW1 2201   3.587   5.951   2.065
  434SOL    HW2 2202   3.575   5.819   1.971
  435SOL     OW 2203   5.342   2.464   5.400
  435SOL    HW1 2204   5.354   2.369   5.430
  435SOL    HW2 2205   5.333   2.524   5.479
  436SOL     OW 2206   3.231   6.013   0.880
  436SOL    HW1 2207   3.312   5.978   0.832
  436SOL    HW2 2208   3.257   6.049   0.969
  437SOL     OW 2209   0.979   0.072   6.559
  437SOL    HW1 2210   0.907   0.136   6.533
  437SOL    HW2 2211   1.067   0.120   6.562
  438SOL     OW 2212   2.124   3.185   2.346
  438SOL    HW1 2213   2.136   3.118   2.272
  438SOL    HW2 2214   2.135   3.140   2.434
  439SOL     OW 2215   5.648   4.355   3.573
  439SOL    HW1 2216   5.667   4.454   3.569
  439SOL    HW2 2217   5.701   4.308   3.503
  440SOL     OW 2218   1.387   1.326   5.094
  440SOL    HW1 2219   1.400   1.364   5.185
  440SOL    HW2 2220   1.301   1.276   5.090
  441SOL     OW 2221   1.332   2.603   3.671
  441SOL    HW1 2222   1.388   2.599   3.588
  441SOL    HW2 2223   1.278   2.688   3.671
  442SOL     OW 2224   2.646   5.171   6.371
  442SOL    HW1 2225   2.630   5.077   6.401
  442SOL    HW2 2226   2.647   5.232   6.450
  443SOL     OW 2227   6.540   4.336   4.404
  443SOL    HW1 2228   6.562   4.273   4.479
  443SOL    HW2 2229   6.548   4.430   4.436
  444SOL     OW 2230   5.450   2.054   6.044
  444SOL    HW1 2231   5.364   2.038   5.997
  444SOL    HW2 2232   5.447   2.011   6.135
  445SOL     OW 2233   1.255   5.264   3.029
  445SOL    HW1 2234   1.199   5.198   2.980
  445SOL    HW2 2235   1.294   5.329   2.964
  446SOL     OW 2236   4.215   4.823   3.623
  446SOL    HW1 2237   4.306   4.793   3.592
  446SOL    HW2 2238   4.177   4.756   3.686
  447SOL     OW 2239   0.608   2.639   6.577
  447SOL    HW1 2240   0.621   2.729   6.535
  447SOL    HW2 2241   0.517   2.635   6.618
  448SOL     OW 2242   3.143   0.659   4.207
  448SOL    HW1 2243   3.106   0.637   4.297
  448SOL    HW2 2244   3.073   0.706   4.153
  449SOL     OW 2245   4.452   0.940   4.569
  449SOL    HW1 2246   4.536   0.996   4.566
  449SOL    HW2 2247   4.454   0.872   4.497
  450SOL     OW 2248   1.097   5.780   3.727
  450SOL    HW1 2249   1.015   5.812   3.679
  450SOL    HW2 2250   1.157   5.733   3.662
  451SOL     OW 2251   1.982   1.858   3.838
  451SOL    HW1 2252   1.969   1.954   3.814
  451SOL    HW2 2253   2.065   1.848   3.894
  452SOL     OW 2254   6.317   6.599   1.230
  452SOL    HW1 2255   6.352   6.607   1.136
  452SOL    HW2 2256   6.384   6.552   1.287
  453SOL     OW 2257   4.100   1.068   5.042
  453SOL    HW1 2258   4.014   1.031   5.077
  453SOL    HW2 2259   4.116   1.159   5.081
  454SOL     OW 2260   6.729   4.788   6.116
  454SOL    HW1 2261   6.806   4.751   6.066
  454SOL    HW2 2262   6.643   4.763   6.070
  455SOL     OW 2263   6.047   2.767   3.082
  455SOL    HW1 2264   6.053   2.679   3.130
  455SOL    HW2 2265   5.968   2.818   3.115
  456SOL     OW 2266   5.654   6.430   4.192
  456SOL    HW1 2267   5.714   6.488   4.248
  456SOL    HW2 2268   5.568   6.478   4.175
  457SOL     OW 2269   1.862   3.520   3.812
  457SOL    HW1 2270   1.780   3.542   3.758
  457SOL    HW2 2271   1.910   3.605   3.835
  458SOL     OW 2272   4.185   5.728   3.491
  458SOL    HW1 2273   4.111   5.678   3.447
  458SOL    HW2 2274   4.245   5.663   3.538
  459SOL     OW 2275   1.940   0.057   5.432
  459SOL    HW1 2276   2.021   7.014   5.426
  459SOL    HW2 2277   1.957   0.131   5.498
  460SOL     OW 2278   1.581   0.291   3.800
  460SOL    HW1 2279   1.644   0.300   3.723
  460SOL    HW2 2280   1.619   0.338   3.879
  461SOL     OW 2281   5.798   6.903   5.723
  461SOL    HW1 2282   5.785   6.996   5.689
  461SOL    HW2 2283   5.892   6.892   5.754
  462SOL     OW 2284   3.440   2.844   6.179
  462SOL    HW1 2285   3.436   2.930   6.230
  462SOL    HW2 2286   3.425   2.863   6.082
  463SOL     OW 2287   6.627   5.785   2.957
  463SOL    HW1 2288   6.527   5.780   2.952
  463SOL    HW2 2289   6.657   5.876   2.928
  464SOL     OW 2290   2.033   2.503   5.500
  464SOL    HW1 2291   2.009   2.595   5.469
  464SOL    HW2 2292   2.084   2.509   5.586
  465SOL     OW 2293   0.773   2.572   5.353
  465SOL    HW1 2294   0.786   2.635   5.429
  465SOL    HW2 2295   0.699   2.605   5.295
  466SOL     OW 2296   0.983   5.725   3.250
  466SOL    HW1 2297   0.890   5.689   3.244
  466SOL    HW2 2298   1.013   5.754   3.159
  467SOL     OW 2299   1.776   1.478   0.647
  467SOL    HW1 2300   1.750   1.504   0.554
  467SOL    HW2 2301   1.770   1.557   0.707
  468SOL     OW 2302   3.749   6.607   0.098
  468SOL    HW1 2303   3.772   6.602   0.195
  468SOL    HW2 2304   3.804   6.678   0.054
  469SOL     OW 2305   2.915   4.010   0.014
  469SOL    HW1 2306   2.865   4.094   7.006
  469SOL    HW2 2307   3.009   4.033   0.038
  470SOL     OW 2308   4.286   0.299   2.033
  470SOL    HW1 2309   4.280   0.396   2.009
  470SOL    HW2 2310   4.236   0.245   1.965
  471SOL     OW 2311   2.248   2.131   3.958
  471SOL    HW1 2312   2.212   2.222   3.935
  471SOL    HW2 2313   2.331   2.114   3.904
  472SOL     OW 2314   5.381   3.444   6.791
  472SOL    HW1 2315   5.477   3.418   6.783
  472SOL    HW2 2316   5.337   3.439   6.702
  473SOL     OW 2317   1.267   3.206   2.853
  473SOL    HW1 2318   1.274   3.106   2.852
  473SOL    HW2 2319   1.277   3.240   2.759
  474SOL     OW 2320   5.547   5.683   4.046
  474SOL    HW1 2321   5.491   5.692   3.964
  474SOL    HW2 2322   5.503   5.620   4.110
  475SOL     OW 2323   5.581   0.651   6.678
  475SOL    HW1 2324   5.670   0.604   6.679
  475SOL    HW2 2325   5.589   0.736   6.627
  476SOL     OW 2326   6.801   3.610   3.265
  476SOL    HW1 2327   6.756   3.576   3.347
  476SOL    HW2 2328   6.829   3.705   3.278
  477SOL     OW 2329   1.958   4.888   3.813
  477SOL    HW1 2330   2.003   4.966   3.855
  477SOL    HW2 2331   1.907   4.837   3.883
  478SOL     OW 2332   3.228   6.884   1.566
  478SOL    HW1 2333   3.316   6.888   1.612
  478SOL    HW2 2334   3.202   6.789   1.549
  479SOL     OW 2335   4.011   2.214   5.983
  479SOL    HW1 2336   3.955   2.295   5.965
  479SOL    HW2 2337   4.085   2.210   5.915
  480SOL     OW 2338   2.316   1.326   0.176
  480SOL    HW1 2339   2.328   1.416   0.132
  480SOL    HW2 2340   2.391   1.266   0.149
  481SOL     OW 2341   1.905   0.068   0.400
  481SOL    HW1 2342   1.997   0.085   0.434
  481SOL    HW2 2343   1.846   0.146   0.423
  482SOL     OW 2344   4.454   4.979   3.222
  482SOL    HW1 2345   4.524   5.040   3.185
  482SOL    HW2 2346   4.487   4.884   3.220
  483SOL     OW 2347   6.483   0.911   1.915
  483SOL    HW1 2348   6.450   0.925   2.008
  483SOL    HW2 2349   6.574   0.869   1.917
  484SOL     OW 2350   1.731   3.315   5.039
  484SOL    HW1 2351   1.692   3.400   5.076
  484SOL    HW2 2352   1.790   3.273   5.108
  485SOL     OW 2353   3.923   5.178   2.695
  485SOL    HW1 2354   3.985   5.249   2.662
  485SOL    HW2 2355   3.966   5.131   2.773
  486SOL     OW 2356   6.795   1.959   0.419
  486SOL    HW1 2357   6.877   1.943   0.364
  486SOL    HW2 2358   6.822   1.990   0.510
  487SOL     OW 2359   1.393   0.521   1.105
  487SOL    HW1 2360   1.445   0.576   1.171
  487SOL    HW2 2361   1.334   0.581   1.050
  488SOL     OW 2362   0.455   1.296   2.425
  488SOL    HW1 2363   0.365   1.339   2.419
  488SOL    HW2 2364   0.525   1.365   2.442
  489SOL     OW 2365   3.102   6.569   6.347
  489SOL    HW1 2366   3.059   6.497   6.402
  489SOL    HW2 2367   3.078   6.557   6.251
  490SOL     OW 2368   6.299   5.560   3.421
  490SOL    HW1 2369   6.216   5.543   3.473
  490SOL    HW2 2370   6.374   5.504   3.458
  491SOL     OW 2371   0.641   3.341   2.826
  491SOL    HW1 2372   0.572   3.410   2.847
  491SOL    HW2 2373   0.598   3.251   2.820
  492SOL     OW 2374   2.120   0.753   5.758
  492SOL    HW1 2375   2.107   0.734   5.661
  492SOL    HW2 2376   2.037   0.795   5.795
  493SOL     OW 2377   4.955   6.021   5.255
  493SOL    HW1 2378   4.954   6.119   5.235
  493SOL    HW2 2379   5.049   5.989   5.262
  494SOL     OW 2380   0.123   0.537   0.055
  494SOL    HW1 2381   0.142   0.455   0.109
  494SOL    HW2 2382   0.158   0.524   6.977
  495SOL     OW 2383   4.970   6.081   3.485
  495SOL    HW1 2384   4.976   6.136   3.401
  495SOL    HW2 2385   5.059   6.039   3.503
  496SOL     OW 2386   5.240   3.770   1.563
  496SOL    HW1 2387   5.332   3.731   1.558
  496SOL    HW2 2388   5.173   3.699   1.540
  497SOL     OW 2389   3.465   1.230   4.566
  497SOL    HW1 2390   3.523   1.290   4.510
  497SOL    HW2 2391   3.477   1.135   4.537
  498SOL     OW 2392   2.154   3.771   1.478
  498SOL    HW1 2393   2.156   3.692   1.416
  498SOL    HW2 2394   2.203   3.748   1.563
  499SOL     OW 2395   2.635   6.891   4.310
  499SOL    HW1 2396   2.714   6.910   4.250
  499SOL    HW2 2397   2.616   6.793   4.308
  500SOL     OW 2398   0.378   3.429   4.664
  500SOL    HW1 2399   0.344   3.364   4.596
  500SOL    HW2 2400   0.476   3.443   4.651
  501SOL     OW 2401   2.816   5.742   0.742
  501SOL    HW1 2402   2.834   5.786   0.654
  501SOL    HW2 2403   2.733   5.780   0.782
  502SOL     OW 2404   0.100   3.924   0.492
  502SOL    HW1 2405   0.163   3.917   0.414
  502SOL    HW2 2406   0.025   3.986   0.468
  503SOL     OW 2407   6.333   5.426   6.418
  503SOL    HW1 2408   6.371   5.363   6.485
  503SOL    HW2 2409   6.276   5.494   6.464
  504SOL     OW 2410   1.523   5.645   2.907
  504SOL    HW1 2411   1.593   5.643   2.979
  504SOL    HW2 2412   1.480   5.736   2.906
  505SOL     OW 2413   2.867   6.404   5.235
  505SOL    HW1 2414   2.779   6.452   5.229
  505SOL    HW2 2415   2.865   6.324   5.176
  506SOL     OW 2416   1.657   5.111   4.831
  506SOL    HW1 2417   1.740   5.085   4.881
  506SOL    HW2 2418   1.607   5.180   4.884
  507SOL     OW 2419   3.425   6.583   3.201
  507SOL    HW1 2420   3.421   6.642   3.282
  507SOL    HW2 2421   3.441   6.489   3.229
  508SOL     OW 2422   6.901   3.850   2.184
  508SOL    HW1 2423   6.822   3.792   2.203
  508SOL    HW2 2424   6.985   3.801   2.210
  509SOL     OW 2425   2.993   0.760   1.612
  509SOL    HW1 2426   3.062   0.754   1.684
  509SOL    HW2 2427   2.919   0.696   1.631
  510SOL     OW 2428   5.962   4.750   0.128
  510SOL    HW1 2429   5.996   4.773   0.037
  510SOL    HW2 2430   5.959   4.651   0.139
  511SOL     OW 2431   0.701   1.214   5.736
  511SOL    HW1 2432   0.678   1.208   5.639
  511SOL    HW2 2433   0.621   1.190   5.791
  512SOL     OW 2434   6.538   2.633   6.732
  512SOL    HW1 2435   6.591   2.690   6.668
  512SOL    HW2 2436   6.571   2.649   6.825
  513SOL     OW 2437   6.286   6.360   3.352
  513SOL    HW1 2438   6.287   6.458   3.370
  513SOL    HW2 2439   6.201   6.321   3.388
  514SOL     OW 2440   6.288   2.374   3.834
  514SOL    HW1 2441   6.293   2.275   3.845
  514SOL    HW2 2442   6.261   2.416   3.921
  515SOL     OW 2443   1.441   0.674   6.332
  515SOL    HW1 2444   1.470   0.629   6.416
  515SOL    HW2 2445   1.432   0.773   6.348
  516SOL     OW 2446   2.387   4.945   1.885
  516SOL    HW1 2447   2.436   4.880   1.827
  516SOL    HW2 2448   2.343   4.896   1.961
  517SOL     OW 2449   4.632   5.265   2.428
  517SOL    HW1 2450   4.724   5.254   2.464
  517SOL    HW2 2451   4.567   5.274   2.504
  518SOL     OW 2452   2.563   2.519   2.750
  518SOL    HW1 2453   2.580   2.552   2.657
  518SOL    HW2 2454   2.627   2.445   2.771
  519SOL     OW 2455   0.776   0.740   4.666
  519SOL    HW1 2456   0.759   0.793   4.583
  519SOL    HW2 2457   0.845   0.786   4.721
  520SOL     OW 2458   6.220   4.415   0.110
  520SOL    HW1 2459   6.221   4.436   0.012
  520SOL    HW2 2460   6.278   4.480   0.159
  521SOL     OW 2461   6.557   3.755   5.200
  521SOL    HW1 2462   6.551   3.834   5.261
  521SOL    HW2 2463   6.489   3.687   5.228
  522SOL     OW 2464   3.373   2.975   4.743
  522SOL    HW1 2465   3.425   2.916   4.681
  522SOL    HW2 2466   3.345   2.922   4.823
  523SOL     OW 2467   0.478   4.989   1.718
  523SOL    HW1 2468   0.561   5.042   1.735
  523SOL    HW2 2469   0.405   5.022   1.777
  524SOL     OW 2470   0.022   1.271   0.945
  524SOL    HW1 2471   0.099   1.293   1.004
  524SOL    HW2 2472   6.996   1.185   0.974
  525SOL     OW 2473   1.949   3.274   6.265
  525SOL    HW1 2474   2.029   3.270   6.325
  525SOL    HW2 2475   1.977   3.259   6.171
  526SOL     OW 2476   4.389   6.056   4.292
  526SOL    HW1 2477   4.437   5.979   4.335
  526SOL    HW2 2478   4.297   6.063   4.331
  527SOL     OW 2479   6.638   2.654   6.988
  527SOL    HW1 2480   6.588   2.595   0.036
  527SOL    HW2 2481   6.736   2.648   7.006
  528SOL     OW 2482   1.118   1.692   3.188
  528SOL    HW1 2483   1.029   1.690   3.144
  528SOL    HW2 2484   1.149   1.598   3.205
  529SOL     OW 2485   1.589   6.698   3.731
  529SOL    HW1 2486   1.553   6.766   3.666
  529SOL    HW2 2487   1.522   6.684   3.804
  530SOL     OW 2488   3.458   2.876   4.477
  530SOL    HW1 2489   3.461   2.870   4.378
  530SOL    HW2 2490   3.540   2.923   4.510
  531SOL     OW 2491   0.672   0.740   2.734
  531SOL    HW1 2492   0.577   0.712   2.752
  531SOL    HW2 2493   0.714   0.675   2.672
  532SOL     OW 2494   1.433   2.294   6.911
  532SOL    HW1 2495   1.366   2.368   6.906
  532SOL    HW2 2496   1.418   2.241   6.994
  533SOL     OW 2497   4.687   0.202   3.754
  533SOL    HW1 2498   4.787   0.200   3.758
  533SOL    HW2 2499   4.656   0.167   3.666
  534SOL     OW 2500   5.119   6.019   2.778
  534SOL    HW1 2501   5.210   5.988   2.804
  534SOL    HW2 2502   5.102   5.997   2.682
  535SOL     OW 2503   0.794   3.759   4.564
  535SOL    HW1 2504   0.711   3.780   4.616
  535SOL    HW2 2505   0.845   3.686   4.610
  536SOL     OW 2506   6.819   5.418   1.838
  536SOL    HW1 2507   6.782   5.487   1.776
  536SOL    HW2 2508   6.800   5.327   1.802
  537SOL     OW 2509   2.092   6.481   4.008
  537SOL    HW1 2510   2.118   6.470   4.104
  537SOL    HW2 2511   2.126   6.403   3.955
  538SOL     OW 2512   1.143   4.322   2.684
  538SOL    HW1 2513   1.196   4.342   2.767
  538SOL    HW2 2514   1.064   4.265   2.707
  539SOL     OW 2515   1.182   6.771   0.912
  539SOL    HW1 2516   1.152   6.866   0.915
  539SOL    HW2 2517   1.279   6.767   0.887
  540SOL     OW 2518   0.842   0.471   2.806
  540SOL    HW1 2519   0.824   0.516   2.718
  540SOL    HW2 2520   0.756   0.433   2.841
  541SOL     OW 2521   4.016   6.268   4.135
  541SOL    HW1 2522   4.056   6.289   4.224
  541SOL    HW2 2523   3.916   6.267   4.143
  542SOL     OW 2524   6.466   0.436   0.107
  542SOL    HW1 2525   6.517   0.478   0.031
  542SOL    HW2 2526   6.494   0.341   0.117
  543SOL     OW 2527   1.634   4.376   5.787
  543SOL    HW1 2528   1.726   4.370   5.747
  543SOL    HW2 2529   1.624   4.307   5.858
  544SOL     OW 2530   2.775   4.015   0.264
  544SOL    HW1 2531   2.787   4.010   0.165
  544SOL    HW2 2532   2.853   3.972   0.310
  545SOL     OW 2533   2.624   0.537   2.906
  545SOL    HW1 2534   2.685   0.595   2.852
  545SOL    HW2 2535   2.536   0.583   2.917
  546SOL     OW 2536   1.709   3.132   1.068
  546SOL    HW1 2537   1.807   3.117   1.083
  546SOL    HW2 2538   1.692   3.147   0.971
  547SOL     OW 2539   3.136   1.465   0.166
  547SOL    HW1 2540   3.201   1.489   0.094
  547SOL    HW2 2541   3.179   1.477   0.256
  548SOL     OW 2542   3.847   3.101   2.723
  548SOL    HW1 2543   3.811   3.023   2.774
  548SOL    HW2 2544   3.790   3.118   2.642
  549SOL     OW 2545   4.659   3.491   1.159
  549SOL    HW1 2546   4.666   3.425   1.084
  549SOL    HW2 2547   4.741   3.548   1.161
  550SOL     OW 2548   5.978   4.363   3.490
  550SOL    HW1 2549   6.055   4.317   3.447
  550SOL    HW2 2550   6.011   4.436   3.550
  551SOL     OW 2551   1.129   0.504   1.596
  551SOL    HW1 2552   1.118   0.457   1.508
  551SOL    HW2 2553   1.221   0.486   1.631
  552SOL     OW 2554   4.794   4.433   6.972
  552SOL    HW1 2555   4.746   4.477   6.896
  552SOL    HW2 2556   4.892   4.434   6.955
  553SOL     OW 2557   1.953   6.732   2.332
  553SOL    HW1 2558   1.959   6.832   2.339
  553SOL    HW2 2559   1.891   6.698   2.403
  554SOL     OW 2560   5.499   6.816   5.541
  554SOL    HW1 2561   5.598   6.800   5.542
  554SOL    HW2 2562   5.465   6.824   5.635
  555SOL     OW 2563   2.052   5.488   2.830
  555SOL    HW1 2564   1.961   5.458   2.801
  555SOL    HW2 2565   2.090   5.549   2.760
  556SOL     OW 2566   5.188   2.558   3.485
  556SOL    HW1 2567   5.221   2.633   3.542
  556SOL    HW2 2568   5.099   2.582   3.446
  557SOL     OW 2569   0.675   4.687   0.069
  557SOL    HW1 2570   0.726   4.615   0.117
  557SOL    HW2 2571   0.704   4.777   0.102
  558SOL     OW 2572   2.887   3.409   4.630
  558SOL    HW1 2573   2.790   3.386   4.638
  558SOL    HW2 2574   2.943   3.331   4.657
  559SOL     OW 2575   6.620   5.456   6.573
  559SOL    HW1 2576   6.707   5.458   6.622
  559SOL    HW2 2577   6.544   5.458   6.638
  560SOL     OW 2578   4.375   5.452   0.488
  560SOL    HW1 2579   4.417   5.365   0.462
  560SOL    HW2 2580   4.330   5.492   0.408
  561SOL     OW 2581   6.185   1.029   0.337
  561SOL    HW1 2582   6.238   1.055   0.257
  561SOL    HW2 2583   6.237   1.047   0.420
  562SOL     OW 2584   5.143   0.579   5.817
  562SOL    HW1 2585   5.226   0.529   5.793
  562SOL    HW2 2586   5.151   0.615   5.910
  563SOL     OW 2587   2.116   0.378   3.212
  563SOL    HW1 2588   2.149   0.284   3.217
  563SOL    HW2 2589   2.067   0.400   3.297
  564SOL     OW 2590   2.910   2.060   6.622
  564SOL    HW1 2591   2.865   2.021   6.542
  564SOL    HW2 2592   2.864   2.146   6.647
  565SOL     OW 2593   3.810   3.188   5.642
  565SOL    HW1 2594   3.753   3.126   5.696
  565SOL    HW2 2595   3.864   3.136   5.577
  566SOL     OW 2596   5.982   4.184   4.363
  566SOL    HW1 2597   5.911   4.221   4.423
  566SOL    HW2 2598   6.011   4.255   4.299
  567SOL     OW 2599   3.740   4.090   2.534
  567SOL    HW1 2600   3.708   4.105   2.441
  567SOL    HW2 2601   3.665   4.056   2.591
  568SOL     OW 2602   3.733   2.253   0.258
  568SOL    HW1 2603   3.758   2.342   0.220
  568SOL    HW2 2604   3.706   2.264   0.353
  569SOL     OW 2605   1.625   3.307   6.805
  569SOL    HW1 2606   1.683   3.269   6.732
  569SOL    HW2 2607   1.648   3.403   6.819
  570SOL     OW 2608   2.228   6.086   6.523
  570SOL    HW1 2609   2.309   6.139   6.502
  570SOL    HW2 2610   2.159   6.100   6.452
  571SOL     OW 2611   2.790   0.260   2.667
  571SOL    HW1 2612   2.768   0.324   2.594
  571SOL    HW2 2613   2.806   0.310   2.752
  572SOL     OW 2614   2.186   4.888   5.925
  572SOL    HW1 2615   2.223   4.969   5.879
  572SOL    HW2 2616   2.117   4.845   5.867
  573SOL     OW 2617   5.104   1.341   5.108
  573SOL    HW1 2618   5.138   1.394   5.186
  573SOL    HW2 2619   5.180   1.313   5.051
  574SOL     OW 2620   2.881   2.271   3.837
  574SOL    HW1 2621   2.811   2.202   3.825
  574SOL    HW2 2622   2.970   2.234   3.810
  575SOL     OW 2623   5.911   3.039   0.427
  575SOL    HW1 2624   5.877   3.046   0.520
  575SOL    HW2 2625   5.895   3.125   0.379
  576SOL     OW 2626   1.066   2.038   2.758
  576SOL    HW1 2627   1.057   2.055   2.856
  576SOL    HW2 2628   1.078   2.124   2.709
  577SOL     OW 2629   2.039   0.997   3.163
  577SOL    HW1 2630   1.967   0.929   3.176
  577SOL    HW2 2631   2.015   1.058   3.088
  578SOL     OW 2632   6.620   4.738   3.243
  578SOL    HW1 2633   6.675   4.738   3.159
  578SOL    HW2 2634   6.677   4.707   3.320
  579SOL     OW 2635   1.941   3.483   1.682
  579SOL    HW1 2636   2.033   3.454   1.654
  579SOL    HW2 2637   1.876   3.411   1.658
  580SOL     OW 2638   0.325   4.718   6.764
  580SOL    HW1 2639   0.413   4.699   6.720
  580SOL    HW2 2640   0.340   4.756   6.855
  581SOL     OW 2641   3.233   3.620   1.910
  581SOL    HW1 2642   3.276   3.579   1.990
  581SOL    HW2 2643   3.135   3.631   1.926
  582SOL     OW 2644   6.050   5.054   2.436
  582SOL    HW1 2645   6.013   5.011   2.518
  582SOL    HW2 2646   6.074   4.984   2.369
  583SOL     OW 2647   2.434   5.565   6.360
  583SOL    HW1 2648   2.356   5.629   6.356
  583SOL    HW2 2649   2.479   5.562   6.270
  584SOL     OW 2650   1.557   4.163   6.262
  584SOL    HW1 2651   1.638   4.116   6.296
  584SOL    HW2 2652   1.543   4.247   6.315
  585SOL     OW 2653   5.903   2.820   6.260
  585SOL    HW1 2654   5.906   2.721   6.279
  585SOL    HW2 2655   5.982   2.846   6.205
  586SOL     OW 2656   3.434   0.833   6.195
  586SOL    HW1 2657   3.349   0.874   6.229
  586SOL    HW2 2658   3.423   0.809   6.098
  587SOL     OW 2659   2.691   2.358   4.744
  587SOL    HW1 2660   2.694   2.343   4.843
  587SOL    HW2 2661   2.596   2.365   4.714
  588SOL     OW 2662   2.180   4.957   0.921
  588SOL    HW1 2663   2.088   4.923   0.941
  588SOL    HW2 2664   2.215   5.008   1.000
  589SOL     OW 2665   3.696   5.285   1.483
  589SOL    HW1 2666   3.664   5.365   1.533
  589SOL    HW2 2667   3.652   5.280   1.394
  590SOL     OW 2668   5.850   2.779   1.810
  590SOL    HW1 2669   5.773   2.720   1.837
  590SOL    HW2 2670   5.826   2.830   1.728
  591SOL     OW 2671   3.848   6.095   3.840
  591SOL    HW1 2672   3.827   6.015   3.897
  591SOL    HW2 2673   3.921   6.073   3.776
  592SOL     OW 2674   3.854   0.572   1.406
  592SOL    HW1 2675   3.861   0.581   1.307
  592SOL    HW2 2676   3.757   0.562   1.432
  593SOL     OW 2677   4.880   2.399   3.703
  593SOL    HW1 2678   4.964   2.344   3.710
  593SOL    HW2 2679   4.818   2.356   3.638
  594SOL     OW 2680   4.683   2.054   6.528
  594SOL    HW1 2681   4.705   2.152   6.519
  594SOL    HW2 2682   4.587   2.039   6.507
  595SOL     OW 2683   5.536   0.122   3.485
  595SOL    HW1 2684   5.612   0.153   3.542
  595SOL    HW2 2685   5.471   0.197   3.472
  596SOL     OW 2686   1.428   3.912   2.419
  596SOL    HW1 2687   1.470   3.966   2.346
  596SOL    HW2 2688   1.400   3.973   2.493
  597SOL     OW 2689   4.064   6.881   5.781
  597SOL    HW1 2690   3.995   6.809   5.770
  597SOL    HW2 2691   4.019   6.970   5.788
  598SOL     OW 2692   3.419   4.145   6.573
  598SOL    HW1 2693   3.458   4.166   6.483
  598SOL    HW2 2694   3.492   4.148   6.641
  599SOL     OW 2695   2.040   6.401   2.821
  599SOL    HW1 2696   2.030   6.301   2.821
  599SOL    HW2 2697   2.058   6.432   2.727
  600SOL     OW 2698   1.011   0.809   1.107
  600SOL    HW1 2699   1.011   0.907   1.126
  600SOL    HW2 2700   0.952   0.762   1.172
  601SOL     OW 2701   3.176   6.769   4.375
  601SOL    HW1 2702   3.180   6.679   4.332
  601SOL    HW2 2703   3.222   6.766   4.463
  602SOL     OW 2704   1.170   2.648   0.470
  602SOL    HW1 2705   1.186   2.716   0.398
  602SOL    HW2 2706   1.183   2.691   0.559
  603SOL     OW 2707   4.307   1.628   3.481
  603SOL    HW1 2708   4.396   1.672   3.494
  603SOL    HW2 2709   4.245   1.690   3.433
  604SOL     OW 2710   0.543   3.744   1.522
  604SOL    HW1 2711   0.539   3.682   1.600
  604SOL    HW2 2712   0.464   3.806   1.525
  605SOL     OW 2713   6.705   5.634   3.168
  605SOL    HW1 2714   6.614   5.592   3.167
  605SOL    HW2 2715   6.711   5.703   3.097
  606SOL     OW 2716   5.143   0.246   5.935
  606SOL    HW1 2717   5.127   0.148   5.945
  606SOL    HW2 2718   5.067   0.297   5.977
  607SOL     OW 2719   5.056   0.665   5.563
  607SOL    HW1 2720   5.047   0.764   5.550
  607SOL    HW2 2721   5.051   0.644   5.661
  608SOL     OW 2722   4.001   6.179   0.043
  608SOL    HW1 2723   4.045   6.159   6.970
  608SOL    HW2 2724   4.063   6.234   0.099
  609SOL     OW 2725   3.511   3.207   3.791
  609SOL    HW1 2726   3.425   3.170   3.825
  609SOL    HW2 2727   3.540   3.158   3.709
  610SOL     OW 2728   5.405   2.217   2.194
  610SOL    HW1 2729   5.386   2.231   2.291
  610SOL    HW2 2730   5.476   2.281   2.164
  611SOL     OW 2731   1.613   0.351   6.261
  611SOL    HW1 2732   1.571   0.418   6.322
  611SOL    HW2 2733   1.697   0.390   6.222
  612SOL     OW 2734   3.820   6.196   5.954
  612SOL    HW1 2735   3.785   6.180   6.046
  612SOL    HW2 2736   3.839   6.107   5.910
  613SOL     OW 2737   3.987   6.561   5.525
  613SOL    HW1 2738   3.890   6.567   5.503
  613SOL    HW2 2739   3.999   6.542   5.622
  614SOL     OW 2740   5.981   4.078   1.074
  614SOL    HW1 2741   6.069   4.093   1.029
  614SOL    HW2 2742   5.919   4.031   1.011
  615SOL     OW 2743   0.761   1.690   0.937
  615SOL    HW1 2744   0.786   1.619   1.004
  615SOL    HW2 2745   0.757   1.650   0.846
  616SOL     OW 2746   6.397   1.734   2.833
  616SOL    HW1 2747   6.467   1.666   2.855
  616SOL    HW2 2748   6.345   1.704   2.753
  617SOL     OW 2749   0.026   3.457   6.818
  617SOL    HW1 2750   0.105   3.516   6.836
  617SOL    HW2 2751   0.010   3.452   6.719
  618SOL     OW 2752   6.962   3.219   0.414
  618SOL    HW1 2753   6.885   3.282   0.401
  618SOL    HW2 2754   0.006   3.255   0.487
  619SOL     OW 2755   4.181   6.788   6.793
  619SOL    HW1 2756   4.278   6.809   6.800
  619SOL    HW2 2757   4.131   6.871   6.766
  620SOL     OW 2758   5.765   2.763   1.053
  620SOL    HW1 2759   5.778   2.860   1.075
  620SOL    HW2 2760   5.820   2.740   0.972
  621SOL     OW 2761   1.615   0.247   5.368
  621SOL    HW1 2762   1.664   0.251   5.455
  621SOL    HW2 2763   1.536   0.186   5.377
  622SOL     OW 2764   0.646   1.733   5.070
  622SOL    HW1 2765   0.670   1.725   4.973
  622SOL    HW2 2766   0.703   1.805   5.112
  623SOL     OW 2767   0.248   6.586   5.390
  623SOL    HW1 2768   0.316   6.604   5.461
  623SOL    HW2 2769   0.158   6.580   5.432
  624SOL     OW 2770   6.200   0.830   0.672
  624SOL    HW1 2771   6.246   0.809   0.758
  624SOL    HW2 2772   6.127   0.764   0.656
  625SOL     OW 2773   1.871   2.395   1.157
  625SOL    HW1 2774   1.784   2.362   1.118
  625SOL    HW2 2775   1.853   2.438   1.245
  626SOL     OW 2776   0.532   5.980   2.622
  626SOL    HW1 2777   0.591   5.916   2.672
  626SOL    HW2 2778   0.502   6.053   2.683
  627SOL     OW 2779   6.371   6.340   0.514
  627SOL    HW1 2780   6.411   6.347   0.606
  627SOL    HW2 2781   6.381   6.246   0.481
  628SOL     OW 2782   5.696   4.110   5.086
  628SOL    HW1 2783   5.786   4.147   5.065
  628SOL    HW2 2784   5.637   4.117   5.006
  629SOL     OW 2785   0.811   1.153   6.791
  629SOL    HW1 2786   0.895   1.200   6.817
  629SOL    HW2 2787   0.829   1.055   6.781
  630SOL     OW 2788   0.442   2.413   0.697
  630SOL    HW1 2789   0.453   2.314   0.690
  630SOL    HW2 2790   0.524   2.458   0.661
  631SOL     OW 2791   3.995   1.611   4.693
  631SOL    HW1 2792   4.017   1.681   4.624
  631SOL    HW2 2793   4.073   1.598   4.754
  632SOL     OW 2794   5.043   2.222   0.537
  632SOL    HW1 2795   5.065   2.236   0.441
  632SOL    HW2 2796   4.973   2.289   0.566
  633SOL     OW 2797   3.358   4.662   6.751
  633SOL    HW1 2798   3.432   4.670   6.817
  633SOL    HW2 2799   3.281   4.718   6.780
  634SOL     OW 2800   3.367   3.890   2.689
  634SOL    HW1 2801   3.276   3.850   2.679
  634SOL    HW2 2802   3.427   3.855   2.617
  635SOL     OW 2803   4.881   6.109   0.209
  635SOL    HW1 2804   4.965   6.158   0.230
  635SOL    HW2 2805   4.832   6.089   0.294
  636SOL     OW 2806   2.841   6.980   5.948
  636SOL    HW1 2807   2.872   0.035   6.012
  636SOL    HW2 2808   2.750   6.948   5.975
  637SOL     OW 2809   0.035   2.906   2.534
  637SOL    HW1 2810   0.083   2.936   2.452
  637SOL    HW2 2811   6.977   2.843   2.509
  638SOL     OW 2812   5.945   3.579   3.435
  638SOL    HW1 2813   5.977   3.540   3.521
  638SOL    HW2 2814   5.901   3.667   3.452
  639SOL     OW 2815   4.862   4.322   2.793
  639SOL    HW1 2816   4.822   4.261   2.861
  639SOL    HW2 2817   4.790   4.375   2.749
  640SOL     OW 2818   6.662   4.743   2.958
  640SOL    HW1 2819   6.586   4.696   2.913
  640SOL    HW2 2820   6.724   4.676   2.999
  641SOL     OW 2821   0.709   4.810   4.966
  641SOL    HW1 2822   0.692   4.740   5.035
  641SOL    HW2 2823   0.667   4.896   4.995
  642SOL     OW 2824   1.260   2.922   4.406
  642SOL    HW1 2825   1.336   2.882   4.457
  642SOL    HW2 2826   1.187   2.948   4.469
  643SOL     OW 2827   6.361   0.716   6.686
  643SOL    HW1 2828   6.412   0.795   6.652
  643SOL    HW2 2829   6.263   0.735   6.678
  644SOL     OW 2830   1.109   0.217   4.790
  644SOL    HW1 2831   1.044   0.154   4.746
  644SOL    HW2 2832   1.202   0.181   4.781
  645SOL     OW 2833   3.337   5.978   4.492
  645SOL    HW1 2834   3.302   5.887   4.514
  645SOL    HW2 2835   3.261   6.043   4.488
  646SOL     OW 2836   3.374   0.374   4.815
  646SOL    HW1 2837   3.301   0.393   4.751
  646SOL    HW2 2838   3.361   0.428   4.899
  647SOL     OW 2839   5.780   1.873   4.480
  647SOL    HW1 2840   5.874   1.896   4.504
  647SOL    HW2 2841   5.778   1.783   4.436
  648SOL     OW 2842   6.651   4.405   3.694
  648SOL    HW1 2843   6.606   4.316   3.696
  648SOL    HW2 2844   6.582   4.477   3.705
  649SOL     OW 2845   2.192   3.519   0.500
  649SOL    HW1 2846   2.181   3.475   0.411
  649SOL    HW2 2847   2.289   3.536   0.517
  650SOL     OW 2848   6.404   4.929   0.736
  650SOL    HW1 2849   6.422   4.909   0.833
  650SOL    HW2 2850   6.314   4.894   0.712
  651SOL     OW 2851   1.468   0.777   5.944
  651SOL    HW1 2852   1.490   0.679   5.948
  651SOL    HW2 2853   1.399   0.793   5.874
  652SOL     OW 2854   4.553   6.954   2.824
  652SOL    HW1 2855   4.515   6.865   2.800
  652SOL    HW2 2856   4.609   6.945   2.907
  653SOL     OW 2857   0.213   6.284   0.085
  653SOL    HW1 2858   0.248   6.290   7.007
  653SOL    HW2 2859   0.113   6.294   0.084
  654SOL     OW 2860   0.620   6.407   6.122
  654SOL    HW1 2861   0.598   6.491   6.073
  654SOL    HW2 2862   0.717   6.385   6.109
  655SOL     OW 2863   6.125   5.554   1.606
  655SOL    HW1 2864   6.127   5.611   1.524
  655SOL    HW2 2865   6.132   5.612   1.687
  656SOL     OW 2866   2.239   6.398   0.312
  656SOL    HW1 2867   2.245   6.339   0.392
  656SOL    HW2 2868   2.150   6.442   0.310
  657SOL     OW 2869   2.946   4.451   0.926
  657SOL    HW1 2870   2.902   4.506   0.997
  657SOL    HW2 2871   3.032   4.494   0.899
  658SOL     OW 2872   1.502   4.106   5.289
  658SOL    HW1 2873   1.412   4.069   5.265
  658SOL    HW2 2874   1.557   4.115   5.206
  659SOL     OW 2875   2.694   6.439   4.763
  659SOL    HW1 2876   2.791   6.428   4.740
  659SOL    HW2 2877   2.658   6.354   4.801
  660SOL     OW 2878   4.409   4.595   2.769
  660SOL    HW1 2879   4.452   4.668   2.822
  660SOL    HW2 2880   4.412   4.619   2.672
  661SOL     OW 2881   4.961   3.809   4.615
  661SOL    HW1 2882   4.916   3.871   4.551
  661SOL    HW2 2883   4.972   3.719   4.573
  662SOL     OW 2884   4.295   0.745   5.733
  662SOL    HW1 2885   4.242   0.662   5.748
  662SOL    HW2 2886   4.344   0.769   5.817
  663SOL     OW 2887   0.501   4.371   0.524
  663SOL    HW1 2888   0.525   4.341   0.431
  663SOL    HW2 2889   0.485   4.291   0.582
  664SOL     OW 2890   1.763   5.581   6.672
  664SOL    HW1 2891   1.725   5.650   6.610
  664SOL    HW2 2892   1.767   5.493   6.625
  665SOL     OW 2893   4.307   5.259   0.695
  665SOL    HW1 2894   4.372   5.326   0.657
  665SOL    HW2 2895   4.357   5.185   0.739
  666SOL     OW 2896   4.551   2.422   1.142
  666SOL    HW1 2897   4.576   2.499   1.082
  666SOL    HW2 2898   4.522   2.345   1.086
  667SOL     OW 2899   6.430   3.920   4.206
  667SOL    HW1 2900   6.376   3.884   4.130
  667SOL    HW2 2901   6.518   3.873   4.209
  668SOL     OW 2902   5.064   5.392   6.835
  668SOL    HW1 2903   5.001   5.438   6.772
  668SOL    HW2 2904   5.144   5.450   6.850
  669SOL     OW 2905   3.150   5.900   2.977
  669SOL    HW1 2906   3.232   5.843   2.978
  669SOL    HW2 2907   3.176   5.995   2.961
  670SOL     OW 2908   3.083   2.895   1.918
  670SOL    HW1 2909   3.075   2.800   1.889
  670SOL    HW2 2910   3.166   2.907   1.973
  671SOL     OW 2911   2.434   6.050   6.783
  671SOL    HW1 2912   2.372   6.120   6.815
  671SOL    HW2 2913   2.415   6.030   6.686
  672SOL     OW 2914   0.658   4.104   1.824
  672SOL    HW1 2915   0.631   4.009   1.838
  672SOL    HW2 2916   0.576   4.162   1.828
  673SOL     OW 2917   5.542   0.315   1.245
  673SOL    HW1 2918   5.451   0.291   1.281
  673SOL    HW2 2919   5.604   0.332   1.322
  674SOL     OW 2920   6.513   3.400   4.417
  674SOL    HW1 2921   6.437   3.342   4.445
  674SOL    HW2 2922   6.514   3.409   4.317
  675SOL     OW 2923   0.306   0.984   5.183
  675SOL    HW1 2924   0.371   0.945   5.248
  675SOL    HW2 2925   0.242   0.913   5.153
  676SOL     OW 2926   2.974   4.892   3.215
  676SOL    HW1 2927   2.918   4.878   3.134
  676SOL    HW2 2928   3.071   4.887   3.190
  677SOL     OW 2929   5.706   1.343   5.997
  677SOL    HW1 2930   5.679   1.437   6.016
  677SOL    HW2 2931   5.702   1.327   5.898
  678SOL     OW 2932   1.417   1.502   5.303
  678SOL    HW1 2933   1.449   1.496   5.397
  678SOL    HW2 2934   1.478   1.560   5.250
  679SOL     OW 2935   4.777   1.155   4.374
  679SOL    HW1 2936   4.798   1.222   4.445
  679SOL    HW2 2937   4.801   1.192   4.284
  680SOL     OW 2938   5.423   5.359   6.174
  680SOL    HW1 2939   5.348   5.296   6.194
  680SOL    HW2 2940   5.390   5.434   6.116
  681SOL     OW 2941   6.450   0.364   1.042
  681SOL    HW1 2942   6.493   0.274   1.044
  681SOL    HW2 2943   6.461   0.405   0.951
  682SOL     OW 2944   1.738   6.783   6.852
  682SOL    HW1 2945   1.778   6.869   6.884
  682SOL    HW2 2946   1.752   6.774   6.753
  683SOL     OW 2947   3.669   0.873   6.338
  683SOL    HW1 2948   3.575   0.864   6.304
  683SOL    HW2 2949   3.681   0.964   6.379
  684SOL     OW 2950   6.053   1.236   6.435
  684SOL    HW1 2951   6.003   1.265   6.353
  684SOL    HW2 2952   6.146   1.273   6.432
  685SOL     OW 2953   4.875   6.541   5.316
  685SOL    HW1 2954   4.832   6.578   5.234
  685SOL    HW2 2955   4.938   6.608   5.354
  686SOL     OW 2956   5.662   3.306   3.038
  686SOL    HW1 2957   5.604   3.382   3.068
  686SOL    HW2 2958   5.757   3.337   3.035
  687SOL     OW 2959   6.867   2.542   5.026
  687SOL    HW1 2960   6.803   2.608   5.067
  687SOL    HW2 2961   6.957   2.585   5.016
  688SOL     OW 2962   1.650   3.542   0.699
  688SOL    HW1 2963   1.675   3.584   0.787
  688SOL    HW2 2964   1.581   3.471   0.715
  689SOL     OW 2965   0.829   4.416   5.305
  689SOL    HW1 2966   0.842   4.351   5.231
  689SOL    HW2 2967   0.858   4.507   5.275
  690SOL     OW 2968   0.873   2.970   3.613
  690SOL    HW1 2969   0.924   3.031   3.551
  690SOL    HW2 2970   0.790   3.017   3.645
  691SOL     OW 2971   2.359   1.521   6.417
  691SOL    HW1 2972   2.358   1.614   6.382
  691SOL    HW2 2973   2.283   1.508   6.480
  692SOL     OW 2974   3.386   6.330   3.675
  692SOL    HW1 2975   3.481   6.331   3.708
  692SOL    HW2 2976   3.350   6.424   3.676
  693SOL     OW 2977   6.575   1.875   2.656
  693SOL    HW1 2978   6.547   1.782   2.632
  693SOL    HW2 2979   6.531   1.903   2.741
  694SOL     OW 2980   3.146   6.072   2.578
  694SOL    HW1 2981   3.224   6.056   2.639
  694SOL    HW2 2982   3.094   6.151   2.610
  695SOL     OW 2983   4.240   5.118   6.223
  695SOL    HW1 2984   4.147   5.123   6.260
  695SOL    HW2 2985   4.306   5.124   6.298
  696SOL     OW 2986   3.526   5.178   1.804
  696SOL    HW1 2987   3.498   5.205   1.896
  696SOL    HW2 2988   3.461   5.213   1.738
  697SOL     OW 2989   1.254   2.602   4.376
  697SOL    HW1 2990   1.238   2.593   4.475
  697SOL    HW2 2991   1.348   2.633   4.361
  698SOL     OW 2992   5.500   0.097   6.052
  698SOL    HW1 2993   5.588   0.132   6.086
  698SOL    HW2 2994   5.433   0.171   6.051
  699SOL     OW 2995   0.930   4.104   0.143
  699SOL    HW1 2996   0.888   4.019   0.175
  699SOL    HW2 2997   0.989   4.084   0.064
  700SOL     OW 2998   3.104   1.671   4.046
  700SOL    HW1 2999   3.190   1.720   4.060
  700SOL    HW2 3000   3.076   1.628   4.132
  701SOL     OW 3001   0.092   4.087   5.358
  701SOL    HW1 3002   0.015   4.042   5.314
  701SOL    HW2 3003   0.141   4.142   5.290
  702SOL     OW 3004   5.683   5.964   5.884
  702SOL    HW1 3005   5.672   6.060   5.858
  702SOL    HW2 3006   5.717   5.912   5.807
  703SOL     OW 3007   4.104   4.089   6.530
  703SOL    HW1 3008   4.066   3.997   6.517
  703SOL    HW2 3009   4.189   4.098   6.478
  704SOL     OW 3010   2.037   1.993   6.354
  704SOL    HW1 3011   2.075   1.993   6.447
  704SOL    HW2 3012   1.985   2.078   6.340
  705SOL     OW 3013   5.226   6.920   3.648
  705SOL    HW1 3014   5.324   6.901   3.653
  705SOL    HW2 3015   5.175   6.834   3.646
  706SOL     OW 3016   4.392   2.021   3.219
  706SOL    HW1 3017   4.362   2.069   3.136
  706SOL    HW2 3018   4.337   2.052   3.297
  707SOL     OW 3019   4.521   0.693   2.522
  707SOL    HW1 3020   4.515   0.596   2.496
  707SOL    HW2 3021   4.585   0.703   2.598
  708SOL     OW 3022   3.996   0.354   1.475
  708SOL    HW1 3023   3.941   0.434   1.450
  708SOL    HW2 3024   4.093   0.376   1.466
  709SOL     OW 3025   1.108   5.345   0.344
  709SOL    HW1 3026   1.167   5.417   0.382
  709SOL    HW2 3027   1.165   5.270   0.310
  710SOL     OW 3028   3.921   3.287   2.394
  710SOL    HW1 3029   3.968   3.212   2.348
  710SOL    HW2 3030   3.982   3.329   2.461
  711SOL     OW 3031   0.822   1.926   5.975
  711SOL    HW1 3032   0.898   1.869   5.945
  711SOL    HW2 3033   0.802   1.909   6.071
  712SOL     OW 3034   2.285   4.051   0.415
  712SOL    HW1 3035   2.239   3.968   0.446
  712SOL    HW2 3036   2.312   4.106   0.494
  713SOL     OW 3037   2.972   3.342   0.254
  713SOL    HW1 3038   3.055   3.315   0.304
  713SOL    HW2 3039   2.903   3.374   0.319
  714SOL     OW 3040   6.713   5.354   4.942
  714SOL    HW1 3041   6.686   5.398   5.028
  714SOL    HW2 3042   6.661   5.269   4.930
  715SOL     OW 3043   5.479   6.017   0.770
  715SOL    HW1 3044   5.518   6.109   0.770
  715SOL    HW2 3045   5.407   6.012   0.840
  716SOL     OW 3046   1.158   0.012   0.910
  716SOL    HW1 3047   1.091   0.032   0.839
  716SOL    HW2 3048   1.130   0.055   0.996
  717SOL     OW 3049   5.516   4.959   6.313
  717SOL    HW1 3050   5.576   4.977   6.234
  717SOL    HW2 3051   5.427   5.002   6.298
  718SOL     OW 3052   4.552   2.086   5.493
  718SOL    HW1 3053   4.560   2.146   5.573
  718SOL    HW2 3054   4.510   1.999   5.521
  719SOL     OW 3055   6.683   2.559   1.060
  719SOL    HW1 3056   6.747   2.636   1.061
  719SOL    HW2 3057   6.660   2.533   1.153
  720SOL     OW 3058   3.846   0.986   6.073
  720SOL    HW1 3059   3.851   1.081   6.104
  720SOL    HW2 3060   3.933   0.941   6.090
  721SOL     OW 3061   1.912   0.010   4.263
  721SOL    HW1 3062   1.816   7.008   4.285
  721SOL    HW2 3063   1.941   0.094   4.308
  722SOL     OW 3064   2.877   0.043   5.066
  722SOL    HW1 3065   2.802   6.991   5.066
  722SOL    HW2 3066   2.840   0.133   5.087
  723SOL     OW 3067   2.115   3.651   2.492
  723SOL    HW1 3068   2.078   3.594   2.418
  723SOL    HW2 3069   2.185   3.600   2.541
  724SOL     OW 3070   1.229   2.139   4.490
  724SOL    HW1 3071   1.190   2.047   4.491
  724SOL    HW2 3072   1.197   2.189   4.410
  725SOL     OW 3073   2.936   5.526   1.724
  725SOL    HW1 3074   2.857   5.466   1.737
  725SOL    HW2 3075   2.905   5.615   1.689
  726SOL     OW 3076   3.750   4.773   0.965
  726SOL    HW1 3077   3.814   4.832   0.914
  726SOL    HW2 3078   3.800   4.724   1.036
  727SOL     OW 3079   5.067   5.220   5.803
  727SOL    HW1 3080   5.053   5.182   5.712
  727SOL    HW2 3081   5.142   5.286   5.800
  728SOL     OW 3082   0.411   3.375   5.175
  728SOL    HW1 3083   0.351   3.408   5.247
  728SOL    HW2 3084   0.378   3.406   5.086
  729SOL     OW 3085   2.233   1.228   0.428
  729SOL    HW1 3086   2.272   1.278   0.350
  729SOL    HW2 3087   2.250   1.278   0.512
  730SOL     OW 3088   5.736   0.351   3.451
  730SOL    HW1 3089   5.744   0.269   3.394
  730SOL    HW2 3090   5.699   0.426   3.396
  731SOL     OW 3091   6.164   3.797   6.012
  731SOL    HW1 3092   6.202   3.747   5.934
  731SOL    HW2 3093   6.068   3.819   5.994
  732SOL     OW 3094   1.008   3.219   1.382
  732SOL    HW1 3095   0.994   3.318   1.375
  732SOL    HW2 3096   0.921   3.174   1.402
  733SOL     OW 3097   6.118   4.707   5.082
  733SOL    HW1 3098   6.104   4.619   5.035
  733SOL    HW2 3099   6.029   4.751   5.095
  734SOL     OW 3100   6.981   4.410   2.804
  734SOL    HW1 3101   0.056   4.390   2.842
  734SOL    HW2 3102   6.991   4.444   2.710
  735SOL     OW 3103   3.736   3.027   0.833
  735SOL    HW1 3104   3.721   3.030   0.734
  735SOL    HW2 3105   3.689   2.948   0.871
  736SOL     OW 3106   6.759   6.482   2.379
  736SOL    HW1 3107   6.849   6.472   2.338
  736SOL    HW2 3108   6.756   6.565   2.434
  737SOL     OW 3109   3.978   2.262   6.628
  737SOL    HW1 3110   4.030   2.186   6.590
  737SOL    HW2 3111   3.892   2.227   6.667
  738SOL     OW 3112   2.139   3.873   2.340
  738SOL    HW1 3113   2.057   3.851   2.287
  738SOL    HW2 3114   2.183   3.788   2.370
  739SOL     OW 3115   3.847   6.494   4.704
  739SOL    HW1 3116   3.870   6.406   4.746
  739SOL    HW2 3117   3.750   6.494   4.680
  740SOL     OW 3118   4.848   6.551   0.422
  740SOL    HW1 3119   4.770   6.535   0.482
  740SOL    HW2 3120   4.907   6.621   0.463
  741SOL     OW 3121   2.268   6.165   3.460
  741SOL    HW1 3122   2.281   6.151   3.558
  741SOL    HW2 3123   2.252   6.262   3.442
  742SOL     OW 3124   2.153   6.820   1.637
  742SOL    HW1 3125   2.078   6.881   1.610
  742SOL    HW2 3126   2.194   6.780   1.555
  743SOL     OW 3127   1.686   4.010   4.888
  743SOL    HW1 3128   1.722   4.016   4.795
  743SOL    HW2 3129   1.705   3.920   4.925
  744SOL     OW 3130   5.597   6.863   6.219
  744SOL    HW1 3131   5.549   6.949   6.232
  744SOL    HW2 3132   5.675   6.858   6.281
  745SOL     OW 3133   1.027   4.795   4.315
  745SOL    HW1 3134   1.079   4.734   4.374
  745SOL    HW2 3135   1.090   4.852   4.261
  746SOL     OW 3136   0.779   5.033   6.291
  746SOL    HW1 3137   0.776   5.052   6.192
  746SOL    HW2 3138   0.758   5.118   6.341
  747SOL     OW 3139   4.709   5.887   4.877
  747SOL    HW1 3140   4.613   5.874   4.852
  747SOL    HW2 3141   4.735   5.817   4.943
  748SOL     OW 3142   3.601   5.115   2.714
  748SOL    HW1 3143   3.503   5.119   2.695
  748SOL    HW2 3144   3.620   5.162   2.801
  749SOL     OW 3145   6.299   3.956   4.940
  749SOL    HW1 3146   6.392   3.987   4.963
  749SOL    HW2 3147   6.279   3.870   4.987
  750SOL     OW 3148   1.876   2.901   0.775
  750SOL    HW1 3149   1.914   2.993   0.771
  750SOL    HW2 3150   1.899   2.851   0.692
  751SOL     OW 3151   3.803   2.017   6.040
  751SOL    HW1 3152   3.850   1.934   6.069
  751SOL    HW2 3153   3.867   2.078   5.994
  752SOL     OW 3154   3.959   2.226   1.978
  752SOL    HW1 3155   3.913   2.141   2.004
  752SOL    HW2 3156   3.894   2.284   1.929
  753SOL     OW 3157   1.621   3.114   4.195
  753SOL    HW1 3158   1.675   3.182   4.244
  753SOL    HW2 3159   1.528   3.113   4.231
  754SOL     OW 3160   5.419   2.813   6.571
  754SOL    HW1 3161   5.506   2.816   6.521
  754SOL    HW2 3162   5.369   2.730   6.544
  755SOL     OW 3163   1.410   5.624   5.641
  755SOL    HW1 3164   1.409   5.526   5.659
  755SOL    HW2 3165   1.356   5.644   5.559
  756SOL     OW 3166   3.656   0.074   1.003
  756SOL    HW1 3167   3.588   0.130   1.049
  756SOL    HW2 3168   3.661   0.098   0.906
  757SOL     OW 3169   0.066   6.280   3.241
  757SOL    HW1 3170   0.078   6.184   3.215
  757SOL    HW2 3171   6.992   6.291   3.285
  758SOL     OW 3172   4.153   0.779   1.980
  758SOL    HW1 3173   4.173   0.830   2.064
  758SOL    HW2 3174   4.073   0.818   1.935
  759SOL     OW 3175   0.651   0.761   0.533
  759SOL    HW1 3176   0.576   0.823   0.555
  759SOL    HW2 3177   0.614   0.677   0.492
  760SOL     OW 3178   4.478   0.426   5.991
  760SOL    HW1 3179   4.495   0.501   6.055
  760SOL    HW2 3180   4.533   0.441   5.908
  761SOL     OW 3181   5.335   3.804   5.552
  761SOL    HW1 3182   5.353   3.763   5.462
  761SOL    HW2 3183   5.283   3.739   5.608
  762SOL     OW 3184   1.791   6.911   4.996
  762SOL    HW1 3185   1.882   6.892   4.957
  762SOL    HW2 3186   1.787   6.876   5.089
  763SOL     OW 3187   4.036   5.073   6.594
  763SOL    HW1 3188   3.942   5.044   6.576
  763SOL    HW2 3189   4.061   5.051   6.688
  764SOL     OW 3190   4.138   0.564   3.955
  764SOL    HW1 3191   4.122   0.528   4.047
  764SOL    HW2 3192   4.229   0.607   3.952
  765SOL     OW 3193   1.258   6.078   1.455
  765SOL    HW1 3194   1.268   6.142   1.531
  765SOL    HW2 3195   1.235   6.130   1.372
  766SOL     OW 3196   1.071   2.924   1.029
  766SOL    HW1 3197   1.115   2.992   1.089
  766SOL    HW2 3198   1.005   2.971   0.970
  767SOL     OW 3199   6.370   5.608   2.848
  767SOL    HW1 3200   6.299   5.547   2.884
  767SOL    HW2 3201   6.392   5.580   2.754
  768SOL     OW 3202   2.334   0.192   2.228
  768SOL    HW1 3203   2.374   0.101   2.222
  768SOL    HW2 3204   2.373   0.251   2.158
  769SOL     OW 3205   3.376   0.836   4.927
  769SOL    HW1 3206   3.355   0.828   5.025
  769SOL    HW2 3207   3.452   0.900   4.915
  770SOL     OW 3208   1.790   4.353   3.174
  770SOL    HW1 3209   1.823   4.259   3.171
  770SOL    HW2 3210   1.867   4.416   3.165
  771SOL     OW 3211   2.505   5.773   2.468
  771SOL    HW1 3212   2.586   5.815   2.509
  771SOL    HW2 3213   2.530   5.686   2.426
  772SOL     OW 3214   6.672   5.002   0.710
  772SOL    HW1 3215   6.699   5.057   0.631
  772SOL    HW2 3216   6.580   4.965   0.696
  773SOL     OW 3217   6.829   3.851   3.595
  773SOL    HW1 3218   6.857   3.809   3.681
  773SOL    HW2 3219   6.850   3.949   3.598
  774SOL     OW 3220   1.008   1.690   2.229
  774SOL    HW1 3221   1.027   1.712   2.325
  774SOL    HW2 3222   0.915   1.654   2.221
  775SOL     OW 3223   1.004   1.846   3.375
  775SOL    HW1 3224   0.965   1.905   3.304
  775SOL    HW2 3225   1.066   1.780   3.334
  776SOL     OW 3226   6.790   0.600   5.684
  776SOL    HW1 3227   6.746   0.515   5.713
  776SOL    HW2 3228   6.765   0.619   5.589
  777SOL     OW 3229   3.196   5.523   1.100
  777SOL    HW1 3230   3.115   5.556   1.052
  777SOL    HW2 3231   3.278   5.556   1.053
  778SOL     OW 3232   3.640   1.855   3.116
  778SOL    HW1 3233   3.652   1.836   3.214
  778SOL    HW2 3234   3.613   1.771   3.069
  779SOL     OW 3235   0.634   2.112   2.819
  779SOL    HW1 3236   0.552   2.076   2.862
  779SOL    HW2 3237   0.644   2.074   2.727
  780SOL     OW 3238   6.261   3.812   3.977
  780SOL    HW1 3239   6.310   3.820   3.890
  780SOL    HW2 3240   6.224   3.719   3.985
  781SOL     OW 3241   5.248   1.579   6.810
  781SOL    HW1 3242   5.232   1.611   6.903
  781SOL    HW2 3243   5.299   1.648   6.758
  782SOL     OW 3244   0.898   3.503   6.797
  782SOL    HW1 3245   0.908   3.507   6.897
  782SOL    HW2 3246   0.981   3.465   6.757
  783SOL     OW 3247   4.228   4.598   1.293
  783SOL    HW1 3248   4.267   4.687   1.267
  783SOL    HW2 3249   4.255   4.577   1.387
  784SOL     OW 3250   5.333   6.091   6.754
  784SOL    HW1 3251   5.381   6.176   6.774
  784SOL    HW2 3252   5.239   6.097   6.785
  785SOL     OW 3253   6.925   3.001   3.262
  785SOL    HW1 3254   6.841   3.032   3.307
  785SOL    HW2 3255   6.962   3.074   3.205
  786SOL     OW 3256   1.314   0.993   1.064
  786SOL    HW1 3257   1.400   0.947   1.041
  786SOL    HW2 3258   1.329   1.091   1.072
  787SOL     OW 3259   2.850   0.779   6.660
  787SOL    HW1 3260   2.804   0.867   6.663
  787SOL    HW2 3261   2.794   0.714   6.609
  788SOL     OW 3262   2.988   2.042   5.012
  788SOL    HW1 3263   3.051   2.119   5.018
  788SOL    HW2 3264   2.895   2.076   4.998
  789SOL     OW 3265   5.136   4.090   1.088
  789SOL    HW1 3266   5.174   4.000   1.108
  789SOL    HW2 3267   5.050   4.079   1.038
  790SOL     OW 3268   2.552   0.824   3.994
  790SOL    HW1 3269   2.569   0.890   4.067
  790SOL    HW2 3270   2.592   0.736   4.017
  791SOL     OW 3271   3.171   6.293   3.088
  791SOL    HW1 3272   3.205   6.205   3.119
  791SOL    HW2 3273   3.241   6.339   3.034
  792SOL     OW 3274   0.492   0.821   1.944
  792SOL    HW1 3275   0.542   0.877   1.878
  792SOL    HW2 3276   0.432   0.880   1.999
  793SOL     OW 3277   4.784   6.047   2.718
  793SOL    HW1 3278   4.806   6.136   2.756
  793SOL    HW2 3279   4.835   6.034   2.633
  794SOL     OW 3280   3.033   3.612   4.712
  794SOL    HW1 3281   2.990   3.690   4.666
  794SOL    HW2 3282   2.992   3.527   4.681
  795SOL     OW 3283   3.512   6.300   5.029
  795SOL    HW1 3284   3.451   6.319   4.951
  795SOL    HW2 3285   3.592   6.359   5.024
  796SOL     OW 3286   1.332   2.152   6.309
  796SOL    HW1 3287   1.430   2.171   6.300
  796SOL    HW2 3288   1.300   2.185   6.398
  797SOL     OW 3289   5.008   2.665   2.143
  797SOL    HW1 3290   4.923   2.713   2.120
  797SOL    HW2 3291   4.993   2.566   2.137
  798SOL     OW 3292   4.983   6.944   1.405
  798SOL    HW1 3293   4.920   7.005   1.357
  798SOL    HW2 3294   5.074   6.951   1.364
  799SOL     OW 3295   6.126   1.304   4.646
  799SOL    HW1 3296   6.177   1.390   4.649
  799SOL    HW2 3297   6.041   1.317   4.595
  800SOL     OW 3298   5.733   1.124   2.383
  800SOL    HW1 3299   5.720   1.223   2.387
  800SOL    HW2 3300   5.665   1.079   2.441
  801SOL     OW 3301   2.123   3.383   3.913
  801SOL    HW1 3302   2.145   3.405   3.818
  801SOL    HW2 3303   2.024   3.379   3.925
  802SOL     OW 3304   4.734   0.367   0.974
  802SOL    HW1 3305   4.684   0.380   0.888
  802SOL    HW2 3306   4.806   0.437   0.982
  803SOL     OW 3307   0.110   6.126   4.751
  803SOL    HW1 3308   0.106   6.029   4.726
  803SOL    HW2 3309   0.154   6.177   4.677
  804SOL     OW 3310   6.041   6.374   6.720
  804SOL    HW1 3311   5.981   6.453   6.727
  804SOL    HW2 3312   6.063   6.356   6.624
  805SOL     OW 3313   3.371   1.708   5.486
  805SOL    HW1 3314   3.324   1.692   5.399
  805SOL    HW2 3315   3.469   1.691   5.474
  806SOL     OW 3316   4.874   1.503   4.302
  806SOL    HW1 3317   4.871   1.500   4.402
  806SOL    HW2 3318   4.954   1.453   4.270
  807SOL     OW 3319   0.836   1.649   4.389
  807SOL    HW1 3320   0.776   1.650   4.309
  807SOL    HW2 3321   0.858   1.743   4.416
  808SOL     OW 3322   4.261   3.303   6.527
  808SOL    HW1 3323   4.241   3.300   6.428
  808SOL    HW2 3324   4.244   3.395   6.561
  809SOL     OW 3325   0.573   4.546   1.550
  809SOL    HW1 3326   0.603   4.634   1.588
  809SOL    HW2 3327   0.475   4.549   1.533
  810SOL     OW 3328   3.605   2.664   1.109
  810SOL    HW1 3329   3.604   2.668   1.209
  810SOL    HW2 3330   3.560   2.580   1.079
  811SOL     OW 3331   3.982   5.798   4.079
  811SOL    HW1 3332   3.946   5.800   3.986
  811SOL    HW2 3333   4.028   5.711   4.096
  812SOL     OW 3334   0.602   1.599   1.418
  812SOL    HW1 3335   0.652   1.512   1.413
  812SOL    HW2 3336   0.665   1.673   1.442
  813SOL     OW 3337   3.918   5.143   4.193
  813SOL    HW1 3338   3.822   5.127   4.171
  813SOL    HW2 3339   3.927   5.224   4.251
  814SOL     OW 3340   5.644   6.265   3.086
  814SOL    HW1 3341   5.631   6.363   3.104
  814SOL    HW2 3342   5.639   6.214   3.172
  815SOL     OW 3343   0.141   3.372   3.342
  815SOL    HW1 3344   0.095   3.451   3.302
  815SOL    HW2 3345   0.077   3.324   3.403
  816SOL     OW 3346   6.943   6.307   0.214
  816SOL    HW1 3347   6.987   6.392   0.243
  816SOL    HW2 3348   6.873   6.327   0.145
  817SOL     OW 3349   2.405   3.904   1.460
  817SOL    HW1 3350   2.460   3.935   1.383
  817SOL    HW2 3351   2.310   3.932   1.446
  818SOL     OW 3352   6.450   2.899   1.976
  818SOL    HW1 3353   6.488   2.813   1.942
  818SOL    HW2 3354   6.521   2.952   2.021
  819SOL     OW 3355   5.586   3.080   3.187
  819SOL    HW1 3356   5.616   3.157   3.130
  819SOL    HW2 3357   5.573   3.111   3.281
  820SOL     OW 3358   2.790   2.704   6.253
  820SOL    HW1 3359   2.757   2.702   6.159
  820SOL    HW2 3360   2.774   2.616   6.298
  821SOL     OW 3361   2.133   3.940   0.793
  821SOL    HW1 3362   2.049   3.905   0.833
  821SOL    HW2 3363   2.155   3.889   0.710
  822SOL     OW 3364   1.076   4.621   4.717
  822SOL    HW1 3365   1.081   4.720   4.704
  822SOL    HW2 3366   1.067   4.600   4.814
  823SOL     OW 3367   4.568   3.952   6.704
  823SOL    HW1 3368   4.610   4.040   6.725
  823SOL    HW2 3369   4.620   3.879   6.749
  824SOL     OW 3370   5.295   1.119   5.247
  824SOL    HW1 3371   5.313   1.032   5.201
  824SOL    HW2 3372   5.197   1.129   5.263
  825SOL     OW 3373   1.372   4.033   1.325
  825SOL    HW1 3374   1.413   4.114   1.367
  825SOL    HW2 3375   1.278   4.054   1.298
  826SOL     OW 3376   5.611   3.350   6.711
  826SOL    HW1 3377   5.703   3.371   6.678
  826SOL    HW2 3378   5.589   3.255   6.689
  827SOL     OW 3379   3.285   5.642   6.279
  827SOL    HW1 3380   3.378   5.643   6.241
  827SOL    HW2 3381   3.241   5.729   6.262
  828SOL     OW 3382   5.626   6.640   5.830
  828SOL    HW1 3383   5.545   6.640   5.888
  828SOL    HW2 3384   5.641   6.732   5.795
  829SOL     OW 3385   2.987   3.920   4.028
  829SOL    HW1 3386   3.048   3.961   4.095
  829SOL    HW2 3387   2.943   3.839   4.068
  830SOL     OW 3388   4.903   4.590   6.483
  830SOL    HW1 3389   4.964   4.662   6.516
  830SOL    HW2 3390   4.828   4.576   6.547
  831SOL     OW 3391   6.307   1.039   5.490
  831SOL    HW1 3392   6.210   1.036   5.511
  831SOL    HW2 3393   6.359   1.051   5.574
  832SOL     OW 3394   2.278   1.393   1.140
  832SOL    HW1 3395   2.272   1.293   1.132
  832SOL    HW2 3396   2.245   1.435   1.055
  833SOL     OW 3397   6.855   5.017   6.234
  833SOL    HW1 3398   6.936   4.980   6.278
  833SOL    HW2 3399   6.810   4.945   6.181
  834SOL     OW 3400   2.668   3.306   0.846
  834SOL    HW1 3401   2.707   3.320   0.755
  834SOL    HW2 3402   2.708   3.372   0.910
  835SOL     OW 3403   3.152   0.338   4.460
  835SOL    HW1 3404   3.249   0.332   4.438
  835SOL    HW2 3405   3.141   0.345   4.560
  836SOL     OW 3406   3.435   6.600   0.213
  836SOL    HW1 3407   3.486   6.540   0.275
  836SOL    HW2 3408   3.496   6.636   0.143
  837SOL     OW 3409   5.296   6.438   0.002
  837SOL    HW1 3410   5.200   6.419   6.996
  837SOL    HW2 3411   5.353   6.412   6.939
  838SOL     OW 3412   1.035   6.882   5.130
  838SOL    HW1 3413   0.961   6.814   5.133
  838SOL    HW2 3414   1.067   6.901   5.222
  839SOL     OW 3415   2.623   2.372   2.182
  839SOL    HW1 3416   2.716   2.369   2.146
  839SOL    HW2 3417   2.559   2.346   2.109
  840SOL     OW 3418   5.797   6.919   5.992
  840SOL    HW1 3419   5.766   6.909   5.898
  840SOL    HW2 3420   5.721   6.948   6.050
  841SOL     OW 3421   5.001   5.099   0.502
  841SOL    HW1 3422   5.092   5.059   0.495
  841SOL    HW2 3423   4.934   5.026   0.521
  842SOL     OW 3424   4.621   5.164   4.237
  842SOL    HW1 3425   4.705   5.134   4.281
  842SOL    HW2 3426   4.550   5.095   4.250
  843SOL     OW 3427   3.515   1.524   6.723
  843SOL    HW1 3428   3.418   1.499   6.724
  843SOL    HW2 3429   3.523   1.624   6.723
  844SOL     OW 3430   5.330   0.084   1.092
  844SOL    HW1 3431   5.238   0.064   1.058
  844SOL    HW2 3432   5.377   7.013   1.113
  845SOL     OW 3433   5.752   3.396   5.119
  845SOL    HW1 3434   5.759   3.402   5.219
  845SOL    HW2 3435   5.758   3.488   5.080
  846SOL     OW 3436   3.346   1.503   0.353
  846SOL    HW1 3437   3.314   1.509   0.447
  846SOL    HW2 3438   3.436   1.460   0.351
  847SOL     OW 3439   0.461   3.853   0.515
  847SOL    HW1 3440   0.449   3.755   0.525
  847SOL    HW2 3441   0.462   3.897   0.605
  848SOL     OW 3442   6.374   1.219   6.439
  848SOL    HW1 3443   6.414   1.180   6.522
  848SOL    HW2 3444   6.402   1.315   6.430
  849SOL     OW 3445   1.027   4.546   5.664
  849SOL    HW1 3446   1.089   4.468   5.674
  849SOL    HW2 3447   1.051   4.596   5.581
  850SOL     OW 3448   5.249   1.466   3.996
  850SOL    HW1 3449   5.336   1.515   4.006
  850SOL    HW2 3450   5.265   1.378   3.951
  851SOL     OW 3451   0.054   1.153   1.241
  851SOL    HW1 3452   0.019   1.104   1.161
  851SOL    HW2 3453   6.993   1.175   1.302
  852SOL     OW 3454   1.834   2.236   0.479
  852SOL    HW1 3455   1.933   2.226   0.477
  852SOL    HW2 3456   1.796   2.180   0.552
  853SOL     OW 3457   1.574   4.169   2.310
  853SOL    HW1 3458   1.599   4.252   2.360
  853SOL    HW2 3459   1.587   4.184   2.212
  854SOL     OW 3460   4.608   5.559   2.409
  854SOL    HW1 3461   4.603   5.460   2.420
  854SOL    HW2 3462   4.665   5.581   2.330
  855SOL     OW 3463   6.926   0.139   1.118
  855SOL    HW1 3464   6.946   0.232   1.090
  855SOL    HW2 3465   6.848   0.140   1.182
  856SOL     OW 3466   1.723   2.145   5.066
  856SOL    HW1 3467   1.801   2.082   5.067
  856SOL    HW2 3468   1.755   2.239   5.053
  857SOL     OW 3469   5.981   4.671   1.588
  857SOL    HW1 3470   5.907   4.707   1.645
  857SOL    HW2 3471   6.068   4.680   1.638
  858SOL     OW 3472   2.611   4.519   1.351
  858SOL    HW1 3473   2.524   4.538   1.396
  858SOL    HW2 3474   2.623   4.421   1.340
  859SOL     OW 3475   4.642   5.102   6.853
  859SOL    HW1 3476   4.715   5.166   6.880
  859SOL    HW2 3477   4.612   5.050   6.933
  860SOL     OW 3478   4.224   4.573   0.676
  860SOL    HW1 3479   4.186   4.540   0.762
  860SOL    HW2 3480   4.189   4.664   0.656
  861SOL     OW 3481   2.224   0.135   4.815
  861SOL    HW1 3482   2.182   0.044   4.814
  861SOL    HW2 3483   2.170   0.195   4.874
  862SOL     OW 3484   6.994   4.766   5.634
  862SOL    HW1 3485   6.913   4.793   5.685
  862SOL    HW2 3486   7.014   4.834   5.564
  863SOL     OW 3487   1.105   0.692   0.458
  863SOL    HW1 3488   1.053   0.764   0.504
  863SOL    HW2 3489   1.164   0.647   0.525
  864SOL     OW 3490   4.912   4.457   3.868
  864SOL    HW1 3491   4.951   4.548   3.851
  864SOL    HW2 3492   4.838   4.440   3.803
  865SOL     OW 3493   2.072   6.232   4.811
  865SOL    HW1 3494   2.137   6.180   4.866
  865SOL    HW2 3495   1.991   6.176   4.794
  866SOL     OW 3496   2.019   2.423   1.896
  866SOL    HW1 3497   2.018   2.414   1.995
  866SOL    HW2 3498   2.110   2.452   1.866
  867SOL     OW 3499   4.225   3.021   1.269
  867SOL    HW1 3500   4.322   3.013   1.294
  867SOL    HW2 3501   4.198   2.942   1.213
  868SOL     OW 3502   5.931   6.318   1.134
  868SOL    HW1 3503   5.976   6.243   1.182
  868SOL    HW2 3504   5.884   6.376   1.200
  869SOL     OW 3505   6.867   5.446   3.069
  869SOL    HW1 3506   6.846   5.355   3.105
  869SOL    HW2 3507   6.824   5.515   3.128
  870SOL     OW 3508   5.700   3.145   6.980
  870SOL    HW1 3509   5.721   3.047   6.984
  870SOL    HW2 3510   5.625   3.160   6.915
  871SOL     OW 3511   5.589   3.733   1.856
  871SOL    HW1 3512   5.558   3.710   1.948
  871SOL    HW2 3513   5.666   3.796   1.861
  872SOL     OW 3514   6.058   4.051   4.064
  872SOL    HW1 3515   6.133   3.989   4.086
  872SOL    HW2 3516   6.051   4.122   4.134
  873SOL     OW 3517   5.227   0.215   3.603
  873SOL    HW1 3518   5.275   0.148   3.660
  873SOL    HW2 3519   5.215   0.178   3.511
  874SOL     OW 3520   1.878   4.484   5.421
  874SOL    HW1 3521   1.804   4.430   5.380
  874SOL    HW2 3522   1.928   4.532   5.349
  875SOL     OW 3523   4.602   3.756   1.137
  875SOL    HW1 3524   4.582   3.689   1.209
  875SOL    HW2 3525   4.683   3.809   1.163
  876SOL     OW 3526   0.541   5.736   3.297
  876SOL    HW1 3527   0.456   5.683   3.304
  876SOL    HW2 3528   0.522   5.832   3.317
  877SOL     OW 3529   3.525   4.873   0.202
  877SOL    HW1 3530   3.584   4.862   0.282
  877SOL    HW2 3531   3.524   4.789   0.149
  878SOL     OW 3532   4.283   6.078   6.189
  878SOL    HW1 3533   4.297   6.024   6.106
  878SOL    HW2 3534   4.185   6.090   6.204
  879SOL     OW 3535   3.453   2.012   1.943
  879SOL    HW1 3536   3.530   2.074   1.953
  879SOL    HW2 3537   3.486   1.917   1.942
  880SOL     OW 3538   3.076   4.753   0.139
  880SOL    HW1 3539   3.054   4.686   0.210
  880SOL    HW2 3540   3.005   4.750   0.068
  881SOL     OW 3541   4.075   4.582   5.353
  881SOL    HW1 3542   4.145   4.541   5.413
  881SOL    HW2 3543   4.121   4.632   5.280
  882SOL     OW 3544   1.469   1.094   4.115
  882SOL    HW1 3545   1.485   1.005   4.158
  882SOL    HW2 3546   1.516   1.165   4.168
  883SOL     OW 3547   4.863   5.381   4.691
  883SOL    HW1 3548   4.854   5.431   4.776
  883SOL    HW2 3549   4.926   5.304   4.704
  884SOL     OW 3550   0.176   3.466   1.591
  884SOL    HW1 3551   0.265   3.420   1.596
  884SOL    HW2 3552   0.138   3.477   1.683
  885SOL     OW 3553   5.320   5.846   6.572
  885SOL    HW1 3554   5.276   5.920   6.521
  885SOL    HW2 3555   5.305   5.859   6.670
  886SOL     OW 3556   4.292   0.076   0.524
  886SOL    HW1 3557   4.366   0.093   0.588
  886SOL    HW2 3558   4.324   0.091   0.430
  887SOL     OW 3559   4.501   6.903   4.772
  887SOL    HW1 3560   4.483   6.806   4.761
  887SOL    HW2 3561   4.501   6.926   4.870
  888SOL     OW 3562   5.975   6.551   3.628
  888SOL    HW1 3563   5.910   6.477   3.616
  888SOL    HW2 3564   6.037   6.530   3.703
  889SOL     OW 3565   0.610   6.476   6.385
  889SOL    HW1 3566   0.638   6.432   6.301
  889SOL    HW2 3567   0.649   6.428   6.463
  890SOL     OW 3568   2.814   4.993   2.144
  890SOL    HW1 3569   2.870   5.067   2.105
  890SOL    HW2 3570   2.771   4.941   2.071
  891SOL     OW 3571   5.888   3.742   1.580
  891SOL    HW1 3572   5.983   3.718   1.557
  891SOL    HW2 3573   5.829   3.725   1.501
  892SOL     OW 3574   3.614   4.025   0.344
  892SOL    HW1 3575   3.647   3.955   0.407
  892SOL    HW2 3576   3.516   4.011   0.328
  893SOL     OW 3577   2.448   1.172   1.935
  893SOL    HW1 3578   2.416   1.099   1.874
  893SOL    HW2 3579   2.378   1.243   1.942
  894SOL     OW 3580   1.841   3.617   4.210
  894SOL    HW1 3581   1.786   3.563   4.275
  894SOL    HW2 3582   1.918   3.562   4.178
  895SOL     OW 3583   1.985   5.960   4.858
  895SOL    HW1 3584   1.910   6.025   4.849
  895SOL    HW2 3585   1.983   5.919   4.949
  896SOL     OW 3586   5.366   5.836   2.666
  896SOL    HW1 3587   5.322   5.807   2.581
  896SOL    HW2 3588   5.450   5.885   2.645
  897SOL     OW 3589   5.671   0.784   0.302
  897SOL    HW1 3590   5.622   0.743   0.225
  897SOL    HW2 3591   5.606   0.812   0.372
  898SOL     OW 3592   3.853   5.890   3.554
  898SOL    HW1 3593   3.923   5.948   3.594
  898SOL    HW2 3594   3.798   5.943   3.490
  899SOL     OW 3595   0.577   5.065   6.851
  899SOL    HW1 3596   0.545   5.113   6.933
  899SOL    HW2 3597   0.582   4.967   6.870
  900SOL     OW 3598   5.038   5.952   1.454
  900SOL    HW1 3599   4.999   6.010   1.526
  900SOL    HW2 3600   4.999   5.977   1.366
  901SOL     OW 3601   0.390   1.251   5.152
  901SOL    HW1 3602   0.490   1.243   5.150
  901SOL    HW2 3603   0.349   1.161   5.166
  902SOL     OW 3604   0.463   1.378   6.097
  902SOL    HW1 3605   0.492   1.457   6.151
  902SOL    HW2 3606   0.405   1.408   6.021
  903SOL     OW 3607   6.676   3.710   6.442
  903SOL    HW1 3608   6.761   3.754   6.471
  903SOL    HW2 3609   6.679   3.691   6.344
  904SOL     OW 3610   1.630   2.102   4.238
  904SOL    HW1 3611   1.611   2.047   4.157
  904SOL    HW2 3612   1.572   2.073   4.313
  905SOL     OW 3613   4.720   2.781   6.220
  905SOL    HW1 3614   4.667   2.759   6.303
  905SOL    HW2 3615   4.692   2.870   6.186
  906SOL     OW 3616   0.632   3.788   6.385
  906SOL    HW1 3617   0.608   3.859   6.452
  906SOL    HW2 3618   0.566   3.790   6.310
  907SOL     OW 3619   5.410   2.742   3.453
  907SOL    HW1 3620   5.487   2.775   3.508
  907SOL    HW2 3621   5.435   2.654   3.411
  908SOL     OW 3622   1.752   6.536   3.605
  908SOL    HW1 3623   1.684   6.589   3.655
  908SOL    HW2 3624   1.774   6.454   3.658
  909SOL     OW 3625   2.433   0.650   1.285
  909SOL    HW1 3626   2.390   0.677   1.371
  909SOL    HW2 3627   2.493   0.723   1.253
  910SOL     OW 3628   2.705   0.369   0.661
  910SOL    HW1 3629   2.726   0.440   0.729
  910SOL    HW2 3630   2.788   0.348   0.609
  911SOL     OW 3631   6.524   5.511   1.239
  911SOL    HW1 3632   6.548   5.558   1.324
  911SOL    HW2 3633   6.440   5.459   1.253
  912SOL     OW 3634   6.743   0.590   4.968
  912SOL    HW1 3635   6.726   0.494   4.991
  912SOL    HW2 3636   6.673   0.647   5.011
  913SOL     OW 3637   2.087   0.338   3.773
  913SOL    HW1 3638   2.084   0.244   3.739
  913SOL    HW2 3639   2.178   0.376   3.760
  914SOL     OW 3640   2.749   5.689   5.586
  914SOL    HW1 3641   2.773   5.594   5.605
  914SOL    HW2 3642   2.738   5.739   5.672
  915SOL     OW 3643   1.078   3.613   1.027
  915SOL    HW1 3644   1.146   3.548   0.994
  915SOL    HW2 3645   1.095   3.703   0.987
  916SOL     OW 3646   1.327   2.261   2.725
  916SOL    HW1 3647   1.404   2.318   2.696
  916SOL    HW2 3648   1.359   2.192   2.790
  917SOL     OW 3649   4.580   0.747   1.424
  917SOL    HW1 3650   4.580   0.844   1.400
  917SOL    HW2 3651   4.596   0.737   1.523
  918SOL     OW 3652   2.433   5.905   0.050
  918SOL    HW1 3653   2.444   5.964   6.986
  918SOL    HW2 3654   2.433   5.960   0.133
  919SOL     OW 3655   0.758   5.909   1.945
  919SOL    HW1 3656   0.667   5.885   1.978
  919SOL    HW2 3657   0.797   5.831   1.896
  920SOL     OW 3658   1.798   0.344   2.832
  920SOL    HW1 3659   1.714   0.320   2.879
  920SOL    HW2 3660   1.826   0.267   2.774
  921SOL     OW 3661   5.369   4.710   3.870
  921SOL    HW1 3662   5.436   4.782   3.853
  921SOL    HW2 3663   5.286   4.728   3.817
  922SOL     OW 3664   3.591   2.808   6.431
  922SOL    HW1 3665   3.532   2.786   6.354
  922SOL    HW2 3666   3.552   2.771   6.515
  923SOL     OW 3667   3.042   5.484   0.418
  923SOL    HW1 3668   3.080   5.572   0.391
  923SOL    HW2 3669   3.116   5.416   0.423
  924SOL     OW 3670   5.491   3.573   2.075
  924SOL    HW1 3671   5.507   3.512   1.997
  924SOL    HW2 3672   5.399   3.558   2.111
  925SOL     OW 3673   6.715   1.657   5.393
  925SOL    HW1 3674   6.720   1.664   5.293
  925SOL    HW2 3675   6.773   1.582   5.424
  926SOL     OW 3676   5.615   1.000   6.819
  926SOL    HW1 3677   5.637   0.962   6.729
  926SOL    HW2 3678   5.524   1.041   6.816
  927SOL     OW 3679   5.282   4.302   4.012
  927SOL    HW1 3680   5.232   4.230   4.060
  927SOL    HW2 3681   5.311   4.269   3.922
  928SOL     OW 3682   2.052   0.611   0.798
  928SOL    HW1 3683   1.976   0.550   0.776
  928SOL    HW2 3684   2.028   0.667   0.878
  929SOL     OW 3685   6.848   1.643   0.935
  929SOL    HW1 3686   6.915   1.624   0.864
  929SOL    HW2 3687   6.770   1.580   0.926
  930SOL     OW 3688   6.589   5.899   4.594
  930SOL    HW1 3689   6.540   5.839   4.657
  930SOL    HW2 3690   6.567   5.994   4.615
  931SOL     OW 3691   0.138   3.471   3.992
  931SOL    HW1 3692   0.180   3.557   4.023
  931SOL    HW2 3693   0.050   3.459   4.038
  932SOL     OW 3694   2.693   6.669   1.658
  932SOL    HW1 3695   2.598   6.695   1.672
  932SOL    HW2 3696   2.732   6.636   1.744
  933SOL     OW 3697   0.841   5.288   1.948
  933SOL    HW1 3698   0.844   5.386   1.964
  933SOL    HW2 3699   0.923   5.245   1.987
  934SOL     OW 3700   2.098   0.825   4.489
  934SOL    HW1 3701   2.129   0.745   4.540
  934SOL    HW2 3702   2.128   0.908   4.535
  935SOL     OW 3703   5.162   4.017   5.286
  935SOL    HW1 3704   5.132   4.111   5.302
  935SOL    HW2 3705   5.097   3.953   5.328
  936SOL     OW 3706   0.998   6.882   6.052
  936SOL    HW1 3707   0.972   6.914   6.143
  936SOL    HW2 3708   1.084   6.925   6.025
  937SOL     OW 3709   5.026   1.782   5.764
  937SOL    HW1 3710   5.022   1.694   5.715
  937SOL    HW2 3711   4.940   1.830   5.753
  938SOL     OW 3712   6.898   5.275   6.274
  938SOL    HW1 3713   6.853   5.336   6.209
  938SOL    HW2 3714   6.894   5.181   6.239
  939SOL     OW 3715   5.109   1.573   5.573
  939SOL    HW1 3716   5.181   1.624   5.526
  939SOL    HW2 3717   5.020   1.600   5.535
  940SOL     OW 3718   6.893   3.025   2.721
  940SOL    HW1 3719   6.962   2.990   2.658
  940SOL    HW2 3720   6.853   2.950   2.773
  941SOL     OW 3721   6.285   0.854   3.958
  941SOL    HW1 3722   6.346   0.857   3.880
  941SOL    HW2 3723   6.214   0.785   3.942
  942SOL     OW 3724   5.103   0.769   4.638
  942SOL    HW1 3725   5.055   0.699   4.587
  942SOL    HW2 3726   5.173   0.812   4.580
  943SOL     OW 3727   0.941   3.200   3.473
  943SOL    HW1 3728   0.863   3.169   3.419
  943SOL    HW2 3729   1.022   3.204   3.415
  944SOL     OW 3730   6.463   3.148   6.391
  944SOL    HW1 3731   6.476   3.244   6.415
  944SOL    HW2 3732   6.481   3.091   6.471
  945SOL     OW 3733   6.466   4.530   5.449
  945SOL    HW1 3734   6.419   4.508   5.534
  945SOL    HW2 3735   6.553   4.575   5.470
  946SOL     OW 3736   5.461   2.658   6.206
  946SOL    HW1 3737   5.539   2.684   6.263
  946SOL    HW2 3738   5.385   2.721   6.223
  947SOL     OW 3739   3.024   3.651   5.006
  947SOL    HW1 3740   2.959   3.598   4.952
  947SOL    HW2 3741   3.021   3.747   4.978
  948SOL     OW 3742   4.646   0.987   1.084
  948SOL    HW1 3743   4.722   1.047   1.110
  948SOL    HW2 3744   4.663   0.895   1.118
  949SOL     OW 3745   0.052   6.317   6.339
  949SOL    HW1 3746   0.085   6.349   6.251
  949SOL    HW2 3747   0.122   6.332   6.409
  950SOL     OW 3748   4.258   5.094   2.560
  950SOL    HW1 3749   4.219   5.007   2.590
  950SOL    HW2 3750   4.205   5.130   2.483
  951SOL     OW 3751   1.846   0.830   1.789
  951SOL    HW1 3752   1.757   0.792   1.813
  951SOL    HW2 3753   1.860   0.915   1.840
  952SOL     OW 3754   5.542   1.305   1.735
  952SOL    HW1 3755   5.449   1.322   1.702
  952SOL    HW2 3756   5.572   1.382   1.792
  953SOL     OW 3757   5.001   5.429   4.964
  953SOL    HW1 3758   5.044   5.518   4.953
  953SOL    HW2 3759   4.934   5.432   5.038
  954SOL     OW 3760   5.353   6.050   0.523
  954SOL    HW1 3761   5.332   6.145   0.500
  954SOL    HW2 3762   5.412   6.048   0.603
  955SOL     OW 3763   0.547   5.017   3.352
  955SOL    HW1 3764   0.630   5.046   3.399
  955SOL    HW2 3765   0.486   4.971   3.417
  956SOL     OW 3766   0.698   1.999   2.246
  956SOL    HW1 3767   0.769   1.944   2.201
  956SOL    HW2 3768   0.737   2.043   2.327
  957SOL     OW 3769   1.470   4.435   4.151
  957SOL    HW1 3770   1.397   4.372   4.123
  957SOL    HW2 3771   1.556   4.406   4.109
  958SOL     OW 3772   4.805   2.546   1.290
  958SOL    HW1 3773   4.886   2.543   1.348
  958SOL    HW2 3774   4.759   2.635   1.301
  959SOL     OW 3775   2.276   4.801   3.057
  959SOL    HW1 3776   2.312   4.893   3.045
  959SOL    HW2 3777   2.220   4.776   2.977
  960SOL     OW 3778   0.189   5.933   3.954
  960SOL    HW1 3779   0.280   5.892   3.943
  960SOL    HW2 3780   0.189   6.025   3.916
  961SOL     OW 3781   4.727   6.541   3.199
  961SOL    HW1 3782   4.780   6.520   3.281
  961SOL    HW2 3783   4.776   6.610   3.145
  962SOL     OW 3784   1.622   1.449   4.009
  962SOL    HW1 3785   1.531   1.415   4.029
  962SOL    HW2 3786   1.640   1.532   4.061
  963SOL     OW 3787   5.933   1.318   6.167
  963SOL    HW1 3788   5.956   1.413   6.148
  963SOL    HW2 3789   5.855   1.290   6.112
  964SOL     OW 3790   6.222   3.457   0.653
  964SOL    HW1 3791   6.221   3.500   0.743
  964SOL    HW2 3792   6.312   3.467   0.611
  965SOL     OW 3793   5.240   1.503   0.948
  965SOL    HW1 3794   5.176   1.570   0.911
  965SOL    HW2 3795   5.211   1.476   1.040
  966SOL     OW 3796   6.294   1.683   2.119
  966SOL    HW1 3797   6.314   1.594   2.078
  966SOL    HW2 3798   6.197   1.687   2.145
  967SOL     OW 3799   1.413   5.382   0.508
  967SOL    HW1 3800   1.367   5.293   0.501
  967SOL    HW2 3801   1.350   5.454   0.479
  968SOL     OW 3802   4.459   2.433   1.982
  968SOL    HW1 3803   4.516   2.413   1.902
  968SOL    HW2 3804   4.363   2.424   1.956
  969SOL     OW 3805   4.067   5.741   5.956
  969SOL    HW1 3806   4.133   5.742   6.031
  969SOL    HW2 3807   4.099   5.679   5.884
  970SOL     OW 3808   4.619   1.020   4.992
  970SOL    HW1 3809   4.651   0.993   5.083
  970SOL    HW2 3810   4.613   0.938   4.934
  971SOL     OW 3811   0.585   1.715   3.024
  971SOL    HW1 3812   0.661   1.706   2.960
  971SOL    HW2 3813   0.592   1.646   3.095
  972SOL     OW 3814   5.742   3.386   1.228
  972SOL    HW1 3815   5.826   3.374   1.282
  972SOL    HW2 3816   5.677   3.315   1.252
  973SOL     OW 3817   0.282   4.469   6.288
  973SOL    HW1 3818   0.346   4.430   6.354
  973SOL    HW2 3819   0.215   4.400   6.261
  974SOL     OW 3820   4.513   0.619   2.215
  974SOL    HW1 3821   4.548   0.707   2.246
  974SOL    HW2 3822   4.500   0.559   2.293
  975SOL     OW 3823   1.679   5.278   6.748
  975SOL    HW1 3824   1.748   5.225   6.798
  975SOL    HW2 3825   1.659   5.232   6.662
  976SOL     OW 3826   5.833   3.097   2.731
  976SOL    HW1 3827   5.838   3.193   2.702
  976SOL    HW2 3828   5.882   3.086   2.817
  977SOL     OW 3829   2.554   1.317   3.662
  977SOL    HW1 3830   2.519   1.334   3.754
  977SOL    HW2 3831   2.622   1.243   3.665
  978SOL     OW 3832   4.986   4.136   5.501
  978SOL    HW1 3833   4.988   4.037   5.484
  978SOL    HW2 3834   4.897   4.173   5.473
  979SOL     OW 3835   6.677   1.662   2.380
  979SOL    HW1 3836   6.656   1.712   2.295
  979SOL    HW2 3837   6.776   1.663   2.396
  980SOL     OW 3838   4.869   1.901   3.608
  980SOL    HW1 3839   4.778   1.942   3.601
  980SOL    HW2 3840   4.925   1.931   3.530
  981SOL     OW 3841   1.672   1.279   5.076
  981SOL    HW1 3842   1.572   1.286   5.073
  981SOL    HW2 3843   1.700   1.193   5.035
  982SOL     OW 3844   2.194   1.861   3.987
  982SOL    HW1 3845   2.243   1.850   4.074
  982SOL    HW2 3846   2.201   1.957   3.957
  983SOL     OW 3847   6.349   2.372   2.836
  983SOL    HW1 3848   6.314   2.407   2.749
  983SOL    HW2 3849   6.304   2.419   2.912
  984SOL     OW 3850   3.423   0.920   4.145
  984SOL    HW1 3851   3.450   0.859   4.070
  984SOL    HW2 3852   3.496   0.987   4.161
  985SOL     OW 3853   5.121   4.716   6.329
  985SOL    HW1 3854   5.069   4.801   6.320
  985SOL    HW2 3855   5.155   4.707   6.422
  986SOL     OW 3856   5.565   5.086   0.362
  986SOL    HW1 3857   5.466   5.101   0.366
  986SOL    HW2 3858   5.584   5.002   0.311
  987SOL     OW 3859   4.207   6.395   1.355
  987SOL    HW1 3860   4.260   6.336   1.415
  987SOL    HW2 3861   4.153   6.339   1.292
  988SOL     OW 3862   3.797   3.315   1.372
  988SOL    HW1 3863   3.786   3.218   1.390
  988SOL    HW2 3864   3.745   3.340   1.289
  989SOL     OW 3865   6.938   0.953   5.435
  989SOL    HW1 3866   6.926   0.946   5.336
  989SOL    HW2 3867   6.930   1.049   5.462
  990SOL     OW 3868   4.724   0.503   2.569
  990SOL    HW1 3869   4.689   0.420   2.613
  990SOL    HW2 3870   4.731   0.576   2.638
  991SOL     OW 3871   1.861   2.419   4.782
  991SOL    HW1 3872   1.911   2.416   4.868
  991SOL    HW2 3873   1.811   2.505   4.775
  992SOL     OW 3874   1.173   4.258   1.094
  992SOL    HW1 3875   1.174   4.304   1.182
  992SOL    HW2 3876   1.088   4.281   1.045
  993SOL     OW 3877   1.626   5.504   2.237
  993SOL    HW1 3878   1.652   5.589   2.193
  993SOL    HW2 3879   1.708   5.456   2.270
  994SOL     OW 3880   3.665   3.395   2.331
  994SOL    HW1 3881   3.745   3.340   2.353
  994SOL    HW2 3882   3.628   3.437   2.414
  995SOL     OW 3883   2.873   1.818   6.155
  995SOL    HW1 3884   2.969   1.844   6.171
  995SOL    HW2 3885   2.859   1.800   6.058
  996SOL     OW 3886   1.669   4.086   4.233
  996SOL    HW1 3887   1.707   4.010   4.180
  996SOL    HW2 3888   1.654   4.164   4.172
  997SOL     OW 3889   6.794   0.663   1.791
  997SOL    HW1 3890   6.762   0.734   1.853
  997SOL    HW2 3891   6.716   0.608   1.761
  998SOL     OW 3892   4.809   6.685   3.657
  998SOL    HW1 3893   4.828   6.659   3.752
  998SOL    HW2 3894   4.783   6.604   3.605
  999SOL     OW 3895   5.780   4.933   1.374
  999SOL    HW1 3896   5.749   4.898   1.462
  999SOL    HW2 3897   5.862   4.884   1.345
 1000SOL     OW 3898   1.357   1.096   2.411
 1000SOL    HW1 3899   1.430   1.133   2.353
 1000SOL    HW2 3900   1.309   1.171   2.456
 1001SOL     OW 3901   6.068   6.829   0.256
 1001SOL    HW1 3902   5.970   6.847   0.264
 1001SOL    HW2 3903   6.118   6.886   0.321
 1002SOL     OW 3904   5.927   1.914   6.531
 1002SOL    HW1 3905   5.938   1.999   6.583
 1002SOL    HW2 3906   5.882   1.845   6.588
 1003SOL     OW 3907   2.450   6.756   1.754
 1003SOL    HW1 3908   2.370   6.793   1.708
 1003SOL    HW2 3909   2.487   6.824   1.817
 1004SOL     OW 3910   6.943   0.484   1.324
 1004SOL    HW1 3911   6.994   0.551   1.270
 1004SOL    HW2 3912   6.847   0.513   1.330
 1005SOL     OW 3913   0.460   1.487   2.851
 1005SOL    HW1 3914   0.546   1.459   2.894
 1005SOL    HW2 3915   0.406   1.540   2.916
 1006SOL     OW 3916   1.574   5.996   1.627
 1006SOL    HW1 3917   1.512   5.945   1.566
 1006SOL    HW2 3918   1.562   6.094   1.611
 1007SOL     OW 3919   5.631   0.417   4.127
 1007SOL    HW1 3920   5.662   0.473   4.050
 1007SOL    HW2 3921   5.532   0.412   4.127
 1008SOL     OW 3922   2.145   2.976   4.835
 1008SOL    HW1 3923   2.234   2.976   4.880
 1008SOL    HW2 3924   2.136   3.058   4.779
 1009SOL     OW 3925   0.670   6.346   4.164
 1009SOL    HW1 3926   0.700   6.441   4.165
 1009SOL    HW2 3927   0.668   6.311   4.258
 1010SOL     OW 3928   3.552   2.294   6.157
 1010SOL    HW1 3929   3.472   2.234   6.157
 1010SOL    HW2 3930   3.524   2.387   6.134
 1011SOL     OW 3931   2.703   5.189   2.635
 1011SOL    HW1 3932   2.665   5.282   2.634
 1011SOL    HW2 3933   2.708   5.154   2.541
 1012SOL     OW 3934   6.993   6.549   0.303
 1012SOL    HW1 3935   6.976   6.636   0.256
 1012SOL    HW2 3936   0.041   6.564   0.379
 1013SOL     OW 3937   0.219   1.662   6.170
 1013SOL    HW1 3938   0.189   1.681   6.077
 1013SOL    HW2 3939   0.161   1.591   6.210
 1014SOL     OW 3940   5.122   5.272   6.562
 1014SOL    HW1 3941   5.219   5.279   6.539
 1014SOL    HW2 3942   5.104   5.321   6.647
 1015SOL     OW 3943   2.197   6.931   5.399
 1015SOL    HW1 3944   2.162   6.881   5.320
 1015SOL    HW2 3945   2.283   6.975   5.376
 1016SOL     OW 3946   2.536   3.825   0.311
 1016SOL    HW1 3947   2.580   3.908   0.276
 1016SOL    HW2 3948   2.514   3.765   0.235
 1017SOL     OW 3949   4.493   2.866   0.901
 1017SOL    HW1 3950   4.433   2.837   0.827
 1017SOL    HW2 3951   4.557   2.793   0.924
 1018SOL     OW 3952   1.610   2.981   3.887
 1018SOL    HW1 3953   1.617   3.033   3.972
 1018SOL    HW2 3954   1.579   2.888   3.907
 1019SOL     OW 3955   1.390   0.662   0.245
 1019SOL    HW1 3956   1.370   0.599   0.320
 1019SOL    HW2 3957   1.429   0.747   0.283
 1020SOL     OW 3958   0.934   6.863   1.230
 1020SOL    HW1 3959   0.891   6.900   1.313
 1020SOL    HW2 3960   0.997   6.931   1.193
 1021SOL     OW 3961   5.766   0.908   1.297
 1021SOL    HW1 3962   5.795   0.832   1.355
 1021SOL    HW2 3963   5.839   0.975   1.291
 1022SOL     OW 3964   3.965   4.670   6.460
 1022SOL    HW1 3965   3.869   4.678   6.433
 1022SOL    HW2 3966   3.976   4.592   6.521
 1023SOL     OW 3967   6.354   0.078   1.699
 1023SOL    HW1 3968   6.423   0.118   1.639
 1023SOL    HW2 3969   6.397   0.013   1.761
 1024SOL     OW 3970   6.189   3.561   4.056
 1024SOL    HW1 3971   6.121   3.488   4.051
 1024SOL    HW2 3972   6.207   3.585   4.151
 1025SOL     OW 3973   3.247   4.151   0.553
 1025SOL    HW1 3974   3.192   4.088   0.609
 1025SOL    HW2 3975   3.193   4.232   0.532
 1026SOL     OW 3976   1.924   1.792   1.353
 1026SOL    HW1 3977   1.944   1.739   1.435
 1026SOL    HW2 3978   2.008   1.831   1.316
 1027SOL     OW 3979   2.372   6.247   1.110
 1027SOL    HW1 3980   2.399   6.199   1.193
 1027SOL    HW2 3981   2.431   6.327   1.096
 1028SOL     OW 3982   4.327   5.823   0.259
 1028SOL    HW1 3983   4.254   5.886   0.233
 1028SOL    HW2 3984   4.358   5.774   0.178
 1029SOL     OW 3985   2.256   0.298   0.187
 1029SOL    HW1 3986   2.300   0.266   0.271
 1029SOL    HW2 3987   2.185   0.365   0.211
 1030SOL     OW 3988   3.849   3.563   1.490
 1030SOL    HW1 3989   3.948   3.577   1.481
 1030SOL    HW2 3990   3.825   3.474   1.451
 1031SOL     OW 3991   5.299   5.140   0.430
 1031SOL    HW1 3992   5.261   5.232   0.418
 1031SOL    HW2 3993   5.275   5.084   0.351
 1032SOL     OW 3994   1.643   1.999   4.668
 1032SOL    HW1 3995   1.589   1.997   4.752
 1032SOL    HW2 3996   1.686   2.088   4.658
 1033SOL     OW 3997   1.903   6.632   1.296
 1033SOL    HW1 3998   1.824   6.607   1.240
 1033SOL    HW2 3999   1.982   6.649   1.236
 1034SOL     OW 4000   1.210   5.547   5.100
 1034SOL    HW1 4001   1.136   5.612   5.114
 1034SOL    HW2 4002   1.244   5.556   5.007
 1035SOL     OW 4003   2.464   1.341   3.923
 1035SOL    HW1 4004   2.533   1.407   3.953
 1035SOL    HW2 4005   2.389   1.340   3.989
 1036SOL     OW 4006   3.589   0.578   1.517
 1036SOL    HW1 4007   3.609   0.668   1.557
 1036SOL    HW2 4008   3.547   0.519   1.586
 1037SOL     OW 4009   2.204   1.001   1.962
 1037SOL    HW1 4010   2.265   1.009   2.041
 1037SOL    HW2 4011   2.172   1.091   1.936
 1038SOL     OW 4012   1.234   0.853   5.804
 1038SOL    HW1 4013   1.211   0.920   5.875
 1038SOL    HW2 4014   1.178   0.869   5.723
 1039SOL     OW 4015   4.255   3.004   5.717
 1039SOL    HW1 4016   4.229   2.908   5.726
 1039SOL    HW2 4017   4.174   3.062   5.724
 1040SOL     OW 4018   5.113   2.970   2.430
 1040SOL    HW1 4019   5.176   2.998   2.502
 1040SOL    HW2 4020   5.122   2.872   2.414
 1041SOL     OW 4021   6.653   6.899   4.108
 1041SOL    HW1 4022   6.664   6.982   4.053
 1041SOL    HW2 4023   6.598   6.833   4.058
 1042SOL     OW 4024   3.496   4.939   2.167
 1042SOL    HW1 4025   3.554   4.880   2.111
 1042SOL    HW2 4026   3.409   4.893   2.185
 1043SOL     OW 4027   4.749   1.217   5.321
 1043SOL    HW1 4028   4.726   1.315   5.324
 1043SOL    HW2 4029   4.755   1.181   5.414
 1044SOL     OW 4030   4.657   4.406   1.773
 1044SOL    HW1 4031   4.599   4.393   1.693
 1044SOL    HW2 4032   4.610   4.374   1.854
 1045SOL     OW 4033   2.548   0.065   2.478
 1045SOL    HW1 4034   2.516   0.136   2.542
 1045SOL    HW2 4035   2.647   0.071   2.470
 1046SOL     OW 4036   2.094   0.010   0.020
 1046SOL    HW1 4037   2.176   0.046   0.065
 1046SOL    HW2 4038   2.015   0.022   0.080
 1047SOL     OW 4039   1.227   6.292   2.521
 1047SOL    HW1 4040   1.169   6.314   2.442
 1047SOL    HW2 4041   1.270   6.376   2.555
 1048SOL     OW 4042   5.015   5.443   5.576
 1048SOL    HW1 4043   4.931   5.472   5.622
 1048SOL    HW2 4044   4.992   5.394   5.492
 1049SOL     OW 4045   6.767   4.844   4.427
 1049SOL    HW1 4046   6.844   4.872   4.484
 1049SOL    HW2 4047   6.696   4.915   4.430
 1050SOL     OW 4048   3.090   5.419   0.721
 1050SOL    HW1 4049   3.034   5.350   0.675
 1050SOL    HW2 4050   3.047   5.445   0.808
 1051SOL     OW 4051   2.886   5.260   0.413
 1051SOL    HW1 4052   2.949   5.337   0.400
 1051SOL    HW2 4053   2.814   5.287   0.477
 1052SOL     OW 4054   4.597   6.747   4.059
 1052SOL    HW1 4055   4.564   6.776   4.149
 1052SOL    HW2 4056   4.586   6.821   3.994
 1053SOL     OW 4057   5.237   5.423   2.626
 1053SOL    HW1 4058   5.331   5.450   2.605
 1053SOL    HW2 4059   5.238   5.344   2.687
 1054SOL     OW 4060   3.136   4.640   5.804
 1054SOL    HW1 4061   3.215   4.583   5.825
 1054SOL    HW2 4062   3.057   4.607   5.856
 1055SOL     OW 4063   5.838   7.007   4.363
 1055SOL    HW1 4064   5.935   6.988   4.376
 1055SOL    HW2 4065   5.826   0.085   4.330
 1056SOL     OW 4066   1.560   5.943   5.505
 1056SOL    HW1 4067   1.612   5.980   5.583
 1056SOL    HW2 4068   1.610   5.866   5.466
 1057SOL     OW 4069   3.490   3.559   2.518
 1057SOL    HW1 4070   3.410   3.506   2.544
 1057SOL    HW2 4071   3.462   3.649   2.486
 1058SOL     OW 4072   4.949   1.442   1.987
 1058SOL    HW1 4073   4.938   1.441   1.887
 1058SOL    HW2 4074   4.875   1.494   2.028
 1059SOL     OW 4075   2.279   0.839   1.084
 1059SOL    HW1 4076   2.226   0.754   1.082
 1059SOL    HW2 4077   2.374   0.819   1.108
 1060SOL     OW 4078   0.364   2.631   4.485
 1060SOL    HW1 4079   0.334   2.594   4.573
 1060SOL    HW2 4080   0.434   2.701   4.501
 1061SOL     OW 4081   5.046   3.901   1.334
 1061SOL    HW1 4082   5.051   3.912   1.433
 1061SOL    HW2 4083   5.138   3.904   1.295
 1062SOL     OW 4084   6.623   5.163   5.971
 1062SOL    HW1 4085   6.536   5.176   6.019
 1062SOL    HW2 4086   6.612   5.095   5.899
 1063SOL     OW 4087   1.578   4.294   1.605
 1063SOL    HW1 4088   1.527   4.229   1.662
 1063SOL    HW2 4089   1.598   4.376   1.659
 1064SOL     OW 4090   1.198   4.039   1.624
 1064SOL    HW1 4091   1.154   4.037   1.534
 1064SOL    HW2 4092   1.240   3.950   1.643
 1065SOL     OW 4093   4.654   0.356   4.209
 1065SOL    HW1 4094   4.752   0.340   4.223
 1065SOL    HW2 4095   4.642   0.428   4.141
 1066SOL     OW 4096   5.738   1.196   4.028
 1066SOL    HW1 4097   5.782   1.191   4.118
 1066SOL    HW2 4098   5.668   1.125   4.022
 1067SOL     OW 4099   1.558   2.795   0.420
 1067SOL    HW1 4100   1.583   2.698   0.416
 1067SOL    HW2 4101   1.505   2.819   0.339
 1068SOL     OW 4102   5.450   4.335   1.921
 1068SOL    HW1 4103   5.464   4.237   1.908
 1068SOL    HW2 4104   5.501   4.386   1.852
 1069SOL     OW 4105   5.092   5.062   1.308
 1069SOL    HW1 4106   5.071   5.083   1.403
 1069SOL    HW2 4107   5.080   4.964   1.292
 1070SOL     OW 4108   1.571   0.868   0.341
 1070SOL    HW1 4109   1.662   0.841   0.371
 1070SOL    HW2 4110   1.509   0.872   0.420
 1071SOL     OW 4111   4.048   0.406   3.348
 1071SOL    HW1 4112   4.020   0.325   3.297
 1071SOL    HW2 4113   4.050   0.485   3.287
 1072SOL     OW 4114   1.629   6.033   1.133
 1072SOL    HW1 4115   1.545   6.002   1.087
 1072SOL    HW2 4116   1.669   5.957   1.184
 1073SOL     OW 4117   3.316   6.068   2.803
 1073SOL    HW1 4118   3.399   6.021   2.772
 1073SOL    HW2 4119   3.336   6.164   2.820
 1074SOL     OW 4120   1.782   5.318   1.212
 1074SOL    HW1 4121   1.770   5.358   1.303
 1074SOL    HW2 4122   1.699   5.333   1.158
 1075SOL     OW 4123   4.203   6.581   3.295
 1075SOL    HW1 4124   4.261   6.547   3.370
 1075SOL    HW2 4125   4.169   6.504   3.242
 1076SOL     OW 4126   0.373   4.618   4.902
 1076SOL    HW1 4127   0.408   4.603   4.810
 1076SOL    HW2 4128   0.450   4.629   4.965
 1077SOL     OW 4129   6.232   0.130   7.003
 1077SOL    HW1 4130   6.164   0.197   0.017
 1077SOL    HW2 4131   6.297   0.174   6.940
 1078SOL     OW 4132   1.932   1.078   2.525
 1078SOL    HW1 4133   1.964   1.071   2.430
 1078SOL    HW2 4134   1.928   0.987   2.566
 1079SOL     OW 4135   1.833   5.477   2.599
 1079SOL    HW1 4136   1.840   5.466   2.500
 1079SOL    HW2 4137   1.738   5.459   2.627
 1080SOL     OW 4138   1.900   4.399   3.504
 1080SOL    HW1 4139   1.983   4.388   3.448
 1080SOL    HW2 4140   1.828   4.440   3.448
 1081SOL     OW 4141   6.876   0.215   5.323
 1081SOL    HW1 4142   6.820   0.286   5.365
 1081SOL    HW2 4143   6.817   0.140   5.292
 1082SOL     OW 4144   2.129   1.153   5.610
 1082SOL    HW1 4145   2.064   1.123   5.541
 1082SOL    HW2 4146   2.182   1.231   5.575
 1083SOL     OW 4147   3.870   4.318   1.071
 1083SOL    HW1 4148   3.835   4.277   1.156
 1083SOL    HW2 4149   3.844   4.260   0.994
 1084SOL     OW 4150   6.487   5.943   0.737
 1084SOL    HW1 4151   6.574   5.901   0.710
 1084SOL    HW2 4152   6.468   5.923   0.833
 1085SOL     OW 4153   1.947   4.569   3.088
 1085SOL    HW1 4154   1.972   4.544   2.994
 1085SOL    HW2 4155   2.029   4.600   3.136
 1086SOL     OW 4156   6.708   6.046   2.911
 1086SOL    HW1 4157   6.807   6.062   2.917
 1086SOL    HW2 4158   6.661   6.133   2.904
 1087SOL     OW 4159   5.715   2.350   5.830
 1087SOL    HW1 4160   5.810   2.338   5.799
 1087SOL    HW2 4161   5.688   2.445   5.817
 1088SOL     OW 4162   5.936   4.851   3.274
 1088SOL    HW1 4163   6.009   4.917   3.261
 1088SOL    HW2 4164   5.956   4.768   3.221
 1089SOL     OW 4165   1.307   0.033   4.727
 1089SOL    HW1 4166   1.312   6.963   4.675
 1089SOL    HW2 4167   1.291   0.012   4.823
 1090SOL     OW 4168   3.038   1.399   3.694
 1090SOL    HW1 4169   3.104   1.325   3.677
 1090SOL    HW2 4170   2.972   1.403   3.619
 1091SOL     OW 4171   1.916   2.816   4.636
 1091SOL    HW1 4172   1.958   2.806   4.545
 1091SOL    HW2 4173   1.958   2.893   4.683
 1092SOL     OW 4174   2.858   3.465   0.962
 1092SOL    HW1 4175   2.879   3.376   1.002
 1092SOL    HW2 4176   2.889   3.537   1.025
 1093SOL     OW 4177   1.925   2.293   2.876
 1093SOL    HW1 4178   1.972   2.205   2.865
 1093SOL    HW2 4179   1.973   2.363   2.823
 1094SOL     OW 4180   0.961   6.960   3.166
 1094SOL    HW1 4181   1.029   0.018   3.178
 1094SOL    HW2 4182   0.952   6.909   3.252
 1095SOL     OW 4183   6.776   2.100   5.649
 1095SOL    HW1 4184   6.793   2.160   5.727
 1095SOL    HW2 4185   6.683   2.115   5.615
 1096SOL     OW 4186   3.800   4.654   1.716
 1096SOL    HW1 4187   3.716   4.671   1.768
 1096SOL    HW2 4188   3.799   4.707   1.631
 1097SOL     OW 4189   0.746   4.357   4.325
 1097SOL    HW1 4190   0.796   4.329   4.407
 1097SOL    HW2 4191   0.772   4.450   4.299
 1098SOL     OW 4192   5.413   2.785   0.780
 1098SOL    HW1 4193   5.347   2.796   0.706
 1098SOL    HW2 4194   5.397   2.855   0.850
 1099SOL     OW 4195   3.927   1.186   4.644
 1099SOL    HW1 4196   3.966   1.223   4.559
 1099SOL    HW2 4197   3.916   1.260   4.710
 1100SOL     OW 4198   2.577   2.109   6.552
 1100SOL    HW1 4199   2.624   2.166   6.621
 1100SOL    HW2 4200   2.641   2.088   6.478
 1101SOL     OW 4201   5.389   2.973   0.972
 1101SOL    HW1 4202   5.332   2.898   1.007
 1101SOL    HW2 4203   5.365   3.058   1.019
 1102SOL     OW 4204   1.719   5.293   3.287
 1102SOL    HW1 4205   1.629   5.334   3.281
 1102SOL    HW2 4206   1.714   5.196   3.262
 1103SOL     OW 4207   2.798   1.195   1.203
 1103SOL    HW1 4208   2.816   1.104   1.166
 1103SOL    HW2 4209   2.855   1.263   1.156
 1104SOL     OW 4210   1.946   3.567   6.255
 1104SOL    HW1 4211   2.008   3.566   6.176
 1104SOL    HW2 4212   1.940   3.476   6.294
 1105SOL     OW 4213   5.206   3.624   5.347
 1105SOL    HW1 4214   5.203   3.570   5.432
 1105SOL    HW2 4215   5.116   3.621   5.303
 1106SOL     OW 4216   0.961   1.879   0.603
 1106SOL    HW1 4217   0.956   1.870   0.703
 1106SOL    HW2 4218   1.023   1.811   0.566
 1107SOL     OW 4219   0.748   0.602   6.500
 1107SOL    HW1 4220   0.679   0.610   6.428
 1107SOL    HW2 4221   0.708   0.628   6.588
 1108SOL     OW 4222   2.485   0.483   6.225
 1108SOL    HW1 4223   2.508   0.423   6.302
 1108SOL    HW2 4224   2.491   0.431   6.140
 1109SOL     OW 4225   4.412   5.558   4.751
 1109SOL    HW1 4226   4.366   5.575   4.664
 1109SOL    HW2 4227   4.442   5.645   4.790
 1110SOL     OW 4228   2.819   1.578   2.297
 1110SOL    HW1 4229   2.903   1.615   2.337
 1110SOL    HW2 4230   2.749   1.650   2.296
 1111SOL     OW 4231   5.695   5.906   0.375
 1111SOL    HW1 4232   5.769   5.945   0.320
 1111SOL    HW2 4233   5.610   5.908   0.324
 1112SOL     OW 4234   6.136   1.017   2.872
 1112SOL    HW1 4235   6.200   1.089   2.844
 1112SOL    HW2 4236   6.160   0.984   2.963
 1113SOL     OW 4237   6.072   3.375   2.381
 1113SOL    HW1 4238   6.054   3.298   2.442
 1113SOL    HW2 4239   6.090   3.457   2.436
 1114SOL     OW 4240   4.643   0.570   6.444
 1114SOL    HW1 4241   4.711   0.505   6.411
 1114SOL    HW2 4242   4.670   0.604   6.534
 1115SOL     OW 4243   3.961   3.324   6.888
 1115SOL    HW1 4244   3.934   3.248   6.947
 1115SOL    HW2 4245   3.909   3.321   6.803
 1116SOL     OW 4246   5.802   5.439   4.277
 1116SOL    HW1 4247   5.767   5.479   4.193
 1116SOL    HW2 4248   5.896   5.469   4.292
 1117SOL     OW 4249   2.209   2.654   1.719
 1117SOL    HW1 4250   2.121   2.635   1.675
 1117SOL    HW2 4251   2.256   2.727   1.670
 1118SOL     OW 4252   1.763   4.765   1.972
 1118SOL    HW1 4253   1.819   4.722   1.902
 1118SOL    HW2 4254   1.822   4.794   2.048
 1119SOL     OW 4255   4.066   4.428   1.598
 1119SOL    HW1 4256   4.115   4.350   1.560
 1119SOL    HW2 4257   4.112   4.513   1.570
 1120SOL     OW 4258   5.050   6.398   5.481
 1120SOL    HW1 4259   4.966   6.442   5.450
 1120SOL    HW2 4260   5.041   6.372   5.577
 1121SOL     OW 4261   5.212   4.174   2.250
 1121SOL    HW1 4262   5.149   4.179   2.327
 1121SOL    HW2 4263   5.304   4.153   2.283
 1122SOL     OW 4264   4.973   3.158   5.801
 1122SOL    HW1 4265   5.048   3.156   5.735
 1122SOL    HW2 4266   4.891   3.118   5.759
 1123SOL     OW 4267   5.063   1.661   2.151
 1123SOL    HW1 4268   5.009   1.691   2.229
 1123SOL    HW2 4269   5.032   1.571   2.121
 1124SOL     OW 4270   6.292   3.846   5.352
 1124SOL    HW1 4271   6.194   3.866   5.354
 1124SOL    HW2 4272   6.344   3.932   5.353
 1125SOL     OW 4273   2.017   1.463   4.856
 1125SOL    HW1 4274   2.081   1.502   4.922
 1125SOL    HW2 4275   1.923   1.478   4.886
 1126SOL     OW 4276   5.454   6.761   0.326
 1126SOL    HW1 4277   5.501   6.787   0.411
 1126SOL    HW2 4278   5.459   6.836   0.260
 1127SOL     OW 4279   4.768   5.835   5.180
 1127SOL    HW1 4280   4.828   5.913   5.196
 1127SOL    HW2 4281   4.806   5.754   5.225
 1128SOL     OW 4282   4.930   2.291   5.416
 1128SOL    HW1 4283   4.881   2.370   5.380
 1128SOL    HW2 4284   4.927   2.293   5.515
 1129SOL     OW 4285   4.010   6.790   0.238
 1129SOL    HW1 4286   3.939   6.850   0.274
 1129SOL    HW2 4287   4.094   6.842   0.223
 1130SOL     OW 4288   2.167   3.854   1.101
 1130SOL    HW1 4289   2.125   3.945   1.111
 1130SOL    HW2 4290   2.112   3.787   1.150
 1131SOL     OW 4291   0.861   6.474   5.727
 1131SOL    HW1 4292   0.851   6.392   5.783
 1131SOL    HW2 4293   0.770   6.509   5.701
 1132SOL     OW 4294   4.465   6.766   6.817
 1132SOL    HW1 4295   4.475   6.666   6.823
 1132SOL    HW2 4296   4.530   6.809   6.878
 1133SOL     OW 4297   6.902   1.555   0.513
 1133SOL    HW1 4298   6.908   1.643   0.561
 1133SOL    HW2 4299   6.923   1.481   0.577
 1134SOL     OW 4300   5.423   1.606   0.732
 1134SOL    HW1 4301   5.379   1.563   0.653
 1134SOL    HW2 4302   5.372   1.585   0.815
 1135SOL     OW 4303   2.977   1.485   2.907
 1135SOL    HW1 4304   3.071   1.486   2.871
 1135SOL    HW2 4305   2.913   1.477   2.830
 1136SOL     OW 4306   3.301   5.206   5.275
 1136SOL    HW1 4307   3.215   5.219   5.324
 1136SOL    HW2 4308   3.374   5.186   5.341
 1137SOL     OW 4309   1.116   2.817   0.259
 1137SOL    HW1 4310   1.046   2.801   0.190
 1137SOL    HW2 4311   1.172   2.895   0.232
 1138SOL     OW 4312   0.910   1.784   6.232
 1138SOL    HW1 4313   0.917   1.705   6.292
 1138SOL    HW2 4314   1.001   1.823   6.217
 1139SOL     OW 4315   2.332   6.493   1.790
 1139SOL    HW1 4316   2.281   6.448   1.862
 1139SOL    HW2 4317   2.379   6.573   1.827
 1140SOL     OW 4318   3.721   1.629   2.117
 1140SOL    HW1 4319   3.661   1.661   2.044
 1140SOL    HW2 4320   3.686   1.660   2.206
 1141SOL     OW 4321   6.379   5.747   6.347
 1141SOL    HW1 4322   6.318   5.790   6.280
 1141SOL    HW2 4323   6.327   5.683   6.403
 1142SOL     OW 4324   4.192   0.295   4.397
 1142SOL    HW1 4325   4.268   0.293   4.462
 1142SOL    HW2 4326   4.148   0.206   4.395
 1143SOL     OW 4327   3.175   2.060   2.423
 1143SOL    HW1 4328   3.199   2.053   2.326
 1143SOL    HW2 4329   3.094   2.117   2.433
 1144SOL     OW 4330   6.782   4.927   4.950
 1144SOL    HW1 4331   6.792   4.875   5.035
 1144SOL    HW2 4332   6.870   4.967   4.925
 1145SOL     OW 4333   0.230   4.229   3.144
 1145SOL    HW1 4334   0.311   4.201   3.195
 1145SOL    HW2 4335   0.149   4.221   3.203
 1146SOL     OW 4336   5.277   0.811   0.831
 1146SOL    HW1 4337   5.228   0.765   0.756
 1146SOL    HW2 4338   5.347   0.871   0.792
 1147SOL     OW 4339   0.778   4.907   0.457
 1147SOL    HW1 4340   0.795   4.811   0.482
 1147SOL    HW2 4341   0.861   4.961   0.474
 1148SOL     OW 4342   3.613   6.671   0.535
 1148SOL    HW1 4343   3.591   6.606   0.608
 1148SOL    HW2 4344   3.671   6.626   0.467
 1149SOL     OW 4345   5.575   3.647   3.205
 1149SOL    HW1 4346   5.645   3.719   3.205
 1149SOL    HW2 4347   5.596   3.580   3.276
 1150SOL     OW 4348   0.971   4.097   0.765
 1150SOL    HW1 4349   1.013   4.168   0.821
 1150SOL    HW2 4350   1.026   4.083   0.682
 1151SOL     OW 4351   4.920   5.527   6.631
 1151SOL    HW1 4352   5.009   5.569   6.612
 1151SOL    HW2 4353   4.891   5.473   6.553
 1152SOL     OW 4354   0.757   6.228   5.807
 1152SOL    HW1 4355   0.764   6.231   5.906
 1152SOL    HW2 4356   0.782   6.137   5.774
 1153SOL     OW 4357   2.455   0.312   1.797
 1153SOL    HW1 4358   2.412   0.234   1.843
 1153SOL    HW2 4359   2.414   0.322   1.706
 1154SOL     OW 4360   0.314   3.393   2.127
 1154SOL    HW1 4361   0.350   3.308   2.087
 1154SOL    HW2 4362   0.298   3.459   2.054
 1155SOL     OW 4363   3.195   5.140   6.769
 1155SOL    HW1 4364   3.218   5.044   6.790
 1155SOL    HW2 4365   3.119   5.142   6.704
 1156SOL     OW 4366   1.908   0.307   4.285
 1156SOL    HW1 4367   1.887   0.318   4.188
 1156SOL    HW2 4368   1.827   0.272   4.333
 1157SOL     OW 4369   6.084   1.656   4.358
 1157SOL    HW1 4370   6.020   1.679   4.431
 1157SOL    HW2 4371   6.036   1.656   4.270
 1158SOL     OW 4372   6.866   5.214   5.497
 1158SOL    HW1 4373   6.767   5.211   5.486
 1158SOL    HW2 4374   6.907   5.257   5.416
 1159SOL     OW 4375   5.117   0.241   2.952
 1159SOL    HW1 4376   5.139   0.319   2.893
 1159SOL    HW2 4377   5.153   0.157   2.913
 1160SOL     OW 4378   3.932   4.056   1.488
 1160SOL    HW1 4379   3.930   3.956   1.486
 1160SOL    HW2 4380   3.851   4.092   1.442
 1161SOL     OW 4381   4.842   7.003   5.899
 1161SOL    HW1 4382   4.839   6.962   5.808
 1161SOL    HW2 4383   4.781   0.068   5.902
 1162SOL     OW 4384   3.685   2.975   0.562
 1162SOL    HW1 4385   3.770   2.998   0.513
 1162SOL    HW2 4386   3.628   2.916   0.505
 1163SOL     OW 4387   5.489   3.139   2.098
 1163SOL    HW1 4388   5.575   3.106   2.059
 1163SOL    HW2 4389   5.419   3.068   2.086
 1164SOL     OW 4390   5.317   2.583   3.842
 1164SOL    HW1 4391   5.254   2.532   3.901
 1164SOL    HW2 4392   5.317   2.680   3.868
 1165SOL     OW 4393   2.283   4.684   4.114
 1165SOL    HW1 4394   2.187   4.688   4.139
 1165SOL    HW2 4395   2.304   4.760   4.051
 1166SOL     OW 4396   3.847   0.604   7.015
 1166SOL    HW1 4397   3.857   0.576   0.095
 1166SOL    HW2 4398   3.936   0.628   6.977
 1167SOL     OW 4399   2.963   0.022   6.410
 1167SOL    HW1 4400   3.012   0.095   6.458
 1167SOL    HW2 4401   2.874   0.008   6.453
 1168SOL     OW 4402   6.791   6.784   2.125
 1168SOL    HW1 4403   6.779   6.685   2.117
 1168SOL    HW2 4404   6.834   6.805   2.213
 1169SOL     OW 4405   6.586   2.703   0.407
 1169SOL    HW1 4406   6.581   2.764   0.327
 1169SOL    HW2 4407   6.676   2.710   0.449
 1170SOL     OW 4408   4.879   0.850   1.931
 1170SOL    HW1 4409   4.879   0.949   1.919
 1170SOL    HW2 4410   4.807   0.823   1.996
 1171SOL     OW 4411   2.120   6.041   0.166
 1171SOL    HW1 4412   2.086   6.061   0.257
 1171SOL    HW2 4413   2.134   5.942   0.157
 1172SOL     OW 4414   3.529   3.997   3.112
 1172SOL    HW1 4415   3.486   4.037   3.031
 1172SOL    HW2 4416   3.506   4.052   3.192
 1173SOL     OW 4417   2.966   0.156   6.147
 1173SOL    HW1 4418   3.064   0.156   6.128
 1173SOL    HW2 4419   2.947   0.098   6.226
 1174SOL     OW 4420   2.913   5.228   0.802
 1174SOL    HW1 4421   2.832   5.261   0.850
 1174SOL    HW2 4422   2.901   5.131   0.779
 1175SOL     OW 4423   5.146   3.410   6.525
 1175SOL    HW1 4424   5.054   3.410   6.487
 1175SOL    HW2 4425   5.177   3.316   6.537
 1176SOL     OW 4426   5.796   4.169   0.666
 1176SOL    HW1 4427   5.865   4.242   0.670
 1176SOL    HW2 4428   5.712   4.199   0.710
 1177SOL     OW 4429   6.913   1.586   5.197
 1177SOL    HW1 4430   6.975   1.511   5.220
 1177SOL    HW2 4431   6.865   1.565   5.112
 1178SOL     OW 4432   3.693   3.423   1.111
 1178SOL    HW1 4433   3.605   3.385   1.140
 1178SOL    HW2 4434   3.738   3.358   1.050
 1179SOL     OW 4435   2.819   5.507   0.582
 1179SOL    HW1 4436   2.844   5.555   0.666
 1179SOL    HW2 4437   2.897   5.506   0.520
 1180SOL     OW 4438   2.782   0.335   3.383
 1180SOL    HW1 4439   2.803   0.392   3.303
 1180SOL    HW2 4440   2.865   0.320   3.436
 1181SOL     OW 4441   0.411   2.677   4.983
 1181SOL    HW1 4442   0.366   2.644   4.900
 1181SOL    HW2 4443   0.509   2.661   4.976
 1182SOL     OW 4444   1.902   5.106   3.523
 1182SOL    HW1 4445   1.896   5.118   3.622
 1182SOL    HW2 4446   1.811   5.084   3.486
 1183SOL     OW 4447   3.491   5.409   2.658
 1183SOL    HW1 4448   3.560   5.344   2.626
 1183SOL    HW2 4449   3.442   5.370   2.735
 1184SOL     OW 4450   3.588   1.846   5.247
 1184SOL    HW1 4451   3.603   1.944   5.256
 1184SOL    HW2 4452   3.501   1.829   5.201
 1185SOL     OW 4453   2.338   0.068   0.047
 1185SOL    HW1 4454   2.322   0.142   0.112
 1185SOL    HW2 4455   2.423   0.021   0.071
 1186SOL     OW 4456   5.958   6.723   6.087
 1186SOL    HW1 4457   6.003   6.669   6.015
 1186SOL    HW2 4458   5.904   6.795   6.044
 1187SOL     OW 4459   5.586   5.847   4.860
 1187SOL    HW1 4460   5.658   5.833   4.792
 1187SOL    HW2 4461   5.603   5.787   4.938
 1188SOL     OW 4462   3.366   6.658   6.296
 1188SOL    HW1 4463   3.403   6.702   6.378
 1188SOL    HW2 4464   3.272   6.630   6.314
 1189SOL     OW 4465   5.470   0.684   1.703
 1189SOL    HW1 4466   5.388   0.659   1.652
 1189SOL    HW2 4467   5.522   0.753   1.652
 1190SOL     OW 4468   4.169   4.905   4.832
 1190SOL    HW1 4469   4.078   4.946   4.836
 1190SOL    HW2 4470   4.237   4.976   4.819
 1191SOL     OW 4471   4.141   5.773   4.979
 1191SOL    HW1 4472   4.160   5.675   4.978
 1191SOL    HW2 4473   4.096   5.797   5.065
 1192SOL     OW 4474   5.615   5.368   2.895
 1192SOL    HW1 4475   5.563   5.324   2.968
 1192SOL    HW2 4476   5.552   5.410   2.829
 1193SOL     OW 4477   6.468   0.511   4.328
 1193SOL    HW1 4478   6.534   0.546   4.262
 1193SOL    HW2 4479   6.516   0.461   4.400
 1194SOL     OW 4480   0.257   1.340   1.044
 1194SOL    HW1 4481   0.334   1.283   1.014
 1194SOL    HW2 4482   0.291   1.424   1.085
 1195SOL     OW 4483   5.584   2.269   0.750
 1195SOL    HW1 4484   5.492   2.288   0.782
 1195SOL    HW2 4485   5.620   2.349   0.701
 1196SOL     OW 4486   7.014   4.631   2.172
 1196SOL    HW1 4487   0.090   4.673   2.179
 1196SOL    HW2 4488   0.005   4.534   2.198
 1197SOL     OW 4489   3.868   5.831   4.814
 1197SOL    HW1 4490   3.917   5.912   4.847
 1197SOL    HW2 4491   3.890   5.752   4.870
 1198SOL     OW 4492   2.257   2.788   2.515
 1198SOL    HW1 4493   2.311   2.723   2.568
 1198SOL    HW2 4494   2.261   2.764   2.418
 1199SOL     OW 4495   3.752   2.893   2.880
 1199SOL    HW1 4496   3.779   2.812   2.933
 1199SOL    HW2 4497   3.656   2.884   2.853
 1200SOL     OW 4498   3.968   3.937   4.763
 1200SOL    HW1 4499   4.053   3.937   4.710
 1200SOL    HW2 4500   3.910   3.861   4.733
 1201SOL     OW 4501   0.465   1.257   4.235
 1201SOL    HW1 4502   0.501   1.346   4.207
 1201SOL    HW2 4503   0.412   1.217   4.160
 1202SOL     OW 4504   6.349   0.625   5.706
 1202SOL    HW1 4505   6.430   0.646   5.762
 1202SOL    HW2 4506   6.378   0.603   5.613
 1203SOL     OW 4507   6.191   6.744   1.650
 1203SOL    HW1 4508   6.185   6.844   1.654
 1203SOL    HW2 4509   6.185   6.706   1.743
 1204SOL     OW 4510   4.081   1.686   0.202
 1204SOL    HW1 4511   4.057   1.589   0.200
 1204SOL    HW2 4512   4.031   1.731   0.277
 1205SOL     OW 4513   3.953   3.504   6.477
 1205SOL    HW1 4514   3.863   3.542   6.497
 1205SOL    HW2 4515   3.945   3.406   6.460
 1206SOL     OW 4516   1.064   2.070   4.925
 1206SOL    HW1 4517   0.966   2.086   4.914
 1206SOL    HW2 4518   1.115   2.126   4.860
 1207SOL     OW 4519   0.670   0.086   0.555
 1207SOL    HW1 4520   0.643   0.073   0.460
 1207SOL    HW2 4521   0.685   7.012   0.598
 1208SOL     OW 4522   3.449   4.153   2.646
 1208SOL    HW1 4523   3.396   4.070   2.659
 1208SOL    HW2 4524   3.407   4.209   2.575
 1209SOL     OW 4525   5.588   0.029   4.515
 1209SOL    HW1 4526   5.609   6.992   4.432
 1209SOL    HW2 4527   5.664   0.091   4.535
 1210SOL     OW 4528   4.486   6.807   3.674
 1210SOL    HW1 4529   4.555   6.761   3.729
 1210SOL    HW2 4530   4.500   6.787   3.577
 1211SOL     OW 4531   1.692   3.415   3.103
 1211SOL    HW1 4532   1.681   3.485   3.172
 1211SOL    HW2 4533   1.604   3.371   3.085
 1212SOL     OW 4534   0.136   1.977   5.820
 1212SOL    HW1 4535   0.037   1.979   5.830
 1212SOL    HW2 4536   0.160   1.986   5.723
 1213SOL     OW 4537   5.698   3.215   4.908
 1213SOL    HW1 4538   5.709   3.117   4.921
 1213SOL    HW2 4539   5.750   3.264   4.978
 1214SOL     OW 4540   1.370   3.264   4.657
 1214SOL    HW1 4541   1.296   3.270   4.591
 1214SOL    HW2 4542   1.370   3.346   4.715
 1215SOL     OW 4543   1.660   5.183   2.398
 1215SOL    HW1 4544   1.690   5.164   2.304
 1215SOL    HW2 4545   1.589   5.254   2.396
 1216SOL     OW 4546   0.316   6.885   1.074
 1216SOL    HW1 4547   0.243   6.816   1.081
 1216SOL    HW2 4548   0.328   6.929   1.163
 1217SOL     OW 4549   2.396   6.022   0.917
 1217SOL    HW1 4550   2.434   6.107   0.954
 1217SOL    HW2 4551   2.353   5.970   0.991
 1218SOL     OW 4552   0.759   3.264   5.039
 1218SOL    HW1 4553   0.697   3.201   5.086
 1218SOL    HW2 4554   0.832   3.212   4.994
 1219SOL     OW 4555   4.629   5.167   1.499
 1219SOL    HW1 4556   4.681   5.088   1.468
 1219SOL    HW2 4557   4.554   5.184   1.435
 1220SOL     OW 4558   5.380   3.959   2.933
 1220SOL    HW1 4559   5.479   3.966   2.925
 1220SOL    HW2 4560   5.342   3.930   2.845
 1221SOL     OW 4561   5.946   3.882   6.456
 1221SOL    HW1 4562   5.963   3.911   6.550
 1221SOL    HW2 4563   6.033   3.853   6.414
 1222SOL     OW 4564   6.463   0.294   0.473
 1222SOL    HW1 4565   6.441   0.391   0.485
 1222SOL    HW2 4566   6.446   0.245   0.558
 1223SOL     OW 4567   5.554   1.297   0.576
 1223SOL    HW1 4568   5.476   1.249   0.617
 1223SOL    HW2 4569   5.545   1.395   0.593
 1224SOL     OW 4570   3.138   5.788   0.282
 1224SOL    HW1 4571   3.228   5.795   0.240
 1224SOL    HW2 4572   3.070   5.766   0.211
 1225SOL     OW 4573   4.089   2.837   1.100
 1225SOL    HW1 4574   4.016   2.898   1.132
 1225SOL    HW2 4575   4.085   2.831   1.000
 1226SOL     OW 4576   4.905   5.852   0.784
 1226SOL    HW1 4577   4.991   5.889   0.748
 1226SOL    HW2 4578   4.866   5.916   0.850
 1227SOL     OW 4579   6.143   4.965   6.088
 1227SOL    HW1 4580   6.111   4.935   5.998
 1227SOL    HW2 4581   6.064   4.978   6.148
 1228SOL     OW 4582   3.896   3.365   0.623
 1228SOL    HW1 4583   3.944   3.331   0.542
 1228SOL    HW2 4584   3.962   3.393   0.692
 1229SOL     OW 4585   1.818   6.516   1.522
 1229SOL    HW1 4586   1.883   6.551   1.455
 1229SOL    HW2 4587   1.863   6.507   1.611
 1230SOL     OW 4588   5.410   5.609   2.802
 1230SOL    HW1 4589   5.444   5.561   2.721
 1230SOL    HW2 4590   5.385   5.703   2.776
 1231SOL     OW 4591   1.265   2.463   6.177
 1231SOL    HW1 4592   1.295   2.369   6.166
 1231SOL    HW2 4593   1.337   2.516   6.222
 1232SOL     OW 4594   4.718   0.958   5.245
 1232SOL    HW1 4595   4.805   0.913   5.264
 1232SOL    HW2 4596   4.722   1.054   5.273
 1233SOL     OW 4597   1.151   5.621   3.423
 1233SOL    HW1 4598   1.247   5.604   3.398
 1233SOL    HW2 4599   1.110   5.683   3.356
 1234SOL     OW 4600   6.926   2.411   6.225
 1234SOL    HW1 4601   6.861   2.432   6.298
 1234SOL    HW2 4602   6.953   2.496   6.179
 1235SOL     OW 4603   6.657   4.577   0.071
 1235SOL    HW1 4604   6.570   4.535   0.095
 1235SOL    HW2 4605   6.652   4.676   0.083
 1236SOL     OW 4606   4.320   1.820   1.044
 1236SOL    HW1 4607   4.333   1.726   1.077
 1236SOL    HW2 4608   4.225   1.848   1.062
 1237SOL     OW 4609   1.530   5.961   4.782
 1237SOL    HW1 4610   1.491   5.960   4.874
 1237SOL    HW2 4611   1.555   5.868   4.755
 1238SOL     OW 4612   0.340   6.961   3.920
 1238SOL    HW1 4613   0.295   6.929   3.836
 1238SOL    HW2 4614   0.272   6.973   3.992
 1239SOL     OW 4615   6.327   5.773   5.058
 1239SOL    HW1 4616   6.288   5.815   4.976
 1239SOL    HW2 4617   6.400   5.832   5.094
 1240SOL     OW 4618   6.161   4.905   2.217
 1240SOL    HW1 4619   6.249   4.893   2.262
 1240SOL    HW2 4620   6.103   4.826   2.236
 1241SOL     OW 4621   6.994   4.538   5.002
 1241SOL    HW1 4622   6.982   4.455   5.058
 1241SOL    HW2 4623   0.011   4.512   4.911
 1242SOL     OW 4624   2.053   3.398   0.854
 1242SOL    HW1 4625   2.012   3.452   0.780
 1242SOL    HW2 4626   2.150   3.383   0.833
 1243SOL     OW 4627   0.781   1.474   4.602
 1243SOL    HW1 4628   0.850   1.418   4.648
 1243SOL    HW2 4629   0.826   1.545   4.548
 1244SOL     OW 4630   5.087   6.767   5.327
 1244SOL    HW1 4631   5.125   6.809   5.244
 1244SOL    HW2 4632   5.154   6.703   5.365
 1245SOL     OW 4633   5.252   5.362   0.735
 1245SOL    HW1 4634   5.195   5.300   0.789
 1245SOL    HW2 4635   5.339   5.318   0.714
 1246SOL     OW 4636   3.569   1.026   2.177
 1246SOL    HW1 4637   3.494   1.012   2.113
 1246SOL    HW2 4638   3.556   1.112   2.227
 1247SOL     OW 4639   5.928   0.261   4.989
 1247SOL    HW1 4640   5.853   0.281   4.926
 1247SOL    HW2 4641   6.015   0.283   4.946
 1248SOL     OW 4642   1.427   6.316   4.132
 1248SOL    HW1 4643   1.521   6.341   4.153
 1248SOL    HW2 4644   1.424   6.263   4.047
 1249SOL     OW 4645   0.036   4.350   1.840
 1249SOL    HW1 4646   0.073   4.352   1.747
 1249SOL    HW2 4647   6.958   4.388   1.840
 1250SOL     OW 4648   6.067   3.432   4.371
 1250SOL    HW1 4649   5.990   3.386   4.326
 1250SOL    HW2 4650   6.042   3.457   4.464
 1251SOL     OW 4651   2.333   0.946   2.840
 1251SOL    HW1 4652   2.432   0.945   2.823
 1251SOL    HW2 4653   2.313   1.006   2.918
 1252SOL     OW 4654   3.259   5.377   6.651
 1252SOL    HW1 4655   3.238   5.298   6.709
 1252SOL    HW2 4656   3.175   5.410   6.608
 1253SOL     OW 4657   2.732   0.524   1.367
 1253SOL    HW1 4658   2.796   0.456   1.333
 1253SOL    HW2 4659   2.641   0.506   1.330
 1254SOL     OW 4660   6.349   2.770   2.680
 1254SOL    HW1 4661   6.380   2.685   2.637
 1254SOL    HW2 4662   6.425   2.809   2.733
 1255SOL     OW 4663   5.932   2.641   5.983
 1255SOL    HW1 4664   5.965   2.547   5.976
 1255SOL    HW2 4665   5.841   2.648   5.941
 1256SOL     OW 4666   0.517   6.018   3.372
 1256SOL    HW1 4667   0.575   6.080   3.319
 1256SOL    HW2 4668   0.421   6.045   3.361
 1257SOL     OW 4669   0.201   4.891   4.180
 1257SOL    HW1 4670   0.113   4.857   4.215
 1257SOL    HW2 4671   0.193   4.989   4.160
 1258SOL     OW 4672   1.785   5.871   2.788
 1258SOL    HW1 4673   1.846   5.831   2.720
 1258SOL    HW2 4674   1.690   5.848   2.764
 1259SOL     OW 4675   3.032   6.153   5.351
 1259SOL    HW1 4676   3.055   6.243   5.314
 1259SOL    HW2 4677   3.104   6.087   5.327
 1260SOL     OW 4678   3.193   1.051   1.080
 1260SOL    HW1 4679   3.200   0.966   1.132
 1260SOL    HW2 4680   3.279   1.101   1.085
 1261SOL     OW 4681   0.236   3.903   0.240
 1261SOL    HW1 4682   0.204   3.855   0.158
 1261SOL    HW2 4683   0.336   3.902   0.242
 1262SOL     OW 4684   4.973   5.256   1.566
 1262SOL    HW1 4685   4.918   5.281   1.487
 1262SOL    HW2 4686   4.914   5.238   1.645
 1263SOL     OW 4687   6.439   1.678   0.716
 1263SOL    HW1 4688   6.452   1.598   0.658
 1263SOL    HW2 4689   6.426   1.759   0.660
 1264SOL     OW 4690   1.037   3.537   2.130
 1264SOL    HW1 4691   0.971   3.475   2.173
 1264SOL    HW2 4692   1.087   3.586   2.201
 1265SOL     OW 4693   6.644   4.374   3.380
 1265SOL    HW1 4694   6.568   4.433   3.353
 1265SOL    HW2 4695   6.670   4.395   3.474
 1266SOL     OW 4696   2.104   0.724   3.883
 1266SOL    HW1 4697   2.199   0.715   3.853
 1266SOL    HW2 4698   2.070   0.815   3.856
 1267SOL     OW 4699   5.248   5.942   0.942
 1267SOL    HW1 4700   5.185   6.015   0.917
 1267SOL    HW2 4701   5.269   5.948   1.040
 1268SOL     OW 4702   4.514   2.291   6.695
 1268SOL    HW1 4703   4.497   2.357   6.621
 1268SOL    HW2 4704   4.446   2.217   6.690
 1269SOL     OW 4705   5.744   6.141   5.165
 1269SOL    HW1 4706   5.819   6.204   5.146
 1269SOL    HW2 4707   5.778   6.048   5.169
 1270SOL     OW 4708   2.112   3.561   4.126
 1270SOL    HW1 4709   2.122   3.483   4.064
 1270SOL    HW2 4710   2.141   3.645   4.079
 1271SOL     OW 4711   3.939   1.575   3.743
 1271SOL    HW1 4712   3.886   1.526   3.812
 1271SOL    HW2 4713   3.927   1.531   3.654
 1272SOL     OW 4714   6.687   6.026   1.118
 1272SOL    HW1 4715   6.729   6.092   1.181
 1272SOL    HW2 4716   6.714   6.048   1.024
 1273SOL     OW 4717   1.844   4.656   6.974
 1273SOL    HW1 4718   1.936   4.696   6.981
 1273SOL    HW2 4719   1.785   4.695   0.029
 1274SOL     OW 4720   6.228   3.119   1.811
 1274SOL    HW1 4721   6.195   3.077   1.726
 1274SOL    HW2 4722   6.312   3.073   1.840
 1275SOL     OW 4723   3.895   0.113   3.671
 1275SOL    HW1 4724   3.943   0.196   3.640
 1275SOL    HW2 4725   3.963   0.042   3.692
 1276SOL     OW 4726   6.866   0.868   3.278
 1276SOL    HW1 4727   6.913   0.954   3.260
 1276SOL    HW2 4728   6.772   0.873   3.245
 1277SOL     OW 4729   0.331   0.366   4.682
 1277SOL    HW1 4730   0.363   0.460   4.673
 1277SOL    HW2 4731   0.386   0.318   4.750
 1278SOL     OW 4732   1.198   1.162   5.206
 1278SOL    HW1 4733   1.295   1.142   5.219
 1278SOL    HW2 4734   1.146   1.076   5.207
 1279SOL     OW 4735   2.658   6.546   0.370
 1279SOL    HW1 4736   2.715   6.549   0.453
 1279SOL    HW2 4737   2.566   6.577   0.392
 1280SOL     OW 4738   2.849   6.383   3.860
 1280SOL    HW1 4739   2.909   6.431   3.796
 1280SOL    HW2 4740   2.893   6.297   3.888
 1281SOL     OW 4741   1.050   5.795   3.002
 1281SOL    HW1 4742   1.026   5.861   2.931
 1281SOL    HW2 4743   1.048   5.703   2.964
 1282SOL     OW 4744   0.493   1.069   0.258
 1282SOL    HW1 4745   0.405   1.103   0.226
 1282SOL    HW2 4746   0.540   1.023   0.183
 1283SOL     OW 4747   5.559   2.654   5.320
 1283SOL    HW1 4748   5.518   2.564   5.303
 1283SOL    HW2 4749   5.486   2.723   5.325
 1284SOL     OW 4750   4.118   3.530   1.473
 1284SOL    HW1 4751   4.105   3.436   1.501
 1284SOL    HW2 4752   4.213   3.556   1.486
 1285SOL     OW 4753   5.606   3.452   6.011
 1285SOL    HW1 4754   5.603   3.432   5.913
 1285SOL    HW2 4755   5.558   3.379   6.061
 1286SOL     OW 4756   4.928   4.587   2.675
 1286SOL    HW1 4757   4.933   4.644   2.593
 1286SOL    HW2 4758   4.838   4.543   2.680
 1287SOL     OW 4759   4.545   3.810   5.913
 1287SOL    HW1 4760   4.632   3.832   5.869
 1287SOL    HW2 4761   4.552   3.828   6.011
 1288SOL     OW 4762   6.168   3.978   0.832
 1288SOL    HW1 4763   6.077   3.948   0.803
 1288SOL    HW2 4764   6.191   3.935   0.919
 1289SOL     OW 4765   0.299   5.964   2.030
 1289SOL    HW1 4766   0.390   5.949   2.069
 1289SOL    HW2 4767   0.229   5.930   2.094
 1290SOL     OW 4768   1.336   0.350   0.134
 1290SOL    HW1 4769   1.385   0.431   0.101
 1290SOL    HW2 4770   1.344   0.276   0.066
 1291SOL     OW 4771   0.328   3.557   5.847
 1291SOL    HW1 4772   0.292   3.515   5.930
 1291SOL    HW2 4773   0.426   3.539   5.840
 1292SOL     OW 4774   5.968   5.291   2.595
 1292SOL    HW1 4775   5.955   5.276   2.693
 1292SOL    HW2 4776   6.009   5.210   2.554
 1293SOL     OW 4777   2.018   1.242   6.689
 1293SOL    HW1 4778   2.059   1.150   6.687
 1293SOL    HW2 4779   1.935   1.242   6.634
 1294SOL     OW 4780   1.084   3.592   0.495
 1294SOL    HW1 4781   1.143   3.561   0.420
 1294SOL    HW2 4782   1.104   3.687   0.517
 1295SOL     OW 4783   6.630   3.570   2.588
 1295SOL    HW1 4784   6.717   3.617   2.575
 1295SOL    HW2 4785   6.571   3.587   2.509
 1296SOL     OW 4786   4.001   0.569   5.593
 1296SOL    HW1 4787   3.911   0.529   5.613
 1296SOL    HW2 4788   4.069   0.496   5.585
 1297SOL     OW 4789   5.855   0.635   6.455
 1297SOL    HW1 4790   5.932   0.670   6.510
 1297SOL    HW2 4791   5.891   0.581   6.379
 1298SOL     OW 4792   6.131   3.805   3.180
 1298SOL    HW1 4793   6.202   3.759   3.126
 1298SOL    HW2 4794   6.065   3.848   3.118
 1299SOL     OW 4795   0.929   3.607   3.192
 1299SOL    HW1 4796   0.841   3.640   3.226
 1299SOL    HW2 4797   0.970   3.676   3.132
 1300SOL     OW 4798   3.339   4.107   1.869
 1300SOL    HW1 4799   3.339   4.113   1.969
 1300SOL    HW2 4800   3.419   4.155   1.833
 1301SOL     OW 4801   0.058   5.882   2.148
 1301SOL    HW1 4802   0.077   5.890   2.246
 1301SOL    HW2 4803   6.989   5.930   2.126
 1302SOL     OW 4804   2.596   0.472   5.015
 1302SOL    HW1 4805   2.530   0.426   4.955
 1302SOL    HW2 4806   2.550   0.548   5.062
 1303SOL     OW 4807   4.766   1.974   1.046
 1303SOL    HW1 4808   4.802   2.047   1.104
 1303SOL    HW2 4809   4.666   1.976   1.048
 1304SOL     OW 4810   1.422   1.396   6.593
 1304SOL    HW1 4811   1.467   1.437   6.514
 1304SOL    HW2 4812   1.480   1.326   6.632
 1305SOL     OW 4813   5.519   4.375   6.671
 1305SOL    HW1 4814   5.539   4.298   6.731
 1305SOL    HW2 4815   5.468   4.343   6.591
 1306SOL     OW 4816   1.072   4.672   5.418
 1306SOL    HW1 4817   1.168   4.691   5.397
 1306SOL    HW2 4818   1.014   4.713   5.347
 1307SOL     OW 4819   1.762   2.589   4.359
 1307SOL    HW1 4820   1.838   2.636   4.402
 1307SOL    HW2 4821   1.789   2.494   4.339
 1308SOL     OW 4822   4.473   5.352   4.401
 1308SOL    HW1 4823   4.536   5.400   4.462
 1308SOL    HW2 4824   4.524   5.288   4.343
 1309SOL     OW 4825   5.733   3.385   5.768
 1309SOL    HW1 4826   5.827   3.363   5.739
 1309SOL    HW2 4827   5.685   3.430   5.693
 1310SOL     OW 4828   0.270   3.780   4.886
 1310SOL    HW1 4829   0.173   3.756   4.894
 1310SOL    HW2 4830   0.305   3.748   4.798
 1311SOL     OW 4831   6.519   6.715   3.975
 1311SOL    HW1 4832   6.453   6.641   3.964
 1311SOL    HW2 4833   6.567   6.730   3.888
 1312SOL     OW 4834   0.920   0.349   6.425
 1312SOL    HW1 4835   0.841   0.402   6.457
 1312SOL    HW2 4836   1.000   0.371   6.480
 1313SOL     OW 4837   1.357   4.775   4.896
 1313SOL    HW1 4838   1.357   4.753   4.799
 1313SOL    HW2 4839   1.451   4.782   4.929
 1314SOL     OW 4840   2.872   1.908   5.849
 1314SOL    HW1 4841   2.965   1.890   5.816
 1314SOL    HW2 4842   2.807   1.888   5.776
 1315SOL     OW 4843   0.428   0.951   0.519
 1315SOL    HW1 4844   0.329   0.951   0.534
 1315SOL    HW2 4845   0.447   0.982   0.425
 1316SOL     OW 4846   2.439   6.468   3.938
 1316SOL    HW1 4847   2.383   6.541   3.897
 1316SOL    HW2 4848   2.381   6.391   3.963
 1317SOL     OW 4849   0.583   3.863   4.693
 1317SOL    HW1 4850   0.490   3.843   4.662
 1317SOL    HW2 4851   0.594   3.833   4.788
 1318SOL     OW 4852   6.939   0.238   0.543
 1318SOL    HW1 4853   6.905   0.190   0.623
 1318SOL    HW2 4854   6.917   0.186   0.460
 1319SOL     OW 4855   6.115   0.816   0.072
 1319SOL    HW1 4856   6.145   0.722   0.057
 1319SOL    HW2 4857   6.154   0.876   0.002
 1320SOL     OW 4858   6.156   3.911   0.180
 1320SOL    HW1 4859   6.206   3.936   0.263
 1320SOL    HW2 4860   6.095   3.834   0.200
 1321SOL     OW 4861   4.292   2.351   6.421
 1321SOL    HW1 4862   4.267   2.258   6.447
 1321SOL    HW2 4863   4.213   2.412   6.432
 1322SOL     OW 4864   4.846   0.656   3.198
 1322SOL    HW1 4865   4.867   0.564   3.231
 1322SOL    HW2 4866   4.915   0.720   3.231
 1323SOL     OW 4867   5.205   1.879   5.458
 1323SOL    HW1 4868   5.133   1.831   5.409
 1323SOL    HW2 4869   5.280   1.900   5.396
 1324SOL     OW 4870   1.349   2.893   1.140
 1324SOL    HW1 4871   1.391   2.872   1.051
 1324SOL    HW2 4872   1.271   2.833   1.155
 1325SOL     OW 4873   1.955   0.015   1.959
 1325SOL    HW1 4874   2.018   0.018   2.037
 1325SOL    HW2 4875   1.978   0.087   1.895
 1326SOL     OW 4876   5.313   2.729   4.829
 1326SOL    HW1 4877   5.332   2.794   4.755
 1326SOL    HW2 4878   5.229   2.757   4.876
 1327SOL     OW 4879   2.698   4.808   2.514
 1327SOL    HW1 4880   2.712   4.780   2.610
 1327SOL    HW2 4881   2.682   4.726   2.459
 1328SOL     OW 4882   1.397   2.827   0.868
 1328SOL    HW1 4883   1.362   2.733   0.866
 1328SOL    HW2 4884   1.496   2.826   0.857
 1329SOL     OW 4885   0.413   2.151   0.679
 1329SOL    HW1 4886   0.333   2.092   0.674
 1329SOL    HW2 4887   0.496   2.095   0.671
 1330SOL     OW 4888   6.411   0.868   1.249
 1330SOL    HW1 4889   6.458   0.811   1.181
 1330SOL    HW2 4890   6.416   0.823   1.339
 1331SOL     OW 4891   4.746   2.372   3.272
 1331SOL    HW1 4892   4.705   2.311   3.204
 1331SOL    HW2 4893   4.839   2.396   3.243
 1332SOL     OW 4894   3.932   6.808   6.909
 1332SOL    HW1 4895   3.979   6.895   6.925
 1332SOL    HW2 4896   3.999   6.734   6.909
 1333SOL     OW 4897   3.704   3.324   6.385
 1333SOL    HW1 4898   3.722   3.250   6.320
 1333SOL    HW2 4899   3.717   3.412   6.340
 1334SOL     OW 4900   0.217   2.469   5.025
 1334SOL    HW1 4901   0.305   2.450   5.070
 1334SOL    HW2 4902   0.196   2.395   4.961
 1335SOL     OW 4903   2.751   7.014   2.769
 1335SOL    HW1 4904   2.827   6.963   2.809
 1335SOL    HW2 4905   2.779   0.094   2.752
 1336SOL     OW 4906   1.962   1.847   6.781
 1336SOL    HW1 4907   1.955   1.829   6.879
 1336SOL    HW2 4908   1.914   1.776   6.730
 1337SOL     OW 4909   1.120   1.777   4.884
 1337SOL    HW1 4910   1.187   1.752   4.814
 1337SOL    HW2 4911   1.104   1.876   4.880
 1338SOL     OW 4912   4.172   2.607   6.047
 1338SOL    HW1 4913   4.260   2.612   6.095
 1338SOL    HW2 4914   4.121   2.691   6.063
 1339SOL     OW 4915   0.908   0.124   0.229
 1339SOL    HW1 4916   0.921   0.057   0.155
 1339SOL    HW2 4917   0.917   0.216   0.192
 1340SOL     OW 4918   0.853   1.497   1.659
 1340SOL    HW1 4919   0.771   1.536   1.702
 1340SOL    HW2 4920   0.825   1.428   1.592
 1341SOL     OW 4921   4.224   0.557   6.004
 1341SOL    HW1 4922   4.322   0.542   5.992
 1341SOL    HW2 4923   4.175   0.471   5.988
 1342SOL     OW 4924   1.981   4.717   5.854
 1342SOL    HW1 4925   1.892   4.731   5.896
 1342SOL    HW2 4926   1.987   4.622   5.821
 1343SOL     OW 4927   3.859   5.908   2.488
 1343SOL    HW1 4928   3.847   5.831   2.551
 1343SOL    HW2 4929   3.840   5.877   2.394
 1344SOL     OW 4930   6.532   4.185   3.840
 1344SOL    HW1 4931   6.594   4.178   3.918
 1344SOL    HW2 4932   6.444   4.220   3.871
 1345SOL     OW 4933   1.460   1.672   3.414
 1345SOL    HW1 4934   1.402   1.627   3.481
 1345SOL    HW2 4935   1.556   1.669   3.444
 1346SOL     OW 4936   1.142   0.276   2.896
 1346SOL    HW1 4937   1.148   0.322   2.808
 1346SOL    HW2 4938   1.193   0.329   2.964
 1347SOL     OW 4939   6.103   6.626   4.180
 1347SOL    HW1 4940   6.077   6.668   4.094
 1347SOL    HW2 4941   6.200   6.603   4.178
 1348SOL     OW 4942   5.716   5.652   3.223
 1348SOL    HW1 4943   5.758   5.742   3.233
 1348SOL    HW2 4944   5.632   5.660   3.170
 1349SOL     OW 4945   4.676   2.505   6.123
 1349SOL    HW1 4946   4.718   2.590   6.154
 1349SOL    HW2 4947   4.740   2.430   6.136
 1350SOL     OW 4948   4.084   4.651   6.792
 1350SOL    HW1 4949   4.184   4.656   6.790
 1350SOL    HW2 4950   4.053   4.644   6.887
 1351SOL     OW 4951   0.070   2.052   3.006
 1351SOL    HW1 4952   0.110   2.141   3.026
 1351SOL    HW2 4953   0.015   2.058   2.923
 1352SOL     OW 4954   0.584   0.587   3.111
 1352SOL    HW1 4955   0.508   0.588   3.177
 1352SOL    HW2 4956   0.669   0.606   3.160
 1353SOL     OW 4957   6.340   3.947   5.692
 1353SOL    HW1 4958   6.365   4.006   5.616
 1353SOL    HW2 4959   6.242   3.956   5.710
 1354SOL     OW 4960   0.410   2.229   0.414
 1354SOL    HW1 4961   0.483   2.297   0.408
 1354SOL    HW2 4962   0.405   2.194   0.508
 1355SOL     OW 4963   6.004   2.379   6.030
 1355SOL    HW1 4964   6.004   2.330   5.943
 1355SOL    HW2 4965   6.056   2.327   6.097
 1356SOL     OW 4966   3.274   3.394   3.722
 1356SOL    HW1 4967   3.240   3.364   3.633
 1356SOL    HW2 4968   3.313   3.316   3.771
 1357SOL     OW 4969   1.376   4.088   5.795
 1357SOL    HW1 4970   1.322   4.161   5.837
 1357SOL    HW2 4971   1.353   4.082   5.698
 1358SOL     OW 4972   3.704   1.267   5.612
 1358SOL    HW1 4973   3.698   1.266   5.712
 1358SOL    HW2 4974   3.731   1.176   5.579
 1359SOL     OW 4975   6.793   4.815   1.536
 1359SOL    HW1 4976   6.804   4.856   1.626
 1359SOL    HW2 4977   6.720   4.863   1.486
 1360SOL     OW 4978   4.151   3.698   2.187
 1360SOL    HW1 4979   4.148   3.684   2.286
 1360SOL    HW2 4980   4.241   3.673   2.153
 1361SOL     OW 4981   0.028   6.679   5.903
 1361SOL    HW1 4982   0.126   6.696   5.903
 1361SOL    HW2 4983   7.000   6.727   5.826
 1362SOL     OW 4984   2.921   3.674   4.134
 1362SOL    HW1 4985   2.928   3.611   4.212
 1362SOL    HW2 4986   2.994   3.654   4.069
 1363SOL     OW 4987   6.353   5.902   3.595
 1363SOL    HW1 4988   6.447   5.927   3.621
 1363SOL    HW2 4989   6.352   5.873   3.500
 1364SOL     OW 4990   0.686   2.332   0.369
 1364SOL    HW1 4991   0.753   2.388   0.419
 1364SOL    HW2 4992   0.731   2.250   0.333
 1365SOL     OW 4993   0.551   3.385   5.798
 1365SOL    HW1 4994   0.651   3.394   5.797
 1365SOL    HW2 4995   0.520   3.345   5.712
 1366SOL     OW 4996   0.216   4.165   0.586
 1366SOL    HW1 4997   0.190   4.070   0.607
 1366SOL    HW2 4998   0.315   4.171   0.575
 1367SOL     OW 4999   1.303   5.906   3.161
 1367SOL    HW1 5000   1.361   5.839   3.208
 1367SOL    HW2 5001   1.337   5.919   3.067
 1368SOL     OW 5002   6.873   0.917   4.177
 1368SOL    HW1 5003   6.895   0.825   4.212
 1368SOL    HW2 5004   6.804   0.959   4.235
 1369SOL     OW 5005   2.278   0.420   2.392
 1369SOL    HW1 5006   2.289   0.347   2.324
 1369SOL    HW2 5007   2.241   0.380   2.477
 1370SOL     OW 5008   5.525   2.230   3.916
 1370SOL    HW1 5009   5.455   2.160   3.903
 1370SOL    HW2 5010   5.513   2.301   3.847
 1371SOL     OW 5011   4.917   1.791   4.902
 1371SOL    HW1 5012   4.839   1.757   4.954
 1371SOL    HW2 5013   4.921   1.890   4.908
 1372SOL     OW 5014   0.923   2.077   0.998
 1372SOL    HW1 5015   0.964   2.002   0.946
 1372SOL    HW2 5016   0.980   2.098   1.077
 1373SOL     OW 5017   4.442   2.279   6.971
 1373SOL    HW1 5018   4.419   2.271   6.874
 1373SOL    HW2 5019   4.389   2.212   0.008
 1374SOL     OW 5020   4.909   3.083   0.583
 1374SOL    HW1 5021   4.957   3.168   0.563
 1374SOL    HW2 5022   4.838   3.068   0.514
 1375SOL     OW 5023   0.267   6.976   6.404
 1375SOL    HW1 5024   0.357   6.937   6.425
 1375SOL    HW2 5025   0.201   6.946   6.473
 1376SOL     OW 5026   3.666   4.846   5.564
 1376SOL    HW1 5027   3.693   4.907   5.490
 1376SOL    HW2 5028   3.732   4.772   5.573
 1377SOL     OW 5029   0.901   3.465   3.476
 1377SOL    HW1 5030   0.914   3.367   3.489
 1377SOL    HW2 5031   0.916   3.489   3.380
 1378SOL     OW 5032   5.889   2.387   5.404
 1378SOL    HW1 5033   5.824   2.340   5.463
 1378SOL    HW2 5034   5.915   2.474   5.446
 1379SOL     OW 5035   4.289   5.780   3.138
 1379SOL    HW1 5036   4.325   5.783   3.044
 1379SOL    HW2 5037   4.308   5.690   3.177
 1380SOL     OW 5038   0.156   5.990   3.323
 1380SOL    HW1 5039   0.198   6.035   3.401
 1380SOL    HW2 5040   0.113   5.905   3.353
 1381SOL     OW 5041   5.678   1.526   6.968
 1381SOL    HW1 5042   5.727   1.496   0.034
 1381SOL    HW2 5043   5.697   1.623   6.951
 1382SOL     OW 5044   5.002   3.420   1.247
 1382SOL    HW1 5045   4.968   3.334   1.208
 1382SOL    HW2 5046   5.035   3.404   1.340
 1383SOL     OW 5047   1.124   0.000   1.606
 1383SOL    HW1 5048   1.088   0.039   1.691
 1383SOL    HW2 5049   1.073   6.932   1.584
 1384SOL     OW 5050   4.698   0.043   2.268
 1384SOL    HW1 5051   4.729   0.130   2.306
 1384SOL    HW2 5052   4.636   7.014   2.332
 1385SOL     OW 5053   2.944   4.811   3.680
 1385SOL    HW1 5054   2.906   4.873   3.611
 1385SOL    HW2 5055   3.042   4.828   3.689
 1386SOL     OW 5056   2.956   0.765   4.056
 1386SOL    HW1 5057   2.931   0.742   3.962
 1386SOL    HW2 5058   3.031   0.832   4.056
 1387SOL     OW 5059   4.112   5.433   2.718
 1387SOL    HW1 5060   4.050   5.508   2.695
 1387SOL    HW2 5061   4.114   5.420   2.817
 1388SOL     OW 5062   6.669   6.990   1.991
 1388SOL    HW1 5063   6.582   7.002   2.039
 1388SOL    HW2 5064   6.719   6.914   2.032
 1389SOL     OW 5065   6.398   1.214   4.130
 1389SOL    HW1 5066   6.374   1.259   4.216
 1389SOL    HW2 5067   6.403   1.115   4.144
 1390SOL     OW 5068   0.135   3.530   0.106
 1390SOL    HW1 5069   0.094   3.577   0.028
 1390SOL    HW2 5070   0.120   3.431   0.097
 1391SOL     OW 5071   6.586   6.148   4.759
 1391SOL    HW1 5072   6.645   6.223   4.787
 1391SOL    HW2 5073   6.591   6.074   4.826
 1392SOL     OW 5074   5.235   6.220   5.878
 1392SOL    HW1 5075   5.306   6.159   5.842
 1392SOL    HW2 5076   5.201   6.279   5.805
 1393SOL     OW 5077   6.415   4.978   5.526
 1393SOL    HW1 5078   6.334   4.920   5.526
 1393SOL    HW2 5079   6.473   4.954   5.447
 1394SOL     OW 5080   3.488   5.005   5.912
 1394SOL    HW1 5081   3.538   4.948   5.847
 1394SOL    HW2 5082   3.392   5.011   5.885
 1395SOL     OW 5083   2.567   4.544   5.214
 1395SOL    HW1 5084   2.602   4.506   5.299
 1395SOL    HW2 5085   2.640   4.596   5.169
 1396SOL     OW 5086   0.985   1.672   5.209
 1396SOL    HW1 5087   1.047   1.628   5.274
 1396SOL    HW2 5088   0.991   1.625   5.121
 1397SOL     OW 5089   0.136   0.012   4.106
 1397SOL    HW1 5090   0.177   6.966   4.175
 1397SOL    HW2 5091   0.128   0.104   4.144
 1398SOL     OW 5092   3.030   0.435   6.690
 1398SOL    HW1 5093   3.101   0.493   6.730
 1398SOL    HW2 5094   2.990   0.377   6.761
 1399SOL     OW 5095   3.550   5.437   0.624
 1399SOL    HW1 5096   3.457   5.468   0.644
 1399SOL    HW2 5097   3.599   5.509   0.575
 1400SOL     OW 5098   7.010   1.605   3.654
 1400SOL    HW1 5099   0.025   1.700   3.646
 1400SOL    HW2 5100   0.074   1.547   3.674
 1401SOL     OW 5101   6.165   0.971   5.039
 1401SOL    HW1 5102   6.217   1.055   5.053
 1401SOL    HW2 5103   6.198   0.901   5.103
 1402SOL     OW 5104   6.497   3.386   6.477
 1402SOL    HW1 5105   6.412   3.356   6.520
 1402SOL    HW2 5106   6.478   3.464   6.416
 1403SOL     OW 5107   2.646   2.453   1.689
 1403SOL    HW1 5108   2.686   2.541   1.713
 1403SOL    HW2 5109   2.718   2.391   1.656
 1404SOL     OW 5110   6.370   6.550   0.344
 1404SOL    HW1 5111   6.366   6.479   0.414
 1404SOL    HW2 5112   6.283   6.552   0.294
 1405SOL     OW 5113   2.326   3.363   0.786
 1405SOL    HW1 5114   2.352   3.359   0.690
 1405SOL    HW2 5115   2.405   3.387   0.842
 1406SOL     OW 5116   0.650   5.618   0.934
 1406SOL    HW1 5117   0.582   5.544   0.934
 1406SOL    HW2 5118   0.723   5.596   0.998
 1407SOL     OW 5119   0.349   3.129   2.008
 1407SOL    HW1 5120   0.267   3.122   1.952
 1407SOL    HW2 5121   0.391   3.038   2.019
 1408SOL     OW 5122   5.382   0.911   6.117
 1408SOL    HW1 5123   5.438   0.994   6.118
 1408SOL    HW2 5124   5.391   0.864   6.205
 1409SOL     OW 5125   6.796   0.258   4.889
 1409SOL    HW1 5126   6.780   0.285   4.794
 1409SOL    HW2 5127   6.709   0.232   4.932
 1410SOL     OW 5128   1.319   3.713   6.290
 1410SOL    HW1 5129   1.343   3.661   6.209
 1410SOL    HW2 5130   1.346   3.809   6.278
 1411SOL     OW 5131   3.643   6.771   0.861
 1411SOL    HW1 5132   3.658   6.847   0.798
 1411SOL    HW2 5133   3.582   6.704   0.819
 1412SOL     OW 5134   1.205   2.146   0.877
 1412SOL    HW1 5135   1.283   2.109   0.827
 1412SOL    HW2 5136   1.142   2.189   0.813
 1413SOL     OW 5137   1.599   2.423   5.401
 1413SOL    HW1 5138   1.573   2.478   5.322
 1413SOL    HW2 5139   1.563   2.465   5.485
 1414SOL     OW 5140   2.724   1.194   1.685
 1414SOL    HW1 5141   2.806   1.162   1.731
 1414SOL    HW2 5142   2.706   1.289   1.711
 1415SOL     OW 5143   2.279   1.010   4.061
 1415SOL    HW1 5144   2.344   0.968   4.124
 1415SOL    HW2 5145   2.289   1.110   4.065
 1416SOL     OW 5146   5.429   5.397   4.218
 1416SOL    HW1 5147   5.525   5.375   4.204
 1416SOL    HW2 5148   5.385   5.323   4.268
 1417SOL     OW 5149   3.023   2.203   0.257
 1417SOL    HW1 5150   3.088   2.274   0.231
 1417SOL    HW2 5151   3.024   2.130   0.189
 1418SOL     OW 5152   3.389   4.145   2.941
 1418SOL    HW1 5153   3.413   4.172   2.848
 1418SOL    HW2 5154   3.294   4.170   2.959
 1419SOL     OW 5155   2.536   5.732   4.463
 1419SOL    HW1 5156   2.602   5.729   4.388
 1419SOL    HW2 5157   2.495   5.823   4.468
 1420SOL     OW 5158   2.591   6.918   1.930
 1420SOL    HW1 5159   2.646   6.838   1.954
 1420SOL    HW2 5160   2.651   6.995   1.912
 1421SOL     OW 5161   2.210   5.131   3.657
 1421SOL    HW1 5162   2.272   5.179   3.719
 1421SOL    HW2 5163   2.116   5.157   3.677
 1422SOL     OW 5164   1.188   3.977   0.316
 1422SOL    HW1 5165   1.259   4.025   0.265
 1422SOL    HW2 5166   1.120   4.042   0.348
 1423SOL     OW 5167   4.839   6.482   3.447
 1423SOL    HW1 5168   4.846   6.403   3.508
 1423SOL    HW2 5169   4.921   6.538   3.454
 1424SOL     OW 5170   6.812   4.946   5.727
 1424SOL    HW1 5171   6.721   4.946   5.768
 1424SOL    HW2 5172   6.851   5.038   5.732
 1425SOL     OW 5173   1.999   5.602   5.286
 1425SOL    HW1 5174   2.026   5.567   5.375
 1425SOL    HW2 5175   2.012   5.531   5.216
 1426SOL     OW 5176   1.723   4.051   6.467
 1426SOL    HW1 5177   1.715   4.058   6.566
 1426SOL    HW2 5178   1.788   4.119   6.434
 1427SOL     OW 5179   0.392   0.148   3.498
 1427SOL    HW1 5180   0.482   0.151   3.543
 1427SOL    HW2 5181   0.403   0.174   3.402
 1428SOL     OW 5182   0.215   3.182   6.986
 1428SOL    HW1 5183   0.209   3.101   6.926
 1428SOL    HW2 5184   0.124   3.204   0.006
 1429SOL     OW 5185   3.997   1.501   6.911
 1429SOL    HW1 5186   3.921   1.466   6.966
 1429SOL    HW2 5187   4.069   1.433   6.905
 1430SOL     OW 5188   1.447   4.675   3.852
 1430SOL    HW1 5189   1.541   4.641   3.849
 1430SOL    HW2 5190   1.447   4.770   3.886
 1431SOL     OW 5191   2.900   1.858   0.792
 1431SOL    HW1 5192   2.866   1.780   0.845
 1431SOL    HW2 5193   2.873   1.847   0.696
 1432SOL     OW 5194   2.686   1.708   2.032
 1432SOL    HW1 5195   2.720   1.692   1.939
 1432SOL    HW2 5196   2.668   1.806   2.045
 1433SOL     OW 5197   4.334   0.746   5.256
 1433SOL    HW1 5198   4.387   0.821   5.297
 1433SOL    HW2 5199   4.301   0.774   5.166
 1434SOL     OW 5200   0.386   0.291   6.102
 1434SOL    HW1 5201   0.388   0.274   6.004
 1434SOL    HW2 5202   0.397   0.390   6.119
 1435SOL     OW 5203   6.638   6.948   2.964
 1435SOL    HW1 5204   6.672   7.004   2.888
 1435SOL    HW2 5205   6.652   6.851   2.943
 1436SOL     OW 5206   5.234   3.985   6.635
 1436SOL    HW1 5207   5.297   3.908   6.623
 1436SOL    HW2 5208   5.143   3.958   6.603
 1437SOL     OW 5209   3.133   2.196   4.527
 1437SOL    HW1 5210   3.035   2.173   4.527
 1437SOL    HW2 5211   3.174   2.166   4.612
 1438SOL     OW 5212   2.519   6.259   1.596
 1438SOL    HW1 5213   2.567   6.287   1.679
 1438SOL    HW2 5214   2.448   6.326   1.574
 1439SOL     OW 5215   6.280   5.841   1.165
 1439SOL    HW1 5216   6.350   5.875   1.101
 1439SOL    HW2 5217   6.228   5.919   1.201
 1440SOL     OW 5218   2.784   2.983   6.882
 1440SOL    HW1 5219   2.835   3.033   6.952
 1440SOL    HW2 5220   2.757   3.045   6.809
 1441SOL     OW 5221   6.286   0.776   3.657
 1441SOL    HW1 5222   6.385   0.769   3.671
 1441SOL    HW2 5223   6.266   0.765   3.559
 1442SOL     OW 5224   6.977   5.623   6.478
 1442SOL    HW1 5225   0.010   5.536   6.489
 1442SOL    HW2 5226   6.945   5.631   6.384
 1443SOL     OW 5227   0.523   2.854   4.480
 1443SOL    HW1 5228   0.536   2.869   4.382
 1443SOL    HW2 5229   0.594   2.904   4.530
 1444SOL     OW 5230   4.672   5.252   0.746
 1444SOL    HW1 5231   4.613   5.287   0.819
 1444SOL    HW2 5232   4.766   5.282   0.762
 1445SOL     OW 5233   1.477   2.833   3.078
 1445SOL    HW1 5234   1.418   2.789   3.010
 1445SOL    HW2 5235   1.543   2.766   3.112
 1446SOL     OW 5236   5.715   1.915   0.250
 1446SOL    HW1 5237   5.670   1.876   0.330
 1446SOL    HW2 5238   5.802   1.955   0.278
 1447SOL     OW 5239   5.901   6.024   4.609
 1447SOL    HW1 5240   5.861   5.946   4.659
 1447SOL    HW2 5241   5.914   6.101   4.672
 1448SOL     OW 5242   6.826   2.308   5.157
 1448SOL    HW1 5243   6.838   2.404   5.134
 1448SOL    HW2 5244   6.742   2.273   5.116
 1449SOL     OW 5245   0.951   2.584   6.856
 1449SOL    HW1 5246   0.976   2.620   6.766
 1449SOL    HW2 5247   0.866   2.532   6.849
 1450SOL     OW 5248   1.181   2.322   1.095
 1450SOL    HW1 5249   1.259   2.385   1.103
 1450SOL    HW2 5250   1.197   2.260   1.018
 1451SOL     OW 5251   0.726   6.827   2.345
 1451SOL    HW1 5252   0.690   6.920   2.338
 1451SOL    HW2 5253   0.655   6.767   2.382
 1452SOL     OW 5254   4.536   1.658   5.217
 1452SOL    HW1 5255   4.545   1.684   5.121
 1452SOL    HW2 5256   4.441   1.633   5.236
 1453SOL     OW 5257   0.056   3.778   5.943
 1453SOL    HW1 5258   0.003   3.717   6.003
 1453SOL    HW2 5259   0.068   3.734   5.854
 1454SOL     OW 5260   0.413   2.718   2.178
 1454SOL    HW1 5261   0.490   2.724   2.242
 1454SOL    HW2 5262   0.446   2.729   2.085
 1455SOL     OW 5263   1.557   0.164   1.512
 1455SOL    HW1 5264   1.485   0.097   1.528
 1455SOL    HW2 5265   1.547   0.202   1.420
 1456SOL     OW 5266   0.108   6.386   5.760
 1456SOL    HW1 5267   0.194   6.386   5.812
 1456SOL    HW2 5268   0.083   6.481   5.739
 1457SOL     OW 5269   0.540   6.756   1.569
 1457SOL    HW1 5270   0.599   6.784   1.494
 1457SOL    HW2 5271   0.444   6.766   1.542
 1458SOL     OW 5272   5.728   5.499   4.011
 1458SOL    HW1 5273   5.796   5.513   3.938
 1458SOL    HW2 5274   5.657   5.568   4.003
 1459SOL     OW 5275   3.176   6.057   5.685
 1459SOL    HW1 5276   3.081   6.081   5.706
 1459SOL    HW2 5277   3.178   5.966   5.643
 1460SOL     OW 5278   0.357   0.130   5.379
 1460SOL    HW1 5279   0.278   0.189   5.366
 1460SOL    HW2 5280   0.344   0.073   5.461
 1461SOL     OW 5281   6.333   4.254   2.813
 1461SOL    HW1 5282   6.304   4.176   2.868
 1461SOL    HW2 5283   6.410   4.300   2.858
 1462SOL     OW 5284   1.615   0.688   0.092
 1462SOL    HW1 5285   1.539   0.667   0.154
 1462SOL    HW2 5286   1.616   0.786   0.073
 1463SOL     OW 5287   6.779   5.155   6.756
 1463SOL    HW1 5288   6.829   5.158   6.669
 1463SOL    HW2 5289   6.800   5.069   6.803
 1464SOL     OW 5290   6.872   6.070   2.119
 1464SOL    HW1 5291   6.891   6.136   2.192
 1464SOL    HW2 5292   6.778   6.038   2.128
 1465SOL     OW 5293   1.407   0.497   3.600
 1465SOL    HW1 5294   1.422   0.576   3.660
 1465SOL    HW2 5295   1.330   0.444   3.633
 1466SOL     OW 5296   2.581   2.482   2.403
 1466SOL    HW1 5297   2.509   2.552   2.404
 1466SOL    HW2 5298   2.589   2.444   2.311
 1467SOL     OW 5299   1.897   1.370   2.970
 1467SOL    HW1 5300   1.957   1.431   3.022
 1467SOL    HW2 5301   1.952   1.300   2.924
 1468SOL     OW 5302   2.893   5.503   2.815
 1468SOL    HW1 5303   2.835   5.466   2.743
 1468SOL    HW2 5304   2.838   5.556   2.879
 1469SOL     OW 5305   0.737   0.737   2.048
 1469SOL    HW1 5306   0.797   0.795   2.104
 1469SOL    HW2 5307   0.657   0.789   2.020
 1470SOL     OW 5308   1.118   2.023   2.243
 1470SOL    HW1 5309   1.188   2.013   2.313
 1470SOL    HW2 5310   1.035   2.061   2.283
 1471SOL     OW 5311   0.562   0.307   0.678
 1471SOL    HW1 5312   0.596   0.222   0.637
 1471SOL    HW2 5313   0.639   0.366   0.701
 1472SOL     OW 5314   2.843   5.325   5.269
 1472SOL    HW1 5315   2.776   5.338   5.196
 1472SOL    HW2 5316   2.935   5.336   5.231
 1473SOL     OW 5317   4.255   5.321   5.075
 1473SOL    HW1 5318   4.237   5.395   5.009
 1473SOL    HW2 5319   4.173   5.263   5.083
 1474SOL     OW 5320   5.836   5.182   2.290
 1474SOL    HW1 5321   5.909   5.141   2.346
 1474SOL    HW2 5322   5.860   5.172   2.193
 1475SOL     OW 5323   5.861   0.806   1.915
 1475SOL    HW1 5324   5.813   0.839   1.996
 1475SOL    HW2 5325   5.891   0.884   1.860
 1476SOL     OW 5326   3.563   0.865   1.097
 1476SOL    HW1 5327   3.525   0.823   1.179
 1476SOL    HW2 5328   3.635   0.929   1.123
 1477SOL     OW 5329   3.062   6.593   5.852
 1477SOL    HW1 5330   3.066   6.693   5.858
 1477SOL    HW2 5331   3.152   6.558   5.826
 1478SOL     OW 5332   6.305   5.362   5.605
 1478SOL    HW1 5333   6.382   5.346   5.666
 1478SOL    HW2 5334   6.336   5.412   5.524
 1479SOL     OW 5335   2.093   2.395   0.990
 1479SOL    HW1 5336   2.068   2.457   0.917
 1479SOL    HW2 5337   2.013   2.378   1.049
 1480SOL     OW 5338   3.281   0.713   4.659
 1480SOL    HW1 5339   3.286   0.762   4.746
 1480SOL    HW2 5340   3.367   0.722   4.610
 1481SOL     OW 5341   6.609   2.953   6.901
 1481SOL    HW1 5342   6.703   2.989   6.897
 1481SOL    HW2 5343   6.611   2.862   6.944
 1482SOL     OW 5344   4.353   1.373   1.833
 1482SOL    HW1 5345   4.300   1.455   1.855
 1482SOL    HW2 5346   4.298   1.292   1.849
 1483SOL     OW 5347   4.618   1.815   6.223
 1483SOL    HW1 5348   4.604   1.754   6.301
 1483SOL    HW2 5349   4.638   1.761   6.141
 1484SOL     OW 5350   5.193   4.700   4.079
 1484SOL    HW1 5351   5.237   4.749   4.155
 1484SOL    HW2 5352   5.263   4.676   4.011
 1485SOL     OW 5353   3.611   1.110   4.152
 1485SOL    HW1 5354   3.695   1.100   4.205
 1485SOL    HW2 5355   3.567   1.196   4.176
 1486SOL     OW 5356   5.880   1.021   2.763
 1486SOL    HW1 5357   5.974   1.034   2.792
 1486SOL    HW2 5358   5.869   1.052   2.668
 1487SOL     OW 5359   0.533   2.499   6.908
 1487SOL    HW1 5360   0.604   2.448   6.860
 1487SOL    HW2 5361   0.543   2.597   6.887
 1488SOL     OW 5362   5.365   0.439   3.794
 1488SOL    HW1 5363   5.359   0.537   3.773
 1488SOL    HW2 5364   5.308   0.388   3.729
 1489SOL     OW 5365   4.082   4.740   5.971
 1489SOL    HW1 5366   4.084   4.686   5.887
 1489SOL    HW2 5367   4.040   4.686   6.044
 1490SOL     OW 5368   0.916   3.500   1.407
 1490SOL    HW1 5369   0.833   3.548   1.377
 1490SOL    HW2 5370   0.955   3.547   1.486
 1491SOL     OW 5371   6.040   4.703   2.310
 1491SOL    HW1 5372   5.987   4.626   2.275
 1491SOL    HW2 5373   6.009   4.725   2.403
 1492SOL     OW 5374   6.559   0.601   2.640
 1492SOL    HW1 5375   6.489   0.633   2.575
 1492SOL    HW2 5376   6.649   0.631   2.609
 1493SOL     OW 5377   3.453   6.751   5.913
 1493SOL    HW1 5378   3.452   6.655   5.939
 1493SOL    HW2 5379   3.389   6.802   5.971
 1494SOL     OW 5380   4.835   1.670   6.452
 1494SOL    HW1 5381   4.746   1.652   6.493
 1494SOL    HW2 5382   4.908   1.632   6.509
 1495SOL     OW 5383   0.200   3.225   5.486
 1495SOL    HW1 5384   0.224   3.133   5.454
 1495SOL    HW2 5385   0.271   3.258   5.548
 1496SOL     OW 5386   0.078   1.625   1.416
 1496SOL    HW1 5387   0.084   1.619   1.316
 1496SOL    HW2 5388   0.168   1.648   1.453
 1497SOL     OW 5389   5.549   3.422   2.659
 1497SOL    HW1 5390   5.534   3.355   2.731
 1497SOL    HW2 5391   5.481   3.495   2.668
 1498SOL     OW 5392   2.720   4.679   6.767
 1498SOL    HW1 5393   2.676   4.626   6.838
 1498SOL    HW2 5394   2.782   4.621   6.715
 1499SOL     OW 5395   0.777   2.761   5.612
 1499SOL    HW1 5396   0.851   2.827   5.599
 1499SOL    HW2 5397   0.752   2.757   5.709
 1500SOL     OW 5398   0.182   6.935   0.233
 1500SOL    HW1 5399   0.253   6.871   0.261
 1500SOL    HW2 5400   0.097   6.913   0.281
 1501SOL     OW 5401   4.960   2.391   6.618
 1501SOL    HW1 5402   4.948   2.332   6.538
 1501SOL    HW2 5403   4.892   2.368   6.687
 1502SOL     OW 5404   4.082   0.434   6.763
 1502SOL    HW1 5405   4.067   0.523   6.720
 1502SOL    HW2 5406   4.025   0.365   6.718
 1503SOL     OW 5407   1.268   3.140   1.939
 1503SOL    HW1 5408   1.296   3.069   1.875
 1503SOL    HW2 5409   1.337   3.150   2.011
 1504SOL     OW 5410   0.293   0.161   4.529
 1504SOL    HW1 5411   0.298   0.230   4.601
 1504SOL    HW2 5412   0.381   0.155   4.482
 1505SOL     OW 5413   4.806   0.383   4.717
 1505SOL    HW1 5414   4.730   0.410   4.777
 1505SOL    HW2 5415   4.890   0.377   4.771
 1506SOL     OW 5416   0.901   6.288   6.842
 1506SOL    HW1 5417   0.847   6.309   6.924
 1506SOL    HW2 5418   0.916   6.372   6.790
 1507SOL     OW 5419   0.529   1.680   5.975
 1507SOL    HW1 5420   0.616   1.632   5.971
 1507SOL    HW2 5421   0.519   1.725   6.064
 1508SOL     OW 5422   6.362   1.223   1.515
 1508SOL    HW1 5423   6.333   1.270   1.431
 1508SOL    HW2 5424   6.411   1.139   1.491
 1509SOL     OW 5425   3.971   1.895   5.393
 1509SOL    HW1 5426   3.991   1.874   5.297
 1509SOL    HW2 5427   3.931   1.815   5.437
 1510SOL     OW 5428   5.078   1.703   4.692
 1510SOL    HW1 5429   5.104   1.781   4.636
 1510SOL    HW2 5430   5.044   1.735   4.780
 1511SOL     OW 5431   4.004   3.125   3.512
 1511SOL    HW1 5432   3.933   3.196   3.512
 1511SOL    HW2 5433   3.991   3.065   3.590
 1512SOL     OW 5434   7.010   5.188   0.757
 1512SOL    HW1 5435   0.005   5.181   0.658
 1512SOL    HW2 5436   7.003   5.096   0.796
 1513SOL     OW 5437   4.043   0.416   5.301
 1513SOL    HW1 5438   4.125   0.442   5.353
 1513SOL    HW2 5439   3.963   0.458   5.343
 1514SOL     OW 5440   3.903   2.097   5.648
 1514SOL    HW1 5441   3.843   2.064   5.574
 1514SOL    HW2 5442   3.888   2.195   5.662
 1515SOL     OW 5443   5.671   2.105   2.323
 1515SOL    HW1 5444   5.585   2.055   2.316
 1515SOL    HW2 5445   5.665   2.172   2.397
 1516SOL     OW 5446   6.759   5.935   6.397
 1516SOL    HW1 5447   6.700   5.856   6.380
 1516SOL    HW2 5448   6.703   6.016   6.411
 1517SOL     OW 5449   4.487   6.398   3.106
 1517SOL    HW1 5450   4.555   6.466   3.131
 1517SOL    HW2 5451   4.533   6.313   3.080
 1518SOL     OW 5452   0.926   2.489   0.471
 1518SOL    HW1 5453   0.950   2.451   0.561
 1518SOL    HW2 5454   0.998   2.552   0.441
 1519SOL     OW 5455   6.637   4.719   1.905
 1519SOL    HW1 5456   6.607   4.788   1.840
 1519SOL    HW2 5457   6.687   4.763   1.980
 1520SOL     OW 5458   0.467   4.379   1.765
 1520SOL    HW1 5459   0.510   4.443   1.701
 1520SOL    HW2 5460   0.406   4.429   1.826
 1521SOL     OW 5461   1.758   3.922   6.213
 1521SOL    HW1 5462   1.786   3.954   6.304
 1521SOL    HW2 5463   1.808   3.972   6.143
 1522SOL     OW 5464   5.482   6.104   4.822
 1522SOL    HW1 5465   5.478   6.144   4.914
 1522SOL    HW2 5466   5.507   6.008   4.828
 1523SOL     OW 5467   4.802   5.724   0.093
 1523SOL    HW1 5468   4.765   5.792   0.156
 1523SOL    HW2 5469   4.897   5.703   0.118
 1524SOL     OW 5470   2.366   1.765   2.540
 1524SOL    HW1 5471   2.289   1.743   2.480
 1524SOL    HW2 5472   2.355   1.857   2.577
 1525SOL     OW 5473   6.781   3.446   0.436
 1525SOL    HW1 5474   6.871   3.470   0.472
 1525SOL    HW2 5475   6.714   3.448   0.510
 1526SOL     OW 5476   6.967   1.044   6.934
 1526SOL    HW1 5477   6.895   0.980   6.906
 1526SOL    HW2 5478   6.996   1.023   0.012
 1527SOL     OW 5479   4.322   1.353   4.933
 1527SOL    HW1 5480   4.395   1.387   4.873
 1527SOL    HW2 5481   4.302   1.258   4.910
 1528SOL     OW 5482   4.087   4.939   2.832
 1528SOL    HW1 5483   4.168   4.977   2.877
 1528SOL    HW2 5484   4.115   4.871   2.764
 1529SOL     OW 5485   4.617   0.241   0.326
 1529SOL    HW1 5486   4.518   0.226   0.321
 1529SOL    HW2 5487   4.649   0.228   0.420
 1530SOL     OW 5488   3.524   2.038   2.276
 1530SOL    HW1 5489   3.556   2.078   2.190
 1530SOL    HW2 5490   3.425   2.049   2.283
 1531SOL     OW 5491   4.488   6.916   5.829
 1531SOL    HW1 5492   4.402   6.880   5.863
 1531SOL    HW2 5493   4.480   7.015   5.815
 1532SOL     OW 5494   3.206   3.315   6.315
 1532SOL    HW1 5495   3.190   3.313   6.216
 1532SOL    HW2 5496   3.299   3.282   6.334
 1533SOL     OW 5497   5.992   4.656   6.589
 1533SOL    HW1 5498   6.072   4.668   6.530
 1533SOL    HW2 5499   5.914   4.705   6.550
 1534SOL     OW 5500   2.904   4.808   6.936
 1534SOL    HW1 5501   2.893   4.906   6.920
 1534SOL    HW2 5502   2.841   4.757   6.878
 1535SOL     OW 5503   5.170   6.589   4.456
 1535SOL    HW1 5504   5.084   6.619   4.415
 1535SOL    HW2 5505   5.164   6.491   4.477
 1536SOL     OW 5506   3.619   4.116   5.573
 1536SOL    HW1 5507   3.660   4.088   5.486
 1536SOL    HW2 5508   3.524   4.145   5.557
 1537SOL     OW 5509   4.556   6.222   3.722
 1537SOL    HW1 5510   4.557   6.242   3.820
 1537SOL    HW2 5511   4.476   6.167   3.700
 1538SOL     OW 5512   3.310   6.451   6.681
 1538SOL    HW1 5513   3.372   6.392   6.629
 1538SOL    HW2 5514   3.350   6.473   6.770
 1539SOL     OW 5515   4.817   4.124   1.517
 1539SOL    HW1 5516   4.725   4.101   1.549
 1539SOL    HW2 5517   4.884   4.064   1.560
 1540SOL     OW 5518   0.795   5.875   5.498
 1540SOL    HW1 5519   0.716   5.868   5.437
 1540SOL    HW2 5520   0.823   5.783   5.526
 1541SOL     OW 5521   3.220   3.119   3.840
 1541SOL    HW1 5522   3.134   3.147   3.798
 1541SOL    HW2 5523   3.258   3.042   3.789
 1542SOL     OW 5524   6.412   0.171   2.600
 1542SOL    HW1 5525   6.398   0.109   2.677
 1542SOL    HW2 5526   6.488   0.234   2.621
 1543SOL     OW 5527   3.094   5.201   5.438
 1543SOL    HW1 5528   3.022   5.238   5.496
 1543SOL    HW2 5529   3.088   5.101   5.436
 1544SOL     OW 5530   3.101   3.001   2.772
 1544SOL    HW1 5531   3.200   2.988   2.771
 1544SOL    HW2 5532   3.065   2.988   2.679
 1545SOL     OW 5533   5.324   0.586   2.999
 1545SOL    HW1 5534   5.413   0.558   3.034
 1545SOL    HW2 5535   5.252   0.540   3.051
 1546SOL     OW 5536   3.886   0.082   5.770
 1546SOL    HW1 5537   3.936   0.149   5.715
 1546SOL    HW2 5538   3.801   0.056   5.723
 1547SOL     OW 5539   1.634   3.946   2.801
 1547SOL    HW1 5540   1.615   3.870   2.738
 1547SOL    HW2 5541   1.682   3.911   2.882
 1548SOL     OW 5542   5.644   3.711   5.794
 1548SOL    HW1 5543   5.712   3.641   5.774
 1548SOL    HW2 5544   5.615   3.703   5.890
 1549SOL     OW 5545   4.529   1.315   2.178
 1549SOL    HW1 5546   4.505   1.374   2.101
 1549SOL    HW2 5547   4.484   1.347   2.261
 1550SOL     OW 5548   3.217   3.676   0.130
 1550SOL    HW1 5549   3.121   3.696   0.111
 1550SOL    HW2 5550   3.231   3.577   0.130
 1551SOL     OW 5551   2.546   3.969   6.271
 1551SOL    HW1 5552   2.522   3.889   6.216
 1551SOL    HW2 5553   2.538   4.052   6.214
 1552SOL     OW 5554   0.993   6.079   0.531
 1552SOL    HW1 5555   0.948   6.146   0.590
 1552SOL    HW2 5556   0.928   6.047   0.462
 1553SOL     OW 5557   0.425   2.003   5.866
 1553SOL    HW1 5558   0.329   2.003   5.838
 1553SOL    HW2 5559   0.430   1.989   5.965
 1554SOL     OW 5560   4.073   2.201   2.838
 1554SOL    HW1 5561   4.129   2.274   2.799
 1554SOL    HW2 5562   4.006   2.171   2.770
 1555SOL     OW 5563   4.774   2.359   6.801
 1555SOL    HW1 5564   4.678   2.337   6.783
 1555SOL    HW2 5565   4.797   2.337   6.896
 1556SOL     OW 5566   3.555   1.337   0.236
 1556SOL    HW1 5567   3.562   1.284   0.151
 1556SOL    HW2 5568   3.644   1.379   0.256
 1557SOL     OW 5569   2.683   1.711   5.901
 1557SOL    HW1 5570   2.639   1.749   5.820
 1557SOL    HW2 5571   2.615   1.699   5.974
 1558SOL     OW 5572   5.403   0.835   4.789
 1558SOL    HW1 5573   5.392   0.741   4.822
 1558SOL    HW2 5574   5.325   0.890   4.819
 1559SOL     OW 5575   0.786   2.508   0.177
 1559SOL    HW1 5576   0.821   2.523   0.270
 1559SOL    HW2 5577   0.688   2.525   0.175
 1560SOL     OW 5578   0.405   0.847   6.020
 1560SOL    HW1 5579   0.485   0.788   6.010
 1560SOL    HW2 5580   0.322   0.795   6.001
 1561SOL     OW 5581   6.384   6.578   4.212
 1561SOL    HW1 5582   6.402   6.525   4.295
 1561SOL    HW2 5583   6.470   6.604   4.169
 1562SOL     OW 5584   4.000   5.769   2.868
 1562SOL    HW1 5585   3.922   5.763   2.930
 1562SOL    HW2 5586   4.072   5.825   2.910
 1563SOL     OW 5587   1.931   0.290   5.569
 1563SOL    HW1 5588   1.989   0.308   5.648
 1563SOL    HW2 5589   1.835   0.289   5.597
 1564SOL     OW 5590   1.589   2.548   3.467
 1564SOL    HW1 5591   1.674   2.546   3.520
 1564SOL    HW2 5592   1.576   2.460   3.422
 1565SOL     OW 5593   4.245   4.770   4.600
 1565SOL    HW1 5594   4.335   4.726   4.607
 1565SOL    HW2 5595   4.220   4.809   4.689
 1566SOL     OW 5596   5.988   4.693   3.052
 1566SOL    HW1 5597   5.988   4.609   2.998
 1566SOL    HW2 5598   5.899   4.738   3.044
 1567SOL     OW 5599   6.101   6.007   0.520
 1567SOL    HW1 5600   6.123   6.016   0.423
 1567SOL    HW2 5601   6.042   6.083   0.548
 1568SOL     OW 5602   1.760   6.170   0.765
 1568SOL    HW1 5603   1.768   6.145   0.669
 1568SOL    HW2 5604   1.822   6.114   0.820
 1569SOL     OW 5605   4.017   6.290   3.422
 1569SOL    HW1 5606   4.116   6.304   3.427
 1569SOL    HW2 5607   3.996   6.226   3.349
 1570SOL     OW 5608   2.003   0.418   0.503
 1570SOL    HW1 5609   2.002   0.323   0.534
 1570SOL    HW2 5610   2.047   0.475   0.573
 1571SOL     OW 5611   5.405   2.161   1.426
 1571SOL    HW1 5612   5.359   2.159   1.515
 1571SOL    HW2 5613   5.500   2.133   1.437
 1572SOL     OW 5614   0.520   6.708   0.946
 1572SOL    HW1 5615   0.607   6.728   0.991
 1572SOL    HW2 5616   0.458   6.786   0.958
 1573SOL     OW 5617   5.263   3.487   1.562
 1573SOL    HW1 5618   5.164   3.493   1.566
 1573SOL    HW2 5619   5.289   3.397   1.527
 1574SOL     OW 5620   6.684   0.939   1.694
 1574SOL    HW1 5621   6.687   0.940   1.794
 1574SOL    HW2 5622   6.769   0.978   1.658
 1575SOL     OW 5623   4.345   1.169   0.758
 1575SOL    HW1 5624   4.323   1.133   0.668
 1575SOL    HW2 5625   4.404   1.103   0.806
 1576SOL     OW 5626   1.463   6.878   3.550
 1576SOL    HW1 5627   1.477   6.795   3.496
 1576SOL    HW2 5628   1.515   6.953   3.510
 1577SOL     OW 5629   2.889   1.378   4.841
 1577SOL    HW1 5630   2.838   1.418   4.765
 1577SOL    HW2 5631   2.842   1.397   4.927
 1578SOL     OW 5632   6.529   2.819   5.631
 1578SOL    HW1 5633   6.625   2.819   5.659
 1578SOL    HW2 5634   6.521   2.860   5.540
 1579SOL     OW 5635   0.133   1.332   2.284
 1579SOL    HW1 5636   0.188   1.389   2.344
 1579SOL    HW2 5637   0.156   1.236   2.299
 1580SOL     OW 5638   2.994   3.918   4.915
 1580SOL    HW1 5639   3.040   3.992   4.964
 1580SOL    HW2 5640   3.005   3.931   4.817
 1581SOL     OW 5641   0.524   3.743   4.942
 1581SOL    HW1 5642   0.427   3.763   4.930
 1581SOL    HW2 5643   0.564   3.809   5.005
 1582SOL     OW 5644   1.163   6.819   4.587
 1582SOL    HW1 5645   1.232   6.775   4.529
 1582SOL    HW2 5646   1.116   6.891   4.534
 1583SOL     OW 5647   0.984   4.706   3.454
 1583SOL    HW1 5648   1.020   4.757   3.376
 1583SOL    HW2 5649   0.925   4.632   3.420
 1584SOL     OW 5650   1.212   6.898   5.355
 1584SOL    HW1 5651   1.278   6.926   5.425
 1584SOL    HW2 5652   1.163   6.817   5.386
 1585SOL     OW 5653   6.069   1.993   3.541
 1585SOL    HW1 5654   6.164   2.023   3.537
 1585SOL    HW2 5655   6.048   1.940   3.459
 1586SOL     OW 5656   3.726   4.989   1.828
 1586SOL    HW1 5657   3.683   4.906   1.864
 1586SOL    HW2 5658   3.656   5.058   1.812
 1587SOL     OW 5659   2.932   6.069   6.349
 1587SOL    HW1 5660   3.001   6.073   6.422
 1587SOL    HW2 5661   2.846   6.036   6.386
 1588SOL     OW 5662   4.678   1.585   3.087
 1588SOL    HW1 5663   4.739   1.519   3.130
 1588SOL    HW2 5664   4.728   1.668   3.065
 1589SOL     OW 5665   5.719   4.316   1.414
 1589SOL    HW1 5666   5.735   4.219   1.427
 1589SOL    HW2 5667   5.723   4.338   1.316
 1590SOL     OW 5668   2.972   5.773   6.733
 1590SOL    HW1 5669   3.003   5.850   6.788
 1590SOL    HW2 5670   2.874   5.759   6.747
 1591SOL     OW 5671   6.887   5.094   2.628
 1591SOL    HW1 5672   6.826   5.015   2.628
 1591SOL    HW2 5673   6.839   5.173   2.590
 1592SOL     OW 5674   2.283   4.380   0.585
 1592SOL    HW1 5675   2.328   4.460   0.625
 1592SOL    HW2 5676   2.295   4.301   0.645
 1593SOL     OW 5677   1.062   6.593   4.337
 1593SOL    HW1 5678   1.043   6.646   4.254
 1593SOL    HW2 5679   1.047   6.496   4.318
 1594SOL     OW 5680   6.980   6.304   2.607
 1594SOL    HW1 5681   6.999   6.220   2.659
 1594SOL    HW2 5682   6.925   6.366   2.662
 1595SOL     OW 5683   1.202   5.030   6.757
 1595SOL    HW1 5684   1.209   5.127   6.782
 1595SOL    HW2 5685   1.232   4.974   6.834
 1596SOL     OW 5686   0.331   2.656   4.201
 1596SOL    HW1 5687   0.364   2.596   4.274
 1596SOL    HW2 5688   0.396   2.730   4.187
 1597SOL     OW 5689   1.792   6.500   6.901
 1597SOL    HW1 5690   1.776   6.597   6.889
 1597SOL    HW2 5691   1.705   6.450   6.897
 1598SOL     OW 5692   1.108   3.439   6.641
 1598SOL    HW1 5693   1.202   3.422   6.670
 1598SOL    HW2 5694   1.106   3.519   6.580
 1599SOL     OW 5695   4.256   4.508   5.549
 1599SOL    HW1 5696   4.294   4.478   5.637
 1599SOL    HW2 5697   4.327   4.506   5.479
 1600SOL     OW 5698   5.298   1.593   4.970
 1600SOL    HW1 5699   5.262   1.584   4.877
 1600SOL    HW2 5700   5.385   1.642   4.967
 1601SOL     OW 5701   0.020   4.994   4.844
 1601SOL    HW1 5702   0.057   5.027   4.757
 1601SOL    HW2 5703   0.076   4.919   4.878
 1602SOL     OW 5704   2.386   5.237   3.841
 1602SOL    HW1 5705   2.330   5.321   3.842
 1602SOL    HW2 5706   2.451   5.240   3.916
 1603SOL     OW 5707   6.546   6.286   2.865
 1603SOL    HW1 5708   6.543   6.373   2.815
 1603SOL    HW2 5709   6.461   6.235   2.850
 1604SOL     OW 5710   6.370   4.619   0.216
 1604SOL    HW1 5711   6.324   4.705   0.191
 1604SOL    HW2 5712   6.387   4.617   0.314
 1605SOL     OW 5713   6.528   6.390   1.999
 1605SOL    HW1 5714   6.612   6.431   1.964
 1605SOL    HW2 5715   6.548   6.337   2.082
 1606SOL     OW 5716   3.396   0.536   5.027
 1606SOL    HW1 5717   3.485   0.558   4.985
 1606SOL    HW2 5718   3.340   0.618   5.031
 1607SOL     OW 5719   3.899   2.234   0.587
 1607SOL    HW1 5720   3.883   2.331   0.569
 1607SOL    HW2 5721   3.822   2.197   0.640
 1608SOL     OW 5722   1.059   6.977   4.384
 1608SOL    HW1 5723   1.084   6.983   4.287
 1608SOL    HW2 5724   0.964   7.004   4.396
 1609SOL     OW 5725   4.563   0.425   0.743
 1609SOL    HW1 5726   4.604   0.441   0.654
 1609SOL    HW2 5727   4.495   0.351   0.735
 1610SOL     OW 5728   5.315   4.454   6.338
 1610SOL    HW1 5729   5.215   4.461   6.343
 1610SOL    HW2 5730   5.341   4.358   6.338
 1611SOL     OW 5731   2.784   3.721   1.369
 1611SOL    HW1 5732   2.813   3.792   1.434
 1611SOL    HW2 5733   2.695   3.685   1.396
 1612SOL     OW 5734   2.780   1.091   4.896
 1612SOL    HW1 5735   2.782   1.070   4.798
 1612SOL    HW2 5736   2.765   1.189   4.909
 1613SOL     OW 5737   1.816   5.337   1.500
 1613SOL    HW1 5738   1.773   5.270   1.559
 1613SOL    HW2 5739   1.765   5.423   1.502
 1614SOL     OW 5740   6.510   3.431   0.283
 1614SOL    HW1 5741   6.599   3.447   0.326
 1614SOL    HW2 5742   6.457   3.515   0.283
 1615SOL     OW 5743   6.468   5.173   1.211
 1615SOL    HW1 5744   6.508   5.198   1.122
 1615SOL    HW2 5745   6.378   5.214   1.219
 1616SOL     OW 5746   3.527   2.031   4.663
 1616SOL    HW1 5747   3.573   1.988   4.741
 1616SOL    HW2 5748   3.447   2.081   4.695
 1617SOL     OW 5749   5.759   0.518   2.212
 1617SOL    HW1 5750   5.836   0.528   2.275
 1617SOL    HW2 5751   5.723   0.425   2.217
 1618SOL     OW 5752   1.447   4.095   1.780
 1618SOL    HW1 5753   1.456   4.008   1.732
 1618SOL    HW2 5754   1.382   4.085   1.855
 1619SOL     OW 5755   0.854   2.525   2.938
 1619SOL    HW1 5756   0.862   2.590   3.014
 1619SOL    HW2 5757   0.911   2.444   2.958
 1620SOL     OW 5758   2.604   5.359   1.403
 1620SOL    HW1 5759   2.634   5.273   1.444
 1620SOL    HW2 5760   2.671   5.389   1.335
 1621SOL     OW 5761   0.454   1.302   0.462
 1621SOL    HW1 5762   0.527   1.312   0.395
 1621SOL    HW2 5763   0.489   1.321   0.553
 1622SOL     OW 5764   0.378   2.370   4.601
 1622SOL    HW1 5765   0.310   2.351   4.672
 1622SOL    HW2 5766   0.343   2.339   4.513
 1623SOL     OW 5767   2.423   3.456   5.309
 1623SOL    HW1 5768   2.324   3.456   5.301
 1623SOL    HW2 5769   2.459   3.546   5.285
 1624SOL     OW 5770   2.616   1.167   5.389
 1624SOL    HW1 5771   2.626   1.231   5.465
 1624SOL    HW2 5772   2.706   1.139   5.358
 1625SOL     OW 5773   1.325   5.545   1.632
 1625SOL    HW1 5774   1.414   5.532   1.676
 1625SOL    HW2 5775   1.263   5.592   1.695
 1626SOL     OW 5776   3.417   2.524   6.095
 1626SOL    HW1 5777   3.385   2.612   6.130
 1626SOL    HW2 5778   3.369   2.502   6.010
 1627SOL     OW 5779   6.510   2.732   3.965
 1627SOL    HW1 5780   6.526   2.674   3.885
 1627SOL    HW2 5781   6.590   2.791   3.980
 1628SOL     OW 5782   4.451   4.479   6.947
 1628SOL    HW1 5783   4.447   4.383   6.974
 1628SOL    HW2 5784   4.472   4.536   0.012
 1629SOL     OW 5785   2.702   1.137   3.886
 1629SOL    HW1 5786   2.768   1.197   3.841
 1629SOL    HW2 5787   2.706   1.046   3.845
 1630SOL     OW 5788   1.533   6.213   5.949
 1630SOL    HW1 5789   1.466   6.194   6.021
 1630SOL    HW2 5790   1.491   6.270   5.878
 1631SOL     OW 5791   0.088   1.893   6.202
 1631SOL    HW1 5792   0.032   1.908   6.120
 1631SOL    HW2 5793   0.175   1.852   6.176
 1632SOL     OW 5794   0.219   1.896   0.053
 1632SOL    HW1 5795   0.314   1.895   0.084
 1632SOL    HW2 5796   0.173   1.812   0.084
 1633SOL     OW 5797   5.009   2.828   4.067
 1633SOL    HW1 5798   4.987   2.845   4.163
 1633SOL    HW2 5799   4.926   2.808   4.016
 1634SOL     OW 5800   3.529   4.993   6.777
 1634SOL    HW1 5801   3.617   4.994   6.826
 1634SOL    HW2 5802   3.467   5.059   6.819
 1635SOL     OW 5803   6.978   5.706   5.525
 1635SOL    HW1 5804   7.006   5.666   5.438
 1635SOL    HW2 5805   6.880   5.690   5.540
 1636SOL     OW 5806   2.631   4.249   1.406
 1636SOL    HW1 5807   2.721   4.206   1.409
 1636SOL    HW2 5808   2.623   4.314   1.482
 1637SOL     OW 5809   0.426   0.141   3.219
 1637SOL    HW1 5810   0.346   0.130   3.160
 1637SOL    HW2 5811   0.486   0.211   3.181
 1638SOL     OW 5812   0.335   4.094   4.053
 1638SOL    HW1 5813   0.395   4.034   4.106
 1638SOL    HW2 5814   0.262   4.128   4.113
 1639SOL     OW 5815   4.221   0.158   3.029
 1639SOL    HW1 5816   4.200   0.062   3.010
 1639SOL    HW2 5817   4.279   0.164   3.111
 1640SOL     OW 5818   5.803   1.576   0.838
 1640SOL    HW1 5819   5.785   1.480   0.818
 1640SOL    HW2 5820   5.803   1.591   0.937
 1641SOL     OW 5821   5.351   2.820   4.201
 1641SOL    HW1 5822   5.321   2.728   4.228
 1641SOL    HW2 5823   5.296   2.888   4.250
 1642SOL     OW 5824   6.197   3.749   6.374
 1642SOL    HW1 5825   6.224   3.653   6.365
 1642SOL    HW2 5826   6.275   3.803   6.406
 1643SOL     OW 5827   2.928   4.875   4.080
 1643SOL    HW1 5828   2.872   4.872   4.163
 1643SOL    HW2 5829   2.899   4.801   4.018
 1644SOL     OW 5830   0.625   3.003   1.372
 1644SOL    HW1 5831   0.627   3.103   1.369
 1644SOL    HW2 5832   0.706   2.967   1.327
 1645SOL     OW 5833   2.608   6.135   5.757
 1645SOL    HW1 5834   2.533   6.170   5.700
 1645SOL    HW2 5835   2.628   6.201   5.829
 1646SOL     OW 5836   2.571   5.833   0.817
 1646SOL    HW1 5837   2.530   5.777   0.745
 1646SOL    HW2 5838   2.519   5.917   0.829
 1647SOL     OW 5839   5.936   2.409   4.721
 1647SOL    HW1 5840   5.968   2.475   4.788
 1647SOL    HW2 5841   5.913   2.323   4.767
 1648SOL     OW 5842   5.935   6.246   0.560
 1648SOL    HW1 5843   5.837   6.259   0.579
 1648SOL    HW2 5844   5.985   6.329   0.583
 1649SOL     OW 5845   3.924   0.032   4.547
 1649SOL    HW1 5846   3.943   0.039   4.645
 1649SOL    HW2 5847   4.011   0.029   4.497
 1650SOL     OW 5848   1.829   6.613   5.393
 1650SOL    HW1 5849   1.924   6.585   5.405
 1650SOL    HW2 5850   1.776   6.536   5.357
 1651SOL     OW 5851   0.558   1.384   1.756
 1651SOL    HW1 5852   0.460   1.363   1.766
 1651SOL    HW2 5853   0.570   1.465   1.698
 1652SOL     OW 5854   1.546   3.581   1.784
 1652SOL    HW1 5855   1.507   3.530   1.707
 1652SOL    HW2 5856   1.485   3.575   1.863
 1653SOL     OW 5857   0.588   6.960   1.321
 1653SOL    HW1 5858   0.675   6.950   1.369
 1653SOL    HW2 5859   0.605   6.969   1.223
 1654SOL     OW 5860   6.572   3.261   2.233
 1654SOL    HW1 5861   6.614   3.327   2.171
 1654SOL    HW2 5862   6.602   3.169   2.210
 1655SOL     OW 5863   6.044   2.567   4.922
 1655SOL    HW1 5864   6.047   2.518   5.009
 1655SOL    HW2 5865   6.128   2.550   4.870
 1656SOL     OW 5866   1.849   4.627   2.594
 1656SOL    HW1 5867   1.882   4.719   2.619
 1656SOL    HW2 5868   1.912   4.585   2.529
 1657SOL     OW 5869   0.014   0.971   4.445
 1657SOL    HW1 5870   0.018   0.877   4.411
 1657SOL    HW2 5871   0.002   1.034   4.368
 1658SOL     OW 5872   0.999   0.020   1.855
 1658SOL    HW1 5873   1.009   6.946   1.900
 1658SOL    HW2 5874   1.079   0.077   1.876
 1659SOL     OW 5875   3.793   0.966   5.495
 1659SOL    HW1 5876   3.869   0.913   5.457
 1659SOL    HW2 5877   3.739   1.005   5.420
 1660SOL     OW 5878   0.914   5.183   3.942
 1660SOL    HW1 5879   0.939   5.104   3.886
 1660SOL    HW2 5880   0.924   5.267   3.889
 1661SOL     OW 5881   3.370   1.421   2.198
 1661SOL    HW1 5882   3.298   1.352   2.205
 1661SOL    HW2 5883   3.341   1.503   2.246
 1662SOL     OW 5884   6.615   1.075   4.300
 1662SOL    HW1 5885   6.580   0.983   4.316
 1662SOL    HW2 5886   6.658   1.080   4.210
 1663SOL     OW 5887   3.017   0.839   3.011
 1663SOL    HW1 5888   2.926   0.805   3.035
 1663SOL    HW2 5889   3.063   0.772   2.953
 1664SOL     OW 5890   2.618   6.981   3.915
 1664SOL    HW1 5891   2.661   0.051   3.947
 1664SOL    HW2 5892   2.677   6.904   3.940
 1665SOL     OW 5893   0.522   1.023   2.860
 1665SOL    HW1 5894   0.592   0.991   2.796
 1665SOL    HW2 5895   0.492   0.947   2.918
 1666SOL     OW 5896   5.478   3.488   0.654
 1666SOL    HW1 5897   5.453   3.396   0.682
 1666SOL    HW2 5898   5.561   3.485   0.598
 1667SOL     OW 5899   6.528   6.828   1.280
 1667SOL    HW1 5900   6.582   6.872   1.352
 1667SOL    HW2 5901   6.467   6.760   1.320
 1668SOL     OW 5902   5.216   5.788   5.492
 1668SOL    HW1 5903   5.300   5.785   5.546
 1668SOL    HW2 5904   5.140   5.815   5.551
 1669SOL     OW 5905   6.576   6.178   6.405
 1669SOL    HW1 5906   6.651   6.243   6.419
 1669SOL    HW2 5907   6.528   6.163   6.492
 1670SOL     OW 5908   6.880   4.677   6.347
 1670SOL    HW1 5909   6.794   4.729   6.339
 1670SOL    HW2 5910   6.953   4.727   6.302
 1671SOL     OW 5911   4.140   3.317   0.874
 1671SOL    HW1 5912   4.217   3.276   0.923
 1671SOL    HW2 5913   4.151   3.417   0.872
 1672SOL     OW 5914   1.755   3.696   1.685
 1672SOL    HW1 5915   1.829   3.632   1.664
 1672SOL    HW2 5916   1.682   3.648   1.734
 1673SOL     OW 5917   6.752   1.871   4.373
 1673SOL    HW1 5918   6.695   1.836   4.298
 1673SOL    HW2 5919   6.695   1.925   4.435
 1674SOL     OW 5920   0.803   3.629   2.721
 1674SOL    HW1 5921   0.863   3.672   2.653
 1674SOL    HW2 5922   0.805   3.530   2.708
 1675SOL     OW 5923   4.042   0.345   5.912
 1675SOL    HW1 5924   4.089   0.278   5.854
 1675SOL    HW2 5925   3.948   0.358   5.879
 1676SOL     OW 5926   2.513   1.396   2.238
 1676SOL    HW1 5927   2.483   1.305   2.266
 1676SOL    HW2 5928   2.584   1.388   2.167
 1677SOL     OW 5929   4.215   3.579   5.475
 1677SOL    HW1 5930   4.250   3.538   5.391
 1677SOL    HW2 5931   4.142   3.522   5.512
 1678SOL     OW 5932   4.950   4.565   5.024
 1678SOL    HW1 5933   4.918   4.484   5.073
 1678SOL    HW2 5934   4.995   4.537   4.940
 1679SOL     OW 5935   2.166   3.205   5.080
 1679SOL    HW1 5936   2.235   3.141   5.047
 1679SOL    HW2 5937   2.092   3.154   5.124
 1680SOL     OW 5938   0.634   2.398   4.353
 1680SOL    HW1 5939   0.574   2.407   4.432
 1680SOL    HW2 5940   0.703   2.469   4.356
 1681SOL     OW 5941   6.281   6.110   0.746
 1681SOL    HW1 5942   6.364   6.057   0.735
 1681SOL    HW2 5943   6.215   6.084   0.675
 1682SOL     OW 5944   0.220   1.992   4.933
 1682SOL    HW1 5945   0.225   1.914   4.995
 1682SOL    HW2 5946   0.306   1.999   4.881
 1683SOL     OW 5947   3.867   5.786   0.948
 1683SOL    HW1 5948   3.822   5.875   0.954
 1683SOL    HW2 5949   3.807   5.716   0.987
 1684SOL     OW 5950   1.130   6.173   2.880
 1684SOL    HW1 5951   1.114   6.154   2.977
 1684SOL    HW2 5952   1.195   6.107   2.843
 1685SOL     OW 5953   2.857   1.027   6.295
 1685SOL    HW1 5954   2.861   1.124   6.269
 1685SOL    HW2 5955   2.762   1.002   6.314
 1686SOL     OW 5956   2.313   4.842   5.123
 1686SOL    HW1 5957   2.388   4.856   5.187
 1686SOL    HW2 5958   2.249   4.775   5.160
 1687SOL     OW 5959   2.118   2.913   1.526
 1687SOL    HW1 5960   2.074   2.836   1.480
 1687SOL    HW2 5961   2.074   2.998   1.497
 1688SOL     OW 5962   1.993   2.534   3.801
 1688SOL    HW1 5963   1.970   2.528   3.898
 1688SOL    HW2 5964   2.014   2.629   3.778
 1689SOL     OW 5965   5.064   0.746   2.141
 1689SOL    HW1 5966   5.151   0.698   2.132
 1689SOL    HW2 5967   4.993   0.696   2.092
 1690SOL     OW 5968   1.535   3.165   3.443
 1690SOL    HW1 5969   1.568   3.191   3.534
 1690SOL    HW2 5970   1.473   3.235   3.409
 1691SOL     OW 5971   5.378   4.280   3.234
 1691SOL    HW1 5972   5.326   4.256   3.316
 1691SOL    HW2 5973   5.444   4.352   3.257
 1692SOL     OW 5974   5.851   0.517   1.812
 1692SOL    HW1 5975   5.941   0.513   1.770
 1692SOL    HW2 5976   5.825   0.613   1.826
 1693SOL     OW 5977   0.476   1.844   2.480
 1693SOL    HW1 5978   0.397   1.864   2.422
 1693SOL    HW2 5979   0.459   1.761   2.532
 1694SOL     OW 5980   5.185   0.474   3.530
 1694SOL    HW1 5981   5.189   0.374   3.534
 1694SOL    HW2 5982   5.245   0.506   3.456
 1695SOL     OW 5983   2.779   1.461   5.866
 1695SOL    HW1 5984   2.826   1.474   5.779
 1695SOL    HW2 5985   2.734   1.547   5.893
 1696SOL     OW 5986   4.586   4.801   0.749
 1696SOL    HW1 5987   4.611   4.840   0.838
 1696SOL    HW2 5988   4.559   4.706   0.762
 1697SOL     OW 5989   5.554   5.839   1.974
 1697SOL    HW1 5990   5.643   5.867   1.936
 1697SOL    HW2 5991   5.490   5.916   1.968
 1698SOL     OW 5992   5.461   0.983   0.681
 1698SOL    HW1 5993   5.394   1.056   0.697
 1698SOL    HW2 5994   5.551   1.016   0.708
 1699SOL     OW 5995   2.855   1.573   0.880
 1699SOL    HW1 5996   2.955   1.563   0.885
 1699SOL    HW2 5997   2.825   1.555   0.786
 1700SOL     OW 5998   6.398   2.618   3.204
 1700SOL    HW1 5999   6.382   2.678   3.125
 1700SOL    HW2 6000   6.343   2.648   3.281
 1701SOL     OW 6001   5.727   3.689   6.087
 1701SOL    HW1 6002   5.674   3.604   6.076
 1701SOL    HW2 6003   5.735   3.711   6.184
 1702SOL     OW 6004   6.745   2.737   0.823
 1702SOL    HW1 6005   6.799   2.654   0.805
 1702SOL    HW2 6006   6.650   2.720   0.797
 1703SOL     OW 6007   4.054   3.465   2.685
 1703SOL    HW1 6008   4.097   3.375   2.691
 1703SOL    HW2 6009   3.982   3.473   2.754
 1704SOL     OW 6010   0.666   1.203   1.941
 1704SOL    HW1 6011   0.597   1.199   2.014
 1704SOL    HW2 6012   0.640   1.275   1.876
 1705SOL     OW 6013   3.884   2.748   1.400
 1705SOL    HW1 6014   3.947   2.744   1.323
 1705SOL    HW2 6015   3.809   2.683   1.385
 1706SOL     OW 6016   4.812   0.559   1.502
 1706SOL    HW1 6017   4.875   0.495   1.547
 1706SOL    HW2 6018   4.747   0.507   1.446
 1707SOL     OW 6019   4.736   2.082   2.420
 1707SOL    HW1 6020   4.713   2.171   2.381
 1707SOL    HW2 6021   4.667   2.015   2.394
 1708SOL     OW 6022   4.823   5.077   2.408
 1708SOL    HW1 6023   4.923   5.072   2.410
 1708SOL    HW2 6024   4.787   5.004   2.350
 1709SOL     OW 6025   2.397   5.928   1.557
 1709SOL    HW1 6026   2.477   5.965   1.605
 1709SOL    HW2 6027   2.427   5.886   1.471
 1710SOL     OW 6028   5.646   4.629   3.522
 1710SOL    HW1 6029   5.685   4.697   3.584
 1710SOL    HW2 6030   5.546   4.636   3.524
 1711SOL     OW 6031   1.335   4.410   4.758
 1711SOL    HW1 6032   1.372   4.393   4.666
 1711SOL    HW2 6033   1.263   4.479   4.752
 1712SOL     OW 6034   0.553   2.921   6.482
 1712SOL    HW1 6035   0.513   2.898   6.393
 1712SOL    HW2 6036   0.485   2.972   6.536
 1713SOL     OW 6037   3.815   2.268   1.435
 1713SOL    HW1 6038   3.860   2.198   1.489
 1713SOL    HW2 6039   3.884   2.321   1.386
 1714SOL     OW 6040   4.682   1.683   5.994
 1714SOL    HW1 6041   4.623   1.603   6.008
 1714SOL    HW2 6042   4.673   1.715   5.899
 1715SOL     OW 6043   6.850   3.711   2.506
 1715SOL    HW1 6044   6.809   3.710   2.414
 1715SOL    HW2 6045   6.932   3.767   2.506
 1716SOL     OW 6046   4.632   0.271   2.640
 1716SOL    HW1 6047   4.535   0.251   2.654
 1716SOL    HW2 6048   4.687   0.201   2.688
 1717SOL     OW 6049   2.122   6.648   6.114
 1717SOL    HW1 6050   2.122   6.574   6.046
 1717SOL    HW2 6051   2.147   6.611   6.203
 1718SOL     OW 6052   2.307   2.374   2.271
 1718SOL    HW1 6053   2.359   2.364   2.185
 1718SOL    HW2 6054   2.368   2.355   2.348
 1719SOL     OW 6055   2.539   4.312   1.138
 1719SOL    HW1 6056   2.584   4.270   1.217
 1719SOL    HW2 6057   2.441   4.314   1.153
 1720SOL     OW 6058   6.953   1.748   0.684
 1720SOL    HW1 6059   0.004   1.822   0.699
 1720SOL    HW2 6060   6.874   1.761   0.744
 1721SOL     OW 6061   1.021   6.797   2.950
 1721SOL    HW1 6062   0.995   6.833   3.039
 1721SOL    HW2 6063   0.974   6.710   2.934
 1722SOL     OW 6064   4.819   2.257   3.944
 1722SOL    HW1 6065   4.857   2.257   3.851
 1722SOL    HW2 6066   4.853   2.337   3.994
 1723SOL     OW 6067   6.948   2.560   2.285
 1723SOL    HW1 6068   6.910   2.486   2.341
 1723SOL    HW2 6069   0.027   2.579   2.314
 1724SOL     OW 6070   6.232   1.993   1.083
 1724SOL    HW1 6071   6.147   2.007   1.132
 1724SOL    HW2 6072   6.226   1.910   1.028
 1725SOL     OW 6073   2.164   4.553   6.843
 1725SOL    HW1 6074   2.163   4.643   6.800
 1725SOL    HW2 6075   2.222   4.556   6.924
 1726SOL     OW 6076   5.831   4.345   5.285
 1726SOL    HW1 6077   5.905   4.279   5.299
 1726SOL    HW2 6078   5.744   4.304   5.312
 1727SOL     OW 6079   3.658   3.097   4.593
 1727SOL    HW1 6080   3.674   3.174   4.531
 1727SOL    HW2 6081   3.591   3.123   4.662
 1728SOL     OW 6082   5.814   5.346   4.587
 1728SOL    HW1 6083   5.757   5.380   4.512
 1728SOL    HW2 6084   5.886   5.413   4.606
 1729SOL     OW 6085   2.063   3.820   3.585
 1729SOL    HW1 6086   2.055   3.727   3.549
 1729SOL    HW2 6087   2.077   3.883   3.509
 1730SOL     OW 6088   6.418   0.156   5.237
 1730SOL    HW1 6089   6.388   0.117   5.324
 1730SOL    HW2 6090   6.365   0.238   5.217
 1731SOL     OW 6091   0.227   4.968   2.047
 1731SOL    HW1 6092   0.299   5.027   2.084
 1731SOL    HW2 6093   0.193   5.007   1.962
 1732SOL     OW 6094   2.658   4.391   5.481
 1732SOL    HW1 6095   2.558   4.394   5.491
 1732SOL    HW2 6096   2.700   4.449   5.551
 1733SOL     OW 6097   1.047   3.760   3.004
 1733SOL    HW1 6098   0.999   3.792   2.922
 1733SOL    HW2 6099   1.121   3.823   3.026
 1734SOL     OW 6100   4.885   3.185   1.833
 1734SOL    HW1 6101   4.968   3.212   1.882
 1734SOL    HW2 6102   4.828   3.128   1.893
 1735SOL     OW 6103   5.872   6.067   1.312
 1735SOL    HW1 6104   5.824   6.085   1.398
 1735SOL    HW2 6105   5.806   6.045   1.240
 1736SOL     OW 6106   4.190   2.642   1.245
 1736SOL    HW1 6107   4.170   2.712   1.176
 1736SOL    HW2 6108   4.287   2.647   1.269
 1737SOL     OW 6109   2.765   0.854   4.226
 1737SOL    HW1 6110   2.797   0.949   4.230
 1737SOL    HW2 6111   2.804   0.810   4.145
 1738SOL     OW 6112   1.975   1.489   3.877
 1738SOL    HW1 6113   2.062   1.461   3.918
 1738SOL    HW2 6114   1.930   1.556   3.937
 1739SOL     OW 6115   5.519   1.938   5.744
 1739SOL    HW1 6116   5.488   2.033   5.743
 1739SOL    HW2 6117   5.613   1.933   5.709
 1740SOL     OW 6118   0.568   1.290   6.335
 1740SOL    HW1 6119   0.650   1.261   6.286
 1740SOL    HW2 6120   0.501   1.325   6.270
 1741SOL     OW 6121   2.054   0.498   4.014
 1741SOL    HW1 6122   2.078   0.585   3.972
 1741SOL    HW2 6123   2.078   0.424   3.951
 1742SOL     OW 6124   4.611   6.195   6.203
 1742SOL    HW1 6125   4.611   6.105   6.161
 1742SOL    HW2 6126   4.584   6.263   6.135
 1743SOL     OW 6127   2.067   2.141   2.514
 1743SOL    HW1 6128   2.041   2.107   2.424
 1743SOL    HW2 6129   2.133   2.078   2.556
 1744SOL     OW 6130   0.637   0.362   1.573
 1744SOL    HW1 6131   0.537   0.360   1.571
 1744SOL    HW2 6132   0.670   0.301   1.646
 1745SOL     OW 6133   6.242   0.706   3.397
 1745SOL    HW1 6134   6.204   0.798   3.385
 1745SOL    HW2 6135   6.169   0.639   3.394
 1746SOL     OW 6136   2.403   4.860   5.555
 1746SOL    HW1 6137   2.484   4.903   5.595
 1746SOL    HW2 6138   2.397   4.886   5.458
 1747SOL     OW 6139   5.866   1.263   3.181
 1747SOL    HW1 6140   5.781   1.313   3.196
 1747SOL    HW2 6141   5.845   1.173   3.141
 1748SOL     OW 6142   0.388   1.170   3.799
 1748SOL    HW1 6143   0.387   1.164   3.699
 1748SOL    HW2 6144   0.427   1.086   3.838
 1749SOL     OW 6145   2.584   6.873   5.382
 1749SOL    HW1 6146   2.678   6.902   5.366
 1749SOL    HW2 6147   2.584   6.777   5.411
 1750SOL     OW 6148   6.449   0.117   3.367
 1750SOL    HW1 6149   6.375   0.179   3.339
 1750SOL    HW2 6150   6.523   0.121   3.299
 1751SOL     OW 6151   4.204   5.427   4.351
 1751SOL    HW1 6152   4.192   5.424   4.450
 1751SOL    HW2 6153   4.297   5.401   4.327
 1752SOL     OW 6154   0.268   2.124   2.176
 1752SOL    HW1 6155   0.270   2.087   2.083
 1752SOL    HW2 6156   0.239   2.220   2.173
 1753SOL     OW 6157   0.138   2.058   0.639
 1753SOL    HW1 6158   0.043   2.035   0.656
 1753SOL    HW2 6159   0.149   2.085   0.544
 1754SOL     OW 6160   3.242   3.473   1.178
 1754SOL    HW1 6161   3.177   3.480   1.254
 1754SOL    HW2 6162   3.218   3.542   1.109
 1755SOL     OW 6163   6.105   5.982   2.540
 1755SOL    HW1 6164   6.052   5.902   2.570
 1755SOL    HW2 6165   6.094   6.056   2.607
 1756SOL     OW 6166   4.023   4.105   5.819
 1756SOL    HW1 6167   3.945   4.042   5.819
 1756SOL    HW2 6168   4.102   4.059   5.860
 1757SOL     OW 6169   2.629   4.968   4.924
 1757SOL    HW1 6170   2.583   5.043   4.875
 1757SOL    HW2 6171   2.624   4.885   4.869
 1758SOL     OW 6172   2.469   0.351   3.950
 1758SOL    HW1 6173   2.495   0.267   3.997
 1758SOL    HW2 6174   2.408   0.329   3.874
 1759SOL     OW 6175   1.403   5.348   5.793
 1759SOL    HW1 6176   1.491   5.391   5.813
 1759SOL    HW2 6177   1.365   5.308   5.877
 1760SOL     OW 6178   5.525   2.033   1.990
 1760SOL    HW1 6179   5.447   1.997   1.938
 1760SOL    HW2 6180   5.492   2.071   2.076
 1761SOL     OW 6181   0.208   0.561   0.688
 1761SOL    HW1 6182   0.110   0.573   0.669
 1761SOL    HW2 6183   0.221   0.476   0.738
 1762SOL     OW 6184   0.098   1.991   4.696
 1762SOL    HW1 6185   0.140   1.990   4.787
 1762SOL    HW2 6186   0.129   1.911   4.645
 1763SOL     OW 6187   1.293   3.648   4.066
 1763SOL    HW1 6188   1.329   3.555   4.059
 1763SOL    HW2 6189   1.245   3.658   4.153
 1764SOL     OW 6190   2.212   3.997   2.099
 1764SOL    HW1 6191   2.217   3.963   2.193
 1764SOL    HW2 6192   2.126   3.966   2.057
 1765SOL     OW 6193   4.059   1.859   0.011
 1765SOL    HW1 6194   4.092   1.789   0.075
 1765SOL    HW2 6195   4.022   1.936   0.062
 1766SOL     OW 6196   4.951   3.661   3.157
 1766SOL    HW1 6197   5.048   3.681   3.172
 1766SOL    HW2 6198   4.908   3.637   3.244
 1767SOL     OW 6199   6.450   3.902   3.196
 1767SOL    HW1 6200   6.459   3.825   3.134
 1767SOL    HW2 6201   6.401   3.874   3.278
 1768SOL     OW 6202   3.613   1.465   4.888
 1768SOL    HW1 6203   3.628   1.524   4.967
 1768SOL    HW2 6204   3.529   1.412   4.902
 1769SOL     OW 6205   4.466   2.436   5.057
 1769SOL    HW1 6206   4.370   2.424   5.033
 1769SOL    HW2 6207   4.513   2.483   4.983
 1770SOL     OW 6208   0.237   5.365   4.618
 1770SOL    HW1 6209   0.181   5.382   4.699
 1770SOL    HW2 6210   0.209   5.426   4.545
 1771SOL     OW 6211   2.403   4.782   0.062
 1771SOL    HW1 6212   2.364   4.839   0.134
 1771SOL    HW2 6213   2.441   4.840   7.006
 1772SOL     OW 6214   3.028   6.500   3.654
 1772SOL    HW1 6215   3.115   6.527   3.695
 1772SOL    HW2 6216   3.015   6.549   3.568
 1773SOL     OW 6217   2.953   4.753   6.066
 1773SOL    HW1 6218   2.951   4.839   6.118
 1773SOL    HW2 6219   2.905   4.766   5.979
 1774SOL     OW 6220   4.836   6.772   1.990
 1774SOL    HW1 6221   4.810   6.726   2.075
 1774SOL    HW2 6222   4.783   6.856   1.980
 1775SOL     OW 6223   1.169   4.646   4.028
 1775SOL    HW1 6224   1.178   4.743   4.006
 1775SOL    HW2 6225   1.188   4.592   3.946
 1776SOL     OW 6226   3.493   1.127   5.117
 1776SOL    HW1 6227   3.402   1.152   5.150
 1776SOL    HW2 6228   3.485   1.088   5.025
 1777SOL     OW 6229   3.484   5.183   5.508
 1777SOL    HW1 6230   3.513   5.116   5.576
 1777SOL    HW2 6231   3.439   5.259   5.553
 1778SOL     OW 6232   4.569   2.429   5.889
 1778SOL    HW1 6233   4.497   2.497   5.876
 1778SOL    HW2 6234   4.630   2.458   5.963
 1779SOL     OW 6235   4.494   1.369   4.686
 1779SOL    HW1 6236   4.486   1.274   4.717
 1779SOL    HW2 6237   4.585   1.403   4.707
 1780SOL     OW 6238   2.983   3.792   6.253
 1780SOL    HW1 6239   3.026   3.730   6.188
 1780SOL    HW2 6240   2.892   3.818   6.220
 1781SOL     OW 6241   4.153   5.513   3.876
 1781SOL    HW1 6242   4.215   5.547   3.806
 1781SOL    HW2 6243   4.062   5.500   3.836
 1782SOL     OW 6244   2.735   2.078   3.162
 1782SOL    HW1 6245   2.718   2.058   3.258
 1782SOL    HW2 6246   2.806   2.149   3.155
 1783SOL     OW 6247   1.563   3.817   6.405
 1783SOL    HW1 6248   1.557   3.863   6.494
 1783SOL    HW2 6249   1.622   3.870   6.344
 1784SOL     OW 6250   3.213   1.167   5.152
 1784SOL    HW1 6251   3.203   1.183   5.250
 1784SOL    HW2 6252   3.139   1.107   5.121
 1785SOL     OW 6253   5.759   5.547   3.497
 1785SOL    HW1 6254   5.734   5.573   3.404
 1785SOL    HW2 6255   5.819   5.617   3.537
 1786SOL     OW 6256   1.495   2.725   1.415
 1786SOL    HW1 6257   1.551   2.665   1.472
 1786SOL    HW2 6258   1.521   2.712   1.319
 1787SOL     OW 6259   2.380   0.943   4.541
 1787SOL    HW1 6260   2.423   0.938   4.451
 1787SOL    HW2 6261   2.450   0.960   4.611
 1788SOL     OW 6262   2.907   3.144   0.034
 1788SOL    HW1 6263   2.863   3.234   0.026
 1788SOL    HW2 6264   2.907   3.115   0.129
 1789SOL     OW 6265   6.382   1.645   2.372
 1789SOL    HW1 6266   6.482   1.646   2.370
 1789SOL    HW2 6267   6.347   1.651   2.279
 1790SOL     OW 6268   4.168   6.300   4.363
 1790SOL    HW1 6269   4.177   6.386   4.312
 1790SOL    HW2 6270   4.184   6.317   4.460
 1791SOL     OW 6271   0.064   1.368   4.055
 1791SOL    HW1 6272   0.145   1.310   4.048
 1791SOL    HW2 6273   0.062   1.411   4.145
 1792SOL     OW 6274   0.059   2.301   3.848
 1792SOL    HW1 6275   6.987   2.274   3.889
 1792SOL    HW2 6276   0.109   2.359   3.912
 1793SOL     OW 6277   6.951   0.113   3.763
 1793SOL    HW1 6278   6.865   0.084   3.721
 1793SOL    HW2 6279   0.008   0.116   3.693
 1794SOL     OW 6280   5.261   5.833   6.169
 1794SOL    HW1 6281   5.263   5.932   6.175
 1794SOL    HW2 6282   5.167   5.801   6.183
 1795SOL     OW 6283   0.158   2.990   2.293
 1795SOL    HW1 6284   0.074   3.015   2.244
 1795SOL    HW2 6285   0.219   2.942   2.230
 1796SOL     OW 6286   2.025   0.644   4.288
 1796SOL    HW1 6287   2.044   0.702   4.368
 1796SOL    HW2 6288   1.997   0.702   4.211
 1797SOL     OW 6289   1.433   0.982   6.371
 1797SOL    HW1 6290   1.466   1.064   6.324
 1797SOL    HW2 6291   1.366   1.009   6.441
 1798SOL     OW 6292   5.325   2.114   4.599
 1798SOL    HW1 6293   5.292   2.102   4.693
 1798SOL    HW2 6294   5.407   2.059   4.585
 1799SOL     OW 6295   6.444   1.388   6.080
 1799SOL    HW1 6296   6.496   1.445   6.016
 1799SOL    HW2 6297   6.382   1.446   6.133
 1800SOL     OW 6298   4.570   5.174   2.951
 1800SOL    HW1 6299   4.603   5.193   3.043
 1800SOL    HW2 6300   4.587   5.253   2.892
 1801SOL     OW 6301   0.885   0.912   2.230
 1801SOL    HW1 6302   0.913   0.832   2.283
 1801SOL    HW2 6303   0.901   0.995   2.284
 1802SOL     OW 6304   5.459   5.216   2.049
 1802SOL    HW1 6305   5.372   5.167   2.046
 1802SOL    HW2 6306   5.502   5.202   2.138
 1803SOL     OW 6307   0.082   6.117   0.311
 1803SOL    HW1 6308   0.007   6.182   0.298
 1803SOL    HW2 6309   0.130   6.105   0.224
 1804SOL     OW 6310   1.975   4.144   5.801
 1804SOL    HW1 6311   1.951   4.236   5.769
 1804SOL    HW2 6312   2.040   4.102   5.737
 1805SOL     OW 6313   6.882   3.790   5.612
 1805SOL    HW1 6314   6.858   3.781   5.709
 1805SOL    HW2 6315   6.862   3.704   5.565
 1806SOL     OW 6316   1.338   0.925   0.531
 1806SOL    HW1 6317   1.388   0.995   0.583
 1806SOL    HW2 6318   1.250   0.962   0.501
 1807SOL     OW 6319   4.862   2.289   6.173
 1807SOL    HW1 6320   4.950   2.270   6.129
 1807SOL    HW2 6321   4.804   2.208   6.169
 1808SOL     OW 6322   0.037   3.341   5.998
 1808SOL    HW1 6323   0.086   3.263   5.959
 1808SOL    HW2 6324   6.973   3.308   6.050
 1809SOL     OW 6325   2.070   3.378   4.326
 1809SOL    HW1 6326   2.130   3.300   4.340
 1809SOL    HW2 6327   2.101   3.430   4.246
 1810SOL     OW 6328   2.488   0.721   5.079
 1810SOL    HW1 6329   2.431   0.738   4.999
 1810SOL    HW2 6330   2.552   0.796   5.091
 1811SOL     OW 6331   4.454   4.561   3.667
 1811SOL    HW1 6332   4.534   4.509   3.699
 1811SOL    HW2 6333   4.447   4.554   3.568
 1812SOL     OW 6334   3.965   6.523   5.814
 1812SOL    HW1 6335   3.949   6.559   5.906
 1812SOL    HW2 6336   4.063   6.509   5.799
 1813SOL     OW 6337   4.924   4.744   0.329
 1813SOL    HW1 6338   4.904   4.675   0.398
 1813SOL    HW2 6339   4.986   4.706   0.260
 1814SOL     OW 6340   0.047   0.979   0.167
 1814SOL    HW1 6341   0.091   0.890   0.182
 1814SOL    HW2 6342   6.972   0.979   0.210
 1815SOL     OW 6343   6.025   2.538   1.867
 1815SOL    HW1 6344   5.981   2.465   1.814
 1815SOL    HW2 6345   5.972   2.622   1.859
 1816SOL     OW 6346   2.428   3.937   0.911
 1816SOL    HW1 6347   2.328   3.929   0.909
 1816SOL    HW2 6348   2.469   3.852   0.878
 1817SOL     OW 6349   3.269   6.941   3.383
 1817SOL    HW1 6350   3.241   6.901   3.296
 1817SOL    HW2 6351   3.346   7.002   3.368
 1818SOL     OW 6352   1.911   0.029   2.319
 1818SOL    HW1 6353   1.929   0.066   2.410
 1818SOL    HW2 6354   1.946   0.092   2.250
 1819SOL     OW 6355   0.275   5.405   1.676
 1819SOL    HW1 6356   0.246   5.314   1.704
 1819SOL    HW2 6357   0.202   5.449   1.624
 1820SOL     OW 6358   4.740   0.720   2.740
 1820SOL    HW1 6359   4.685   0.730   2.823
 1820SOL    HW2 6360   4.804   0.796   2.732
 1821SOL     OW 6361   2.649   0.740   1.703
 1821SOL    HW1 6362   2.553   0.714   1.691
 1821SOL    HW2 6363   2.704   0.657   1.712
 1822SOL     OW 6364   2.388   2.833   1.289
 1822SOL    HW1 6365   2.465   2.807   1.231
 1822SOL    HW2 6366   2.305   2.841   1.234
 1823SOL     OW 6367   2.728   5.876   3.402
 1823SOL    HW1 6368   2.818   5.879   3.447
 1823SOL    HW2 6369   2.675   5.956   3.431
 1824SOL     OW 6370   3.783   3.701   1.224
 1824SOL    HW1 6371   3.862   3.664   1.272
 1824SOL    HW2 6372   3.699   3.668   1.268
 1825SOL     OW 6373   1.157   1.931   3.985
 1825SOL    HW1 6374   1.218   2.010   3.975
 1825SOL    HW2 6375   1.063   1.962   3.996
 1826SOL     OW 6376   3.107   0.272   0.794
 1826SOL    HW1 6377   3.009   0.291   0.783
 1826SOL    HW2 6378   3.156   0.300   0.712
 1827SOL     OW 6379   0.302   6.125   1.376
 1827SOL    HW1 6380   0.343   6.152   1.463
 1827SOL    HW2 6381   0.235   6.052   1.392
 1828SOL     OW 6382   0.995   2.255   0.761
 1828SOL    HW1 6383   0.965   2.233   0.854
 1828SOL    HW2 6384   1.026   2.350   0.757
 1829SOL     OW 6385   2.684   0.507   3.571
 1829SOL    HW1 6386   2.648   0.595   3.540
 1829SOL    HW2 6387   2.682   0.441   3.495
 1830SOL     OW 6388   5.956   6.439   4.054
 1830SOL    HW1 6389   6.003   6.439   3.965
 1830SOL    HW2 6390   6.015   6.481   4.123
 1831SOL     OW 6391   5.890   0.348   2.594
 1831SOL    HW1 6392   5.874   0.307   2.504
 1831SOL    HW2 6393   5.968   0.302   2.638
 1832SOL     OW 6394   4.585   1.448   1.286
 1832SOL    HW1 6395   4.584   1.547   1.273
 1832SOL    HW2 6396   4.565   1.402   1.199
 1833SOL     OW 6397   5.124   0.393   6.313
 1833SOL    HW1 6398   5.083   0.466   6.257
 1833SOL    HW2 6399   5.076   0.307   6.295
 1834SOL     OW 6400   2.606   4.171   0.413
 1834SOL    HW1 6401   2.675   4.104   0.385
 1834SOL    HW2 6402   2.531   4.170   0.347
 1835SOL     OW 6403   0.147   3.739   2.300
 1835SOL    HW1 6404   0.210   3.782   2.364
 1835SOL    HW2 6405   0.150   3.639   2.312
 1836SOL     OW 6406   5.133   3.008   1.484
 1836SOL    HW1 6407   5.143   2.910   1.503
 1836SOL    HW2 6408   5.041   3.038   1.510
 1837SOL     OW 6409   1.089   1.139   4.854
 1837SOL    HW1 6410   1.100   1.231   4.890
 1837SOL    HW2 6411   1.137   1.074   4.913
 1838SOL     OW 6412   0.207   1.302   4.361
 1838SOL    HW1 6413   0.291   1.275   4.313
 1838SOL    HW2 6414   0.221   1.392   4.403
 1839SOL     OW 6415   5.692   2.242   5.487
 1839SOL    HW1 6416   5.643   2.222   5.402
 1839SOL    HW2 6417   5.675   2.169   5.554
 1840SOL     OW 6418   3.640   6.549   1.814
 1840SOL    HW1 6419   3.618   6.608   1.736
 1840SOL    HW2 6420   3.575   6.567   1.888
 1841SOL     OW 6421   2.234   0.973   3.624
 1841SOL    HW1 6422   2.143   0.969   3.666
 1841SOL    HW2 6423   2.302   0.991   3.695
 1842SOL     OW 6424   1.511   5.665   0.306
 1842SOL    HW1 6425   1.569   5.640   0.384
 1842SOL    HW2 6426   1.555   5.635   0.221
 1843SOL     OW 6427   6.590   2.428   3.084
 1843SOL    HW1 6428   6.530   2.501   3.118
 1843SOL    HW2 6429   6.675   2.428   3.135
 1844SOL     OW 6430   3.025   0.277   5.609
 1844SOL    HW1 6431   3.040   0.306   5.704
 1844SOL    HW2 6432   3.067   0.344   5.548
 1845SOL     OW 6433   2.446   0.275   5.211
 1845SOL    HW1 6434   2.419   0.192   5.260
 1845SOL    HW2 6435   2.466   0.348   5.277
 1846SOL     OW 6436   4.208   2.413   1.054
 1846SOL    HW1 6437   4.191   2.326   1.101
 1846SOL    HW2 6438   4.222   2.485   1.121
 1847SOL     OW 6439   1.708   1.256   0.093
 1847SOL    HW1 6440   1.745   1.173   0.135
 1847SOL    HW2 6441   1.610   1.244   0.078
 1848SOL     OW 6442   0.970   6.825   3.411
 1848SOL    HW1 6443   0.877   6.818   3.449
 1848SOL    HW2 6444   1.019   6.739   3.425
 1849SOL     OW 6445   3.879   2.506   0.592
 1849SOL    HW1 6446   3.928   2.565   0.528
 1849SOL    HW2 6447   3.820   2.562   0.651
 1850SOL     OW 6448   0.810   2.455   2.122
 1850SOL    HW1 6449   0.800   2.373   2.180
 1850SOL    HW2 6450   0.847   2.530   2.177
 1851SOL     OW 6451   0.011   2.554   0.763
 1851SOL    HW1 6452   0.061   2.622   0.710
 1851SOL    HW2 6453   0.072   2.478   0.788
 1852SOL     OW 6454   6.506   4.178   2.188
 1852SOL    HW1 6455   6.498   4.117   2.267
 1852SOL    HW2 6456   6.438   4.250   2.194
 1853SOL     OW 6457   0.071   2.502   2.749
 1853SOL    HW1 6458   0.059   2.429   2.682
 1853SOL    HW2 6459   0.024   2.477   2.834
 1854SOL     OW 6460   2.629   6.209   3.062
 1854SOL    HW1 6461   2.539   6.188   3.101
 1854SOL    HW2 6462   2.624   6.295   3.012
 1855SOL     OW 6463   5.377   3.124   5.772
 1855SOL    HW1 6464   5.471   3.135   5.805
 1855SOL    HW2 6465   5.340   3.037   5.805
 1856SOL     OW 6466   6.204   3.648   5.779
 1856SOL    HW1 6467   6.119   3.594   5.788
 1856SOL    HW2 6468   6.242   3.635   5.688
 1857SOL     OW 6469   4.511   1.303   5.680
 1857SOL    HW1 6470   4.486   1.257   5.595
 1857SOL    HW2 6471   4.544   1.395   5.659
 1858SOL     OW 6472   5.936   3.967   3.837
 1858SOL    HW1 6473   5.963   4.018   3.919
 1858SOL    HW2 6474   5.850   4.004   3.802
 1859SOL     OW 6475   5.088   2.130   2.799
 1859SOL    HW1 6476   5.160   2.135   2.730
 1859SOL    HW2 6477   5.007   2.086   2.760
 1860SOL     OW 6478   6.250   0.403   5.262
 1860SOL    HW1 6479   6.235   0.420   5.165
 1860SOL    HW2 6480   6.163   0.408   5.311
 1861SOL     OW 6481   6.018   0.176   2.384
 1861SOL    HW1 6482   6.015   0.210   2.290
 1861SOL    HW2 6483   5.956   0.098   2.393
 1862SOL     OW 6484   2.240   0.203   6.000
 1862SOL    HW1 6485   2.228   0.289   6.050
 1862SOL    HW2 6486   2.323   0.207   5.946
 1863SOL     OW 6487   1.150   2.251   2.515
 1863SOL    HW1 6488   1.133   2.349   2.511
 1863SOL    HW2 6489   1.240   2.235   2.557
 1864SOL     OW 6490   1.502   6.919   5.415
 1864SOL    HW1 6491   1.503   6.862   5.497
 1864SOL    HW2 6492   1.593   6.920   5.374
 1865SOL     OW 6493   3.507   6.487   6.091
 1865SOL    HW1 6494   3.450   6.531   6.160
 1865SOL    HW2 6495   3.497   6.387   6.098
 1866SOL     OW 6496   4.385   5.124   3.550
 1866SOL    HW1 6497   4.436   5.043   3.520
 1866SOL    HW2 6498   4.333   5.101   3.633
 1867SOL     OW 6499   0.566   4.259   0.272
 1867SOL    HW1 6500   0.545   4.162   0.263
 1867SOL    HW2 6501   0.521   4.311   0.200
 1868SOL     OW 6502   4.838   3.679   6.571
 1868SOL    HW1 6503   4.779   3.683   6.652
 1868SOL    HW2 6504   4.793   3.725   6.495
 1869SOL     OW 6505   5.961   2.906   5.515
 1869SOL    HW1 6506   5.931   2.934   5.606
 1869SOL    HW2 6507   5.959   2.986   5.454
 1870SOL     OW 6508   1.662   3.212   5.585
 1870SOL    HW1 6509   1.709   3.157   5.517
 1870SOL    HW2 6510   1.673   3.170   5.675
 1871SOL     OW 6511   0.490   0.673   0.172
 1871SOL    HW1 6512   0.542   0.640   0.093
 1871SOL    HW2 6513   0.502   0.608   0.248
 1872SOL     OW 6514   3.954   1.739   6.465
 1872SOL    HW1 6515   3.970   1.711   6.559
 1872SOL    HW2 6516   3.868   1.700   6.432
 1873SOL     OW 6517   5.260   1.341   5.698
 1873SOL    HW1 6518   5.193   1.284   5.746
 1873SOL    HW2 6519   5.214   1.423   5.663
 1874SOL     OW 6520   3.208   1.628   0.561
 1874SOL    HW1 6521   3.168   1.689   0.630
 1874SOL    HW2 6522   3.200   1.670   0.471
 1875SOL     OW 6523   0.217   0.765   0.181
 1875SOL    HW1 6524   0.178   0.696   0.120
 1875SOL    HW2 6525   0.314   0.745   0.197
 1876SOL     OW 6526   3.433   6.217   6.070
 1876SOL    HW1 6527   3.365   6.172   6.126
 1876SOL    HW2 6528   3.415   6.199   5.974
 1877SOL     OW 6529   0.473   0.612   2.849
 1877SOL    HW1 6530   0.491   0.608   2.947
 1877SOL    HW2 6531   0.507   0.529   2.805
 1878SOL     OW 6532   6.879   2.693   3.725
 1878SOL    HW1 6533   6.914   2.709   3.817
 1878SOL    HW2 6534   6.797   2.636   3.730
 1879SOL     OW 6535   1.460   4.971   4.103
 1879SOL    HW1 6536   1.521   5.046   4.130
 1879SOL    HW2 6537   1.492   4.886   4.144
 1880SOL     OW 6538   6.474   1.092   4.618
 1880SOL    HW1 6539   6.380   1.078   4.586
 1880SOL    HW2 6540   6.514   1.171   4.571
 1881SOL     OW 6541   6.199   2.802   2.422
 1881SOL    HW1 6542   6.262   2.864   2.469
 1881SOL    HW2 6543   6.250   2.744   2.359
 1882SOL     OW 6544   0.718   3.227   6.400
 1882SOL    HW1 6545   0.802   3.235   6.453
 1882SOL    HW2 6546   0.656   3.163   6.445
 1883SOL     OW 6547   0.975   2.166   3.778
 1883SOL    HW1 6548   1.031   2.247   3.791
 1883SOL    HW2 6549   0.994   2.126   3.688
 1884SOL     OW 6550   6.581   2.868   0.185
 1884SOL    HW1 6551   6.488   2.901   0.170
 1884SOL    HW2 6552   6.640   2.945   0.210
 1885SOL     OW 6553   1.503   2.563   6.238
 1885SOL    HW1 6554   1.568   2.545   6.311
 1885SOL    HW2 6555   1.523   2.652   6.196
 1886SOL     OW 6556   2.383   0.844   1.523
 1886SOL    HW1 6557   2.475   0.883   1.521
 1886SOL    HW2 6558   2.355   0.828   1.618
 1887SOL     OW 6559   0.795   5.679   5.015
 1887SOL    HW1 6560   0.837   5.594   4.982
 1887SOL    HW2 6561   0.854   5.721   5.083
 1888SOL     OW 6562   2.231   2.583   6.870
 1888SOL    HW1 6563   2.155   2.540   6.919
 1888SOL    HW2 6564   2.318   2.552   6.908
 1889SOL     OW 6565   0.198   2.917   6.015
 1889SOL    HW1 6566   0.102   2.922   6.043
 1889SOL    HW2 6567   0.203   2.899   5.916
 1890SOL     OW 6568   1.589   6.508   4.765
 1890SOL    HW1 6569   1.599   6.511   4.666
 1890SOL    HW2 6570   1.571   6.600   4.800
 1891SOL     OW 6571   5.113   1.928   1.827
 1891SOL    HW1 6572   5.015   1.917   1.845
 1891SOL    HW2 6573   5.152   1.990   1.895
 1892SOL     OW 6574   2.322   1.153   2.667
 1892SOL    HW1 6575   2.300   1.069   2.717
 1892SOL    HW2 6576   2.400   1.198   2.710
 1893SOL     OW 6577   3.756   3.053   0.043
 1893SOL    HW1 6578   3.788   2.993   0.117
 1893SOL    HW2 6579   3.792   3.020   6.971
 1894SOL     OW 6580   3.570   3.828   3.715
 1894SOL    HW1 6581   3.518   3.767   3.776
 1894SOL    HW2 6582   3.654   3.782   3.686
 1895SOL     OW 6583   5.035   0.426   1.570
 1895SOL    HW1 6584   5.039   0.327   1.555
 1895SOL    HW2 6585   5.078   0.448   1.658
 1896SOL     OW 6586   5.604   0.268   1.502
 1896SOL    HW1 6587   5.544   0.292   1.578
 1896SOL    HW2 6588   5.653   0.349   1.471
 1897SOL     OW 6589   1.549   5.009   1.461
 1897SOL    HW1 6590   1.569   4.987   1.365
 1897SOL    HW2 6591   1.635   5.014   1.512
 1898SOL     OW 6592   2.085   5.952   3.387
 1898SOL    HW1 6593   2.146   6.031   3.397
 1898SOL    HW2 6594   1.997   5.971   3.430
 1899SOL     OW 6595   1.272   0.865   2.312
 1899SOL    HW1 6596   1.354   0.808   2.316
 1899SOL    HW2 6597   1.293   0.957   2.343
 1900SOL     OW 6598   1.338   0.231   6.222
 1900SOL    HW1 6599   1.272   0.237   6.148
 1900SOL    HW2 6600   1.425   0.270   6.192
 1901SOL     OW 6601   1.928   1.673   0.962
 1901SOL    HW1 6602   1.936   1.768   0.991
 1901SOL    HW2 6603   1.833   1.654   0.935
 1902SOL     OW 6604   2.240   2.073   5.075
 1902SOL    HW1 6605   2.180   2.076   4.995
 1902SOL    HW2 6606   2.285   2.161   5.087
 1903SOL     OW 6607   6.934   3.430   2.403
 1903SOL    HW1 6608   6.888   3.475   2.480
 1903SOL    HW2 6609   0.016   3.451   2.406
 1904SOL     OW 6610   5.131   5.647   3.399
 1904SOL    HW1 6611   5.135   5.670   3.496
 1904SOL    HW2 6612   5.128   5.731   3.344
 1905SOL     OW 6613   1.328   0.179   3.857
 1905SOL    HW1 6614   1.426   0.193   3.846
 1905SOL    HW2 6615   1.308   0.081   3.862
 1906SOL     OW 6616   2.212   0.428   5.111
 1906SOL    HW1 6617   2.200   0.504   5.175
 1906SOL    HW2 6618   2.276   0.362   5.149
 1907SOL     OW 6619   3.551   0.647   1.874
 1907SOL    HW1 6620   3.570   0.727   1.817
 1907SOL    HW2 6621   3.478   0.593   1.832
 1908SOL     OW 6622   3.643   6.861   5.332
 1908SOL    HW1 6623   3.737   6.892   5.316
 1908SOL    HW2 6624   3.582   6.905   5.266
 1909SOL     OW 6625   0.168   3.703   2.657
 1909SOL    HW1 6626   0.196   3.797   2.641
 1909SOL    HW2 6627   0.226   3.641   2.604
 1910SOL     OW 6628   0.506   3.981   6.768
 1910SOL    HW1 6629   0.513   3.881   6.770
 1910SOL    HW2 6630   0.597   4.021   6.774
 1911SOL     OW 6631   6.716   3.236   4.997
 1911SOL    HW1 6632   6.635   3.227   5.055
 1911SOL    HW2 6633   6.778   3.159   5.014
 1912SOL     OW 6634   3.855   5.734   0.667
 1912SOL    HW1 6635   3.866   5.728   0.766
 1912SOL    HW2 6636   3.782   5.798   0.645
 1913SOL     OW 6637   2.379   6.483   4.920
 1913SOL    HW1 6638   2.322   6.517   4.995
 1913SOL    HW2 6639   2.327   6.418   4.866
 1914SOL     OW 6640   3.624   3.073   5.833
 1914SOL    HW1 6641   3.552   3.011   5.799
 1914SOL    HW2 6642   3.586   3.165   5.841
 1915SOL     OW 6643   3.650   2.159   5.117
 1915SOL    HW1 6644   3.693   2.182   5.030
 1915SOL    HW2 6645   3.551   2.171   5.110
 1916SOL     OW 6646   4.213   5.727   1.537
 1916SOL    HW1 6647   4.280   5.664   1.578
 1916SOL    HW2 6648   4.153   5.762   1.609
 1917SOL     OW 6649   2.611   3.052   5.977
 1917SOL    HW1 6650   2.567   3.141   5.968
 1917SOL    HW2 6651   2.559   2.994   6.039
 1918SOL     OW 6652   1.052   1.294   5.372
 1918SOL    HW1 6653   1.079   1.389   5.383
 1918SOL    HW2 6654   1.119   1.247   5.314
 1919SOL     OW 6655   2.094   0.770   1.857
 1919SOL    HW1 6656   2.015   0.782   1.797
 1919SOL    HW2 6657   2.121   0.858   1.896
 1920SOL     OW 6658   0.419   3.812   2.966
 1920SOL    HW1 6659   0.420   3.847   2.872
 1920SOL    HW2 6660   0.354   3.865   3.020
 1921SOL     OW 6661   1.405   3.647   6.041
 1921SOL    HW1 6662   1.419   3.589   5.960
 1921SOL    HW2 6663   1.332   3.713   6.022
 1922SOL     OW 6664   2.236   3.673   0.899
 1922SOL    HW1 6665   2.148   3.640   0.865
 1922SOL    HW2 6666   2.220   3.742   0.970
 1923SOL     OW 6667   4.262   0.871   5.502
 1923SOL    HW1 6668   4.258   0.804   5.575
 1923SOL    HW2 6669   4.357   0.885   5.474
 1924SOL     OW 6670   4.979   5.830   0.456
 1924SOL    HW1 6671   4.888   5.807   0.489
 1924SOL    HW2 6672   5.029   5.878   0.528
 1925SOL     OW 6673   1.548   5.002   1.143
 1925SOL    HW1 6674   1.452   4.983   1.160
 1925SOL    HW2 6675   1.559   5.040   1.051
 1926SOL     OW 6676   2.469   7.015   2.798
 1926SOL    HW1 6677   2.567   6.999   2.786
 1926SOL    HW2 6678   2.437   0.065   2.729
 1927SOL     OW 6679   2.565   4.489   6.972
 1927SOL    HW1 6680   2.615   4.491   0.043
 1927SOL    HW2 6681   2.468   4.509   6.989
 1928SOL     OW 6682   6.585   4.282   5.485
 1928SOL    HW1 6683   6.540   4.370   5.469
 1928SOL    HW2 6684   6.544   4.238   5.564
 1929SOL     OW 6685   2.459   6.909   1.360
 1929SOL    HW1 6686   2.381   6.853   1.332
 1929SOL    HW2 6687   2.431   6.973   1.431
 1930SOL     OW 6688   3.623   3.857   6.555
 1930SOL    HW1 6689   3.651   3.952   6.565
 1930SOL    HW2 6690   3.525   3.853   6.534
 1931SOL     OW 6691   1.281   2.570   1.401
 1931SOL    HW1 6692   1.208   2.592   1.336
 1931SOL    HW2 6693   1.358   2.633   1.386
 1932SOL     OW 6694   4.599   2.602   3.220
 1932SOL    HW1 6695   4.570   2.602   3.125
 1932SOL    HW2 6696   4.648   2.517   3.240
 1933SOL     OW 6697   1.971   2.979   1.112
 1933SOL    HW1 6698   2.053   2.923   1.102
 1933SOL    HW2 6699   1.992   3.074   1.091
 1934SOL     OW 6700   0.069   6.857   5.424
 1934SOL    HW1 6701   0.150   6.915   5.423
 1934SOL    HW2 6702   0.081   6.783   5.357
 1935SOL     OW 6703   4.340   6.079   3.686
 1935SOL    HW1 6704   4.302   6.060   3.596
 1935SOL    HW2 6705   4.322   6.002   3.747
 1936SOL     OW 6706   5.390   4.198   3.792
 1936SOL    HW1 6707   5.392   4.287   3.746
 1936SOL    HW2 6708   5.476   4.150   3.776
 1937SOL     OW 6709   4.496   6.130   0.857
 1937SOL    HW1 6710   4.582   6.083   0.876
 1937SOL    HW2 6711   4.450   6.151   0.944
 1938SOL     OW 6712   1.701   1.725   1.954
 1938SOL    HW1 6713   1.767   1.725   2.029
 1938SOL    HW2 6714   1.614   1.688   1.986
 1939SOL     OW 6715   6.800   6.707   4.306
 1939SOL    HW1 6716   6.757   6.620   4.332
 1939SOL    HW2 6717   6.761   6.738   4.220
 1940SOL     OW 6718   5.971   5.518   0.848
 1940SOL    HW1 6719   5.935   5.607   0.818
 1940SOL    HW2 6720   5.904   5.447   0.827
 1941SOL     OW 6721   1.079   3.220   4.347
 1941SOL    HW1 6722   1.008   3.184   4.287
 1941SOL    HW2 6723   1.156   3.253   4.293
 1942SOL     OW 6724   5.579   3.186   1.566
 1942SOL    HW1 6725   5.573   3.105   1.625
 1942SOL    HW2 6726   5.625   3.260   1.616
 1943SOL     OW 6727   1.999   0.009   3.240
 1943SOL    HW1 6728   1.953   6.938   3.261
 1943SOL    HW2 6729   1.993   0.070   3.319
 1944SOL     OW 6730   6.364   3.224   0.400
 1944SOL    HW1 6731   6.394   3.280   0.322
 1944SOL    HW2 6732   6.426   3.239   0.477
 1945SOL     OW 6733   4.092   5.585   0.353
 1945SOL    HW1 6734   4.118   5.511   0.290
 1945SOL    HW2 6735   3.997   5.612   0.335
 1946SOL     OW 6736   5.913   6.677   0.978
 1946SOL    HW1 6737   5.914   6.598   0.916
 1946SOL    HW2 6738   5.850   6.746   0.944
 1947SOL     OW 6739   5.455   6.376   4.450
 1947SOL    HW1 6740   5.409   6.379   4.361
 1947SOL    HW2 6741   5.538   6.320   4.442
 1948SOL     OW 6742   6.436   5.216   3.232
 1948SOL    HW1 6743   6.426   5.302   3.181
 1948SOL    HW2 6744   6.371   5.215   3.308
 1949SOL     OW 6745   3.490   3.444   6.591
 1949SOL    HW1 6746   3.582   3.427   6.557
 1949SOL    HW2 6747   3.456   3.530   6.552
 1950SOL     OW 6748   3.890   3.021   1.131
 1950SOL    HW1 6749   3.795   3.005   1.158
 1950SOL    HW2 6750   3.902   3.118   1.108
 1951SOL     OW 6751   6.597   4.770   6.765
 1951SOL    HW1 6752   6.500   4.784   6.745
 1951SOL    HW2 6753   6.632   4.695   6.709
 1952SOL     OW 6754   4.981   4.300   1.377
 1952SOL    HW1 6755   5.007   4.337   1.466
 1952SOL    HW2 6756   4.930   4.215   1.390
 1953SOL     OW 6757   6.004   1.500   5.471
 1953SOL    HW1 6758   5.952   1.583   5.494
 1953SOL    HW2 6759   6.079   1.524   5.410
 1954SOL     OW 6760   6.929   0.250   1.450
 1954SOL    HW1 6761   6.945   0.335   1.401
 1954SOL    HW2 6762   6.884   0.184   1.389
 1955SOL     OW 6763   0.642   0.331   3.101
 1955SOL    HW1 6764   0.623   0.427   3.081
 1955SOL    HW2 6765   0.679   0.323   3.193
 1956SOL     OW 6766   4.817   6.812   1.571
 1956SOL    HW1 6767   4.879   6.869   1.518
 1956SOL    HW2 6768   4.745   6.777   1.511
 1957SOL     OW 6769   5.385   4.377   3.522
 1957SOL    HW1 6770   5.475   4.348   3.554
 1957SOL    HW2 6771   5.378   4.477   3.529
 1958SOL     OW 6772   4.518   1.656   1.941
 1958SOL    HW1 6773   4.575   1.601   2.003
 1958SOL    HW2 6774   4.543   1.753   1.950
 1959SOL     OW 6775   1.235   6.923   3.887
 1959SOL    HW1 6776   1.328   6.904   3.920
 1959SOL    HW2 6777   1.227   6.896   3.791
 1960SOL     OW 6778   0.478   3.866   2.695
 1960SOL    HW1 6779   0.497   3.783   2.642
 1960SOL    HW2 6780   0.520   3.945   2.649
 1961SOL     OW 6781   6.704   4.490   4.994
 1961SOL    HW1 6782   6.803   4.492   4.977
 1961SOL    HW2 6783   6.658   4.553   4.932
 1962SOL     OW 6784   1.530   6.381   2.357
 1962SOL    HW1 6785   1.580   6.330   2.427
 1962SOL    HW2 6786   1.493   6.465   2.397
 1963SOL     OW 6787   0.836   1.801   1.397
 1963SOL    HW1 6788   0.904   1.728   1.391
 1963SOL    HW2 6789   0.820   1.840   1.306
 1964SOL     OW 6790   4.456   4.781   1.697
 1964SOL    HW1 6791   4.476   4.878   1.708
 1964SOL    HW2 6792   4.532   4.727   1.734
 1965SOL     OW 6793   1.388   3.165   4.332
 1965SOL    HW1 6794   1.328   3.091   4.360
 1965SOL    HW2 6795   1.347   3.253   4.355
 1966SOL     OW 6796   0.456   6.073   1.151
 1966SOL    HW1 6797   0.417   6.079   1.242
 1966SOL    HW2 6798   0.501   5.985   1.140
 1967SOL     OW 6799   5.664   2.937   3.878
 1967SOL    HW1 6800   5.680   2.904   3.971
 1967SOL    HW2 6801   5.572   2.975   3.871
 1968SOL     OW 6802   1.871   0.505   5.359
 1968SOL    HW1 6803   1.781   0.521   5.400
 1968SOL    HW2 6804   1.861   0.446   5.279
 1969SOL     OW 6805   2.845   1.295   0.556
 1969SOL    HW1 6806   2.798   1.245   0.628
 1969SOL    HW2 6807   2.847   1.241   0.472
 1970SOL     OW 6808   2.395   6.919   5.765
 1970SOL    HW1 6809   2.426   6.841   5.819
 1970SOL    HW2 6810   2.306   6.898   5.724
 1971SOL     OW 6811   0.319   0.449   5.365
 1971SOL    HW1 6812   0.272   0.395   5.435
 1971SOL    HW2 6813   0.360   0.387   5.298
 1972SOL     OW 6814   5.493   2.183   1.171
 1972SOL    HW1 6815   5.443   2.131   1.101
 1972SOL    HW2 6816   5.444   2.176   1.258
 1973SOL     OW 6817   2.880   3.720   0.595
 1973SOL    HW1 6818   2.947   3.771   0.541
 1973SOL    HW2 6819   2.789   3.760   0.582
 1974SOL     OW 6820   5.251   0.580   4.807
 1974SOL    HW1 6821   5.228   0.606   4.713
 1974SOL    HW2 6822   5.264   0.481   4.812
 1975SOL     OW 6823   1.811   1.852   4.484
 1975SOL    HW1 6824   1.771   1.766   4.515
 1975SOL    HW2 6825   1.777   1.927   4.541
 1976SOL     OW 6826   6.748   6.454   0.480
 1976SOL    HW1 6827   6.689   6.387   0.434
 1976SOL    HW2 6828   6.823   6.480   0.419
 1977SOL     OW 6829   1.876   3.171   5.223
 1977SOL    HW1 6830   1.869   3.135   5.317
 1977SOL    HW2 6831   1.874   3.094   5.159
 1978SOL     OW 6832   1.918   5.923   3.016
 1978SOL    HW1 6833   1.978   5.848   3.044
 1978SOL    HW2 6834   1.858   5.892   2.942
 1979SOL     OW 6835   5.300   4.733   6.535
 1979SOL    HW1 6836   5.276   4.826   6.562
 1979SOL    HW2 6837   5.392   4.732   6.496
 1980SOL     OW 6838   3.715   6.938   4.040
 1980SOL    HW1 6839   3.706   0.012   3.995
 1980SOL    HW2 6840   3.761   6.874   3.977
 1981SOL     OW 6841   6.048   3.699   2.255
 1981SOL    HW1 6842   5.963   3.665   2.293
 1981SOL    HW2 6843   6.120   3.630   2.266
 1982SOL     OW 6844   6.809   4.471   3.943
 1982SOL    HW1 6845   6.734   4.433   3.996
 1982SOL    HW2 6846   6.780   4.484   3.848
 1983SOL     OW 6847   1.640   6.892   1.309
 1983SOL    HW1 6848   1.698   6.859   1.384
 1983SOL    HW2 6849   1.545   6.867   1.327
 1984SOL     OW 6850   5.055   2.790   4.937
 1984SOL    HW1 6851   4.974   2.756   4.890
 1984SOL    HW2 6852   5.042   2.886   4.963
 1985SOL     OW 6853   0.256   6.188   2.939
 1985SOL    HW1 6854   0.275   6.198   2.842
 1985SOL    HW2 6855   0.298   6.264   2.989
 1986SOL     OW 6856   2.995   0.910   6.888
 1986SOL    HW1 6857   2.955   0.851   6.819
 1986SOL    HW2 6858   2.969   1.005   6.869
 1987SOL     OW 6859   2.413   1.860   3.258
 1987SOL    HW1 6860   2.445   1.949   3.288
 1987SOL    HW2 6861   2.491   1.805   3.228
 1988SOL     OW 6862   6.857   3.274   0.861
 1988SOL    HW1 6863   6.865   3.203   0.791
 1988SOL    HW2 6864   6.936   3.336   0.854
 1989SOL     OW 6865   2.030   5.851   5.104
 1989SOL    HW1 6866   2.068   5.906   5.178
 1989SOL    HW2 6867   2.044   5.754   5.124
 1990SOL     OW 6868   4.114   5.726   0.617
 1990SOL    HW1 6869   4.149   5.652   0.560
 1990SOL    HW2 6870   4.014   5.720   0.622
 1991SOL     OW 6871   2.773   5.978   0.261
 1991SOL    HW1 6872   2.736   5.892   0.225
 1991SOL    HW2 6873   2.720   6.054   0.225
 1992SOL     OW 6874   6.959   0.498   0.253
 1992SOL    HW1 6875   7.007   0.518   0.167
 1992SOL    HW2 6876   7.001   0.549   0.328
 1993SOL     OW 6877   3.696   1.713   5.873
 1993SOL    HW1 6878   3.620   1.750   5.820
 1993SOL    HW2 6879   3.773   1.777   5.871
 1994SOL     OW 6880   6.727   2.306   0.617
 1994SOL    HW1 6881   6.719   2.347   0.708
 1994SOL    HW2 6882   6.809   2.342   0.572
 1995SOL     OW 6883   4.831   3.097   3.595
 1995SOL    HW1 6884   4.923   3.109   3.632
 1995SOL    HW2 6885   4.815   3.166   3.525
 1996SOL     OW 6886   2.385   2.082   0.741
 1996SOL    HW1 6887   2.484   2.075   0.744
 1996SOL    HW2 6888   2.351   2.049   0.652
 1997SOL     OW 6889   3.969   2.164   4.422
 1997SOL    HW1 6890   3.945   2.226   4.347
 1997SOL    HW2 6891   3.888   2.112   4.449
 1998SOL     OW 6892   1.511   3.564   0.343
 1998SOL    HW1 6893   1.505   3.520   0.253
 1998SOL    HW2 6894   1.521   3.495   0.414
 1999SOL     OW 6895   1.877   6.650   6.231
 1999SOL    HW1 6896   1.873   6.695   6.320
 1999SOL    HW2 6897   1.961   6.675   6.184
 2000SOL     OW 6898   3.751   2.721   5.784
 2000SOL    HW1 6899   3.806   2.720   5.701
 2000SOL    HW2 6900   3.654   2.721   5.761
 2001SOL     OW 6901   2.184   1.191   1.494
 2001SOL    HW1 6902   2.213   1.115   1.435
 2001SOL    HW2 6903   2.264   1.242   1.524
 2002SOL     OW 6904   0.211   4.554   0.284
 2002SOL    HW1 6905   0.165   4.472   0.320
 2002SOL    HW2 6906   0.170   4.580   0.197
 2003SOL     OW 6907   6.926   4.882   2.393
 2003SOL    HW1 6908   6.944   4.947   2.466
 2003SOL    HW2 6909   6.899   4.930   2.310
 2004SOL     OW 6910   5.814   1.099   4.294
 2004SOL    HW1 6911   5.786   1.004   4.301
 2004SOL    HW2 6912   5.914   1.104   4.285
 2005SOL     OW 6913   0.109   4.616   0.570
 2005SOL    HW1 6914   0.209   4.609   0.572
 2005SOL    HW2 6915   0.082   4.697   0.519
 2006SOL     OW 6916   5.355   0.325   3.315
 2006SOL    HW1 6917   5.283   0.381   3.273
 2006SOL    HW2 6918   5.443   0.352   3.278
 2007SOL     OW 6919   4.921   4.506   1.215
 2007SOL    HW1 6920   4.822   4.502   1.201
 2007SOL    HW2 6921   4.949   4.433   1.277
 2008SOL     OW 6922   2.096   4.096   3.777
 2008SOL    HW1 6923   2.126   4.001   3.766
 2008SOL    HW2 6924   2.022   4.115   3.712
 2009SOL     OW 6925   4.923   0.106   2.557
 2009SOL    HW1 6926   4.960   0.013   2.547
 2009SOL    HW2 6927   4.996   0.168   2.586
 2010SOL     OW 6928   2.520   1.599   1.639
 2010SOL    HW1 6929   2.576   1.581   1.558
 2010SOL    HW2 6930   2.578   1.605   1.720
 2011SOL     OW 6931   0.567   0.736   4.838
 2011SOL    HW1 6932   0.633   0.718   4.765
 2011SOL    HW2 6933   0.548   0.834   4.842
 2012SOL     OW 6934   1.057   3.807   2.642
 2012SOL    HW1 6935   1.090   3.753   2.564
 2012SOL    HW2 6936   0.963   3.836   2.625
 2013SOL     OW 6937   5.879   3.058   3.691
 2013SOL    HW1 6938   5.806   3.042   3.756
 2013SOL    HW2 6939   5.937   3.134   3.722
 2014SOL     OW 6940   2.897   6.783   3.177
 2014SOL    HW1 6941   2.937   6.721   3.109
 2014SOL    HW2 6942   2.837   6.730   3.239
 2015SOL     OW 6943   2.427   0.172   0.941
 2015SOL    HW1 6944   2.427   0.267   0.910
 2015SOL    HW2 6945   2.445   0.112   0.863
 2016SOL     OW 6946   1.483   5.839   5.823
 2016SOL    HW1 6947   1.470   5.754   5.773
 2016SOL    HW2 6948   1.408   5.852   5.887
 2017SOL     OW 6949   4.021   0.669   3.254
 2017SOL    HW1 6950   4.113   0.681   3.215
 2017SOL    HW2 6951   3.957   0.728   3.206
 2018SOL     OW 6952   5.913   2.955   3.456
 2018SOL    HW1 6953   5.891   2.997   3.544
 2018SOL    HW2 6954   5.892   2.857   3.460
 2019SOL     OW 6955   5.429   3.820   6.520
 2019SOL    HW1 6956   5.499   3.761   6.561
 2019SOL    HW2 6957   5.370   3.766   6.460
 2020SOL     OW 6958   1.917   6.877   6.398
 2020SOL    HW1 6959   1.912   6.976   6.387
 2020SOL    HW2 6960   1.987   6.854   6.466
 2021SOL     OW 6961   6.485   6.645   4.790
 2021SOL    HW1 6962   6.571   6.648   4.740
 2021SOL    HW2 6963   6.449   6.738   4.800
 2022SOL     OW 6964   1.717   4.560   3.912
 2022SOL    HW1 6965   1.792   4.525   3.855
 2022SOL    HW2 6966   1.661   4.483   3.943
 2023SOL     OW 6967   0.337   0.542   6.567
 2023SOL    HW1 6968   0.364   0.447   6.552
 2023SOL    HW2 6969   0.387   0.601   6.504
 2024SOL     OW 6970   0.223   5.343   3.962
 2024SOL    HW1 6971   0.235   5.285   3.882
 2024SOL    HW2 6972   0.300   5.406   3.969
 2025SOL     OW 6973   4.036   1.059   3.964
 2025SOL    HW1 6974   4.021   1.066   4.063
 2025SOL    HW2 6975   4.027   0.963   3.936
 2026SOL     OW 6976   6.332   2.219   5.976
 2026SOL    HW1 6977   6.271   2.295   5.998
 2026SOL    HW2 6978   6.285   2.132   5.992
 2027SOL     OW 6979   1.453   0.284   1.260
 2027SOL    HW1 6980   1.444   0.357   1.192
 2027SOL    HW2 6981   1.362   0.254   1.289
 2028SOL     OW 6982   3.251   5.721   4.586
 2028SOL    HW1 6983   3.326   5.679   4.535
 2028SOL    HW2 6984   3.214   5.655   4.652
 2029SOL     OW 6985   6.221   1.767   0.257
 2029SOL    HW1 6986   6.245   1.863   0.266
 2029SOL    HW2 6987   6.186   1.733   0.345
 2030SOL     OW 6988   2.966   0.475   3.643
 2030SOL    HW1 6989   3.010   0.429   3.566
 2030SOL    HW2 6990   2.867   0.477   3.629
 2031SOL     OW 6991   6.461   5.917   1.607
 2031SOL    HW1 6992   6.509   5.873   1.531
 2031SOL    HW2 6993   6.394   5.982   1.571
 2032SOL     OW 6994   4.008   1.326   1.598
 2032SOL    HW1 6995   3.999   1.420   1.629
 2032SOL    HW2 6996   4.102   1.294   1.613
 2033SOL     OW 6997   2.410   1.861   0.433
 2033SOL    HW1 6998   2.424   1.818   0.344
 2033SOL    HW2 6999   2.327   1.825   0.475
 2034SOL     OW 7000   2.611   4.979   5.643
 2034SOL    HW1 7001   2.599   5.049   5.714
 2034SOL    HW2 7002   2.669   5.015   5.570
 2035SOL     OW 7003   6.337   6.636   3.462
 2035SOL    HW1 7004   6.345   6.728   3.422
 2035SOL    HW2 7005   6.302   6.644   3.556
 2036SOL     OW 7006   1.369   3.413   2.700
 2036SOL    HW1 7007   1.364   3.406   2.600
 2036SOL    HW2 7008   1.459   3.447   2.727
 2037SOL     OW 7009   6.471   2.776   5.909
 2037SOL    HW1 7010   6.450   2.800   5.815
 2037SOL    HW2 7011   6.570   2.769   5.920
 2038SOL     OW 7012   2.215   1.734   0.567
 2038SOL    HW1 7013   2.147   1.686   0.623
 2038SOL    HW2 7014   2.180   1.745   0.474
 2039SOL     OW 7015   6.747   5.996   3.384
 2039SOL    HW1 7016   6.654   6.027   3.367
 2039SOL    HW2 7017   6.747   5.899   3.405
 2040SOL     OW 7018   1.685   2.540   6.956
 2040SOL    HW1 7019   1.691   2.450   6.998
 2040SOL    HW2 7020   1.766   2.556   6.899
 2041SOL     OW 7021   0.972   0.291   5.024
 2041SOL    HW1 7022   0.982   0.245   5.113
 2041SOL    HW2 7023   1.030   0.245   4.957
 2042SOL     OW 7024   5.335   6.248   6.298
 2042SOL    HW1 7025   5.301   6.200   6.217
 2042SOL    HW2 7026   5.273   6.231   6.375
 2043SOL     OW 7027   6.492   2.606   2.459
 2043SOL    HW1 7028   6.465   2.511   2.443
 2043SOL    HW2 7029   6.552   2.637   2.385
 2044SOL     OW 7030   6.295   0.636   1.084
 2044SOL    HW1 7031   6.353   0.577   1.140
 2044SOL    HW2 7032   6.221   0.672   1.140
 2045SOL     OW 7033   1.285   4.717   4.433
 2045SOL    HW1 7034   1.263   4.631   4.388
 2045SOL    HW2 7035   1.343   4.700   4.512
 2046SOL     OW 7036   6.161   1.890   4.831
 2046SOL    HW1 7037   6.205   1.977   4.850
 2046SOL    HW2 7038   6.132   1.848   4.918
 2047SOL     OW 7039   0.082   2.459   0.136
 2047SOL    HW1 7040   0.169   2.420   0.105
 2047SOL    HW2 7041   0.011   2.437   0.070
 2048SOL     OW 7042   0.258   0.169   4.997
 2048SOL    HW1 7043   0.342   0.199   5.044
 2048SOL    HW2 7044   0.190   0.242   5.002
 2049SOL     OW 7045   5.826   1.566   4.408
 2049SOL    HW1 7046   5.909   1.518   4.436
 2049SOL    HW2 7047   5.755   1.500   4.385
 2050SOL     OW 7048   6.762   2.549   4.123
 2050SOL    HW1 7049   6.674   2.528   4.167
 2050SOL    HW2 7050   6.768   2.498   4.037
 2051SOL     OW 7051   1.687   6.265   6.767
 2051SOL    HW1 7052   1.701   6.252   6.865
 2051SOL    HW2 7053   1.774   6.252   6.719
 2052SOL     OW 7054   1.631   2.651   1.166
 2052SOL    HW1 7055   1.651   2.707   1.085
 2052SOL    HW2 7056   1.716   2.614   1.203
 2053SOL     OW 7057   6.923   5.391   4.787
 2053SOL    HW1 7058   6.835   5.376   4.831
 2053SOL    HW2 7059   6.993   5.334   4.830
 2054SOL     OW 7060   3.083   3.665   2.962
 2054SOL    HW1 7061   3.076   3.609   2.880
 2054SOL    HW2 7062   3.179   3.683   2.982
 2055SOL     OW 7063   5.781   2.650   4.951
 2055SOL    HW1 7064   5.878   2.628   4.953
 2055SOL    HW2 7065   5.728   2.570   4.978
 2056SOL     OW 7066   4.207   5.357   1.756
 2056SOL    HW1 7067   4.227   5.442   1.806
 2056SOL    HW2 7068   4.195   5.282   1.821
 2057SOL     OW 7069   5.093   3.710   5.714
 2057SOL    HW1 7070   5.104   3.771   5.792
 2057SOL    HW2 7071   5.007   3.660   5.723
 2058SOL     OW 7072   0.158   6.498   2.476
 2058SOL    HW1 7073   0.103   6.419   2.503
 2058SOL    HW2 7074   0.238   6.506   2.536
 2059SOL     OW 7075   2.046   6.287   6.843
 2059SOL    HW1 7076   1.970   6.337   6.884
 2059SOL    HW2 7077   2.032   6.188   6.856
 2060SOL     OW 7078   0.655   3.828   1.887
 2060SOL    HW1 7079   0.721   3.786   1.949
 2060SOL    HW2 7080   0.591   3.759   1.853
 2061SOL     OW 7081   1.589   2.218   2.426
 2061SOL    HW1 7082   1.664   2.284   2.423
 2061SOL    HW2 7083   1.566   2.199   2.521
 2062SOL     OW 7084   0.212   6.100   5.630
 2062SOL    HW1 7085   0.244   6.176   5.574
 2062SOL    HW2 7086   0.188   6.133   5.721
 2063SOL     OW 7087   1.152   6.232   5.246
 2063SOL    HW1 7088   1.126   6.202   5.337
 2063SOL    HW2 7089   1.074   6.275   5.201
 2064SOL     OW 7090   0.201   2.276   4.792
 2064SOL    HW1 7091   0.103   2.294   4.782
 2064SOL    HW2 7092   0.218   2.178   4.780
 2065SOL     OW 7093   6.280   2.969   6.074
 2065SOL    HW1 7094   6.235   2.895   6.024
 2065SOL    HW2 7095   6.346   3.014   6.014
 2066SOL     OW 7096   6.874   3.957   5.285
 2066SOL    HW1 7097   6.792   3.947   5.342
 2066SOL    HW2 7098   6.852   4.009   5.203
 2067SOL     OW 7099   6.976   5.185   1.081
 2067SOL    HW1 7100   6.942   5.117   1.015
 2067SOL    HW2 7101   6.981   5.274   1.037
 2068SOL     OW 7102   3.772   0.234   4.178
 2068SOL    HW1 7103   3.831   0.169   4.226
 2068SOL    HW2 7104   3.777   0.217   4.080
 2069SOL     OW 7105   6.863   2.258   4.031
 2069SOL    HW1 7106   6.767   2.285   4.037
 2069SOL    HW2 7107   6.870   2.158   4.038
 2070SOL     OW 7108   0.992   1.844   0.895
 2070SOL    HW1 7109   0.903   1.806   0.918
 2070SOL    HW2 7110   1.060   1.815   0.963
 2071SOL     OW 7111   6.175   0.838   5.879
 2071SOL    HW1 7112   6.155   0.878   5.969
 2071SOL    HW2 7113   6.236   0.759   5.891
 2072SOL     OW 7114   4.650   5.505   4.557
 2072SOL    HW1 7115   4.723   5.445   4.589
 2072SOL    HW2 7116   4.595   5.535   4.635
 2073SOL     OW 7117   3.789   6.053   5.269
 2073SOL    HW1 7118   3.742   6.063   5.357
 2073SOL    HW2 7119   3.848   6.133   5.254
 2074SOL     OW 7120   1.749   2.712   6.607
 2074SOL    HW1 7121   1.763   2.773   6.529
 2074SOL    HW2 7122   1.837   2.690   6.649
 2075SOL     OW 7123   6.858   2.684   2.556
 2075SOL    HW1 7124   6.932   2.625   2.588
 2075SOL    HW2 7125   6.815   2.729   2.635
 2076SOL     OW 7126   5.567   6.283   6.084
 2076SOL    HW1 7127   5.492   6.230   6.125
 2076SOL    HW2 7128   5.608   6.341   6.154
 2077SOL     OW 7129   6.718   2.140   1.716
 2077SOL    HW1 7130   6.772   2.108   1.795
 2077SOL    HW2 7131   6.694   2.061   1.659
 2078SOL     OW 7132   1.941   5.220   6.621
 2078SOL    HW1 7133   2.024   5.233   6.674
 2078SOL    HW2 7134   1.935   5.125   6.591
 2079SOL     OW 7135   0.056   0.908   2.913
 2079SOL    HW1 7136   0.081   1.001   2.941
 2079SOL    HW2 7137   7.000   0.912   2.843
 2080SOL     OW 7138   3.000   0.973   5.105
 2080SOL    HW1 7139   2.932   0.950   5.036
 2080SOL    HW2 7140   3.049   0.891   5.134
 2081SOL     OW 7141   0.924   6.679   4.605
 2081SOL    HW1 7142   0.890   6.655   4.514
 2081SOL    HW2 7143   1.015   6.719   4.596
 2082SOL     OW 7144   1.110   6.594   3.482
 2082SOL    HW1 7145   1.048   6.521   3.454
 2082SOL    HW2 7146   1.196   6.555   3.514
 2083SOL     OW 7147   1.468   5.912   5.042
 2083SOL    HW1 7148   1.420   5.843   5.095
 2083SOL    HW2 7149   1.416   5.997   5.042
 2084SOL     OW 7150   0.941   2.695   2.247
 2084SOL    HW1 7151   0.847   2.727   2.250
 2084SOL    HW2 7152   0.986   2.729   2.164
 2085SOL     OW 7153   4.931   6.514   1.034
 2085SOL    HW1 7154   5.030   6.501   1.040
 2085SOL    HW2 7155   4.898   6.553   1.120
 2086SOL     OW 7156   3.694   5.960   0.344
 2086SOL    HW1 7157   3.704   6.023   0.267
 2086SOL    HW2 7158   3.781   5.950   0.391
 2087SOL     OW 7159   4.512   2.244   0.940
 2087SOL    HW1 7160   4.419   2.229   0.907
 2087SOL    HW2 7161   4.577   2.229   0.865
 2088SOL     OW 7162   1.696   5.720   6.434
 2088SOL    HW1 7163   1.675   5.627   6.404
 2088SOL    HW2 7164   1.625   5.782   6.401
 2089SOL     OW 7165   4.589   2.359   5.383
 2089SOL    HW1 7166   4.650   2.429   5.346
 2089SOL    HW2 7167   4.620   2.332   5.474
 2090SOL     OW 7168   4.999   3.054   5.498
 2090SOL    HW1 7169   5.004   3.154   5.495
 2090SOL    HW2 7170   5.061   3.015   5.429
 2091SOL     OW 7171   6.844   5.706   0.934
 2091SOL    HW1 7172   6.836   5.766   0.854
 2091SOL    HW2 7173   6.753   5.689   0.972
 2092SOL     OW 7174   5.904   3.488   0.813
 2092SOL    HW1 7175   5.904   3.550   0.735
 2092SOL    HW2 7176   5.861   3.532   0.892
 2093SOL     OW 7177   3.296   1.906   1.717
 2093SOL    HW1 7178   3.290   1.816   1.758
 2093SOL    HW2 7179   3.330   1.972   1.785
 2094SOL     OW 7180   5.171   1.909   1.329
 2094SOL    HW1 7181   5.148   1.918   1.233
 2094SOL    HW2 7182   5.248   1.970   1.351
 2095SOL     OW 7183   6.032   6.734   3.937
 2095SOL    HW1 7184   5.937   6.715   3.909
 2095SOL    HW2 7185   6.050   6.832   3.928
 2096SOL     OW 7186   4.588   5.706   3.395
 2096SOL    HW1 7187   4.615   5.703   3.299
 2096SOL    HW2 7188   4.656   5.757   3.447
 2097SOL     OW 7189   2.872   3.488   0.041
 2097SOL    HW1 7190   2.894   3.437   0.125
 2097SOL    HW2 7191   2.868   3.586   0.062
 2098SOL     OW 7192   4.007   6.114   3.038
 2098SOL    HW1 7193   4.004   6.017   3.061
 2098SOL    HW2 7194   4.102   6.143   3.026
 2099SOL     OW 7195   4.580   0.915   6.741
 2099SOL    HW1 7196   4.601   0.984   6.672
 2099SOL    HW2 7197   4.574   0.958   6.831
 2100SOL     OW 7198   4.980   1.370   0.536
 2100SOL    HW1 7199   4.911   1.429   0.495
 2100SOL    HW2 7200   4.976   1.279   0.494
 2101SOL     OW 7201   6.930   6.207   1.002
 2101SOL    HW1 7202   6.976   6.177   0.919
 2101SOL    HW2 7203   6.955   6.148   1.078
 2102SOL     OW 7204   4.618   3.559   1.655
 2102SOL    HW1 7205   4.690   3.506   1.699
 2102SOL    HW2 7206   4.658   3.634   1.603
 2103SOL     OW 7207   3.961   3.973   0.331
 2103SOL    HW1 7208   3.931   3.878   0.323
 2103SOL    HW2 7209   4.054   3.976   0.366
 2104SOL     OW 7210   1.309   4.600   1.793
 2104SOL    HW1 7211   1.284   4.519   1.846
 2104SOL    HW2 7212   1.408   4.602   1.780
 2105SOL     OW 7213   4.128   5.053   6.840
 2105SOL    HW1 7214   4.099   5.033   6.934
 2105SOL    HW2 7215   4.227   5.043   6.833
 2106SOL     OW 7216   5.118   3.749   0.865
 2106SOL    HW1 7217   5.034   3.744   0.811
 2106SOL    HW2 7218   5.194   3.776   0.806
 2107SOL     OW 7219   5.954   2.624   5.558
 2107SOL    HW1 7220   6.027   2.604   5.623
 2107SOL    HW2 7221   5.955   2.721   5.536
 2108SOL     OW 7222   5.915   5.549   4.809
 2108SOL    HW1 7223   5.842   5.485   4.834
 2108SOL    HW2 7224   5.974   5.564   4.889
 2109SOL     OW 7225   2.764   5.938   2.459
 2109SOL    HW1 7226   2.780   5.944   2.360
 2109SOL    HW2 7227   2.846   5.902   2.503
 2110SOL     OW 7228   3.774   0.691   6.100
 2110SOL    HW1 7229   3.730   0.719   6.186
 2110SOL    HW2 7230   3.846   0.757   6.076
 2111SOL     OW 7231   1.827   3.015   5.432
 2111SOL    HW1 7232   1.769   2.943   5.470
 2111SOL    HW2 7233   1.922   2.998   5.455
 2112SOL     OW 7234   5.189   2.166   6.966
 2112SOL    HW1 7235   5.116   2.176   0.017
 2112SOL    HW2 7236   5.191   2.072   6.932
 2113SOL     OW 7237   2.031   0.182   5.138
 2113SOL    HW1 7238   2.014   0.123   5.218
 2113SOL    HW2 7239   2.116   0.232   5.152
 2114SOL     OW 7240   1.985   2.639   6.740
 2114SOL    HW1 7241   2.068   2.654   6.793
 2114SOL    HW2 7242   1.955   2.544   6.752
 2115SOL     OW 7243   0.990   4.097   2.161
 2115SOL    HW1 7244   0.990   4.196   2.145
 2115SOL    HW2 7245   1.027   4.050   2.081
 2116SOL     OW 7246   1.401   3.448   1.531
 2116SOL    HW1 7247   1.375   3.378   1.464
 2116SOL    HW2 7248   1.379   3.416   1.623
 2117SOL     OW 7249   5.530   3.870   1.388
 2117SOL    HW1 7250   5.530   3.834   1.481
 2117SOL    HW2 7251   5.606   3.934   1.377
 2118SOL     OW 7252   6.559   3.314   2.653
 2118SOL    HW1 7253   6.599   3.401   2.626
 2118SOL    HW2 7254   6.489   3.330   2.724
 2119SOL     OW 7255   1.973   1.222   0.941
 2119SOL    HW1 7256   1.992   1.290   1.011
 2119SOL    HW2 7257   2.059   1.187   0.904
 2120SOL     OW 7258   0.187   2.822   2.074
 2120SOL    HW1 7259   0.108   2.761   2.069
 2120SOL    HW2 7260   0.265   2.772   2.111
 2121SOL     OW 7261   2.108   2.692   6.193
 2121SOL    HW1 7262   2.118   2.602   6.151
 2121SOL    HW2 7263   2.114   2.762   6.121
 2122SOL     OW 7264   5.921   6.310   5.559
 2122SOL    HW1 7265   5.896   6.393   5.609
 2122SOL    HW2 7266   6.001   6.268   5.602
 2123SOL     OW 7267   6.269   6.430   2.258
 2123SOL    HW1 7268   6.278   6.378   2.343
 2123SOL    HW2 7269   6.359   6.464   2.230
 2124SOL     OW 7270   2.947   1.661   0.095
 2124SOL    HW1 7271   2.879   1.634   0.026
 2124SOL    HW2 7272   3.021   1.594   0.097
 2125SOL     OW 7273   0.720   5.524   2.231
 2125SOL    HW1 7274   0.631   5.485   2.208
 2125SOL    HW2 7275   0.772   5.540   2.147
 2126SOL     OW 7276   3.711   2.608   6.054
 2126SOL    HW1 7277   3.717   2.633   5.957
 2126SOL    HW2 7278   3.615   2.590   6.078
 2127SOL     OW 7279   0.804   1.882   5.517
 2127SOL    HW1 7280   0.775   1.908   5.609
 2127SOL    HW2 7281   0.734   1.824   5.476
 2128SOL     OW 7282   5.769   2.372   1.691
 2128SOL    HW1 7283   5.685   2.353   1.741
 2128SOL    HW2 7284   5.747   2.397   1.597
 2129SOL     OW 7285   4.523   4.451   4.386
 2129SOL    HW1 7286   4.507   4.501   4.471
 2129SOL    HW2 7287   4.444   4.463   4.325
 2130SOL     OW 7288   2.292   1.711   1.680
 2130SOL    HW1 7289   2.261   1.657   1.758
 2130SOL    HW2 7290   2.382   1.678   1.650
 2131SOL     OW 7291   4.682   1.540   0.969
 2131SOL    HW1 7292   4.776   1.543   1.003
 2131SOL    HW2 7293   4.650   1.445   0.965
 2132SOL     OW 7294   3.352   1.410   6.992
 2132SOL    HW1 7295   3.329   1.392   6.896
 2132SOL    HW2 7296   3.390   1.327   0.018
 2133SOL     OW 7297   3.670   2.102   0.711
 2133SOL    HW1 7298   3.676   2.153   0.797
 2133SOL    HW2 7299   3.649   2.007   0.731
 2134SOL     OW 7300   1.131   0.734   4.790
 2134SOL    HW1 7301   1.080   0.791   4.855
 2134SOL    HW2 7302   1.225   0.766   4.783
 2135SOL     OW 7303   0.535   1.585   4.599
 2135SOL    HW1 7304   0.626   1.553   4.572
 2135SOL    HW2 7305   0.479   1.595   4.517
 2136SOL     OW 7306   1.260   3.435   4.294
 2136SOL    HW1 7307   1.207   3.519   4.299
 2136SOL    HW2 7308   1.357   3.456   4.309
 2137SOL     OW 7309   0.389   6.549   4.360
 2137SOL    HW1 7310   0.394   6.646   4.336
 2137SOL    HW2 7311   0.407   6.494   4.279
 2138SOL     OW 7312   6.218   2.758   1.815
 2138SOL    HW1 7313   6.232   2.660   1.828
 2138SOL    HW2 7314   6.258   2.808   1.891
 2139SOL     OW 7315   3.941   1.384   3.331
 2139SOL    HW1 7316   3.911   1.459   3.390
 2139SOL    HW2 7317   4.041   1.378   3.333
 2140SOL     OW 7318   3.091   6.237   3.489
 2140SOL    HW1 7319   3.000   6.243   3.448
 2140SOL    HW2 7320   3.099   6.303   3.564
 2141SOL     OW 7321   6.446   2.887   1.617
 2141SOL    HW1 7322   6.506   2.945   1.562
 2141SOL    HW2 7323   6.351   2.917   1.607
 2142SOL     OW 7324   1.436   2.103   3.405
 2142SOL    HW1 7325   1.459   2.056   3.490
 2142SOL    HW2 7326   1.369   2.049   3.354
 2143SOL     OW 7327   3.073   5.239   1.090
 2143SOL    HW1 7328   3.035   5.261   1.000
 2143SOL    HW2 7329   3.116   5.321   1.128
 2144SOL     OW 7330   1.941   0.747   3.020
 2144SOL    HW1 7331   1.878   0.773   3.094
 2144SOL    HW2 7332   1.941   0.648   3.010
 2145SOL     OW 7333   3.488   5.406   4.280
 2145SOL    HW1 7334   3.563   5.447   4.228
 2145SOL    HW2 7335   3.476   5.310   4.252
 2146SOL     OW 7336   3.031   3.725   2.272
 2146SOL    HW1 7337   3.052   3.707   2.176
 2146SOL    HW2 7338   2.971   3.805   2.279
 2147SOL     OW 7339   6.562   1.274   0.200
 2147SOL    HW1 7340   6.642   1.266   0.142
 2147SOL    HW2 7341   6.502   1.347   0.165
 2148SOL     OW 7342   5.078   3.140   4.174
 2148SOL    HW1 7343   5.140   3.217   4.186
 2148SOL    HW2 7344   5.091   3.074   4.248
 2149SOL     OW 7345   3.863   0.627   1.116
 2149SOL    HW1 7346   3.809   0.556   1.072
 2149SOL    HW2 7347   3.933   0.660   1.053
 2150SOL     OW 7348   3.249   2.044   2.155
 2150SOL    HW1 7349   3.311   2.010   2.083
 2150SOL    HW2 7350   3.164   2.076   2.113
 2151SOL     OW 7351   2.587   1.813   4.382
 2151SOL    HW1 7352   2.548   1.723   4.364
 2151SOL    HW2 7353   2.514   1.877   4.404
 2152SOL     OW 7354   4.078   6.305   2.269
 2152SOL    HW1 7355   4.047   6.249   2.193
 2152SOL    HW2 7356   4.002   6.361   2.303
 2153SOL     OW 7357   4.010   0.801   3.848
 2153SOL    HW1 7358   4.057   0.714   3.865
 2153SOL    HW2 7359   4.058   0.851   3.776
 2154SOL     OW 7360   3.359   6.092   4.804
 2154SOL    HW1 7361   3.377   6.190   4.806
 2154SOL    HW2 7362   3.446   6.042   4.802
 2155SOL     OW 7363   1.564   4.833   0.555
 2155SOL    HW1 7364   1.553   4.913   0.614
 2155SOL    HW2 7365   1.651   4.840   0.506
 2156SOL     OW 7366   2.839   0.533   1.697
 2156SOL    HW1 7367   2.793   0.540   1.608
 2156SOL    HW2 7368   2.918   0.472   1.689
 2157SOL     OW 7369   6.491   1.083   3.114
 2157SOL    HW1 7370   6.482   1.150   3.040
 2157SOL    HW2 7371   6.449   1.120   3.197
 2158SOL     OW 7372   3.803   6.549   0.753
 2158SOL    HW1 7373   3.806   6.641   0.792
 2158SOL    HW2 7374   3.890   6.529   0.708
 2159SOL     OW 7375   1.336   6.075   5.616
 2159SOL    HW1 7376   1.392   6.017   5.558
 2159SOL    HW2 7377   1.261   6.021   5.655
 2160SOL     OW 7378   4.363   3.618   1.589
 2160SOL    HW1 7379   4.329   3.704   1.630
 2160SOL    HW2 7380   4.456   3.602   1.620
 2161SOL     OW 7381   4.919   3.528   3.673
 2161SOL    HW1 7382   4.898   3.449   3.731
 2161SOL    HW2 7383   4.975   3.593   3.725
 2162SOL     OW 7384   2.323   0.288   0.441
 2162SOL    HW1 7385   2.304   0.363   0.505
 2162SOL    HW2 7386   2.400   0.234   0.474
 2163SOL     OW 7387   6.824   5.622   6.255
 2163SOL    HW1 7388   6.803   5.546   6.194
 2163SOL    HW2 7389   6.750   5.634   6.321
 2164SOL     OW 7390   1.639   1.648   7.006
 2164SOL    HW1 7391   1.644   1.745   6.983
 2164SOL    HW2 7392   1.557   1.630   0.044
 2165SOL     OW 7393   1.468   1.446   2.979
 2165SOL    HW1 7394   1.521   1.380   2.926
 2165SOL    HW2 7395   1.451   1.410   3.071
 2166SOL     OW 7396   1.926   2.235   5.644
 2166SOL    HW1 7397   1.837   2.276   5.665
 2166SOL    HW2 7398   1.923   2.196   5.552
 2167SOL     OW 7399   2.468   0.644   2.622
 2167SOL    HW1 7400   2.508   0.713   2.561
 2167SOL    HW2 7401   2.369   0.652   2.621
 2168SOL     OW 7402   6.491   2.020   4.323
 2168SOL    HW1 7403   6.477   2.085   4.248
 2168SOL    HW2 7404   6.402   1.990   4.358
 2169SOL     OW 7405   5.616   1.995   6.526
 2169SOL    HW1 7406   5.593   2.091   6.515
 2169SOL    HW2 7407   5.678   1.966   6.453
 2170SOL     OW 7408   5.824   4.695   5.162
 2170SOL    HW1 7409   5.759   4.670   5.233
 2170SOL    HW2 7410   5.834   4.620   5.097
 2171SOL     OW 7411   6.204   2.899   0.855
 2171SOL    HW1 7412   6.211   2.935   0.762
 2171SOL    HW2 7413   6.233   2.803   0.856
 2172SOL     OW 7414   3.089   1.395   0.684
 2172SOL    HW1 7415   3.148   1.468   0.648
 2172SOL    HW2 7416   3.008   1.386   0.626
 2173SOL     OW 7417   3.724   0.485   5.689
 2173SOL    HW1 7418   3.662   0.448   5.620
 2173SOL    HW2 7419   3.742   0.581   5.668
 2174SOL     OW 7420   6.539   4.955   5.797
 2174SOL    HW1 7421   6.464   4.901   5.833
 2174SOL    HW2 7422   6.545   4.943   5.698
 2175SOL     OW 7423   3.048   2.162   2.901
 2175SOL    HW1 7424   3.034   2.207   2.989
 2175SOL    HW2 7425   3.137   2.117   2.900
 2176SOL     OW 7426   0.923   2.239   1.515
 2176SOL    HW1 7427   0.827   2.224   1.535
 2176SOL    HW2 7428   0.951   2.327   1.554
 2177SOL     OW 7429   6.428   0.597   2.238
 2177SOL    HW1 7430   6.362   0.526   2.215
 2177SOL    HW2 7431   6.513   0.581   2.187
 2178SOL     OW 7432   0.803   4.371   0.517
 2178SOL    HW1 7433   0.704   4.372   0.511
 2178SOL    HW2 7434   0.838   4.283   0.482
 2179SOL     OW 7435   2.239   5.449   4.516
 2179SOL    HW1 7436   2.215   5.512   4.590
 2179SOL    HW2 7437   2.334   5.465   4.489
 2180SOL     OW 7438   2.953   3.128   2.036
 2180SOL    HW1 7439   2.974   3.030   2.030
 2180SOL    HW2 7440   3.000   3.176   1.962
 2181SOL     OW 7441   4.501   4.187   5.641
 2181SOL    HW1 7442   4.455   4.144   5.563
 2181SOL    HW2 7443   4.435   4.205   5.714
 2182SOL     OW 7444   6.447   3.338   6.131
 2182SOL    HW1 7445   6.522   3.273   6.138
 2182SOL    HW2 7446   6.383   3.307   6.060
 2183SOL     OW 7447   3.712   3.565   0.467
 2183SOL    HW1 7448   3.710   3.466   0.484
 2183SOL    HW2 7449   3.719   3.614   0.554
 2184SOL     OW 7450   3.447   0.525   5.307
 2184SOL    HW1 7451   3.510   0.603   5.295
 2184SOL    HW2 7452   3.418   0.492   5.217
 2185SOL     OW 7453   1.914   1.582   1.542
 2185SOL    HW1 7454   1.883   1.646   1.613
 2185SOL    HW2 7455   1.954   1.502   1.586
 2186SOL     OW 7456   0.261   4.323   2.329
 2186SOL    HW1 7457   0.352   4.323   2.287
 2186SOL    HW2 7458   0.271   4.341   2.427
 2187SOL     OW 7459   0.554   1.015   1.732
 2187SOL    HW1 7460   0.601   1.060   1.808
 2187SOL    HW2 7461   0.464   1.058   1.718
 2188SOL     OW 7462   4.644   5.917   3.792
 2188SOL    HW1 7463   4.587   5.846   3.833
 2188SOL    HW2 7464   4.627   6.004   3.837
 2189SOL     OW 7465   1.196   6.787   6.370
 2189SOL    HW1 7466   1.257   6.775   6.449
 2189SOL    HW2 7467   1.182   6.884   6.354
 2190SOL     OW 7468   6.440   2.426   1.466
 2190SOL    HW1 7469   6.495   2.345   1.445
 2190SOL    HW2 7470   6.344   2.399   1.479
 2191SOL     OW 7471   3.641   1.897   6.263
 2191SOL    HW1 7472   3.716   1.957   6.236
 2191SOL    HW2 7473   3.653   1.870   6.359
 2192SOL     OW 7474   4.063   0.140   4.758
 2192SOL    HW1 7475   4.028   0.234   4.759
 2192SOL    HW2 7476   4.163   0.142   4.749
 2193SOL     OW 7477   6.547   5.588   6.117
 2193SOL    HW1 7478   6.578   5.660   6.054
 2193SOL    HW2 7479   6.518   5.630   6.203
 2194SOL     OW 7480   2.532   5.503   0.202
 2194SOL    HW1 7481   2.561   5.414   0.237
 2194SOL    HW2 7482   2.469   5.490   0.126
 2195SOL     OW 7483   6.893   6.701   1.780
 2195SOL    HW1 7484   6.984   6.683   1.818
 2195SOL    HW2 7485   6.895   6.784   1.726
 2196SOL     OW 7486   1.993   0.549   5.910
 2196SOL    HW1 7487   2.059   0.603   5.858
 2196SOL    HW2 7488   1.901   0.565   5.874
 2197SOL     OW 7489   5.027   3.957   1.612
 2197SOL    HW1 7490   5.110   3.901   1.614
 2197SOL    HW2 7491   5.027   4.018   1.690
 2198SOL     OW 7492   6.892   2.660   6.957
 2198SOL    HW1 7493   6.897   2.563   6.934
 2198SOL    HW2 7494   6.969   2.684   0.001
 2199SOL     OW 7495   5.236   6.818   1.242
 2199SOL    HW1 7496   5.275   6.726   1.230
 2199SOL    HW2 7497   5.157   6.829   1.181
 2200SOL     OW 7498   3.988   0.401   4.214
 2200SOL    HW1 7499   4.077   0.356   4.205
 2200SOL    HW2 7500   3.916   0.335   4.195
 2201SOL     OW 7501   6.069   3.945   2.342
 2201SOL    HW1 7502   6.046   3.849   2.321
 2201SOL    HW2 7503   5.991   4.003   2.321
 2202SOL     OW 7504   3.309   5.187   4.529
 2202SOL    HW1 7505   3.398   5.175   4.486
 2202SOL    HW2 7506   3.293   5.111   4.593
 2203SOL     OW 7507   3.432   2.076   2.566
 2203SOL    HW1 7508   3.498   2.001   2.554
 2203SOL    HW2 7509   3.355   2.063   2.503
 2204SOL     OW 7510   3.782   1.525   6.404
 2204SOL    HW1 7511   3.709   1.469   6.367
 2204SOL    HW2 7512   3.869   1.477   6.396
 2205SOL     OW 7513   1.139   0.435   6.567
 2205SOL    HW1 7514   1.230   0.452   6.529
 2205SOL    HW2 7515   1.148   0.387   6.654
 2206SOL     OW 7516   3.138   4.027   5.516
 2206SOL    HW1 7517   3.070   3.966   5.475
 2206SOL    HW2 7518   3.092   4.086   5.583
 2207SOL     OW 7519   1.874   4.463   6.483
 2207SOL    HW1 7520   1.813   4.466   6.562
 2207SOL    HW2 7521   1.966   4.436   6.513
 2208SOL     OW 7522   1.592   4.546   1.713
 2208SOL    HW1 7523   1.650   4.561   1.632
 2208SOL    HW2 7524   1.645   4.495   1.781
 2209SOL     OW 7525   1.136   5.948   5.764
 2209SOL    HW1 7526   1.187   5.969   5.848
 2209SOL    HW2 7527   1.123   5.849   5.757
 2210SOL     OW 7528   0.940   5.360   3.176
 2210SOL    HW1 7529   0.884   5.442   3.186
 2210SOL    HW2 7530   0.944   5.311   3.263
 2211SOL     OW 7531   5.491   1.500   5.731
 2211SOL    HW1 7532   5.433   1.421   5.715
 2211SOL    HW2 7533   5.446   1.582   5.696
 2212SOL     OW 7534   0.297   6.313   6.829
 2212SOL    HW1 7535   0.268   6.218   6.814
 2212SOL    HW2 7536   0.313   6.357   6.741
 2213SOL     OW 7537   4.571   2.528   4.770
 2213SOL    HW1 7538   4.531   2.497   4.683
 2213SOL    HW2 7539   4.579   2.627   4.770
 2214SOL     OW 7540   4.514   0.509   5.328
 2214SOL    HW1 7541   4.444   0.579   5.313
 2214SOL    HW2 7542   4.478   0.419   5.303
 2215SOL     OW 7543   6.970   1.185   5.595
 2215SOL    HW1 7544   6.957   1.269   5.647
 2215SOL    HW2 7545   0.011   1.121   5.648
 2216SOL     OW 7546   1.663   0.502   6.572
 2216SOL    HW1 7547   1.685   0.515   6.669
 2216SOL    HW2 7548   1.734   0.546   6.517
 2217SOL     OW 7549   3.467   0.212   1.140
 2217SOL    HW1 7550   3.486   0.278   1.213
 2217SOL    HW2 7551   3.372   0.220   1.112
 2218SOL     OW 7552   1.076   6.837   0.597
 2218SOL    HW1 7553   1.165   6.837   0.643
 2218SOL    HW2 7554   1.063   6.925   0.550
 2219SOL     OW 7555   1.556   4.033   3.394
 2219SOL    HW1 7556   1.584   3.941   3.366
 2219SOL    HW2 7557   1.569   4.096   3.317
 2220SOL     OW 7558   0.529   1.483   4.085
 2220SOL    HW1 7559   0.464   1.512   4.015
 2220SOL    HW2 7560   0.615   1.533   4.074
 2221SOL     OW 7561   0.119   1.635   0.068
 2221SOL    HW1 7562   0.084   1.578   0.142
 2221SOL    HW2 7563   0.160   1.577   7.012
 2222SOL     OW 7564   4.043   0.738   0.949
 2222SOL    HW1 7565   3.970   0.782   0.896
 2222SOL    HW2 7566   4.091   0.807   1.004
 2223SOL     OW 7567   5.749   5.289   3.572
 2223SOL    HW1 7568   5.766   5.381   3.538
 2223SOL    HW2 7569   5.651   5.276   3.586
 2224SOL     OW 7570   1.892   4.435   1.218
 2224SOL    HW1 7571   1.877   4.519   1.166
 2224SOL    HW2 7572   1.977   4.442   1.270
 2225SOL     OW 7573   6.362   4.707   2.594
 2225SOL    HW1 7574   6.414   4.691   2.678
 2225SOL    HW2 7575   6.375   4.630   2.531
 2226SOL     OW 7576   3.539   3.214   0.925
 2226SOL    HW1 7577   3.600   3.280   0.881
 2226SOL    HW2 7578   3.571   3.121   0.904
 2227SOL     OW 7579   6.085   4.148   6.720
 2227SOL    HW1 7580   6.027   4.186   6.792
 2227SOL    HW2 7581   6.087   4.212   6.642
 2228SOL     OW 7582   3.302   5.555   0.616
 2228SOL    HW1 7583   3.287   5.645   0.657
 2228SOL    HW2 7584   3.226   5.494   0.638
 2229SOL     OW 7585   4.646   1.898   3.824
 2229SOL    HW1 7586   4.707   1.907   3.902
 2229SOL    HW2 7587   4.573   1.834   3.846
 2230SOL     OW 7588   1.065   6.137   3.884
 2230SOL    HW1 7589   1.095   6.215   3.939
 2230SOL    HW2 7590   1.144   6.079   3.864
 2231SOL     OW 7591   1.602   1.797   2.485
 2231SOL    HW1 7592   1.604   1.833   2.392
 2231SOL    HW2 7593   1.590   1.872   2.551
 2232SOL     OW 7594   0.614   3.248   4.402
 2232SOL    HW1 7595   0.623   3.317   4.473
 2232SOL    HW2 7596   0.618   3.157   4.444
 2233SOL     OW 7597   3.244   4.981   0.182
 2233SOL    HW1 7598   3.190   4.900   0.159
 2233SOL    HW2 7599   3.341   4.961   0.165
 2234SOL     OW 7600   4.375   2.568   0.679
 2234SOL    HW1 7601   4.406   2.529   0.766
 2234SOL    HW2 7602   4.360   2.666   0.690
 2235SOL     OW 7603   1.444   0.247   0.370
 2235SOL    HW1 7604   1.377   0.181   0.404
 2235SOL    HW2 7605   1.420   0.272   0.276
 2236SOL     OW 7606   0.745   4.496   1.134
 2236SOL    HW1 7607   0.679   4.541   1.074
 2236SOL    HW2 7608   0.697   4.436   1.198
 2237SOL     OW 7609   6.474   3.482   4.671
 2237SOL    HW1 7610   6.508   3.470   4.578
 2237SOL    HW2 7611   6.547   3.464   4.737
 2238SOL     OW 7612   6.915   5.098   2.230
 2238SOL    HW1 7613   6.868   5.172   2.182
 2238SOL    HW2 7614   6.991   5.136   2.283
 2239SOL     OW 7615   4.059   4.806   3.926
 2239SOL    HW1 7616   4.116   4.861   3.988
 2239SOL    HW2 7617   4.101   4.716   3.913
 2240SOL     OW 7618   6.215   5.233   3.415
 2240SOL    HW1 7619   6.183   5.327   3.433
 2240SOL    HW2 7620   6.187   5.174   3.490
 2241SOL     OW 7621   0.173   5.909   2.396
 2241SOL    HW1 7622   0.137   5.937   2.484
 2241SOL    HW2 7623   0.203   5.813   2.401
 2242SOL     OW 7624   5.444   1.141   3.499
 2242SOL    HW1 7625   5.441   1.226   3.552
 2242SOL    HW2 7626   5.360   1.089   3.513
 2243SOL     OW 7627   2.147   6.163   5.100
 2243SOL    HW1 7628   2.146   6.260   5.123
 2243SOL    HW2 7629   2.061   6.120   5.129
 2244SOL     OW 7630   3.918   1.102   3.050
 2244SOL    HW1 7631   3.892   1.067   3.140
 2244SOL    HW2 7632   3.854   1.172   3.021
 2245SOL     OW 7633   0.446   2.235   2.363
 2245SOL    HW1 7634   0.367   2.191   2.321
 2245SOL    HW2 7635   0.452   2.330   2.331
 2246SOL     OW 7636   1.763   2.618   5.655
 2246SOL    HW1 7637   1.741   2.522   5.643
 2246SOL    HW2 7638   1.733   2.669   5.574
 2247SOL     OW 7639   2.707   2.064   6.060
 2247SOL    HW1 7640   2.628   2.069   5.999
 2247SOL    HW2 7641   2.778   2.007   6.018
 2248SOL     OW 7642   5.205   4.250   5.987
 2248SOL    HW1 7643   5.144   4.254   6.066
 2248SOL    HW2 7644   5.211   4.340   5.944
 2249SOL     OW 7645   6.149   6.422   2.906
 2249SOL    HW1 7646   6.092   6.433   2.988
 2249SOL    HW2 7647   6.138   6.502   2.847
 2250SOL     OW 7648   5.562   3.969   1.117
 2250SOL    HW1 7649   5.602   3.896   1.062
 2250SOL    HW2 7650   5.542   3.935   1.209
 2251SOL     OW 7651   6.050   1.769   0.483
 2251SOL    HW1 7652   6.083   1.737   0.572
 2251SOL    HW2 7653   5.954   1.796   0.491
 2252SOL     OW 7654   6.323   2.382   5.175
 2252SOL    HW1 7655   6.380   2.462   5.155
 2252SOL    HW2 7656   6.228   2.412   5.186
 2253SOL     OW 7657   0.941   2.950   6.600
 2253SOL    HW1 7658   0.966   3.047   6.593
 2253SOL    HW2 7659   0.850   2.942   6.640
 2254SOL     OW 7660   2.273   3.095   5.910
 2254SOL    HW1 7661   2.292   3.085   5.812
 2254SOL    HW2 7662   2.328   3.171   5.946
 2255SOL     OW 7663   6.424   2.319   1.161
 2255SOL    HW1 7664   6.471   2.295   1.246
 2255SOL    HW2 7665   6.402   2.416   1.162
 2256SOL     OW 7666   3.655   5.413   2.147
 2256SOL    HW1 7667   3.752   5.403   2.124
 2256SOL    HW2 7668   3.646   5.457   2.237
 2257SOL     OW 7669   1.077   2.686   4.657
 2257SOL    HW1 7670   1.048   2.596   4.691
 2257SOL    HW2 7671   1.176   2.694   4.664
 2258SOL     OW 7672   1.532   5.503   4.296
 2258SOL    HW1 7673   1.530   5.403   4.294
 2258SOL    HW2 7674   1.444   5.537   4.330
 2259SOL     OW 7675   5.255   3.633   6.420
 2259SOL    HW1 7676   5.303   3.606   6.337
 2259SOL    HW2 7677   5.225   3.551   6.470
 2260SOL     OW 7678   4.524   4.405   2.942
 2260SOL    HW1 7679   4.492   4.453   2.861
 2260SOL    HW2 7680   4.563   4.317   2.916
 2261SOL     OW 7681   5.833   6.518   0.754
 2261SOL    HW1 7682   5.760   6.579   0.723
 2261SOL    HW2 7683   5.904   6.513   0.684
 2262SOL     OW 7684   5.562   2.267   2.788
 2262SOL    HW1 7685   5.625   2.312   2.851
 2262SOL    HW2 7686   5.598   2.178   2.762
 2263SOL     OW 7687   2.400   6.179   6.114
 2263SOL    HW1 7688   2.314   6.137   6.083
 2263SOL    HW2 7689   2.437   6.126   6.190
 2264SOL     OW 7690   3.274   4.013   2.385
 2264SOL    HW1 7691   3.225   4.036   2.468
 2264SOL    HW2 7692   3.209   3.998   2.310
 2265SOL     OW 7693   0.368   1.156   3.511
 2265SOL    HW1 7694   0.344   1.248   3.480
 2265SOL    HW2 7695   0.289   1.096   3.502
 2266SOL     OW 7696   6.885   1.424   1.138
 2266SOL    HW1 7697   6.852   1.380   1.054
 2266SOL    HW2 7698   6.962   1.484   1.116
 2267SOL     OW 7699   5.720   2.629   4.415
 2267SOL    HW1 7700   5.710   2.694   4.490
 2267SOL    HW2 7701   5.816   2.601   4.408
 2268SOL     OW 7702   6.394   5.841   0.327
 2268SOL    HW1 7703   6.369   5.744   0.328
 2268SOL    HW2 7704   6.435   5.863   0.238
 2269SOL     OW 7705   5.954   5.454   5.178
 2269SOL    HW1 7706   5.863   5.412   5.176
 2269SOL    HW2 7707   5.966   5.501   5.265
 2270SOL     OW 7708   3.575   3.805   0.940
 2270SOL    HW1 7709   3.505   3.874   0.921
 2270SOL    HW2 7710   3.631   3.835   1.017
 2271SOL     OW 7711   6.270   4.223   1.252
 2271SOL    HW1 7712   6.308   4.226   1.160
 2271SOL    HW2 7713   6.252   4.316   1.284
 2272SOL     OW 7714   6.100   2.353   4.498
 2272SOL    HW1 7715   6.050   2.384   4.579
 2272SOL    HW2 7716   6.156   2.274   4.522
 2273SOL     OW 7717   1.999   1.558   3.153
 2273SOL    HW1 7718   1.931   1.627   3.131
 2273SOL    HW2 7719   2.087   1.602   3.171
 2274SOL     OW 7720   1.409   3.431   4.948
 2274SOL    HW1 7721   1.347   3.362   4.986
 2274SOL    HW2 7722   1.466   3.468   5.021
 2275SOL     OW 7723   4.340   0.144   4.766
 2275SOL    HW1 7724   4.381   0.057   4.741
 2275SOL    HW2 7725   4.359   0.212   4.695
 2276SOL     OW 7726   3.287   5.462   1.352
 2276SOL    HW1 7727   3.371   5.517   1.359
 2276SOL    HW2 7728   3.260   5.454   1.257
 2277SOL     OW 7729   3.155   3.308   4.457
 2277SOL    HW1 7730   3.123   3.221   4.419
 2277SOL    HW2 7731   3.175   3.298   4.554
 2278SOL     OW 7732   4.418   0.107   3.271
 2278SOL    HW1 7733   4.395   0.019   3.229
 2278SOL    HW2 7734   4.341   0.139   3.326
 2279SOL     OW 7735   5.832   4.498   3.846
 2279SOL    HW1 7736   5.820   4.429   3.918
 2279SOL    HW2 7737   5.742   4.531   3.818
 2280SOL     OW 7738   6.456   6.445   5.020
 2280SOL    HW1 7739   6.363   6.408   5.028
 2280SOL    HW2 7740   6.456   6.522   4.957
 2281SOL     OW 7741   3.273   1.617   1.217
 2281SOL    HW1 7742   3.312   1.664   1.296
 2281SOL    HW2 7743   3.345   1.600   1.150
 2282SOL     OW 7744   5.384   6.371   4.728
 2282SOL    HW1 7745   5.400   6.382   4.629
 2282SOL    HW2 7746   5.401   6.276   4.753
 2283SOL     OW 7747   6.495   3.610   2.081
 2283SOL    HW1 7748   6.524   3.533   2.025
 2283SOL    HW2 7749   6.398   3.600   2.103
 2284SOL     OW 7750   2.868   2.013   1.665
 2284SOL    HW1 7751   2.861   1.925   1.712
 2284SOL    HW2 7752   2.786   2.029   1.610
 2285SOL     OW 7753   1.214   3.565   0.260
 2285SOL    HW1 7754   1.197   3.660   0.233
 2285SOL    HW2 7755   1.307   3.539   0.233
 2286SOL     OW 7756   6.795   5.674   5.142
 2286SOL    HW1 7757   6.740   5.730   5.204
 2286SOL    HW2 7758   6.765   5.689   5.048
 2287SOL     OW 7759   2.606   3.249   1.632
 2287SOL    HW1 7760   2.632   3.167   1.581
 2287SOL    HW2 7761   2.522   3.232   1.683
 2288SOL     OW 7762   0.715   5.891   4.060
 2288SOL    HW1 7763   0.713   5.990   4.070
 2288SOL    HW2 7764   0.752   5.867   3.970
 2289SOL     OW 7765   5.697   3.011   1.984
 2289SOL    HW1 7766   5.783   3.056   1.960
 2289SOL    HW2 7767   5.716   2.931   2.041
 2290SOL     OW 7768   2.963   3.159   2.312
 2290SOL    HW1 7769   2.920   3.242   2.345
 2290SOL    HW2 7770   2.943   3.147   2.215
 2291SOL     OW 7771   1.968   1.950   1.045
 2291SOL    HW1 7772   2.047   2.011   1.058
 2291SOL    HW2 7773   1.888   1.989   1.090
 2292SOL     OW 7774   5.354   3.650   3.997
 2292SOL    HW1 7775   5.276   3.587   3.992
 2292SOL    HW2 7776   5.320   3.744   4.005
 2293SOL     OW 7777   5.957   1.125   0.474
 2293SOL    HW1 7778   6.034   1.108   0.412
 2293SOL    HW2 7779   5.929   1.040   0.517
 2294SOL     OW 7780   3.130   1.853   6.174
 2294SOL    HW1 7781   3.160   1.869   6.080
 2294SOL    HW2 7782   3.203   1.879   6.237
 2295SOL     OW 7783   6.654   0.817   2.350
 2295SOL    HW1 7784   6.717   0.747   2.383
 2295SOL    HW2 7785   6.560   0.789   2.371
 2296SOL     OW 7786   2.732   4.699   2.748
 2296SOL    HW1 7787   2.719   4.711   2.846
 2296SOL    HW2 7788   2.727   4.602   2.725
 2297SOL     OW 7789   4.556   4.767   5.689
 2297SOL    HW1 7790   4.595   4.730   5.773
 2297SOL    HW2 7791   4.458   4.782   5.702
 2298SOL     OW 7792   3.733   3.555   3.331
 2298SOL    HW1 7793   3.679   3.608   3.266
 2298SOL    HW2 7794   3.822   3.599   3.344
 2299SOL     OW 7795   4.798   4.016   5.126
 2299SOL    HW1 7796   4.803   3.946   5.054
 2299SOL    HW2 7797   4.707   4.015   5.167
 2300SOL     OW 7798   3.425   6.738   3.431
 2300SOL    HW1 7799   3.516   6.771   3.456
 2300SOL    HW2 7800   3.363   6.816   3.424
 2301SOL     OW 7801   3.384   2.955   4.011
 2301SOL    HW1 7802   3.402   2.885   3.942
 2301SOL    HW2 7803   3.302   3.007   3.985
 2302SOL     OW 7804   4.126   0.442   1.195
 2302SOL    HW1 7805   4.028   0.448   1.179
 2302SOL    HW2 7806   4.176   0.464   1.112
 2303SOL     OW 7807   2.608   3.026   1.406
 2303SOL    HW1 7808   2.545   3.089   1.362
 2303SOL    HW2 7809   2.557   2.948   1.443
 2304SOL     OW 7810   6.238   5.722   3.768
 2304SOL    HW1 7811   6.307   5.688   3.831
 2304SOL    HW2 7812   6.277   5.796   3.712
 2305SOL     OW 7813   1.711   0.676   3.998
 2305SOL    HW1 7814   1.740   0.720   4.083
 2305SOL    HW2 7815   1.702   0.745   3.926
 2306SOL     OW 7816   1.306   5.200   2.314
 2306SOL    HW1 7817   1.218   5.161   2.343
 2306SOL    HW2 7818   1.328   5.278   2.372
 2307SOL     OW 7819   1.280   3.061   5.571
 2307SOL    HW1 7820   1.332   3.066   5.657
 2307SOL    HW2 7821   1.184   3.084   5.589
 2308SOL     OW 7822   2.593   4.948   1.057
 2308SOL    HW1 7823   2.638   4.983   1.139
 2308SOL    HW2 7824   2.661   4.926   0.988
 2309SOL     OW 7825   1.797   0.377   4.033
 2309SOL    HW1 7826   1.714   0.416   4.070
 2309SOL    HW2 7827   1.861   0.450   4.008
 2310SOL     OW 7828   5.666   6.558   2.425
 2310SOL    HW1 7829   5.706   6.498   2.356
 2310SOL    HW2 7830   5.569   6.573   2.404
 2311SOL     OW 7831   1.927   5.716   6.839
 2311SOL    HW1 7832   1.868   5.655   6.785
 2311SOL    HW2 7833   1.873   5.756   6.914
 2312SOL     OW 7834   3.644   5.464   3.290
 2312SOL    HW1 7835   3.570   5.461   3.358
 2312SOL    HW2 7836   3.719   5.406   3.319
 2313SOL     OW 7837   5.114   4.921   2.013
 2313SOL    HW1 7838   5.187   4.906   2.079
 2313SOL    HW2 7839   5.030   4.877   2.046
 2314SOL     OW 7840   3.600   5.955   2.829
 2314SOL    HW1 7841   3.692   5.995   2.822
 2314SOL    HW2 7842   3.604   5.859   2.801
 2315SOL     OW 7843   5.443   3.700   6.025
 2315SOL    HW1 7844   5.439   3.614   6.076
 2315SOL    HW2 7845   5.481   3.772   6.084
 2316SOL     OW 7846   4.963   1.995   3.354
 2316SOL    HW1 7847   4.870   1.974   3.323
 2316SOL    HW2 7848   5.004   2.063   3.293
 2317SOL     OW 7849   0.948   5.233   2.906
 2317SOL    HW1 7850   0.941   5.289   2.989
 2317SOL    HW2 7851   0.938   5.293   2.826
 2318SOL     OW 7852   0.106   2.630   3.619
 2318SOL    HW1 7853   0.154   2.614   3.705
 2318SOL    HW2 7854   0.015   2.667   3.638
 2319SOL     OW 7855   2.071   4.188   5.014
 2319SOL    HW1 7856   1.998   4.150   5.070
 2319SOL    HW2 7857   2.159   4.152   5.045
 2320SOL     OW 7858   6.949   2.353   4.286
 2320SOL    HW1 7859   6.997   2.277   4.330
 2320SOL    HW2 7860   6.928   2.330   4.192
 2321SOL     OW 7861   3.852   0.842   5.139
 2321SOL    HW1 7862   3.927   0.821   5.202
 2321SOL    HW2 7863   3.867   0.796   5.052
 2322SOL     OW 7864   1.969   1.829   5.614
 2322SOL    HW1 7865   2.003   1.830   5.520
 2322SOL    HW2 7866   1.875   1.865   5.616
 2323SOL     OW 7867   3.377   5.716   3.445
 2323SOL    HW1 7868   3.403   5.622   3.467
 2323SOL    HW2 7869   3.289   5.717   3.398
 2324SOL     OW 7870   0.662   5.917   2.370
 2324SOL    HW1 7871   0.607   5.979   2.425
 2324SOL    HW2 7872   0.685   5.836   2.423
 2325SOL     OW 7873   1.252   3.763   1.582
 2325SOL    HW1 7874   1.197   3.754   1.499
 2325SOL    HW2 7875   1.349   3.766   1.558
 2326SOL     OW 7876   2.201   4.037   6.399
 2326SOL    HW1 7877   2.277   3.988   6.443
 2326SOL    HW2 7878   2.121   3.977   6.396
 2327SOL     OW 7879   4.876   2.997   4.400
 2327SOL    HW1 7880   4.818   2.996   4.319
 2327SOL    HW2 7881   4.857   2.916   4.456
 2328SOL     OW 7882   5.046   0.799   3.310
 2328SOL    HW1 7883   5.090   0.871   3.256
 2328SOL    HW2 7884   5.048   0.824   3.407
 2329SOL     OW 7885   1.088   5.199   4.412
 2329SOL    HW1 7886   1.089   5.255   4.496
 2329SOL    HW2 7887   1.008   5.222   4.358
 2330SOL     OW 7888   0.172   5.143   1.696
 2330SOL    HW1 7889   0.084   5.136   1.743
 2330SOL    HW2 7890   0.162   5.111   1.602
 2331SOL     OW 7891   6.885   4.489   5.842
 2331SOL    HW1 7892   6.915   4.491   5.747
 2331SOL    HW2 7893   6.882   4.582   5.878
 2332SOL     OW 7894   5.204   2.195   5.756
 2332SOL    HW1 7895   5.201   2.105   5.800
 2332SOL    HW2 7896   5.268   2.192   5.679
 2333SOL     OW 7897   0.762   4.985   2.456
 2333SOL    HW1 7898   0.838   4.982   2.522
 2333SOL    HW2 7899   0.798   4.973   2.364
 2334SOL     OW 7900   3.282   6.563   6.991
 2334SOL    HW1 7901   3.340   6.555   0.058
 2334SOL    HW2 7902   3.208   6.496   6.996
 2335SOL     OW 7903   6.200   0.939   3.119
 2335SOL    HW1 7904   6.200   1.014   3.185
 2335SOL    HW2 7905   6.287   0.890   3.124
 2336SOL     OW 7906   4.732   1.115   5.586
 2336SOL    HW1 7907   4.729   1.206   5.627
 2336SOL    HW2 7908   4.761   1.048   5.654
 2337SOL     OW 7909   5.127   0.469   3.160
 2337SOL    HW1 7910   5.064   0.459   3.237
 2337SOL    HW2 7911   5.100   0.407   3.087
 2338SOL     OW 7912   0.486   6.898   0.127
 2338SOL    HW1 7913   0.492   6.969   0.056
 2338SOL    HW2 7914   0.455   6.812   0.086
 2339SOL     OW 7915   3.498   3.229   5.485
 2339SOL    HW1 7916   3.419   3.168   5.493
 2339SOL    HW2 7917   3.534   3.250   5.575
 2340SOL     OW 7918   3.760   6.461   5.066
 2340SOL    HW1 7919   3.859   6.456   5.058
 2340SOL    HW2 7920   3.732   6.428   5.156
 2341SOL     OW 7921   5.276   4.403   0.269
 2341SOL    HW1 7922   5.177   4.391   0.262
 2341SOL    HW2 7923   5.310   4.354   0.349
 2342SOL     OW 7924   0.593   6.677   5.920
 2342SOL    HW1 7925   0.647   6.648   5.841
 2342SOL    HW2 7926   0.521   6.739   5.890
 2343SOL     OW 7927   1.153   6.507   1.061
 2343SOL    HW1 7928   1.165   6.410   1.040
 2343SOL    HW2 7929   1.110   6.552   0.982
 2344SOL     OW 7930   3.062   1.580   2.520
 2344SOL    HW1 7931   3.149   1.543   2.552
 2344SOL    HW2 7932   3.077   1.672   2.483
 2345SOL     OW 7933   1.263   0.017   4.997
 2345SOL    HW1 7934   1.350   6.993   5.028
 2345SOL    HW2 7935   1.189   6.996   5.053
 2346SOL     OW 7936   4.578   2.906   5.225
 2346SOL    HW1 7937   4.591   2.844   5.148
 2346SOL    HW2 7938   4.651   2.975   5.227
 2347SOL     OW 7939   1.878   4.098   1.904
 2347SOL    HW1 7940   1.906   4.004   1.885
 2347SOL    HW2 7941   1.957   4.158   1.897
 2348SOL     OW 7942   2.218   6.432   3.380
 2348SOL    HW1 7943   2.316   6.445   3.363
 2348SOL    HW2 7944   2.173   6.402   3.296
 2349SOL     OW 7945   0.078   6.354   6.065
 2349SOL    HW1 7946   0.067   6.403   5.979
 2349SOL    HW2 7947   0.029   6.267   6.061
 2350SOL     OW 7948   3.116   0.560   5.686
 2350SOL    HW1 7949   3.122   0.534   5.590
 2350SOL    HW2 7950   3.182   0.506   5.739
 2351SOL     OW 7951   2.936   5.175   3.681
 2351SOL    HW1 7952   2.928   5.147   3.585
 2351SOL    HW2 7953   2.845   5.174   3.723
 2352SOL     OW 7954   6.276   4.245   3.929
 2352SOL    HW1 7955   6.255   4.261   4.025
 2352SOL    HW2 7956   6.205   4.187   3.888
 2353SOL     OW 7957   2.558   3.930   5.590
 2353SOL    HW1 7958   2.596   3.961   5.502
 2353SOL    HW2 7959   2.478   3.873   5.573
 2354SOL     OW 7960   3.230   2.637   0.068
 2354SOL    HW1 7961   3.212   2.701   7.009
 2354SOL    HW2 7962   3.328   2.638   0.090
 2355SOL     OW 7963   0.809   0.025   0.903
 2355SOL    HW1 7964   0.847   0.112   0.935
 2355SOL    HW2 7965   0.725   0.005   0.954
 2356SOL     OW 7966   2.168   4.623   1.915
 2356SOL    HW1 7967   2.101   4.629   1.841
 2356SOL    HW2 7968   2.142   4.550   1.978
 2357SOL     OW 7969   5.154   4.814   3.729
 2357SOL    HW1 7970   5.159   4.910   3.702
 2357SOL    HW2 7971   5.058   4.788   3.742
 2358SOL     OW 7972   2.867   0.054   3.691
 2358SOL    HW1 7973   2.839   0.062   3.595
 2358SOL    HW2 7974   2.811   0.117   3.747
 2359SOL     OW 7975   2.853   1.309   6.272
 2359SOL    HW1 7976   2.902   1.396   6.267
 2359SOL    HW2 7977   2.781   1.307   6.203
 2360SOL     OW 7978   3.838   4.782   6.796
 2360SOL    HW1 7979   3.809   4.827   6.711
 2360SOL    HW2 7980   3.909   4.714   6.774
 2361SOL     OW 7981   2.889   0.011   3.271
 2361SOL    HW1 7982   2.824   7.014   3.346
 2361SOL    HW2 7983   2.942   6.942   3.259
 2362SOL     OW 7984   4.549   6.162   5.023
 2362SOL    HW1 7985   4.562   6.240   4.962
 2362SOL    HW2 7986   4.637   6.134   5.062
 2363SOL     OW 7987   4.438   2.145   5.223
 2363SOL    HW1 7988   4.354   2.187   5.257
 2363SOL    HW2 7989   4.494   2.116   5.300
 2364SOL     OW 7990   5.609   1.762   1.804
 2364SOL    HW1 7991   5.574   1.739   1.895
 2364SOL    HW2 7992   5.560   1.841   1.768
 2365SOL     OW 7993   6.060   4.448   4.981
 2365SOL    HW1 7994   5.960   4.441   4.978
 2365SOL    HW2 7995   6.099   4.358   5.000
 2366SOL     OW 7996   1.701   4.188   5.097
 2366SOL    HW1 7997   1.706   4.134   5.013
 2366SOL    HW2 7998   1.790   4.190   5.141
 2367SOL     OW 7999   0.810   3.399   5.561
 2367SOL    HW1 8000   0.737   3.441   5.508
 2367SOL    HW2 8001   0.896   3.446   5.544
 2368SOL     OW 8002   4.188   1.602   4.928
 2368SOL    HW1 8003   4.266   1.544   4.953
 2368SOL    HW2 8004   4.154   1.648   5.009
 2369SOL     OW 8005   3.348   1.761   3.407
 2369SOL    HW1 8006   3.298   1.819   3.471
 2369SOL    HW2 8007   3.370   1.674   3.451
 2370SOL     OW 8008   4.736   2.852   0.157
 2370SOL    HW1 8009   4.742   2.878   0.253
 2370SOL    HW2 8010   4.659   2.789   0.144
 2371SOL     OW 8011   1.070   6.715   2.619
 2371SOL    HW1 8012   1.073   6.714   2.519
 2371SOL    HW2 8013   1.135   6.783   2.654
 2372SOL     OW 8014   6.622   0.743   6.388
 2372SOL    HW1 8015   6.599   0.801   6.466
 2372SOL    HW2 8016   6.720   0.720   6.391
 2373SOL     OW 8017   6.071   0.723   6.621
 2373SOL    HW1 8018   6.067   0.823   6.622
 2373SOL    HW2 8019   6.130   0.694   6.546
 2374SOL     OW 8020   5.803   5.611   2.906
 2374SOL    HW1 8021   5.821   5.593   3.002
 2374SOL    HW2 8022   5.715   5.570   2.881
 2375SOL     OW 8023   0.584   0.382   3.721
 2375SOL    HW1 8024   0.581   0.416   3.627
 2375SOL    HW2 8025   0.501   0.330   3.740
 2376SOL     OW 8026   6.502   2.469   3.466
 2376SOL    HW1 8027   6.433   2.529   3.426
 2376SOL    HW2 8028   6.557   2.428   3.393
 2377SOL     OW 8029   3.202   4.134   6.127
 2377SOL    HW1 8030   3.157   4.224   6.132
 2377SOL    HW2 8031   3.185   4.084   6.212
 2378SOL     OW 8032   5.669   2.208   0.242
 2378SOL    HW1 8033   5.678   2.210   0.142
 2378SOL    HW2 8034   5.653   2.114   0.272
 2379SOL     OW 8035   0.089   4.565   0.030
 2379SOL    HW1 8036   0.164   4.534   6.986
 2379SOL    HW2 8037   0.003   4.524   7.014
 2380SOL     OW 8038   6.040   1.810   5.054
 2380SOL    HW1 8039   6.099   1.746   5.102
 2380SOL    HW2 8040   5.972   1.847   5.118
 2381SOL     OW 8041   2.309   4.905   4.847
 2381SOL    HW1 8042   2.380   4.974   4.831
 2381SOL    HW2 8043   2.320   4.866   4.939
 2382SOL     OW 8044   1.725   6.290   2.805
 2382SOL    HW1 8045   1.749   6.387   2.805
 2382SOL    HW2 8046   1.640   6.277   2.856
 2383SOL     OW 8047   5.273   5.472   5.649
 2383SOL    HW1 8048   5.174   5.468   5.637
 2383SOL    HW2 8049   5.318   5.457   5.561
 2384SOL     OW 8050   1.222   2.176   1.321
 2384SOL    HW1 8051   1.145   2.112   1.316
 2384SOL    HW2 8052   1.212   2.245   1.250
 2385SOL     OW 8053   1.124   1.923   0.087
 2385SOL    HW1 8054   1.152   1.879   0.172
 2385SOL    HW2 8055   1.025   1.935   0.087
 2386SOL     OW 8056   3.395   5.019   4.896
 2386SOL    HW1 8057   3.370   4.950   4.964
 2386SOL    HW2 8058   3.317   5.036   4.835
 2387SOL     OW 8059   6.852   3.251   4.071
 2387SOL    HW1 8060   6.904   3.189   4.013
 2387SOL    HW2 8061   6.867   3.228   4.167
 2388SOL     OW 8062   0.255   1.630   5.578
 2388SOL    HW1 8063   0.343   1.640   5.626
 2388SOL    HW2 8064   0.217   1.721   5.562
 2389SOL     OW 8065   5.117   4.485   4.195
 2389SOL    HW1 8066   5.169   4.424   4.136
 2389SOL    HW2 8067   5.111   4.575   4.152
 2390SOL     OW 8068   3.852   3.427   5.129
 2390SOL    HW1 8069   3.887   3.336   5.149
 2390SOL    HW2 8070   3.752   3.427   5.139
 2391SOL     OW 8071   3.706   3.602   6.105
 2391SOL    HW1 8072   3.715   3.671   6.177
 2391SOL    HW2 8073   3.783   3.610   6.041
 2392SOL     OW 8074   3.150   4.209   6.582
 2392SOL    HW1 8075   3.248   4.190   6.591
 2392SOL    HW2 8076   3.119   4.263   6.660
 2393SOL     OW 8077   3.849   5.912   1.451
 2393SOL    HW1 8078   3.909   5.934   1.374
 2393SOL    HW2 8079   3.774   5.978   1.454
 2394SOL     OW 8080   0.300   3.706   3.952
 2394SOL    HW1 8081   0.384   3.707   3.899
 2394SOL    HW2 8082   0.234   3.770   3.913
 2395SOL     OW 8083   6.968   2.977   0.265
 2395SOL    HW1 8084   7.011   3.048   0.321
 2395SOL    HW2 8085   6.878   3.008   0.233
 2396SOL     OW 8086   5.412   0.277   0.505
 2396SOL    HW1 8087   5.339   0.266   0.437
 2396SOL    HW2 8088   5.418   0.372   0.533
 2397SOL     OW 8089   0.113   4.541   6.553
 2397SOL    HW1 8090   0.068   4.630   6.555
 2397SOL    HW2 8091   0.163   4.531   6.467
 2398SOL     OW 8092   2.856   5.127   4.531
 2398SOL    HW1 8093   2.794   5.205   4.529
 2398SOL    HW2 8094   2.948   5.156   4.504
 2399SOL     OW 8095   4.008   2.215   3.868
 2399SOL    HW1 8096   3.949   2.192   3.946
 2399SOL    HW2 8097   3.957   2.205   3.783
 2400SOL     OW 8098   1.923   3.273   0.348
 2400SOL    HW1 8099   1.869   3.260   0.431
 2400SOL    HW2 8100   1.938   3.185   0.304
 2401SOL     OW 8101   3.675   0.132   3.878
 2401SOL    HW1 8102   3.627   0.218   3.893
 2401SOL    HW2 8103   3.748   0.145   3.810
 2402SOL     OW 8104   6.880   1.941   3.170
 2402SOL    HW1 8105   6.938   1.927   3.250
 2402SOL    HW2 8106   6.926   1.905   3.089
 2403SOL     OW 8107   3.851   3.752   0.972
 2403SOL    HW1 8108   3.838   3.710   1.062
 2403SOL    HW2 8109   3.767   3.744   0.918
 2404SOL     OW 8110   5.739   1.885   1.583
 2404SOL    HW1 8111   5.829   1.883   1.627
 2404SOL    HW2 8112   5.721   1.796   1.541
 2405SOL     OW 8113   3.056   4.883   5.666
 2405SOL    HW1 8114   3.089   4.789   5.677
 2405SOL    HW2 8115   3.027   4.897   5.571
 2406SOL     OW 8116   2.396   6.865   4.051
 2406SOL    HW1 8117   2.378   6.926   4.127
 2406SOL    HW2 8118   2.475   6.899   3.999
 2407SOL     OW 8119   4.434   2.415   2.930
 2407SOL    HW1 8120   4.484   2.331   2.908
 2407SOL    HW2 8121   4.493   2.494   2.911
 2408SOL     OW 8122   2.491   5.713   2.900
 2408SOL    HW1 8123   2.467   5.641   2.835
 2408SOL    HW2 8124   2.446   5.798   2.872
 2409SOL     OW 8125   2.571   3.066   0.951
 2409SOL    HW1 8126   2.663   3.029   0.954
 2409SOL    HW2 8127   2.569   3.146   0.891
 2410SOL     OW 8128   6.441   3.121   5.862
 2410SOL    HW1 8129   6.452   3.210   5.817
 2410SOL    HW2 8130   6.531   3.081   5.881
 2411SOL     OW 8131   2.796   3.849   6.018
 2411SOL    HW1 8132   2.723   3.897   5.969
 2411SOL    HW2 8133   2.880   3.849   5.963
 2412SOL     OW 8134   2.296   2.876   0.683
 2412SOL    HW1 8135   2.254   2.964   0.659
 2412SOL    HW2 8136   2.395   2.888   0.688
 2413SOL     OW 8137   6.067   3.430   6.753
 2413SOL    HW1 8138   6.126   3.510   6.761
 2413SOL    HW2 8139   6.003   3.428   6.829
 2414SOL     OW 8140   5.921   2.678   3.396
 2414SOL    HW1 8141   5.847   2.612   3.409
 2414SOL    HW2 8142   6.008   2.631   3.395
 2415SOL     OW 8143   2.538   0.154   1.181
 2415SOL    HW1 8144   2.591   0.070   1.192
 2415SOL    HW2 8145   2.499   0.158   1.090
 2416SOL     OW 8146   1.341   2.926   3.395
 2416SOL    HW1 8147   1.384   2.980   3.323
 2416SOL    HW2 8148   1.315   2.985   3.471
 2417SOL     OW 8149   4.223   1.856   6.832
 2417SOL    HW1 8150   4.302   1.801   6.858
 2417SOL    HW2 8151   4.157   1.858   6.908
 2418SOL     OW 8152   3.881   3.749   4.985
 2418SOL    HW1 8153   3.863   3.682   5.057
 2418SOL    HW2 8154   3.905   3.837   5.027
 2419SOL     OW 8155   1.856   6.610   4.751
 2419SOL    HW1 8156   1.775   6.570   4.793
 2419SOL    HW2 8157   1.828   6.678   4.683
 2420SOL     OW 8158   3.285   5.681   1.924
 2420SOL    HW1 8159   3.381   5.669   1.950
 2420SOL    HW2 8160   3.240   5.741   1.990
 2421SOL     OW 8161   4.240   6.545   4.285
 2421SOL    HW1 8162   4.272   6.560   4.192
 2421SOL    HW2 8163   4.210   6.632   4.325
 2422SOL     OW 8164   3.953   6.930   0.914
 2422SOL    HW1 8165   3.886   6.930   0.988
 2422SOL    HW2 8166   3.906   6.928   0.826
 2423SOL     OW 8167   1.573   5.526   1.313
 2423SOL    HW1 8168   1.586   5.486   1.223
 2423SOL    HW2 8169   1.520   5.463   1.370
 2424SOL     OW 8170   5.847   6.645   6.700
 2424SOL    HW1 8171   5.817   6.634   6.605
 2424SOL    HW2 8172   5.786   6.710   6.747
 2425SOL     OW 8173   4.930   5.823   5.571
 2425SOL    HW1 8174   4.885   5.757   5.511
 2425SOL    HW2 8175   4.886   5.821   5.661
 2426SOL     OW 8176   1.018   4.891   4.629
 2426SOL    HW1 8177   0.938   4.909   4.572
 2426SOL    HW2 8178   1.093   4.951   4.601
 2427SOL     OW 8179   5.191   5.786   6.824
 2427SOL    HW1 8180   5.178   5.689   6.845
 2427SOL    HW2 8181   5.218   5.835   6.907
 2428SOL     OW 8182   0.284   0.431   2.438
 2428SOL    HW1 8183   0.250   0.421   2.532
 2428SOL    HW2 8184   0.216   0.396   2.374
 2429SOL     OW 8185   5.917   4.472   2.618
 2429SOL    HW1 8186   5.980   4.399   2.590
 2429SOL    HW2 8187   5.878   4.450   2.707
 2430SOL     OW 8188   5.263   1.875   0.291
 2430SOL    HW1 8189   5.356   1.840   0.304
 2430SOL    HW2 8190   5.267   1.958   0.235
 2431SOL     OW 8191   5.182   1.469   1.226
 2431SOL    HW1 8192   5.219   1.532   1.295
 2431SOL    HW2 8193   5.203   1.375   1.252
 2432SOL     OW 8194   3.260   6.447   1.445
 2432SOL    HW1 8195   3.331   6.454   1.515
 2432SOL    HW2 8196   3.171   6.433   1.489
 2433SOL     OW 8197   0.928   6.593   0.320
 2433SOL    HW1 8198   0.968   6.531   0.388
 2433SOL    HW2 8199   0.854   6.646   0.362
 2434SOL     OW 8200   5.186   1.758   2.566
 2434SOL    HW1 8201   5.154   1.710   2.648
 2434SOL    HW2 8202   5.244   1.834   2.593
 2435SOL     OW 8203   5.801   5.697   0.007
 2435SOL    HW1 8204   5.713   5.687   0.053
 2435SOL    HW2 8205   5.869   5.638   0.052
 2436SOL     OW 8206   1.691   0.422   1.250
 2436SOL    HW1 8207   1.608   0.375   1.280
 2436SOL    HW2 8208   1.737   0.367   1.180
 2437SOL     OW 8209   5.397   6.387   1.407
 2437SOL    HW1 8210   5.339   6.343   1.476
 2437SOL    HW2 8211   5.466   6.322   1.375
 2438SOL     OW 8212   4.494   1.655   4.567
 2438SOL    HW1 8213   4.466   1.701   4.651
 2438SOL    HW2 8214   4.489   1.556   4.580
 2439SOL     OW 8215   0.164   4.851   0.258
 2439SOL    HW1 8216   0.227   4.841   0.335
 2439SOL    HW2 8217   0.214   4.845   0.172
 2440SOL     OW 8218   3.750   6.587   6.012
 2440SOL    HW1 8219   3.766   6.552   5.919
 2440SOL    HW2 8220   3.661   6.555   6.044
 2441SOL     OW 8221   5.839   1.314   6.810
 2441SOL    HW1 8222   5.834   1.225   6.854
 2441SOL    HW2 8223   5.778   1.378   6.856
 2442SOL     OW 8224   5.792   4.878   2.945
 2442SOL    HW1 8225   5.851   4.953   2.974
 2442SOL    HW2 8226   5.696   4.904   2.958
 2443SOL     OW 8227   2.838   0.822   0.159
 2443SOL    HW1 8228   2.741   0.809   0.178
 2443SOL    HW2 8229   2.854   0.818   0.060
 2444SOL     OW 8230   4.228   5.084   0.108
 2444SOL    HW1 8231   4.152   5.149   0.106
 2444SOL    HW2 8232   4.289   5.107   0.184
 2445SOL     OW 8233   5.841   1.255   1.842
 2445SOL    HW1 8234   5.803   1.213   1.760
 2445SOL    HW2 8235   5.807   1.349   1.850
 2446SOL     OW 8236   1.109   2.787   3.360
 2446SOL    HW1 8237   1.207   2.803   3.377
 2446SOL    HW2 8238   1.085   2.822   3.269
 2447SOL     OW 8239   2.533   0.876   1.142
 2447SOL    HW1 8240   2.610   0.870   1.079
 2447SOL    HW2 8241   2.560   0.929   1.223
 2448SOL     OW 8242   5.968   1.737   4.083
 2448SOL    HW1 8243   5.886   1.778   4.124
 2448SOL    HW2 8244   5.970   1.757   3.985
 2449SOL     OW 8245   1.552   3.346   1.247
 2449SOL    HW1 8246   1.612   3.284   1.196
 2449SOL    HW2 8247   1.596   3.373   1.332
 2450SOL     OW 8248   2.933   5.414   6.289
 2450SOL    HW1 8249   2.840   5.379   6.271
 2450SOL    HW2 8250   2.999   5.341   6.272
 2451SOL     OW 8251   1.278   0.444   3.358
 2451SOL    HW1 8252   1.343   0.470   3.430
 2451SOL    HW2 8253   1.237   0.356   3.381
 2452SOL     OW 8254   2.910   1.873   3.998
 2452SOL    HW1 8255   2.943   1.796   4.052
 2452SOL    HW2 8256   2.979   1.899   3.931
 2453SOL     OW 8257   0.509   3.343   0.755
 2453SOL    HW1 8258   0.526   3.436   0.722
 2453SOL    HW2 8259   0.597   3.296   0.767
 2454SOL     OW 8260   2.894   6.243   6.900
 2454SOL    HW1 8261   2.811   6.295   6.920
 2454SOL    HW2 8262   2.963   6.304   6.860
 2455SOL     OW 8263   4.483   0.913   0.557
 2455SOL    HW1 8264   4.569   0.875   0.591
 2455SOL    HW2 8265   4.413   0.905   0.628
 2456SOL     OW 8266   0.109   2.452   6.767
 2456SOL    HW1 8267   0.116   2.472   6.670
 2456SOL    HW2 8268   0.192   2.405   6.798
 2457SOL     OW 8269   6.312   1.146   6.191
 2457SOL    HW1 8270   6.325   1.174   6.286
 2457SOL    HW2 8271   6.335   1.222   6.130
 2458SOL     OW 8272   1.532   6.241   3.894
 2458SOL    HW1 8273   1.516   6.157   3.842
 2458SOL    HW2 8274   1.622   6.277   3.872
 2459SOL     OW 8275   2.670   6.663   5.553
 2459SOL    HW1 8276   2.717   6.689   5.637
 2459SOL    HW2 8277   2.663   6.564   5.547
 2460SOL     OW 8278   1.572   1.268   0.367
 2460SOL    HW1 8279   1.578   1.231   0.460
 2460SOL    HW2 8280   1.624   1.354   0.363
 2461SOL     OW 8281   4.769   0.721   4.362
 2461SOL    HW1 8282   4.817   0.664   4.429
 2461SOL    HW2 8283   4.750   0.810   4.402
 2462SOL     OW 8284   2.202   4.849   6.849
 2462SOL    HW1 8285   2.300   4.859   6.866
 2462SOL    HW2 8286   2.154   4.839   6.936
 2463SOL     OW 8287   5.793   1.811   7.013
 2463SOL    HW1 8288   5.871   1.756   0.027
 2463SOL    HW2 8289   5.762   1.868   0.074
 2464SOL     OW 8290   2.079   3.381   2.983
 2464SOL    HW1 8291   2.109   3.396   3.077
 2464SOL    HW2 8292   2.122   3.298   2.947
 2465SOL     OW 8293   0.531   6.921   6.464
 2465SOL    HW1 8294   0.568   6.843   6.414
 2465SOL    HW2 8295   0.554   6.912   6.561
 2466SOL     OW 8296   2.171   1.468   2.831
 2466SOL    HW1 8297   2.073   1.452   2.819
 2466SOL    HW2 8298   2.193   1.561   2.803
 2467SOL     OW 8299   5.063   1.769   5.247
 2467SOL    HW1 8300   5.116   1.806   5.170
 2467SOL    HW2 8301   4.966   1.784   5.229
 2468SOL     OW 8302   4.192   6.862   1.403
 2468SOL    HW1 8303   4.101   6.839   1.439
 2468SOL    HW2 8304   4.252   6.783   1.412
 2469SOL     OW 8305   3.888   3.338   4.544
 2469SOL    HW1 8306   3.981   3.360   4.575
 2469SOL    HW2 8307   3.829   3.321   4.623
 2470SOL     OW 8308   3.831   4.612   5.530
 2470SOL    HW1 8309   3.798   4.532   5.579
 2470SOL    HW2 8310   3.894   4.584   5.458
 2471SOL     OW 8311   3.356   5.856   0.140
 2471SOL    HW1 8312   3.361   5.955   0.123
 2471SOL    HW2 8313   3.448   5.820   0.152
 2472SOL     OW 8314   5.096   2.174   3.194
 2472SOL    HW1 8315   5.168   2.120   3.150
 2472SOL    HW2 8316   5.066   2.246   3.132
 2473SOL     OW 8317   1.015   3.862   4.732
 2473SOL    HW1 8318   0.954   3.792   4.694
 2473SOL    HW2 8319   0.973   3.904   4.811
 2474SOL     OW 8320   0.143   5.908   1.436
 2474SOL    HW1 8321   0.189   5.820   1.427
 2474SOL    HW2 8322   0.110   5.919   1.530
 2475SOL     OW 8323   4.131   0.795   2.566
 2475SOL    HW1 8324   4.053   0.778   2.627
 2475SOL    HW2 8325   4.115   0.747   2.479
 2476SOL     OW 8326   5.731   1.337   2.687
 2476SOL    HW1 8327   5.679   1.288   2.758
 2476SOL    HW2 8328   5.829   1.329   2.705
 2477SOL     OW 8329   4.145   1.055   2.931
 2477SOL    HW1 8330   4.222   1.071   2.993
 2477SOL    HW2 8331   4.060   1.078   2.979
 2478SOL     OW 8332   6.362   1.701   1.409
 2478SOL    HW1 8333   6.437   1.642   1.380
 2478SOL    HW2 8334   6.349   1.692   1.507
 2479SOL     OW 8335   1.100   2.631   2.554
 2479SOL    HW1 8336   1.139   2.574   2.626
 2479SOL    HW2 8337   1.168   2.643   2.481
 2480SOL     OW 8338   4.468   4.559   0.787
 2480SOL    HW1 8339   4.376   4.573   0.751
 2480SOL    HW2 8340   4.484   4.462   0.801
 2481SOL     OW 8341   4.063   6.476   0.551
 2481SOL    HW1 8342   4.114   6.461   0.635
 2481SOL    HW2 8343   4.074   6.398   0.490
 2482SOL     OW 8344   5.396   3.497   5.781
 2482SOL    HW1 8345   5.402   3.571   5.849
 2482SOL    HW2 8346   5.358   3.415   5.824
 2483SOL     OW 8347   1.764   1.896   0.459
 2483SOL    HW1 8348   1.851   1.936   0.486
 2483SOL    HW2 8349   1.780   1.809   0.411
 2484SOL     OW 8350   3.780   0.516   6.754
 2484SOL    HW1 8351   3.776   0.425   6.794
 2484SOL    HW2 8352   3.798   0.583   6.827
 2485SOL     OW 8353   5.693   3.627   1.378
 2485SOL    HW1 8354   5.621   3.694   1.357
 2485SOL    HW2 8355   5.692   3.555   1.309
 2486SOL     OW 8356   1.857   4.764   4.954
 2486SOL    HW1 8357   1.795   4.699   4.912
 2486SOL    HW2 8358   1.935   4.780   4.894
 2487SOL     OW 8359   4.491   6.213   0.222
 2487SOL    HW1 8360   4.393   6.224   0.235
 2487SOL    HW2 8361   4.513   6.116   0.209
 2488SOL     OW 8362   1.296   4.259   2.249
 2488SOL    HW1 8363   1.261   4.321   2.318
 2488SOL    HW2 8364   1.380   4.216   2.281
 2489SOL     OW 8365   0.985   6.714   4.108
 2489SOL    HW1 8366   0.970   6.677   4.016
 2489SOL    HW2 8367   1.028   6.804   4.101
 2490SOL     OW 8368   6.927   5.601   1.503
 2490SOL    HW1 8369   6.865   5.628   1.576
 2490SOL    HW2 8370   6.887   5.626   1.414
 2491SOL     OW 8371   2.316   4.515   0.049
 2491SOL    HW1 8372   2.320   4.465   0.136
 2491SOL    HW2 8373   2.345   4.610   0.064
 2492SOL     OW 8374   4.827   3.572   0.798
 2492SOL    HW1 8375   4.892   3.588   0.872
 2492SOL    HW2 8376   4.827   3.475   0.774
 2493SOL     OW 8377   5.365   0.170   2.150
 2493SOL    HW1 8378   5.372   0.252   2.206
 2493SOL    HW2 8379   5.456   0.139   2.125
 2494SOL     OW 8380   5.342   4.721   2.593
 2494SOL    HW1 8381   5.442   4.726   2.604
 2494SOL    HW2 8382   5.307   4.646   2.649
 2495SOL     OW 8383   4.951   6.729   4.363
 2495SOL    HW1 8384   4.889   6.808   4.358
 2495SOL    HW2 8385   4.900   6.649   4.396
 2496SOL     OW 8386   6.971   2.501   5.910
 2496SOL    HW1 8387   6.988   2.557   5.991
 2496SOL    HW2 8388   7.006   2.409   5.926
 2497SOL     OW 8389   0.294   0.383   0.467
 2497SOL    HW1 8390   0.309   0.285   0.454
 2497SOL    HW2 8391   0.296   0.404   0.565
 2498SOL     OW 8392   2.879   2.062   4.352
 2498SOL    HW1 8393   2.810   2.095   4.416
 2498SOL    HW2 8394   2.858   2.094   4.260
 2499SOL     OW 8395   6.103   2.130   2.093
 2499SOL    HW1 8396   6.146   2.089   2.013
 2499SOL    HW2 8397   6.009   2.155   2.072
 2500SOL     OW 8398   4.399   4.221   6.623
 2500SOL    HW1 8399   4.340   4.180   6.693
 2500SOL    HW2 8400   4.367   4.313   6.601
 2501SOL     OW 8401   5.767   5.143   0.538
 2501SOL    HW1 8402   5.809   5.054   0.521
 2501SOL    HW2 8403   5.680   5.149   0.488
 2502SOL     OW 8404   0.937   0.230   3.331
 2502SOL    HW1 8405   1.011   0.220   3.264
 2502SOL    HW2 8406   0.947   0.160   3.401
 2503SOL     OW 8407   2.461   6.121   4.669
 2503SOL    HW1 8408   2.385   6.184   4.688
 2503SOL    HW2 8409   2.539   6.144   4.726
 2504SOL     OW 8410   3.724   5.441   4.734
 2504SOL    HW1 8411   3.731   5.520   4.673
 2504SOL    HW2 8412   3.629   5.431   4.765
 2505SOL     OW 8413   0.687   6.439   3.323
 2505SOL    HW1 8414   0.650   6.455   3.414
 2505SOL    HW2 8415   0.786   6.451   3.325
 2506SOL     OW 8416   5.894   3.899   5.964
 2506SOL    HW1 8417   5.844   3.829   6.014
 2506SOL    HW2 8418   5.832   3.941   5.896
 2507SOL     OW 8419   6.801   3.623   0.712
 2507SOL    HW1 8420   6.760   3.684   0.780
 2507SOL    HW2 8421   6.899   3.616   0.729
 2508SOL     OW 8422   2.618   1.723   3.657
 2508SOL    HW1 8423   2.707   1.769   3.653
 2508SOL    HW2 8424   2.627   1.630   3.622
 2509SOL     OW 8425   6.999   3.470   1.156
 2509SOL    HW1 8426   0.012   3.563   1.180
 2509SOL    HW2 8427   0.008   3.452   1.060
 2510SOL     OW 8428   2.711   4.906   1.336
 2510SOL    HW1 8429   2.632   4.873   1.284
 2510SOL    HW2 8430   2.788   4.921   1.274
 2511SOL     OW 8431   4.085   2.161   4.663
 2511SOL    HW1 8432   4.020   2.157   4.587
 2511SOL    HW2 8433   4.079   2.076   4.716
 2512SOL     OW 8434   5.362   3.820   5.252
 2512SOL    HW1 8435   5.309   3.735   5.264
 2512SOL    HW2 8436   5.301   3.899   5.261
 2513SOL     OW 8437   1.931   4.085   5.245
 2513SOL    HW1 8438   1.872   4.061   5.322
 2513SOL    HW2 8439   2.011   4.025   5.245
 2514SOL     OW 8440   6.748   2.961   4.778
 2514SOL    HW1 8441   6.799   3.045   4.796
 2514SOL    HW2 8442   6.655   2.971   4.813
 2515SOL     OW 8443   1.843   6.952   0.652
 2515SOL    HW1 8444   1.760   6.913   0.612
 2515SOL    HW2 8445   1.894   7.001   0.581
 2516SOL     OW 8446   5.860   2.060   2.520
 2516SOL    HW1 8447   5.791   2.064   2.448
 2516SOL    HW2 8448   5.935   2.123   2.498
 2517SOL     OW 8449   1.294   6.480   5.704
 2517SOL    HW1 8450   1.367   6.412   5.700
 2517SOL    HW2 8451   1.334   6.571   5.715
 2518SOL     OW 8452   1.400   4.745   6.831
 2518SOL    HW1 8453   1.348   4.692   6.899
 2518SOL    HW2 8454   1.454   4.815   6.878
 2519SOL     OW 8455   3.831   6.549   2.738
 2519SOL    HW1 8456   3.871   6.548   2.830
 2519SOL    HW2 8457   3.868   6.474   2.684
 2520SOL     OW 8458   3.119   1.762   0.345
 2520SOL    HW1 8459   3.046   1.817   0.386
 2520SOL    HW2 8460   3.085   1.715   0.264
 2521SOL     OW 8461   2.018   0.901   5.348
 2521SOL    HW1 8462   1.920   0.912   5.368
 2521SOL    HW2 8463   2.055   0.986   5.311
 2522SOL     OW 8464   0.400   2.903   5.146
 2522SOL    HW1 8465   0.393   2.983   5.087
 2522SOL    HW2 8466   0.388   2.820   5.091
 2523SOL     OW 8467   0.398   3.298   1.550
 2523SOL    HW1 8468   0.332   3.228   1.523
 2523SOL    HW2 8469   0.480   3.291   1.493
 2524SOL     OW 8470   0.874   6.004   4.794
 2524SOL    HW1 8471   0.916   6.079   4.743
 2524SOL    HW2 8472   0.899   5.917   4.753
 2525SOL     OW 8473   1.125   2.580   5.979
 2525SOL    HW1 8474   1.180   2.546   6.055
 2525SOL    HW2 8475   1.112   2.508   5.912
 2526SOL     OW 8476   0.926   4.741   6.591
 2526SOL    HW1 8477   0.942   4.642   6.592
 2526SOL    HW2 8478   0.892   4.768   6.501
 2527SOL     OW 8479   5.225   5.592   4.911
 2527SOL    HW1 8480   5.271   5.676   4.880
 2527SOL    HW2 8481   5.233   5.522   4.840
 2528SOL     OW 8482   5.893   4.527   0.454
 2528SOL    HW1 8483   5.951   4.608   0.463
 2528SOL    HW2 8484   5.897   4.495   0.360
 2529SOL     OW 8485   6.330   6.423   6.464
 2529SOL    HW1 8486   6.345   6.350   6.531
 2529SOL    HW2 8487   6.416   6.443   6.417
 2530SOL     OW 8488   2.594   6.382   5.396
 2530SOL    HW1 8489   2.539   6.381   5.312
 2530SOL    HW2 8490   2.658   6.306   5.396
 2531SOL     OW 8491   5.246   6.203   4.246
 2531SOL    HW1 8492   5.296   6.119   4.268
 2531SOL    HW2 8493   5.148   6.184   4.247
 2532SOL     OW 8494   0.397   5.889   0.573
 2532SOL    HW1 8495   0.472   5.855   0.630
 2532SOL    HW2 8496   0.435   5.935   0.492
 2533SOL     OW 8497   2.987   6.582   4.171
 2533SOL    HW1 8498   2.922   6.519   4.214
 2533SOL    HW2 8499   2.938   6.662   4.136
 2534SOL     OW 8500   3.582   0.921   3.100
 2534SOL    HW1 8501   3.500   0.867   3.081
 2534SOL    HW2 8502   3.576   1.008   3.052
 2535SOL     OW 8503   3.620   2.289   5.470
 2535SOL    HW1 8504   3.525   2.288   5.440
 2535SOL    HW2 8505   3.675   2.231   5.409
 2536SOL     OW 8506   1.322   2.184   5.071
 2536SOL    HW1 8507   1.337   2.175   4.973
 2536SOL    HW2 8508   1.231   2.150   5.094
 2537SOL     OW 8509   3.943   0.254   6.607
 2537SOL    HW1 8510   3.943   0.306   6.522
 2537SOL    HW2 8511   3.904   0.163   6.591
 2538SOL     OW 8512   0.921   4.306   3.912
 2538SOL    HW1 8513   0.884   4.236   3.974
 2538SOL    HW2 8514   0.946   4.387   3.965
 2539SOL     OW 8515   5.340   1.269   5.024
 2539SOL    HW1 8516   5.408   1.341   5.033
 2539SOL    HW2 8517   5.353   1.202   5.097
 2540SOL     OW 8518   4.161   1.944   2.737
 2540SOL    HW1 8519   4.084   1.885   2.761
 2540SOL    HW2 8520   4.133   2.039   2.744
 2541SOL     OW 8521   2.433   0.075   5.398
 2541SOL    HW1 8522   2.491   7.009   5.384
 2541SOL    HW2 8523   2.461   0.122   5.482
 2542SOL     OW 8524   3.685   1.130   6.442
 2542SOL    HW1 8525   3.757   1.173   6.388
 2542SOL    HW2 8526   3.622   1.199   6.476
 2543SOL     OW 8527   1.505   1.379   3.249
 2543SOL    HW1 8528   1.559   1.302   3.215
 2543SOL    HW2 8529   1.551   1.420   3.328
 2544SOL     OW 8530   0.465   6.307   1.774
 2544SOL    HW1 8531   0.468   6.396   1.821
 2544SOL    HW2 8532   0.557   6.284   1.741
 2545SOL     OW 8533   1.381   6.966   1.518
 2545SOL    HW1 8534   1.282   6.971   1.533
 2545SOL    HW2 8535   1.405   6.877   1.481
 2546SOL     OW 8536   0.343   1.622   1.494
 2546SOL    HW1 8537   0.438   1.614   1.465
 2546SOL    HW2 8538   0.340   1.646   1.591
 2547SOL     OW 8539   6.341   5.376   0.458
 2547SOL    HW1 8540   6.278   5.392   0.534
 2547SOL    HW2 8541   6.396   5.295   0.477
 2548SOL     OW 8542   1.261   6.685   6.058
 2548SOL    HW1 8543   1.358   6.677   6.079
 2548SOL    HW2 8544   1.216   6.738   6.130
 2549SOL     OW 8545   2.234   0.764   0.674
 2549SOL    HW1 8546   2.155   0.733   0.726
 2549SOL    HW2 8547   2.220   0.858   0.644
 2550SOL     OW 8548   0.047   0.204   6.588
 2550SOL    HW1 8549   0.045   0.253   6.500
 2550SOL    HW2 8550   0.000   0.117   6.578
 2551SOL     OW 8551   3.191   5.266   0.361
 2551SOL    HW1 8552   3.254   5.269   0.284
 2551SOL    HW2 8553   3.111   5.210   0.338
 2552SOL     OW 8554   2.162   5.517   5.547
 2552SOL    HW1 8555   2.210   5.592   5.501
 2552SOL    HW2 8556   2.188   5.430   5.506
 2553SOL     OW 8557   5.210   3.054   5.305
 2553SOL    HW1 8558   5.248   3.094   5.388
 2553SOL    HW2 8559   5.262   3.086   5.226
 2554SOL     OW 8560   1.839   6.494   0.595
 2554SOL    HW1 8561   1.888   6.429   0.653
 2554SOL    HW2 8562   1.744   6.501   0.627
 2555SOL     OW 8563   5.915   6.758   5.478
 2555SOL    HW1 8564   5.883   6.822   5.548
 2555SOL    HW2 8565   5.838   6.731   5.420
 2556SOL     OW 8566   4.138   5.770   0.882
 2556SOL    HW1 8567   4.142   5.752   0.783
 2556SOL    HW2 8568   4.042   5.773   0.911
 2557SOL     OW 8569   2.490   3.766   6.785
 2557SOL    HW1 8570   2.415   3.794   6.845
 2557SOL    HW2 8571   2.548   3.701   6.833
 2558SOL     OW 8572   5.334   1.858   4.393
 2558SOL    HW1 8573   5.261   1.872   4.459
 2558SOL    HW2 8574   5.297   1.860   4.300
 2559SOL     OW 8575   6.768   3.950   4.291
 2559SOL    HW1 8576   6.797   3.966   4.197
 2559SOL    HW2 8577   6.720   3.863   4.297
 2560SOL     OW 8578   5.676   3.643   4.363
 2560SOL    HW1 8579   5.617   3.724   4.366
 2560SOL    HW2 8580   5.628   3.569   4.315
 2561SOL     OW 8581   3.456   6.258   5.385
 2561SOL    HW1 8582   3.551   6.284   5.363
 2561SOL    HW2 8583   3.394   6.329   5.353
 2562SOL     OW 8584   1.809   5.147   2.165
 2562SOL    HW1 8585   1.861   5.063   2.150
 2562SOL    HW2 8586   1.828   5.212   2.092
 2563SOL     OW 8587   3.921   2.653   0.359
 2563SOL    HW1 8588   3.894   2.583   0.293
 2563SOL    HW2 8589   4.019   2.672   0.348
 2564SOL     OW 8590   2.157   6.481   5.877
 2564SOL    HW1 8591   2.249   6.443   5.887
 2564SOL    HW2 8592   2.130   6.480   5.781
 2565SOL     OW 8593   1.023   0.772   6.550
 2565SOL    HW1 8594   1.079   0.752   6.469
 2565SOL    HW2 8595   0.941   0.715   6.548
 2566SOL     OW 8596   3.124   6.583   0.813
 2566SOL    HW1 8597   3.028   6.590   0.786
 2566SOL    HW2 8598   3.131   6.533   0.900
 2567SOL     OW 8599   0.855   1.090   1.135
 2567SOL    HW1 8600   0.938   1.140   1.158
 2567SOL    HW2 8601   0.825   1.114   1.043
 2568SOL     OW 8602   4.580   6.897   0.536
 2568SOL    HW1 8603   4.513   6.826   0.516
 2568SOL    HW2 8604   4.594   6.953   0.454
 2569SOL     OW 8605   3.061   1.167   1.363
 2569SOL    HW1 8606   2.998   1.098   1.400
 2569SOL    HW2 8607   3.053   1.169   1.263
 2570SOL     OW 8608   5.450   0.435   6.315
 2570SOL    HW1 8609   5.389   0.376   6.368
 2570SOL    HW2 8610   5.406   0.459   6.228
 2571SOL     OW 8611   2.416   4.418   5.568
 2571SOL    HW1 8612   2.319   4.437   5.551
 2571SOL    HW2 8613   2.425   4.339   5.629
 2572SOL     OW 8614   2.441   4.990   6.896
 2572SOL    HW1 8615   2.409   5.084   6.888
 2572SOL    HW2 8616   2.463   4.954   6.805
 2573SOL     OW 8617   6.788   2.782   1.864
 2573SOL    HW1 8618   6.705   2.731   1.843
 2573SOL    HW2 8619   6.861   2.752   1.802
 2574SOL     OW 8620   6.404   3.683   0.293
 2574SOL    HW1 8621   6.320   3.656   0.246
 2574SOL    HW2 8622   6.407   3.783   0.300
 2575SOL     OW 8623   5.508   4.900   0.673
 2575SOL    HW1 8624   5.434   4.907   0.739
 2575SOL    HW2 8625   5.469   4.882   0.582
 2576SOL     OW 8626   3.607   6.414   4.555
 2576SOL    HW1 8627   3.657   6.426   4.470
 2576SOL    HW2 8628   3.509   6.410   4.536
 2577SOL     OW 8629   4.176   6.622   2.167
 2577SOL    HW1 8630   4.124   6.615   2.082
 2577SOL    HW2 8631   4.127   6.574   2.240
 2578SOL     OW 8632   4.874   1.285   4.582
 2578SOL    HW1 8633   4.843   1.378   4.604
 2578SOL    HW2 8634   4.972   1.278   4.600
 2579SOL     OW 8635   1.537   6.228   3.490
 2579SOL    HW1 8636   1.475   6.171   3.435
 2579SOL    HW2 8637   1.583   6.294   3.431
 2580SOL     OW 8638   2.831   3.622   6.394
 2580SOL    HW1 8639   2.901   3.690   6.371
 2580SOL    HW2 8640   2.796   3.581   6.310
 2581SOL     OW 8641   0.734   5.200   1.292
 2581SOL    HW1 8642   0.666   5.183   1.220
 2581SOL    HW2 8643   0.797   5.122   1.297
 2582SOL     OW 8644   0.657   4.199   2.147
 2582SOL    HW1 8645   0.716   4.204   2.066
 2582SOL    HW2 8646   0.605   4.113   2.145
 2583SOL     OW 8647   0.793   1.369   0.568
 2583SOL    HW1 8648   0.776   1.382   0.471
 2583SOL    HW2 8649   0.853   1.290   0.582
 2584SOL     OW 8650   4.424   5.222   6.419
 2584SOL    HW1 8651   4.502   5.237   6.480
 2584SOL    HW2 8652   4.353   5.290   6.438
 2585SOL     OW 8653   4.179   2.691   6.907
 2585SOL    HW1 8654   4.180   2.789   6.890
 2585SOL    HW2 8655   4.273   2.659   6.922
 2586SOL     OW 8656   3.514   1.438   3.251
 2586SOL    HW1 8657   3.492   1.451   3.347
 2586SOL    HW2 8658   3.436   1.467   3.194
 2587SOL     OW 8659   0.196   0.931   3.421
 2587SOL    HW1 8660   0.133   0.869   3.468
 2587SOL    HW2 8661   0.146   0.982   3.351
 2588SOL     OW 8662   4.669   0.641   6.724
 2588SOL    HW1 8663   4.606   0.718   6.715
 2588SOL    HW2 8664   4.759   0.668   6.690
 2589SOL     OW 8665   0.922   6.412   6.025
 2589SOL    HW1 8666   1.016   6.417   5.991
 2589SOL    HW2 8667   0.894   6.316   6.029
 2590SOL     OW 8668   3.471   5.914   0.893
 2590SOL    HW1 8669   3.510   5.824   0.910
 2590SOL    HW2 8670   3.451   5.959   0.980
 2591SOL     OW 8671   0.090   4.618   3.059
 2591SOL    HW1 8672   0.168   4.680   3.066
 2591SOL    HW2 8673   0.022   4.657   2.996
 2592SOL     OW 8674   3.636   5.779   0.134
 2592SOL    HW1 8675   3.649   5.848   0.205
 2592SOL    HW2 8676   3.725   5.744   0.105
 2593SOL     OW 8677   3.640   5.606   0.906
 2593SOL    HW1 8678   3.568   5.566   0.850
 2593SOL    HW2 8679   3.684   5.534   0.959
 2594SOL     OW 8680   2.364   4.375   6.605
 2594SOL    HW1 8681   2.333   4.445   6.670
 2594SOL    HW2 8682   2.380   4.289   6.654
 2595SOL     OW 8683   6.720   1.259   3.957
 2595SOL    HW1 8684   6.652   1.215   3.899
 2595SOL    HW2 8685   6.758   1.339   3.910
 2596SOL     OW 8686   3.356   1.777   1.447
 2596SOL    HW1 8687   3.451   1.752   1.425
 2596SOL    HW2 8688   3.349   1.794   1.546
 2597SOL     OW 8689   1.271   4.836   5.748
 2597SOL    HW1 8690   1.293   4.750   5.701
 2597SOL    HW2 8691   1.179   4.829   5.787
 2598SOL     OW 8692   6.842   1.177   3.062
 2598SOL    HW1 8693   6.821   1.107   2.994
 2598SOL    HW2 8694   6.764   1.190   3.123
 2599SOL     OW 8695   1.854   6.209   1.160
 2599SOL    HW1 8696   1.852   6.296   1.209
 2599SOL    HW2 8697   1.760   6.178   1.143
 2600SOL     OW 8698   5.354   2.929   4.640
 2600SOL    HW1 8699   5.356   3.026   4.663
 2600SOL    HW2 8700   5.303   2.916   4.555
 2601SOL     OW 8701   1.713   1.577   2.346
 2601SOL    HW1 8702   1.718   1.482   2.375
 2601SOL    HW2 8703   1.652   1.628   2.406
 2602SOL     OW 8704   1.189   4.880   5.102
 2602SOL    HW1 8705   1.232   4.957   5.150
 2602SOL    HW2 8706   1.240   4.861   5.019
 2603SOL     OW 8707   3.114   1.266   4.095
 2603SOL    HW1 8708   3.041   1.320   4.054
 2603SOL    HW2 8709   3.182   1.328   4.135
 2604SOL     OW 8710   4.954   2.010   2.549
 2604SOL    HW1 8711   5.041   2.022   2.502
 2604SOL    HW2 8712   4.879   2.033   2.487
 2605SOL     OW 8713   2.133   3.426   3.643
 2605SOL    HW1 8714   2.124   3.341   3.591
 2605SOL    HW2 8715   2.070   3.495   3.606
 2606SOL     OW 8716   5.599   5.016   1.687
 2606SOL    HW1 8717   5.698   5.004   1.693
 2606SOL    HW2 8718   5.560   5.012   1.778
 2607SOL     OW 8719   0.958   1.714   1.896
 2607SOL    HW1 8720   1.055   1.727   1.917
 2607SOL    HW2 8721   0.949   1.642   1.827
 2608SOL     OW 8722   4.623   4.658   0.186
 2608SOL    HW1 8723   4.681   4.697   0.114
 2608SOL    HW2 8724   4.651   4.563   0.203
 2609SOL     OW 8725   6.314   0.865   1.690
 2609SOL    HW1 8726   6.389   0.828   1.635
 2609SOL    HW2 8727   6.349   0.890   1.780
 2610SOL     OW 8728   0.812   4.540   4.664
 2610SOL    HW1 8729   0.905   4.573   4.681
 2610SOL    HW2 8730   0.797   4.455   4.715
 2611SOL     OW 8731   4.090   6.225   1.160
 2611SOL    HW1 8732   4.187   6.220   1.136
 2611SOL    HW2 8733   4.037   6.257   1.082
 2612SOL     OW 8734   6.183   0.060   4.644
 2612SOL    HW1 8735   6.195   0.039   4.547
 2612SOL    HW2 8736   6.187   0.160   4.657
 2613SOL     OW 8737   2.192   5.730   6.406
 2613SOL    HW1 8738   2.199   5.774   6.495
 2613SOL    HW2 8739   2.100   5.692   6.395
 2614SOL     OW 8740   6.310   1.992   0.358
 2614SOL    HW1 8741   6.259   2.047   0.424
 2614SOL    HW2 8742   6.396   1.961   0.400
 2615SOL     OW 8743   1.002   2.889   2.604
 2615SOL    HW1 8744   1.014   2.798   2.565
 2615SOL    HW2 8745   1.055   2.895   2.689
 2616SOL     OW 8746   2.805   2.841   5.645
 2616SOL    HW1 8747   2.716   2.847   5.690
 2616SOL    HW2 8748   2.792   2.838   5.546
 2617SOL     OW 8749   4.309   6.987   0.942
 2617SOL    HW1 8750   4.233   6.992   1.007
 2617SOL    HW2 8751   4.272   6.979   0.849
 2618SOL     OW 8752   6.697   0.389   3.623
 2618SOL    HW1 8753   6.633   0.320   3.656
 2618SOL    HW2 8754   6.650   0.448   3.557
 2619SOL     OW 8755   4.527   1.940   2.030
 2619SOL    HW1 8756   4.430   1.931   2.053
 2619SOL    HW2 8757   4.547   2.037   2.013
 2620SOL     OW 8758   6.384   6.402   3.824
 2620SOL    HW1 8759   6.409   6.370   3.732
 2620SOL    HW2 8760   6.404   6.330   3.890
 2621SOL     OW 8761   0.998   5.164   1.741
 2621SOL    HW1 8762   0.938   5.195   1.815
 2621SOL    HW2 8763   1.093   5.178   1.767
 2622SOL     OW 8764   1.094   3.794   5.742
 2622SOL    HW1 8765   1.135   3.801   5.833
 2622SOL    HW2 8766   1.162   3.822   5.673
 2623SOL     OW 8767   0.317   0.714   5.360
 2623SOL    HW1 8768   0.256   0.740   5.435
 2623SOL    HW2 8769   0.313   0.615   5.347
 2624SOL     OW 8770   0.504   1.096   4.791
 2624SOL    HW1 8771   0.408   1.084   4.816
 2624SOL    HW2 8772   0.514   1.093   4.692
 2625SOL     OW 8773   2.504   3.724   5.317
 2625SOL    HW1 8774   2.599   3.698   5.336
 2625SOL    HW2 8775   2.500   3.819   5.288
 2626SOL     OW 8776   6.835   0.503   6.261
 2626SOL    HW1 8777   6.839   0.599   6.290
 2626SOL    HW2 8778   6.833   0.499   6.161
 2627SOL     OW 8779   1.063   1.335   6.127
 2627SOL    HW1 8780   0.988   1.351   6.062
 2627SOL    HW2 8781   1.103   1.245   6.111
 2628SOL     OW 8782   2.034   3.693   5.589
 2628SOL    HW1 8783   2.043   3.728   5.683
 2628SOL    HW2 8784   1.978   3.757   5.536
 2629SOL     OW 8785   3.999   3.092   2.195
 2629SOL    HW1 8786   3.956   3.007   2.163
 2629SOL    HW2 8787   4.035   3.143   2.117
 2630SOL     OW 8788   3.420   1.796   2.792
 2630SOL    HW1 8789   3.487   1.827   2.724
 2630SOL    HW2 8790   3.460   1.723   2.847
 2631SOL     OW 8791   5.206   0.668   6.062
 2631SOL    HW1 8792   5.241   0.577   6.084
 2631SOL    HW2 8793   5.273   0.737   6.088
 2632SOL     OW 8794   4.942   2.883   0.776
 2632SOL    HW1 8795   4.962   2.812   0.709
 2632SOL    HW2 8796   4.903   2.963   0.729
 2633SOL     OW 8797   0.430   1.665   4.372
 2633SOL    HW1 8798   0.449   1.758   4.403
 2633SOL    HW2 8799   0.423   1.664   4.272
 2634SOL     OW 8800   0.623   5.404   3.776
 2634SOL    HW1 8801   0.618   5.476   3.706
 2634SOL    HW2 8802   0.651   5.318   3.734
 2635SOL     OW 8803   0.340   6.298   4.640
 2635SOL    HW1 8804   0.401   6.240   4.587
 2635SOL    HW2 8805   0.375   6.392   4.639
 2636SOL     OW 8806   4.367   0.140   5.751
 2636SOL    HW1 8807   4.350   0.107   5.658
 2636SOL    HW2 8808   4.443   0.204   5.751
 2637SOL     OW 8809   6.543   2.122   3.351
 2637SOL    HW1 8810   6.633   2.154   3.381
 2637SOL    HW2 8811   6.538   2.126   3.251
 2638SOL     OW 8812   6.879   6.985   4.219
 2638SOL    HW1 8813   6.792   6.950   4.184
 2638SOL    HW2 8814   6.947   6.987   4.145
 2639SOL     OW 8815   0.412   6.055   0.343
 2639SOL    HW1 8816   0.341   6.024   0.279
 2639SOL    HW2 8817   0.371   6.115   0.411
 2640SOL     OW 8818   6.477   6.379   5.406
 2640SOL    HW1 8819   6.463   6.455   5.343
 2640SOL    HW2 8820   6.563   6.391   5.455
 2641SOL     OW 8821   5.934   2.735   2.270
 2641SOL    HW1 8822   5.965   2.780   2.186
 2641SOL    HW2 8823   6.000   2.750   2.343
 2642SOL     OW 8824   6.047   0.697   3.810
 2642SOL    HW1 8825   6.105   0.735   3.738
 2642SOL    HW2 8826   5.977   0.764   3.835
 2643SOL     OW 8827   1.421   3.599   3.514
 2643SOL    HW1 8828   1.323   3.580   3.519
 2643SOL    HW2 8829   1.448   3.654   3.593
 2644SOL     OW 8830   5.140   5.383   4.485
 2644SOL    HW1 8831   5.140   5.453   4.414
 2644SOL    HW2 8832   5.049   5.379   4.527
 2645SOL     OW 8833   4.210   5.994   3.438
 2645SOL    HW1 8834   4.196   5.905   3.480
 2645SOL    HW2 8835   4.288   5.991   3.377
 2646SOL     OW 8836   6.298   1.712   0.005
 2646SOL    HW1 8837   6.274   1.725   0.101
 2646SOL    HW2 8838   6.295   1.800   6.972
 2647SOL     OW 8839   6.151   0.256   1.778
 2647SOL    HW1 8840   6.057   0.223   1.768
 2647SOL    HW2 8841   6.214   0.187   1.743
 2648SOL     OW 8842   0.746   6.603   4.199
 2648SOL    HW1 8843   0.725   6.638   4.290
 2648SOL    HW2 8844   0.830   6.644   4.166
 2649SOL     OW 8845   6.705   3.382   1.093
 2649SOL    HW1 8846   6.723   3.362   0.997
 2649SOL    HW2 8847   6.763   3.459   1.122
 2650SOL     OW 8848   1.799   4.825   3.545
 2650SOL    HW1 8849   1.899   4.826   3.546
 2650SOL    HW2 8850   1.765   4.867   3.629
 2651SOL     OW 8851   2.567   1.914   1.231
 2651SOL    HW1 8852   2.516   1.835   1.197
 2651SOL    HW2 8853   2.660   1.912   1.193
 2652SOL     OW 8854   4.460   3.214   5.342
 2652SOL    HW1 8855   4.363   3.229   5.361
 2652SOL    HW2 8856   4.505   3.302   5.327
 2653SOL     OW 8857   4.514   6.636   5.926
 2653SOL    HW1 8858   4.422   6.673   5.922
 2653SOL    HW2 8859   4.580   6.711   5.930
 2654SOL     OW 8860   4.395   6.831   1.732
 2654SOL    HW1 8861   4.491   6.837   1.759
 2654SOL    HW2 8862   4.382   6.869   1.641
 2655SOL     OW 8863   5.569   5.887   3.695
 2655SOL    HW1 8864   5.601   5.939   3.775
 2655SOL    HW2 8865   5.547   5.950   3.621
 2656SOL     OW 8866   3.567   5.068   4.514
 2656SOL    HW1 8867   3.539   5.068   4.418
 2656SOL    HW2 8868   3.565   4.974   4.549
 2657SOL     OW 8869   1.614   4.320   6.721
 2657SOL    HW1 8870   1.580   4.315   6.627
 2657SOL    HW2 8871   1.660   4.408   6.734
 2658SOL     OW 8872   5.303   4.774   0.087
 2658SOL    HW1 8873   5.217   4.727   0.066
 2658SOL    HW2 8874   5.348   4.799   0.001
 2659SOL     OW 8875   4.893   3.158   4.889
 2659SOL    HW1 8876   4.941   3.118   4.967
 2659SOL    HW2 8877   4.836   3.088   4.845
 2660SOL     OW 8878   1.360   0.492   1.722
 2660SOL    HW1 8879   1.443   0.438   1.708
 2660SOL    HW2 8880   1.332   0.485   1.818
 2661SOL     OW 8881   2.227   0.147   1.135
 2661SOL    HW1 8882   2.296   0.163   1.066
 2661SOL    HW2 8883   2.248   0.062   1.184
 2662SOL     OW 8884   3.347   6.455   5.236
 2662SOL    HW1 8885   3.408   6.416   5.167
 2662SOL    HW2 8886   3.252   6.438   5.209
 2663SOL     OW 8887   3.921   4.131   6.718
 2663SOL    HW1 8888   4.009   4.124   6.672
 2663SOL    HW2 8889   3.918   4.215   6.772
 2664SOL     OW 8890   4.492   3.086   5.594
 2664SOL    HW1 8891   4.409   3.031   5.610
 2664SOL    HW2 8892   4.488   3.126   5.503
 2665SOL     OW 8893   2.775   3.361   5.211
 2665SOL    HW1 8894   2.815   3.320   5.130
 2665SOL    HW2 8895   2.708   3.299   5.251
 2666SOL     OW 8896   0.971   4.897   1.710
 2666SOL    HW1 8897   0.999   4.820   1.768
 2666SOL    HW2 8898   0.988   4.983   1.758
 2667SOL     OW 8899   1.508   5.612   3.833
 2667SOL    HW1 8900   1.594   5.599   3.883
 2667SOL    HW2 8901   1.433   5.621   3.899
 2668SOL     OW 8902   6.612   2.623   4.642
 2668SOL    HW1 8903   6.669   2.603   4.562
 2668SOL    HW2 8904   6.639   2.565   4.718
 2669SOL     OW 8905   3.043   5.175   5.714
 2669SOL    HW1 8906   3.057   5.077   5.725
 2669SOL    HW2 8907   3.129   5.219   5.689
 2670SOL     OW 8908   6.048   3.346   4.843
 2670SOL    HW1 8909   6.005   3.256   4.836
 2670SOL    HW2 8910   6.074   3.363   4.939
 2671SOL     OW 8911   4.177   5.383   0.160
 2671SOL    HW1 8912   4.131   5.386   0.071
 2671SOL    HW2 8913   4.270   5.419   0.150
 2672SOL     OW 8914   2.863   6.028   0.833
 2672SOL    HW1 8915   2.835   6.029   0.737
 2672SOL    HW2 8916   2.872   5.933   0.864
 2673SOL     OW 8917   6.280   1.734   1.727
 2673SOL    HW1 8918   6.309   1.818   1.681
 2673SOL    HW2 8919   6.218   1.757   1.802
 2674SOL     OW 8920   1.178   4.512   4.272
 2674SOL    HW1 8921   1.207   4.420   4.244
 2674SOL    HW2 8922   1.179   4.572   4.192
 2675SOL     OW 8923   6.540   6.256   4.017
 2675SOL    HW1 8924   6.610   6.321   4.045
 2675SOL    HW2 8925   6.579   6.164   4.012
 2676SOL     OW 8926   3.354   2.936   1.097
 2676SOL    HW1 8927   3.339   2.839   1.118
 2676SOL    HW2 8928   3.271   2.988   1.119
 2677SOL     OW 8929   2.912   4.109   0.540
 2677SOL    HW1 8930   2.947   4.187   0.592
 2677SOL    HW2 8931   2.824   4.081   0.579
 2678SOL     OW 8932   0.589   2.429   2.846
 2678SOL    HW1 8933   0.671   2.484   2.860
 2678SOL    HW2 8934   0.615   2.338   2.813
 2679SOL     OW 8935   1.937   4.877   2.581
 2679SOL    HW1 8936   1.990   4.899   2.498
 2679SOL    HW2 8937   1.840   4.889   2.562
 2680SOL     OW 8938   1.420   2.010   0.762
 2680SOL    HW1 8939   1.467   1.937   0.714
 2680SOL    HW2 8940   1.412   1.987   0.859
 2681SOL     OW 8941   1.136   2.233   4.723
 2681SOL    HW1 8942   1.102   2.324   4.698
 2681SOL    HW2 8943   1.183   2.193   4.645
 2682SOL     OW 8944   4.739   4.104   4.072
 2682SOL    HW1 8945   4.805   4.111   3.997
 2682SOL    HW2 8946   4.676   4.182   4.068
 2683SOL     OW 8947   2.432   4.607   2.131
 2683SOL    HW1 8948   2.362   4.676   2.147
 2683SOL    HW2 8949   2.419   4.566   2.041
 2684SOL     OW 8950   4.281   6.901   2.669
 2684SOL    HW1 8951   4.251   6.815   2.628
 2684SOL    HW2 8952   4.278   6.974   2.602
 2685SOL     OW 8953   5.846   5.772   5.743
 2685SOL    HW1 8954   5.903   5.852   5.728
 2685SOL    HW2 8955   5.867   5.732   5.833
 2686SOL     OW 8956   1.404   1.905   5.562
 2686SOL    HW1 8957   1.406   1.809   5.589
 2686SOL    HW2 8958   1.354   1.914   5.476
 2687SOL     OW 8959   4.353   5.758   1.072
 2687SOL    HW1 8960   4.276   5.756   1.009
 2687SOL    HW2 8961   4.326   5.717   1.159
 2688SOL     OW 8962   2.621   2.562   0.291
 2688SOL    HW1 8963   2.582   2.640   0.340
 2688SOL    HW2 8964   2.642   2.588   0.197
 2689SOL     OW 8965   6.733   3.385   2.037
 2689SOL    HW1 8966   6.679   3.386   1.953
 2689SOL    HW2 8967   6.811   3.324   2.026
 2690SOL     OW 8968   3.224   3.310   5.235
 2690SOL    HW1 8969   3.285   3.355   5.300
 2690SOL    HW2 8970   3.130   3.311   5.270
 2691SOL     OW 8971   0.269   5.167   3.741
 2691SOL    HW1 8972   0.184   5.114   3.749
 2691SOL    HW2 8973   0.347   5.108   3.764
 2692SOL     OW 8974   2.774   6.601   3.615
 2692SOL    HW1 8975   2.704   6.644   3.673
 2692SOL    HW2 8976   2.864   6.628   3.647
 2693SOL     OW 8977   2.585   4.799   4.082
 2693SOL    HW1 8978   2.670   4.786   4.031
 2693SOL    HW2 8979   2.511   4.822   4.019
 2694SOL     OW 8980   3.798   6.920   3.029
 2694SOL    HW1 8981   3.855   6.874   3.097
 2694SOL    HW2 8982   3.713   6.869   3.016
 2695SOL     OW 8983   5.979   0.425   3.008
 2695SOL    HW1 8984   6.011   0.387   3.094
 2695SOL    HW2 8985   5.902   0.487   3.025
 2696SOL     OW 8986   3.970   3.399   5.727
 2696SOL    HW1 8987   3.910   3.330   5.687
 2696SOL    HW2 8988   3.936   3.423   5.818
 2697SOL     OW 8989   3.618   1.791   3.402
 2697SOL    HW1 8990   3.639   1.878   3.445
 2697SOL    HW2 8991   3.519   1.775   3.406
 2698SOL     OW 8992   1.461   4.326   0.717
 2698SOL    HW1 8993   1.452   4.425   0.725
 2698SOL    HW2 8994   1.556   4.304   0.693
 2699SOL     OW 8995   2.739   5.865   1.234
 2699SOL    HW1 8996   2.749   5.965   1.226
 2699SOL    HW2 8997   2.816   5.828   1.286
 2700SOL     OW 8998   2.715   2.089   0.809
 2700SOL    HW1 8999   2.750   2.171   0.764
 2700SOL    HW2 9000   2.778   2.012   0.791
 2701SOL     OW 9001   4.770   2.026   6.112
 2701SOL    HW1 9002   4.858   1.989   6.084
 2701SOL    HW2 9003   4.721   1.958   6.167
 2702SOL     OW 9004   0.896   2.507   3.534
 2702SOL    HW1 9005   0.859   2.592   3.499
 2702SOL    HW2 9006   0.862   2.430   3.479
 2703SOL     OW 9007   0.856   6.094   0.932
 2703SOL    HW1 9008   0.894   6.163   0.871
 2703SOL    HW2 9009   0.783   6.135   0.987
 2704SOL     OW 9010   6.189   6.175   2.225
 2704SOL    HW1 9011   6.222   6.136   2.311
 2704SOL    HW2 9012   6.228   6.266   2.212
 2705SOL     OW 9013   6.233   0.213   4.992
 2705SOL    HW1 9014   6.296   0.189   4.918
 2705SOL    HW2 9015   6.211   0.132   5.045
 2706SOL     OW 9016   6.448   4.967   3.140
 2706SOL    HW1 9017   6.540   4.927   3.145
 2706SOL    HW2 9018   6.452   5.063   3.164
 2707SOL     OW 9019   3.497   6.939   4.303
 2707SOL    HW1 9020   3.561   6.918   4.229
 2707SOL    HW2 9021   3.547   6.950   4.389
 2708SOL     OW 9022   6.410   2.664   1.113
 2708SOL    HW1 9023   6.474   2.715   1.056
 2708SOL    HW2 9024   6.397   2.712   1.200
 2709SOL     OW 9025   5.163   6.829   0.169
 2709SOL    HW1 9026   5.167   6.777   0.254
 2709SOL    HW2 9027   5.241   6.891   0.164
 2710SOL     OW 9028   1.040   3.026   4.029
 2710SOL    HW1 9029   0.974   3.080   4.081
 2710SOL    HW2 9030   1.075   3.080   3.952
 2711SOL     OW 9031   2.702   0.825   3.764
 2711SOL    HW1 9032   2.670   0.818   3.858
 2711SOL    HW2 9033   2.625   0.840   3.703
 2712SOL     OW 9034   2.754   5.339   1.829
 2712SOL    HW1 9035   2.669   5.368   1.784
 2712SOL    HW2 9036   2.734   5.310   1.922
 2713SOL     OW 9037   2.567   3.695   6.059
 2713SOL    HW1 9038   2.580   3.619   6.122
 2713SOL    HW2 9039   2.650   3.750   6.056
 2714SOL     OW 9040   4.242   2.885   0.254
 2714SOL    HW1 9041   4.170   2.951   0.234
 2714SOL    HW2 9042   4.222   2.799   0.207
 2715SOL     OW 9043   5.309   2.328   0.752
 2715SOL    HW1 9044   5.302   2.404   0.816
 2715SOL    HW2 9045   5.259   2.249   0.789
 2716SOL     OW 9046   5.177   3.407   4.143
 2716SOL    HW1 9047   5.083   3.373   4.137
 2716SOL    HW2 9048   5.176   3.503   4.173
 2717SOL     OW 9049   0.778   6.781   1.937
 2717SOL    HW1 9050   0.733   6.848   1.995
 2717SOL    HW2 9051   0.795   6.697   1.988
 2718SOL     OW 9052   1.561   1.576   5.599
 2718SOL    HW1 9053   1.618   1.512   5.652
 2718SOL    HW2 9054   1.481   1.600   5.653
 2719SOL     OW 9055   0.831   4.971   1.489
 2719SOL    HW1 9056   0.740   4.961   1.530
 2719SOL    HW2 9057   0.901   4.949   1.557
 2720SOL     OW 9058   1.543   0.477   2.520
 2720SOL    HW1 9059   1.597   0.493   2.602
 2720SOL    HW2 9060   1.449   0.506   2.536
 2721SOL     OW 9061   2.924   6.381   3.119
 2721SOL    HW1 9062   3.016   6.352   3.094
 2721SOL    HW2 9063   2.890   6.324   3.194
 2722SOL     OW 9064   5.827   5.116   0.021
 2722SOL    HW1 9065   5.910   5.089   0.069
 2722SOL    HW2 9066   5.776   5.034   7.010
 2723SOL     OW 9067   1.401   5.746   6.664
 2723SOL    HW1 9068   1.327   5.785   6.719
 2723SOL    HW2 9069   1.363   5.703   6.582
 2724SOL     OW 9070   1.518   6.426   6.514
 2724SOL    HW1 9071   1.552   6.350   6.570
 2724SOL    HW2 9072   1.422   6.443   6.536
 2725SOL     OW 9073   5.068   4.827   4.787
 2725SOL    HW1 9074   5.042   4.872   4.872
 2725SOL    HW2 9075   5.156   4.862   4.756
 2726SOL     OW 9076   0.283   2.453   2.158
 2726SOL    HW1 9077   0.350   2.425   2.088
 2726SOL    HW2 9078   0.317   2.532   2.208
 2727SOL     OW 9079   0.496   4.582   4.300
 2727SOL    HW1 9080   0.564   4.532   4.353
 2727SOL    HW2 9081   0.473   4.667   4.347
 2728SOL     OW 9082   4.338   6.275   5.606
 2728SOL    HW1 9083   4.327   6.306   5.512
 2728SOL    HW2 9084   4.387   6.344   5.658
 2729SOL     OW 9085   6.914   6.609   0.668
 2729SOL    HW1 9086   6.934   6.626   0.765
 2729SOL    HW2 9087   6.817   6.588   0.657
 2730SOL     OW 9088   1.604   5.830   1.877
 2730SOL    HW1 9089   1.584   5.874   1.789
 2730SOL    HW2 9090   1.519   5.806   1.923
 2731SOL     OW 9091   2.972   3.431   3.368
 2731SOL    HW1 9092   3.010   3.351   3.322
 2731SOL    HW2 9093   2.917   3.484   3.303
 2732SOL     OW 9094   5.760   2.029   0.875
 2732SOL    HW1 9095   5.681   2.080   0.841
 2732SOL    HW2 9096   5.775   1.949   0.816
 2733SOL     OW 9097   6.424   1.664   4.972
 2733SOL    HW1 9098   6.391   1.582   5.020
 2733SOL    HW2 9099   6.367   1.680   4.891
 2734SOL     OW 9100   2.819   5.417   1.242
 2734SOL    HW1 9101   2.815   5.339   1.180
 2734SOL    HW2 9102   2.772   5.495   1.201
 2735SOL     OW 9103   1.470   2.603   1.988
 2735SOL    HW1 9104   1.406   2.574   2.059
 2735SOL    HW2 9105   1.505   2.522   1.940
 2736SOL     OW 9106   6.930   6.077   4.503
 2736SOL    HW1 9107   6.911   6.008   4.573
 2736SOL    HW2 9108   6.986   6.150   4.542
 2737SOL     OW 9109   2.849   3.899   5.600
 2737SOL    HW1 9110   2.756   3.868   5.583
 2737SOL    HW2 9111   2.906   3.881   5.520
 2738SOL     OW 9112   5.216   5.909   1.830
 2738SOL    HW1 9113   5.117   5.914   1.815
 2738SOL    HW2 9114   5.248   5.816   1.812
 2739SOL     OW 9115   0.968   4.989   0.727
 2739SOL    HW1 9116   0.949   4.921   0.798
 2739SOL    HW2 9117   0.931   5.078   0.756
 2740SOL     OW 9118   6.597   4.549   1.538
 2740SOL    HW1 9119   6.682   4.595   1.513
 2740SOL    HW2 9120   6.618   4.464   1.586
 2741SOL     OW 9121   6.644   0.615   4.170
 2741SOL    HW1 9122   6.736   0.646   4.191
 2741SOL    HW2 9123   6.640   0.581   4.076
 2742SOL     OW 9124   1.813   4.855   0.449
 2742SOL    HW1 9125   1.849   4.893   0.534
 2742SOL    HW2 9126   1.843   4.760   0.439
 2743SOL     OW 9127   0.480   4.124   2.567
 2743SOL    HW1 9128   0.470   4.163   2.476
 2743SOL    HW2 9129   0.463   4.195   2.636
 2744SOL     OW 9130   4.809   2.439   0.450
 2744SOL    HW1 9131   4.872   2.446   0.373
 2744SOL    HW2 9132   4.764   2.527   0.465
 2745SOL     OW 9133   0.027   1.302   4.775
 2745SOL    HW1 9134   6.982   1.252   4.713
 2745SOL    HW2 9135   6.989   1.336   4.853
 2746SOL     OW 9136   0.963   2.500   4.971
 2746SOL    HW1 9137   1.035   2.566   4.990
 2746SOL    HW2 9138   0.945   2.446   5.053
 2747SOL     OW 9139   4.823   5.282   6.957
 2747SOL    HW1 9140   4.865   5.275   0.032
 2747SOL    HW2 9141   4.892   5.305   6.889
 2748SOL     OW 9142   4.239   1.546   2.818
 2748SOL    HW1 9143   4.262   1.579   2.726
 2748SOL    HW2 9144   4.157   1.489   2.814
 2749SOL     OW 9145   6.522   4.553   1.010
 2749SOL    HW1 9146   6.439   4.589   0.967
 2749SOL    HW2 9147   6.602   4.595   0.968
 2750SOL     OW 9148   2.106   4.031   1.454
 2750SOL    HW1 9149   2.073   4.046   1.361
 2750SOL    HW2 9150   2.124   3.934   1.468
 2751SOL     OW 9151   1.358   2.939   1.479
 2751SOL    HW1 9152   1.370   2.956   1.577
 2751SOL    HW2 9153   1.408   2.856   1.454
 2752SOL     OW 9154   3.474   4.658   5.680
 2752SOL    HW1 9155   3.514   4.717   5.610
 2752SOL    HW2 9156   3.528   4.666   5.765
 2753SOL     OW 9157   6.742   6.614   4.687
 2753SOL    HW1 9158   6.803   6.613   4.766
 2753SOL    HW2 9159   6.745   6.525   4.641
 2754SOL     OW 9160   0.510   0.293   1.029
 2754SOL    HW1 9161   0.548   0.267   1.118
 2754SOL    HW2 9162   0.571   0.359   0.985
 2755SOL     OW 9163   3.488   6.777   2.296
 2755SOL    HW1 9164   3.572   6.822   2.326
 2755SOL    HW2 9165   3.500   6.678   2.297
 2756SOL     OW 9166   5.477   5.260   7.002
 2756SOL    HW1 9167   5.544   5.301   0.048
 2756SOL    HW2 9168   5.511   5.266   6.908
 2757SOL     OW 9169   2.323   6.304   6.859
 2757SOL    HW1 9170   2.339   6.306   6.958
 2757SOL    HW2 9171   2.225   6.295   6.842
 2758SOL     OW 9172   3.863   6.786   3.871
 2758SOL    HW1 9173   3.815   6.709   3.830
 2758SOL    HW2 9174   3.887   6.852   3.799
 2759SOL     OW 9175   5.302   6.503   5.728
 2759SOL    HW1 9176   5.302   6.490   5.827
 2759SOL    HW2 9177   5.375   6.447   5.687
 2760SOL     OW 9178   0.015   6.332   1.812
 2760SOL    HW1 9179   0.016   6.305   1.716
 2760SOL    HW2 9180   0.079   6.274   1.864
 2761SOL     OW 9181   1.868   5.241   4.448
 2761SOL    HW1 9182   1.782   5.243   4.498
 2761SOL    HW2 9183   1.917   5.156   4.470
 2762SOL     OW 9184   1.518   1.166   5.500
 2762SOL    HW1 9185   1.585   1.232   5.536
 2762SOL    HW2 9186   1.519   1.169   5.400
 2763SOL     OW 9187   4.871   1.661   3.757
 2763SOL    HW1 9188   4.812   1.617   3.826
 2763SOL    HW2 9189   4.823   1.738   3.716
 2764SOL     OW 9190   5.914   1.248   1.072
 2764SOL    HW1 9191   5.825   1.204   1.066
 2764SOL    HW2 9192   5.906   1.344   1.047
 2765SOL     OW 9193   5.843   6.995   1.282
 2765SOL    HW1 9194   5.781   0.016   1.211
 2765SOL    HW2 9195   5.897   6.920   1.244
 2766SOL     OW 9196   4.401   2.167   0.311
 2766SOL    HW1 9197   4.357   2.080   0.291
 2766SOL    HW2 9198   4.346   2.217   0.379
 2767SOL     OW 9199   0.206   5.303   0.245
 2767SOL    HW1 9200   0.263   5.276   0.323
 2767SOL    HW2 9201   0.238   5.391   0.210
 2768SOL     OW 9202   4.831   0.640   0.981
 2768SOL    HW1 9203   4.909   0.650   1.043
 2768SOL    HW2 9204   4.747   0.668   1.028
 2769SOL     OW 9205   0.491   3.936   4.231
 2769SOL    HW1 9206   0.568   3.898   4.281
 2769SOL    HW2 9207   0.412   3.943   4.292
 2770SOL     OW 9208   2.902   5.409   5.609
 2770SOL    HW1 9209   2.946   5.482   5.556
 2770SOL    HW2 9210   2.972   5.359   5.661
 2771SOL     OW 9211   6.619   0.842   3.133
 2771SOL    HW1 9212   6.572   0.790   3.204
 2771SOL    HW2 9213   6.564   0.922   3.109
 2772SOL     OW 9214   4.543   1.718   0.811
 2772SOL    HW1 9215   4.477   1.723   0.885
 2772SOL    HW2 9216   4.616   1.654   0.835
 2773SOL     OW 9217   5.988   2.131   5.486
 2773SOL    HW1 9218   5.986   2.222   5.445
 2773SOL    HW2 9219   6.056   2.130   5.560
 2774SOL     OW 9220   5.654   3.713   2.889
 2774SOL    HW1 9221   5.593   3.701   2.968
 2774SOL    HW2 9222   5.652   3.631   2.833
 2775SOL     OW 9223   6.552   5.817   6.879
 2775SOL    HW1 9224   6.510   5.857   6.960
 2775SOL    HW2 9225   6.631   5.763   6.905
 2776SOL     OW 9226   4.266   4.857   5.712
 2776SOL    HW1 9227   4.204   4.833   5.786
 2776SOL    HW2 9228   4.226   4.831   5.625
 2777SOL     OW 9229   2.709   1.193   2.077
 2777SOL    HW1 9230   2.622   1.176   2.031
 2777SOL    HW2 9231   2.733   1.289   2.069
 2778SOL     OW 9232   1.182   0.321   5.507
 2778SOL    HW1 9233   1.242   0.261   5.455
 2778SOL    HW2 9234   1.112   0.267   5.554
 2779SOL     OW 9235   4.865   6.241   1.042
 2779SOL    HW1 9236   4.903   6.333   1.038
 2779SOL    HW2 9237   4.862   6.210   1.137
 2780SOL     OW 9238   6.276   6.369   6.851
 2780SOL    HW1 9239   6.321   6.457   6.862
 2780SOL    HW2 9240   6.183   6.383   6.817
 2781SOL     OW 9241   5.153   6.428   1.897
 2781SOL    HW1 9242   5.144   6.401   1.801
 2781SOL    HW2 9243   5.108   6.516   1.912
 2782SOL     OW 9244   4.150   2.065   5.531
 2782SOL    HW1 9245   4.110   2.013   5.455
 2782SOL    HW2 9246   4.078   2.094   5.593
 2783SOL     OW 9247   4.983   4.181   3.911
 2783SOL    HW1 9248   4.958   4.278   3.915
 2783SOL    HW2 9249   5.009   4.157   3.817
 2784SOL     OW 9250   3.909   1.436   1.044
 2784SOL    HW1 9251   3.877   1.445   1.139
 2784SOL    HW2 9252   4.008   1.444   1.041
 2785SOL     OW 9253   5.070   1.074   0.780
 2785SOL    HW1 9254   5.034   1.044   0.692
 2785SOL    HW2 9255   5.038   1.013   0.852
 2786SOL     OW 9256   4.968   5.982   1.910
 2786SOL    HW1 9257   4.978   5.928   1.993
 2786SOL    HW2 9258   4.952   6.078   1.934
 2787SOL     OW 9259   3.519   1.800   6.747
 2787SOL    HW1 9260   3.536   1.866   6.674
 2787SOL    HW2 9261   3.463   1.842   6.818
 2788SOL     OW 9262   2.230   4.611   6.005
 2788SOL    HW1 9263   2.316   4.615   5.954
 2788SOL    HW2 9264   2.173   4.690   5.981
 2789SOL     OW 9265   2.287   2.379   3.309
 2789SOL    HW1 9266   2.273   2.393   3.210
 2789SOL    HW2 9267   2.204   2.404   3.358
 2790SOL     OW 9268   3.079   5.870   2.097
 2790SOL    HW1 9269   3.089   5.822   2.184
 2790SOL    HW2 9270   3.016   5.819   2.038
 2791SOL     OW 9271   1.132   3.795   3.384
 2791SOL    HW1 9272   1.076   3.723   3.344
 2791SOL    HW2 9273   1.134   3.784   3.484
 2792SOL     OW 9274   1.547   6.683   4.069
 2792SOL    HW1 9275   1.488   6.617   4.022
 2792SOL    HW2 9276   1.506   6.774   4.065
 2793SOL     OW 9277   5.046   3.395   2.923
 2793SOL    HW1 9278   5.076   3.489   2.903
 2793SOL    HW2 9279   4.981   3.396   2.999
 2794SOL     OW 9280   0.326   3.231   0.222
 2794SOL    HW1 9281   0.303   3.216   0.125
 2794SOL    HW2 9282   0.291   3.156   0.277
 2795SOL     OW 9283   1.969   2.733   0.557
 2795SOL    HW1 9284   2.056   2.693   0.587
 2795SOL    HW2 9285   1.903   2.659   0.543
 2796SOL     OW 9286   6.699   5.737   2.368
 2796SOL    HW1 9287   6.749   5.796   2.432
 2796SOL    HW2 9288   6.764   5.679   2.319
 2797SOL     OW 9289   5.719   5.321   4.842
 2797SOL    HW1 9290   5.717   5.232   4.888
 2797SOL    HW2 9291   5.751   5.309   4.748
 2798SOL     OW 9292   0.596   5.293   1.759
 2798SOL    HW1 9293   0.616   5.319   1.665
 2798SOL    HW2 9294   0.672   5.318   1.818
 2799SOL     OW 9295   6.542   6.826   6.933
 2799SOL    HW1 9296   6.557   6.745   6.989
 2799SOL    HW2 9297   6.468   6.880   6.972
 2800SOL     OW 9298   4.446   5.409   0.108
 2800SOL    HW1 9299   4.448   5.319   0.151
 2800SOL    HW2 9300   4.537   5.432   0.074
 2801SOL     OW 9301   5.771   5.493   5.458
 2801SOL    HW1 9302   5.711   5.572   5.469
 2801SOL    HW2 9303   5.866   5.524   5.458
 2802SOL     OW 9304   4.723   1.490   5.334
 2802SOL    HW1 9305   4.644   1.543   5.303
 2802SOL    HW2 9306   4.791   1.553   5.373
 2803SOL     OW 9307   3.643   5.903   6.136
 2803SOL    HW1 9308   3.662   5.996   6.168
 2803SOL    HW2 9309   3.572   5.906   6.066
 2804SOL     OW 9310   0.125   4.797   5.011
 2804SOL    HW1 9311   0.042   4.742   5.013
 2804SOL    HW2 9312   0.187   4.761   4.942
 2805SOL     OW 9313   5.307   3.151   1.789
 2805SOL    HW1 9314   5.246   3.176   1.865
 2805SOL    HW2 9315   5.294   3.215   1.714
 2806SOL     OW 9316   6.396   5.087   5.139
 2806SOL    HW1 9317   6.420   5.058   5.232
 2806SOL    HW2 9318   6.316   5.147   5.143
 2807SOL     OW 9319   4.884   5.479   3.366
 2807SOL    HW1 9320   4.974   5.522   3.369
 2807SOL    HW2 9321   4.839   5.501   3.280
 2808SOL     OW 9322   5.199   3.688   2.494
 2808SOL    HW1 9323   5.184   3.719   2.400
 2808SOL    HW2 9324   5.196   3.588   2.497
 2809SOL     OW 9325   6.199   2.932   1.141
 2809SOL    HW1 9326   6.236   2.979   1.061
 2809SOL    HW2 9327   6.113   2.887   1.118
 2810SOL     OW 9328   2.979   5.783   4.086
 2810SOL    HW1 9329   3.032   5.715   4.137
 2810SOL    HW2 9330   3.028   5.809   4.003
 2811SOL     OW 9331   1.220   1.430   3.207
 2811SOL    HW1 9332   1.172   1.343   3.220
 2811SOL    HW2 9333   1.306   1.429   3.257
 2812SOL     OW 9334   4.979   3.934   6.534
 2812SOL    HW1 9335   4.935   3.850   6.564
 2812SOL    HW2 9336   4.990   3.933   6.434
 2813SOL     OW 9337   6.537   6.763   5.911
 2813SOL    HW1 9338   6.455   6.764   5.853
 2813SOL    HW2 9339   6.591   6.681   5.891
 2814SOL     OW 9340   4.482   3.300   6.043
 2814SOL    HW1 9341   4.477   3.383   5.988
 2814SOL    HW2 9342   4.477   3.220   5.983
 2815SOL     OW 9343   5.981   0.331   5.677
 2815SOL    HW1 9344   6.072   0.355   5.712
 2815SOL    HW2 9345   5.915   0.400   5.705
 2816SOL     OW 9346   6.712   5.384   3.784
 2816SOL    HW1 9347   6.655   5.330   3.846
 2816SOL    HW2 9348   6.808   5.363   3.801
 2817SOL     OW 9349   2.690   6.916   1.211
 2817SOL    HW1 9350   2.608   6.927   1.268
 2817SOL    HW2 9351   2.663   6.908   1.115
 2818SOL     OW 9352   6.957   0.493   0.621
 2818SOL    HW1 9353   6.938   0.398   0.599
 2818SOL    HW2 9354   6.883   0.551   0.587
 2819SOL     OW 9355   0.572   1.258   1.320
 2819SOL    HW1 9356   0.596   1.202   1.241
 2819SOL    HW2 9357   0.473   1.266   1.327
 2820SOL     OW 9358   0.802   2.194   3.028
 2820SOL    HW1 9359   0.741   2.186   2.950
 2820SOL    HW2 9360   0.755   2.242   3.102
 2821SOL     OW 9361   3.980   3.323   0.314
 2821SOL    HW1 9362   4.052   3.367   0.260
 2821SOL    HW2 9363   3.896   3.319   0.261
 2822SOL     OW 9364   4.334   1.521   0.067
 2822SOL    HW1 9365   4.240   1.552   0.082
 2822SOL    HW2 9366   4.397   1.586   0.110
 2823SOL     OW 9367   4.575   6.302   0.468
 2823SOL    HW1 9368   4.514   6.251   0.529
 2823SOL    HW2 9369   4.543   6.291   0.374
 2824SOL     OW 9370   2.766   1.129   3.361
 2824SOL    HW1 9371   2.673   1.093   3.366
 2824SOL    HW2 9372   2.786   1.158   3.268
 2825SOL     OW 9373   6.713   0.160   6.750
 2825SOL    HW1 9374   6.679   0.167   6.656
 2825SOL    HW2 9375   6.778   0.234   6.768
 2826SOL     OW 9376   4.690   0.655   6.996
 2826SOL    HW1 9377   4.777   0.608   7.013
 2826SOL    HW2 9378   4.664   0.642   6.901
 2827SOL     OW 9379   7.013   0.288   5.070
 2827SOL    HW1 9380   6.935   0.296   5.009
 2827SOL    HW2 9381   6.982   0.256   5.160
 2828SOL     OW 9382   3.158   0.544   0.211
 2828SOL    HW1 9383   3.168   0.556   0.112
 2828SOL    HW2 9384   3.064   0.519   0.232
 2829SOL     OW 9385   3.442   3.439   4.951
 2829SOL    HW1 9386   3.473   3.493   4.872
 2829SOL    HW2 9387   3.343   3.432   4.949
 2830SOL     OW 9388   1.674   3.093   5.843
 2830SOL    HW1 9389   1.620   3.164   5.888
 2830SOL    HW2 9390   1.759   3.079   5.895
 2831SOL     OW 9391   0.786   5.825   3.762
 2831SOL    HW1 9392   0.741   5.895   3.707
 2831SOL    HW2 9393   0.761   5.735   3.729
 2832SOL     OW 9394   1.366   1.560   2.561
 2832SOL    HW1 9395   1.428   1.565   2.640
 2832SOL    HW2 9396   1.359   1.650   2.519
 2833SOL     OW 9397   3.967   1.977   2.276
 2833SOL    HW1 9398   3.902   2.024   2.336
 2833SOL    HW2 9399   3.918   1.935   2.200
 2834SOL     OW 9400   3.446   5.220   6.509
 2834SOL    HW1 9401   3.470   5.252   6.417
 2834SOL    HW2 9402   3.378   5.282   6.548
 2835SOL     OW 9403   0.136   0.455   1.559
 2835SOL    HW1 9404   0.085   0.470   1.644
 2835SOL    HW2 9405   0.087   0.497   1.483
 2836SOL     OW 9406   5.791   0.602   2.552
 2836SOL    HW1 9407   5.844   0.618   2.469
 2836SOL    HW2 9408   5.828   0.523   2.601
 2837SOL     OW 9409   5.829   4.170   2.806
 2837SOL    HW1 9410   5.821   4.153   2.708
 2837SOL    HW2 9411   5.925   4.172   2.833
 2838SOL     OW 9412   2.263   4.568   0.954
 2838SOL    HW1 9413   2.268   4.602   0.860
 2838SOL    HW2 9414   2.291   4.640   1.017
 2839SOL     OW 9415   6.991   1.533   1.717
 2839SOL    HW1 9416   0.062   1.582   1.705
 2839SOL    HW2 9417   6.951   1.512   1.627
 2840SOL     OW 9418   2.210   0.831   3.378
 2840SOL    HW1 9419   2.189   0.742   3.417
 2840SOL    HW2 9420   2.178   0.903   3.439
 2841SOL     OW 9421   0.243   1.116   6.336
 2841SOL    HW1 9422   0.226   1.020   6.312
 2841SOL    HW2 9423   0.299   1.120   6.418
 2842SOL     OW 9424   6.944   4.002   3.913
 2842SOL    HW1 9425   6.887   4.024   3.834
 2842SOL    HW2 9426   6.903   3.927   3.965
 2843SOL     OW 9427   2.685   1.480   3.078
 2843SOL    HW1 9428   2.653   1.487   2.984
 2843SOL    HW2 9429   2.696   1.383   3.102
 2844SOL     OW 9430   0.074   5.120   0.059
 2844SOL    HW1 9431   6.991   5.126   0.075
 2844SOL    HW2 9432   0.122   5.170   0.131
 2845SOL     OW 9433   6.333   2.796   1.348
 2845SOL    HW1 9434   6.280   2.758   1.424
 2845SOL    HW2 9435   6.278   2.864   1.300
 2846SOL     OW 9436   4.357   0.864   6.436
 2846SOL    HW1 9437   4.341   0.773   6.474
 2846SOL    HW2 9438   4.311   0.932   6.493
 2847SOL     OW 9439   5.007   3.724   3.852
 2847SOL    HW1 9440   4.934   3.773   3.804
 2847SOL    HW2 9441   5.096   3.761   3.825
 2848SOL     OW 9442   1.213   3.096   5.301
 2848SOL    HW1 9443   1.302   3.068   5.266
 2848SOL    HW2 9444   1.225   3.167   5.371
 2849SOL     OW 9445   4.002   6.235   0.881
 2849SOL    HW1 9446   4.005   6.171   0.804
 2849SOL    HW2 9447   4.057   6.316   0.860
 2850SOL     OW 9448   2.122   0.502   1.995
 2850SOL    HW1 9449   2.121   0.594   1.955
 2850SOL    HW2 9450   2.047   0.494   2.060
 2851SOL     OW 9451   6.520   1.595   5.642
 2851SOL    HW1 9452   6.597   1.616   5.582
 2851SOL    HW2 9453   6.458   1.532   5.597
 2852SOL     OW 9454   5.732   4.897   6.879
 2852SOL    HW1 9455   5.658   4.846   6.923
 2852SOL    HW2 9456   5.699   4.937   6.794
 2853SOL     OW 9457   1.599   2.876   6.787
 2853SOL    HW1 9458   1.651   2.826   6.717
 2853SOL    HW2 9459   1.640   2.859   6.876
 2854SOL     OW 9460   3.969   1.562   5.214
 2854SOL    HW1 9461   3.947   1.518   5.301
 2854SOL    HW2 9462   3.887   1.602   5.175
 2855SOL     OW 9463   2.805   1.592   6.911
 2855SOL    HW1 9464   2.868   1.547   6.847
 2855SOL    HW2 9465   2.763   1.671   6.866
 2856SOL     OW 9466   1.312   2.956   6.148
 2856SOL    HW1 9467   1.305   3.051   6.176
 2856SOL    HW2 9468   1.407   2.925   6.157
 2857SOL     OW 9469   2.905   1.954   2.250
 2857SOL    HW1 9470   2.934   2.049   2.258
 2857SOL    HW2 9471   2.826   1.949   2.188
 2858SOL     OW 9472   4.679   4.171   2.567
 2858SOL    HW1 9473   4.594   4.131   2.532
 2858SOL    HW2 9474   4.662   4.266   2.593
 2859SOL     OW 9475   4.456   1.681   6.796
 2859SOL    HW1 9476   4.501   1.614   6.855
 2859SOL    HW2 9477   4.524   1.741   6.755
 2860SOL     OW 9478   3.553   1.622   1.679
 2860SOL    HW1 9479   3.637   1.653   1.636
 2860SOL    HW2 9480   3.528   1.532   1.642
 2861SOL     OW 9481   3.841   3.699   5.314
 2861SOL    HW1 9482   3.849   3.604   5.342
 2861SOL    HW2 9483   3.751   3.715   5.274
 2862SOL     OW 9484   5.323   1.525   2.938
 2862SOL    HW1 9485   5.284   1.448   2.989
 2862SOL    HW2 9486   5.410   1.552   2.978
 2863SOL     OW 9487   5.057   1.006   6.808
 2863SOL    HW1 9488   5.078   0.923   6.757
 2863SOL    HW2 9489   5.016   0.981   6.896
 2864SOL     OW 9490   4.400   1.661   1.695
 2864SOL    HW1 9491   4.442   1.618   1.615
 2864SOL    HW2 9492   4.439   1.622   1.779
 2865SOL     OW 9493   4.241   4.187   6.235
 2865SOL    HW1 9494   4.319   4.153   6.289
 2865SOL    HW2 9495   4.256   4.165   6.139
 2866SOL     OW 9496   6.675   5.247   0.486
 2866SOL    HW1 9497   6.592   5.207   0.523
 2866SOL    HW2 9498   6.675   5.346   0.502
 2867SOL     OW 9499   6.115   4.270   2.614
 2867SOL    HW1 9500   6.178   4.286   2.691
 2867SOL    HW2 9501   6.151   4.197   2.556
 2868SOL     OW 9502   0.261   1.988   5.565
 2868SOL    HW1 9503   0.351   2.025   5.546
 2868SOL    HW2 9504   0.222   1.950   5.481
 2869SOL     OW 9505   6.396   0.562   2.872
 2869SOL    HW1 9506   6.412   0.500   2.948
 2869SOL    HW2 9507   6.484   0.589   2.832
 2870SOL     OW 9508   0.224   1.500   4.619
 2870SOL    HW1 9509   0.181   1.412   4.643
 2870SOL    HW2 9510   0.320   1.499   4.646
 2871SOL     OW 9511   0.468   1.883   0.166
 2871SOL    HW1 9512   0.461   1.888   0.265
 2871SOL    HW2 9513   0.536   1.949   0.134
 2872SOL     OW 9514   2.809   1.196   3.090
 2872SOL    HW1 9515   2.787   1.180   2.994
 2872SOL    HW2 9516   2.896   1.243   3.097
 2873SOL     OW 9517   6.997   4.783   2.834
 2873SOL    HW1 9518   6.907   4.747   2.808
 2873SOL    HW2 9519   6.992   4.882   2.845
 2874SOL     OW 9520   3.324   6.613   3.653
 2874SOL    HW1 9521   3.333   6.632   3.555
 2874SOL    HW2 9522   3.294   6.696   3.700
 2875SOL     OW 9523   4.989   6.752   0.524
 2875SOL    HW1 9524   5.027   6.768   0.615
 2875SOL    HW2 9525   5.063   6.729   0.460
 2876SOL     OW 9526   1.061   6.814   2.007
 2876SOL    HW1 9527   1.136   6.856   2.059
 2876SOL    HW2 9528   0.995   6.775   2.071
 2877SOL     OW 9529   3.330   2.302   5.376
 2877SOL    HW1 9530   3.275   2.333   5.298
 2877SOL    HW2 9531   3.355   2.206   5.363
 2878SOL     OW 9532   4.518   4.891   4.597
 2878SOL    HW1 9533   4.607   4.864   4.634
 2878SOL    HW2 9534   4.476   4.959   4.657
 2879SOL     OW 9535   5.102   4.801   0.644
 2879SOL    HW1 9536   5.007   4.830   0.630
 2879SOL    HW2 9537   5.131   4.746   0.565
 2880SOL     OW 9538   6.198   0.366   1.529
 2880SOL    HW1 9539   6.196   0.464   1.507
 2880SOL    HW2 9540   6.194   0.354   1.628
 2881SOL     OW 9541   5.508   5.679   6.944
 2881SOL    HW1 9542   5.535   5.770   6.913
 2881SOL    HW2 9543   5.462   5.687   0.018
 2882SOL     OW 9544   0.726   4.054   2.675
 2882SOL    HW1 9545   0.765   3.983   2.616
 2882SOL    HW2 9546   0.640   4.086   2.636
 2883SOL     OW 9547   5.976   0.009   3.608
 2883SOL    HW1 9548   5.876   0.008   3.617
 2883SOL    HW2 9549   6.016   6.980   3.688
 2884SOL     OW 9550   0.963   6.437   3.298
 2884SOL    HW1 9551   0.989   6.343   3.278
 2884SOL    HW2 9552   1.011   6.499   3.236
 2885SOL     OW 9553   0.759   2.992   2.758
 2885SOL    HW1 9554   0.822   2.955   2.826
 2885SOL    HW2 9555   0.805   2.994   2.669
 2886SOL     OW 9556   2.500   4.188   5.717
 2886SOL    HW1 9557   2.542   4.109   5.673
 2886SOL    HW2 9558   2.569   4.238   5.770
 2887SOL     OW 9559   0.736   0.465   4.618
 2887SOL    HW1 9560   0.637   0.475   4.611
 2887SOL    HW2 9561   0.777   0.552   4.645
 2888SOL     OW 9562   0.685   4.467   6.897
 2888SOL    HW1 9563   0.698   4.561   6.926
 2888SOL    HW2 9564   0.642   4.415   6.971
 2889SOL     OW 9565   1.712   0.103   1.925
 2889SOL    HW1 9566   1.650   0.050   1.868
 2889SOL    HW2 9567   1.792   0.047   1.949
 2890SOL     OW 9568   2.566   6.209   0.450
 2890SOL    HW1 9569   2.528   6.279   0.511
 2890SOL    HW2 9570   2.652   6.175   0.488
 2891SOL     OW 9571   1.243   4.344   3.534
 2891SOL    HW1 9572   1.153   4.360   3.575
 2891SOL    HW2 9573   1.262   4.246   3.532
 2892SOL     OW 9574   5.382   3.524   0.309
 2892SOL    HW1 9575   5.448   3.478   0.249
 2892SOL    HW2 9576   5.397   3.496   0.404
 2893SOL     OW 9577   0.697   6.390   4.645
 2893SOL    HW1 9578   0.660   6.465   4.590
 2893SOL    HW2 9579   0.707   6.309   4.587
 2894SOL     OW 9580   2.239   2.368   1.430
 2894SOL    HW1 9581   2.229   2.468   1.425
 2894SOL    HW2 9582   2.256   2.332   1.339
 2895SOL     OW 9583   4.396   2.221   5.952
 2895SOL    HW1 9584   4.408   2.204   6.050
 2895SOL    HW2 9585   4.450   2.301   5.925
 2896SOL     OW 9586   4.056   5.415   6.173
 2896SOL    HW1 9587   4.035   5.323   6.207
 2896SOL    HW2 9588   4.018   5.426   6.081
 2897SOL     OW 9589   3.211   4.927   3.090
 2897SOL    HW1 9590   3.157   4.942   3.008
 2897SOL    HW2 9591   3.308   4.942   3.069
 2898SOL     OW 9592   3.713   5.505   4.136
 2898SOL    HW1 9593   3.709   5.505   4.036
 2898SOL    HW2 9594   3.801   5.469   4.166
 2899SOL     OW 9595   0.644   1.981   0.623
 2899SOL    HW1 9596   0.712   2.046   0.590
 2899SOL    HW2 9597   0.644   1.900   0.565
 2900SOL     OW 9598   1.998   4.648   5.183
 2900SOL    HW1 9599   2.070   4.585   5.154
 2900SOL    HW2 9600   1.962   4.697   5.104
 2901SOL     OW 9601   2.735   6.043   3.763
 2901SOL    HW1 9602   2.665   6.103   3.802
 2901SOL    HW2 9603   2.709   6.019   3.669
 2902SOL     OW 9604   4.877   6.778   2.410
 2902SOL    HW1 9605   4.804   6.845   2.422
 2902SOL    HW2 9606   4.864   6.728   2.325
 2903SOL     OW 9607   4.176   0.671   0.496
 2903SOL    HW1 9608   4.176   0.740   0.424
 2903SOL    HW2 9609   4.217   0.708   0.579
 2904SOL     OW 9610   2.135   3.932   5.243
 2904SOL    HW1 9611   2.185   3.899   5.323
 2904SOL    HW2 9612   2.200   3.958   5.172
 2905SOL     OW 9613   1.485   2.285   3.719
 2905SOL    HW1 9614   1.416   2.321   3.656
 2905SOL    HW2 9615   1.540   2.360   3.756
 2906SOL     OW 9616   4.490   5.945   2.609
 2906SOL    HW1 9617   4.544   5.983   2.534
 2906SOL    HW2 9618   4.548   5.933   2.690
 2907SOL     OW 9619   0.849   1.711   3.732
 2907SOL    HW1 9620   0.864   1.653   3.651
 2907SOL    HW2 9621   0.937   1.740   3.769
 2908SOL     OW 9622   4.505   6.321   4.244
 2908SOL    HW1 9623   4.455   6.237   4.262
 2908SOL    HW2 9624   4.526   6.368   4.330
 2909SOL     OW 9625   1.357   6.451   3.513
 2909SOL    HW1 9626   1.426   6.384   3.487
 2909SOL    HW2 9627   1.340   6.446   3.612
 2910SOL     OW 9628   4.469   6.626   4.703
 2910SOL    HW1 9629   4.569   6.627   4.707
 2910SOL    HW2 9630   4.433   6.598   4.793
 2911SOL     OW 9631   1.478   5.278   3.535
 2911SOL    HW1 9632   1.435   5.202   3.487
 2911SOL    HW2 9633   1.425   5.300   3.617
 2912SOL     OW 9634   5.048   0.127   6.841
 2912SOL    HW1 9635   5.022   0.042   6.795
 2912SOL    HW2 9636   4.979   0.151   6.910
 2913SOL     OW 9637   2.427   4.494   2.951
 2913SOL    HW1 9638   2.434   4.500   3.051
 2913SOL    HW2 9639   2.352   4.552   2.920
 2914SOL     OW 9640   5.690   6.226   5.849
 2914SOL    HW1 9641   5.655   6.250   5.940
 2914SOL    HW2 9642   5.646   6.285   5.781
 2915SOL     OW 9643   5.767   1.773   4.774
 2915SOL    HW1 9644   5.727   1.797   4.686
 2915SOL    HW2 9645   5.760   1.851   4.836
 2916SOL     OW 9646   0.696   6.336   6.594
 2916SOL    HW1 9647   0.741   6.400   6.656
 2916SOL    HW2 9648   0.711   6.242   6.626
 2917SOL     OW 9649   3.365   6.764   2.724
 2917SOL    HW1 9650   3.431   6.711   2.670
 2917SOL    HW2 9651   3.279   6.773   2.674
 2918SOL     OW 9652   6.914   4.848   3.843
 2918SOL    HW1 9653   6.975   4.787   3.895
 2918SOL    HW2 9654   6.839   4.878   3.902
 2919SOL     OW 9655   6.524   1.434   1.086
 2919SOL    HW1 9656   6.424   1.430   1.085
 2919SOL    HW2 9657   6.556   1.487   1.008
 2920SOL     OW 9658   2.695   2.219   1.928
 2920SOL    HW1 9659   2.693   2.280   1.848
 2920SOL    HW2 9660   2.762   2.252   1.994
 2921SOL     OW 9661   1.340   0.953   3.278
 2921SOL    HW1 9662   1.336   1.006   3.194
 2921SOL    HW2 9663   1.364   0.858   3.256
 2922SOL     OW 9664   4.968   0.666   0.469
 2922SOL    HW1 9665   4.956   0.717   0.384
 2922SOL    HW2 9666   5.038   0.710   0.525
 2923SOL     OW 9667   6.816   5.344   2.119
 2923SOL    HW1 9668   6.823   5.392   2.032
 2923SOL    HW2 9669   6.822   5.410   2.194
 2924SOL     OW 9670   6.886   1.966   6.022
 2924SOL    HW1 9671   6.840   2.027   6.087
 2924SOL    HW2 9672   6.820   1.899   5.987
 2925SOL     OW 9673   4.280   1.295   2.561
 2925SOL    HW1 9674   4.265   1.199   2.585
 2925SOL    HW2 9675   4.194   1.345   2.567
 2926SOL     OW 9676   6.574   1.310   4.469
 2926SOL    HW1 9677   6.606   1.226   4.424
 2926SOL    HW2 9678   6.501   1.351   4.415
 2927SOL     OW 9679   0.909   2.213   2.352
 2927SOL    HW1 9680   0.846   2.291   2.361
 2927SOL    HW2 9681   0.995   2.234   2.397
 2928SOL     OW 9682   0.423   1.974   6.116
 2928SOL    HW1 9683   0.424   1.929   6.206
 2928SOL    HW2 9684   0.381   2.064   6.124
 2929SOL     OW 9685   0.924   1.545   6.934
 2929SOL    HW1 9686   1.005   1.601   6.917
 2929SOL    HW2 9687   0.847   1.580   6.881
 2930SOL     OW 9688   4.572   6.376   4.870
 2930SOL    HW1 9689   4.658   6.375   4.818
 2930SOL    HW2 9690   4.559   6.467   4.910
 2931SOL     OW 9691   5.496   4.589   0.184
 2931SOL    HW1 9692   5.414   4.644   0.174
 2931SOL    HW2 9693   5.474   4.507   0.237
 2932SOL     OW 9694   0.357   5.315   1.451
 2932SOL    HW1 9695   0.351   5.356   1.542
 2932SOL    HW2 9696   0.285   5.247   1.440
 2933SOL     OW 9697   6.162   4.646   3.370
 2933SOL    HW1 9698   6.191   4.702   3.293
 2933SOL    HW2 9699   6.106   4.700   3.432
 2934SOL     OW 9700   4.761   1.216   0.127
 2934SOL    HW1 9701   4.850   1.262   0.126
 2934SOL    HW2 9702   4.715   1.230   0.040
 2935SOL     OW 9703   6.378   3.061   0.968
 2935SOL    HW1 9704   6.475   3.043   0.955
 2935SOL    HW2 9705   6.325   2.981   0.940
 2936SOL     OW 9706   3.697   5.511   1.670
 2936SOL    HW1 9707   3.600   5.525   1.692
 2936SOL    HW2 9708   3.750   5.512   1.754
 2937SOL     OW 9709   4.560   4.211   0.310
 2937SOL    HW1 9710   4.552   4.113   0.292
 2937SOL    HW2 9711   4.498   4.236   0.385
 2938SOL     OW 9712   4.279   5.509   6.839
 2938SOL    HW1 9713   4.253   5.422   6.798
 2938SOL    HW2 9714   4.370   5.536   6.807
 2939SOL     OW 9715   1.082   1.015   3.762
 2939SOL    HW1 9716   1.048   1.065   3.842
 2939SOL    HW2 9717   1.164   1.060   3.728
 2940SOL     OW 9718   5.863   5.552   6.309
 2940SOL    HW1 9719   5.778   5.501   6.323
 2940SOL    HW2 9720   5.913   5.512   6.233
 2941SOL     OW 9721   1.794   3.309   4.267
 2941SOL    HW1 9722   1.880   3.332   4.313
 2941SOL    HW2 9723   1.807   3.314   4.168
 2942SOL     OW 9724   3.274   2.605   0.903
 2942SOL    HW1 9725   3.363   2.560   0.911
 2942SOL    HW2 9726   3.273   2.665   0.823
 2943SOL     OW 9727   5.140   4.607   3.009
 2943SOL    HW1 9728   5.102   4.514   3.009
 2943SOL    HW2 9729   5.081   4.667   3.062
 2944SOL     OW 9730   2.713   5.584   5.293
 2944SOL    HW1 9731   2.776   5.507   5.289
 2944SOL    HW2 9732   2.728   5.635   5.377
 2945SOL     OW 9733   3.573   3.939   3.450
 2945SOL    HW1 9734   3.652   3.988   3.413
 2945SOL    HW2 9735   3.595   3.903   3.541
 2946SOL     OW 9736   0.960   5.228   6.793
 2946SOL    HW1 9737   0.932   5.138   6.762
 2946SOL    HW2 9738   0.923   5.245   6.884
 2947SOL     OW 9739   0.392   3.656   0.122
 2947SOL    HW1 9740   0.311   3.600   0.108
 2947SOL    HW2 9741   0.464   3.627   0.059
 2948SOL     OW 9742   0.509   4.646   5.853
 2948SOL    HW1 9743   0.449   4.725   5.843
 2948SOL    HW2 9744   0.490   4.600   5.940
 2949SOL     OW 9745   2.675   5.343   0.884
 2949SOL    HW1 9746   2.644   5.423   0.832
 2949SOL    HW2 9747   2.610   5.323   0.957
 2950SOL     OW 9748   5.245   3.568   4.496
 2950SOL    HW1 9749   5.149   3.547   4.511
 2950SOL    HW2 9750   5.255   3.622   4.413
 2951SOL     OW 9751   5.751   1.777   1.048
 2951SOL    HW1 9752   5.734   1.862   1.099
 2951SOL    HW2 9753   5.843   1.779   1.009
 2952SOL     OW 9754   1.122   5.326   4.860
 2952SOL    HW1 9755   1.144   5.353   4.954
 2952SOL    HW2 9756   1.179   5.248   4.834
 2953SOL     OW 9757   5.219   3.716   3.204
 2953SOL    HW1 9758   5.256   3.803   3.236
 2953SOL    HW2 9759   5.255   3.642   3.260
 2954SOL     OW 9760   0.565   5.835   2.112
 2954SOL    HW1 9761   0.536   5.749   2.071
 2954SOL    HW2 9762   0.617   5.816   2.196
 2955SOL     OW 9763   1.013   3.633   1.647
 2955SOL    HW1 9764   1.113   3.644   1.651
 2955SOL    HW2 9765   0.970   3.721   1.665
 2956SOL     OW 9766   5.845   6.916   3.236
 2956SOL    HW1 9767   5.845   6.854   3.158
 2956SOL    HW2 9768   5.785   6.994   3.217
 2957SOL     OW 9769   6.252   3.118   2.292
 2957SOL    HW1 9770   6.326   3.052   2.300
 2957SOL    HW2 9771   6.280   3.205   2.333
 2958SOL     OW 9772   2.413   4.378   4.646
 2958SOL    HW1 9773   2.421   4.450   4.715
 2958SOL    HW2 9774   2.371   4.297   4.687
 2959SOL     OW 9775   4.884   4.569   0.555
 2959SOL    HW1 9776   4.817   4.496   0.568
 2959SOL    HW2 9777   4.885   4.628   0.636
 2960SOL     OW 9778   3.961   6.956   6.382
 2960SOL    HW1 9779   4.003   6.866   6.380
 2960SOL    HW2 9780   4.018   0.005   6.331
 2961SOL     OW 9781   4.865   3.403   3.108
 2961SOL    HW1 9782   4.871   3.366   3.201
 2961SOL    HW2 9783   4.853   3.502   3.112
 2962SOL     OW 9784   4.085   0.943   3.405
 2962SOL    HW1 9785   4.082   0.872   3.335
 2962SOL    HW2 9786   4.010   1.008   3.391
 2963SOL     OW 9787   2.274   0.567   6.556
 2963SOL    HW1 9788   2.322   0.484   6.586
 2963SOL    HW2 9789   2.190   0.541   6.508
 2964SOL     OW 9790   0.339   0.045   2.831
 2964SOL    HW1 9791   0.328   6.993   2.904
 2964SOL    HW2 9792   0.420   0.023   2.777
 2965SOL     OW 9793   6.412   1.176   4.929
 2965SOL    HW1 9794   6.452   1.103   4.874
 2965SOL    HW2 9795   6.403   1.258   4.873
 2966SOL     OW 9796   6.714   5.780   4.135
 2966SOL    HW1 9797   6.625   5.797   4.178
 2966SOL    HW2 9798   6.708   5.698   4.079
 2967SOL     OW 9799   5.788   1.299   4.900
 2967SOL    HW1 9800   5.787   1.200   4.889
 2967SOL    HW2 9801   5.714   1.326   4.962
 2968SOL     OW 9802   0.476   3.334   6.280
 2968SOL    HW1 9803   0.561   3.303   6.320
 2968SOL    HW2 9804   0.464   3.294   6.189
 2969SOL     OW 9805   5.688   0.984   4.640
 2969SOL    HW1 9806   5.717   0.894   4.608
 2969SOL    HW2 9807   5.611   1.016   4.585
 2970SOL     OW 9808   1.321   4.708   6.078
 2970SOL    HW1 9809   1.314   4.622   6.027
 2970SOL    HW2 9810   1.363   4.777   6.020
 2971SOL     OW 9811   5.754   4.263   6.468
 2971SOL    HW1 9812   5.779   4.215   6.384
 2971SOL    HW2 9813   5.688   4.209   6.520
 2972SOL     OW 9814   6.175   4.662   6.387
 2972SOL    HW1 9815   6.200   4.758   6.405
 2972SOL    HW2 9816   6.257   4.605   6.390
 2973SOL     OW 9817   5.948   0.956   3.940
 2973SOL    HW1 9818   5.850   0.941   3.926
 2973SOL    HW2 9819   5.971   1.050   3.914
 2974SOL     OW 9820   0.901   4.231   3.098
 2974SOL    HW1 9821   0.957   4.296   3.149
 2974SOL    HW2 9822   0.889   4.147   3.152
 2975SOL     OW 9823   6.602   2.433   4.886
 2975SOL    HW1 9824   6.685   2.485   4.910
 2975SOL    HW2 9825   6.577   2.373   4.962
 2976SOL     OW 9826   4.265   2.271   3.068
 2976SOL    HW1 9827   4.180   2.252   3.019
 2976SOL    HW2 9828   4.324   2.327   3.011
 2977SOL     OW 9829   2.272   6.762   3.311
 2977SOL    HW1 9830   2.322   6.744   3.226
 2977SOL    HW2 9831   2.186   6.809   3.289
 2978SOL     OW 9832   4.363   4.702   6.754
 2978SOL    HW1 9833   4.396   4.709   6.848
 2978SOL    HW2 9834   4.392   4.782   6.702
 2979SOL     OW 9835   4.735   0.940   4.536
 2979SOL    HW1 9836   4.762   0.955   4.631
 2979SOL    HW2 9837   4.762   1.019   4.481
 2980SOL     OW 9838   1.560   5.899   3.969
 2980SOL    HW1 9839   1.461   5.916   3.969
 2980SOL    HW2 9840   1.589   5.875   3.876
 2981SOL     OW 9841   1.783   1.076   6.311
 2981SOL    HW1 9842   1.844   0.996   6.317
 2981SOL    HW2 9843   1.828   1.148   6.259
 2982SOL     OW 9844   3.640   5.734   3.300
 2982SOL    HW1 9845   3.562   5.754   3.359
 2982SOL    HW2 9846   3.647   5.635   3.286
 2983SOL     OW 9847   1.102   1.775   3.775
 2983SOL    HW1 9848   1.147   1.815   3.696
 2983SOL    HW2 9849   1.119   1.831   3.856
 2984SOL     OW 9850   5.250   5.758   1.487
 2984SOL    HW1 9851   5.176   5.804   1.439
 2984SOL    HW2 9852   5.226   5.747   1.584
 2985SOL     OW 9853   1.369   2.523   5.644
 2985SOL    HW1 9854   1.378   2.434   5.688
 2985SOL    HW2 9855   1.358   2.594   5.715
 2986SOL     OW 9856   2.870   3.630   5.737
 2986SOL    HW1 9857   2.911   3.719   5.757
 2986SOL    HW2 9858   2.937   3.572   5.689
 2987SOL     OW 9859   6.059   1.339   4.220
 2987SOL    HW1 9860   5.979   1.341   4.280
 2987SOL    HW2 9861   6.084   1.244   4.201
 2988SOL     OW 9862   0.625   6.187   2.937
 2988SOL    HW1 9863   0.610   6.089   2.949
 2988SOL    HW2 9864   0.667   6.204   2.848
 2989SOL     OW 9865   6.831   6.154   6.631
 2989SOL    HW1 9866   6.753   6.098   6.659
 2989SOL    HW2 9867   6.804   6.214   6.556
 2990SOL     OW 9868   4.774   2.028   4.631
 2990SOL    HW1 9869   4.710   2.059   4.702
 2990SOL    HW2 9870   4.865   2.064   4.651
 2991SOL     OW 9871   6.527   3.969   5.904
 2991SOL    HW1 9872   6.548   4.063   5.931
 2991SOL    HW2 9873   6.463   3.969   5.827
 2992SOL     OW 9874   2.556   5.135   5.875
 2992SOL    HW1 9875   2.547   5.231   5.902
 2992SOL    HW2 9876   2.556   5.077   5.956
 2993SOL     OW 9877   0.488   4.966   1.455
 2993SOL    HW1 9878   0.461   5.061   1.444
 2993SOL    HW2 9879   0.479   4.940   1.551
 2994SOL     OW 9880   3.779   6.532   0.355
 2994SOL    HW1 9881   3.765   6.434   0.360
 2994SOL    HW2 9882   3.877   6.553   0.359
 2995SOL     OW 9883   1.942   2.869   6.977
 2995SOL    HW1 9884   1.848   2.839   6.963
 2995SOL    HW2 9885   1.996   2.851   6.895
 2996SOL     OW 9886   2.061   6.825   4.220
 2996SOL    HW1 9887   2.014   6.912   4.238
 2996SOL    HW2 9888   2.035   6.791   4.130
 2997SOL     OW 9889   5.292   0.660   2.410
 2997SOL    HW1 9890   5.253   0.708   2.332
 2997SOL    HW2 9891   5.391   0.669   2.409
 2998SOL     OW 9892   4.759   6.962   4.367
 2998SOL    HW1 9893   4.774   0.035   4.412
 2998SOL    HW2 9894   4.733   6.977   4.272
 2999SOL     OW 9895   2.893   4.868   4.589
 2999SOL    HW1 9896   2.886   4.967   4.580
 2999SOL    HW2 9897   2.910   4.844   4.684
 3000SOL     OW 9898   1.907   3.630   7.005
 3000SOL    HW1 9899   1.947   3.720   0.005
 3000SOL    HW2 9900   1.910   3.608   6.908
 3001SOL     OW 9901   5.178   6.115   6.120
 3001SOL    HW1 9902   5.194   6.156   6.031
 3001SOL    HW2 9903   5.081   6.094   6.131
 3002SOL     OW 9904   3.905   0.453   6.375
 3002SOL    HW1 9905   3.885   0.409   6.287
 3002SOL    HW2 9906   3.842   0.530   6.389
 3003SOL     OW 9907   2.292   6.773   6.968
 3003SOL    HW1 9908   2.293   6.872   6.981
 3003SOL    HW2 9909   2.211   6.746   6.916
 3004SOL     OW 9910   1.313   4.669   3.188
 3004SOL    HW1 9911   1.253   4.652   3.110
 3004SOL    HW2 9912   1.269   4.734   3.250
 3005SOL     OW 9913   3.284   2.669   6.554
 3005SOL    HW1 9914   3.198   2.651   6.601
 3005SOL    HW2 9915   3.282   2.761   6.515
 3006SOL     OW 9916   5.095   2.256   6.017
 3006SOL    HW1 9917   5.125   2.171   6.061
 3006SOL    HW2 9918   5.153   2.275   5.938
 3007SOL     OW 9919   5.527   5.659   0.951
 3007SOL    HW1 9920   5.565   5.589   0.890
 3007SOL    HW2 9921   5.583   5.743   0.944
 3008SOL     OW 9922   3.680   0.967   6.674
 3008SOL    HW1 9923   3.670   1.010   6.585
 3008SOL    HW2 9924   3.669   1.035   6.746
 3009SOL     OW 9925   0.893   0.899   2.733
 3009SOL    HW1 9926   0.815   0.842   2.708
 3009SOL    HW2 9927   0.968   0.884   2.669
 3010SOL     OW 9928   3.340   6.139   3.472
 3010SOL    HW1 9929   3.244   6.167   3.469
 3010SOL    HW2 9930   3.396   6.216   3.503
 3011SOL     OW 9931   5.270   1.242   1.329
 3011SOL    HW1 9932   5.335   1.166   1.337
 3011SOL    HW2 9933   5.177   1.207   1.319
 3012SOL     OW 9934   1.375   3.858   5.170
 3012SOL    HW1 9935   1.350   3.777   5.223
 3012SOL    HW2 9936   1.306   3.875   5.100
 3013SOL     OW 9937   5.292   5.818   4.818
 3013SOL    HW1 9938   5.388   5.830   4.843
 3013SOL    HW2 9939   5.243   5.904   4.834
 3014SOL     OW 9940   4.679   2.708   5.055
 3014SOL    HW1 9941   4.725   2.697   4.967
 3014SOL    HW2 9942   4.695   2.627   5.111
 3015SOL     OW 9943   2.984   2.406   6.893
 3015SOL    HW1 9944   3.016   2.478   6.832
 3015SOL    HW2 9945   2.984   2.440   6.987
 3016SOL     OW 9946   3.068   6.068   4.456
 3016SOL    HW1 9947   3.024   5.980   4.437
 3016SOL    HW2 9948   3.063   6.126   4.375
 3017SOL     OW 9949   0.369   5.378   1.958
 3017SOL    HW1 9950   0.271   5.355   1.964
 3017SOL    HW2 9951   0.411   5.324   1.886
 3018SOL     OW 9952   1.918   6.742   5.717
 3018SOL    HW1 9953   1.843   6.677   5.709
 3018SOL    HW2 9954   1.945   6.750   5.813
 3019SOL     OW 9955   0.991   0.115   6.921
 3019SOL    HW1 9956   1.027   0.209   6.931
 3019SOL    HW2 9957   0.912   0.116   6.860
 3020SOL     OW 9958   4.206   3.297   1.987
 3020SOL    HW1 9959   4.279   3.265   2.048
 3020SOL    HW2 9960   4.245   3.321   1.899
 3021SOL     OW 9961   3.082   0.027   6.857
 3021SOL    HW1 9962   3.125   0.039   6.946
 3021SOL    HW2 9963   3.153   0.010   6.788
 3022SOL     OW 9964   3.866   4.925   4.538
 3022SOL    HW1 9965   3.900   4.866   4.611
 3022SOL    HW2 9966   3.894   4.887   4.449
 3023SOL     OW 9967   4.139   0.267   2.773
 3023SOL    HW1 9968   4.104   0.179   2.804
 3023SOL    HW2 9969   4.236   0.258   2.750
 3024SOL     OW 9970   3.953   6.253   5.367
 3024SOL    HW1 9971   4.043   6.264   5.325
 3024SOL    HW2 9972   3.964   6.237   5.465
 3025SOL     OW 9973   3.639   0.996   0.366
 3025SOL    HW1 9974   3.541   1.012   0.355
 3025SOL    HW2 9975   3.655   0.935   0.443
 3026SOL     OW 9976   1.454   1.181   0.650
 3026SOL    HW1 9977   1.470   1.272   0.689
 3026SOL    HW2 9978   1.483   1.111   0.716
 3027SOL     OW 9979   3.913   0.780   2.776
 3027SOL    HW1 9980   3.820   0.807   2.753
 3027SOL    HW2 9981   3.922   0.681   2.767
 3028SOL     OW 9982   1.216   4.380   5.643
 3028SOL    HW1 9983   1.312   4.388   5.617
 3028SOL    HW2 9984   1.166   4.333   5.571
 3029SOL     OW 9985   0.088   2.687   5.053
 3029SOL    HW1 9986   0.172   2.634   5.039
 3029SOL    HW2 9987   0.107   2.763   5.116
 3030SOL     OW 9988   0.973   3.025   5.833
 3030SOL    HW1 9989   0.933   3.066   5.914
 3030SOL    HW2 9990   0.941   3.073   5.751
 3031SOL     OW 9991   0.885   3.080   0.909
 3031SOL    HW1 9992   0.908   3.145   0.837
 3031SOL    HW2 9993   0.827   3.125   0.977
 3032SOL     OW 9994   4.286   6.313   1.985
 3032SOL    HW1 9995   4.200   6.310   2.037
 3032SOL    HW2 9996   4.266   6.334   1.889
 3033SOL     OW 9997   6.877   1.748   1.564
 3033SOL    HW1 9998   6.947   1.704   1.507
 3033SOL    HW2 9999   6.791   1.698   1.556
 3034SOL     OW10000   1.718   5.451   3.601
 3034SOL    HW110001   1.672   5.455   3.689
 3034SOL    HW210002   1.671   5.385   3.541
 3035SOL     OW10003   6.697   3.091   0.276
 3035SOL    HW110004   6.674   3.143   0.359
 3035SOL    HW210005   6.692   3.152   0.197
 3036SOL     OW10006   1.216   2.694   6.930
 3036SOL    HW110007   1.307   2.652   6.925
 3036SOL    HW210008   1.148   2.629   6.895
 3037SOL     OW10009   0.271   6.306   5.433
 3037SOL    HW110010   0.247   6.404   5.436
 3037SOL    HW210011   0.249   6.270   5.343
 3038SOL     OW10012   5.958   5.991   5.644
 3038SOL    HW110013   5.932   6.076   5.690
 3038SOL    HW210014   6.054   5.997   5.614
 3039SOL     OW10015   6.767   3.986   1.569
 3039SOL    HW110016   6.721   3.995   1.657
 3039SOL    HW210017   6.761   3.892   1.537
 3040SOL     OW10018   4.002   3.320   6.196
 3040SOL    HW110019   3.953   3.236   6.219
 3040SOL    HW210020   4.100   3.307   6.211
 3041SOL     OW10021   2.268   2.954   4.503
 3041SOL    HW110022   2.358   2.983   4.536
 3041SOL    HW210023   2.279   2.875   4.442
 3042SOL     OW10024   4.750   6.621   2.232
 3042SOL    HW110025   4.750   6.538   2.176
 3042SOL    HW210026   4.657   6.659   2.236
 3043SOL     OW10027   1.174   5.700   1.783
 3043SOL    HW110028   1.123   5.768   1.731
 3043SOL    HW210029   1.134   5.690   1.874
 3044SOL     OW10030   3.273   3.401   5.650
 3044SOL    HW110031   3.282   3.480   5.710
 3044SOL    HW210032   3.363   3.358   5.637
 3045SOL     OW10033   4.881   1.525   2.694
 3045SOL    HW110034   4.784   1.504   2.694
 3045SOL    HW210035   4.894   1.624   2.694
 3046SOL     OW10036   2.365   1.379   6.835
 3046SOL    HW110037   2.450   1.413   6.796
 3046SOL    HW210038   2.313   1.331   6.764
 3047SOL     OW10039   5.359   0.164   2.623
 3047SOL    HW110040   5.439   0.114   2.591
 3047SOL    HW210041   5.299   0.187   2.546
 3048SOL     OW10042   3.861   2.918   1.800
 3048SOL    HW110043   3.935   2.950   1.860
 3048SOL    HW210044   3.824   2.996   1.749
 3049SOL     OW10045   0.716   6.938   1.727
 3049SOL    HW110046   0.631   6.895   1.697
 3049SOL    HW210047   0.749   6.892   1.809
 3050SOL     OW10048   3.200   0.976   2.223
 3050SOL    HW110049   3.122   0.948   2.167
 3050SOL    HW210050   3.261   0.898   2.236
 3051SOL     OW10051   2.123   4.219   0.249
 3051SOL    HW110052   2.061   4.260   0.315
 3051SOL    HW210053   2.163   4.136   0.288
 3052SOL     OW10054   5.363   6.852   2.519
 3052SOL    HW110055   5.383   6.775   2.458
 3052SOL    HW210056   5.272   6.888   2.499
 3053SOL     OW10057   0.078   1.897   6.817
 3053SOL    HW110058   0.115   1.917   6.908
 3053SOL    HW210059   0.150   1.909   6.748
 3054SOL     OW10060   6.787   2.052   1.354
 3054SOL    HW110061   6.815   2.131   1.300
 3054SOL    HW210062   6.852   2.037   1.428
 3055SOL     OW10063   5.056   0.036   3.834
 3055SOL    HW110064   4.962   0.005   3.819
 3055SOL    HW210065   5.110   0.023   3.751
 3056SOL     OW10066   6.033   1.100   5.550
 3056SOL    HW110067   5.939   1.095   5.583
 3056SOL    HW210068   6.052   1.193   5.517
 3057SOL     OW10069   3.666   6.181   3.643
 3057SOL    HW110070   3.618   6.104   3.601
 3057SOL    HW210071   3.717   6.149   3.723
 3058SOL     OW10072   6.804   5.327   0.832
 3058SOL    HW110073   6.785   5.411   0.781
 3058SOL    HW210074   6.868   5.270   0.780
 3059SOL     OW10075   2.457   2.127   4.174
 3059SOL    HW110076   2.419   2.137   4.082
 3059SOL    HW210077   2.542   2.075   4.170
 3060SOL     OW10078   0.509   5.310   0.007
 3060SOL    HW110079   0.557   5.382   6.972
 3060SOL    HW210080   0.418   5.343   0.033
 3061SOL     OW10081   6.339   0.071   5.483
 3061SOL    HW110082   6.247   0.099   5.455
 3061SOL    HW210083   6.354   6.990   5.458
 3062SOL     OW10084   1.552   6.689   0.014
 3062SOL    HW110085   1.479   6.637   6.986
 3062SOL    HW210086   1.608   6.733   6.959
 3063SOL     OW10087   2.573   5.526   1.619
 3063SOL    HW110088   2.504   5.483   1.678
 3063SOL    HW210089   2.573   5.481   1.530
 3064SOL     OW10090   5.844   4.155   3.210
 3064SOL    HW110091   5.854   4.223   3.282
 3064SOL    HW210092   5.748   4.133   3.198
 3065SOL     OW10093   2.544   1.173   0.122
 3065SOL    HW110094   2.565   1.091   0.070
 3065SOL    HW210095   2.588   1.252   0.080
 3066SOL     OW10096   5.047   4.819   0.997
 3066SOL    HW110097   5.125   4.831   0.936
 3066SOL    HW210098   4.986   4.898   0.990
 3067SOL     OW10099   3.764   2.083   5.372
 3067SOL    HW110100   3.734   2.099   5.278
 3067SOL    HW210101   3.846   2.026   5.372
 3068SOL     OW10102   6.336   6.359   1.816
 3068SOL    HW110103   6.395   6.358   1.897
 3068SOL    HW210104   6.387   6.324   1.738
 3069SOL     OW10105   6.499   6.589   2.193
 3069SOL    HW110106   6.497   6.519   2.121
 3069SOL    HW210107   6.560   6.559   2.267
 3070SOL     OW10108   1.328   1.117   1.914
 3070SOL    HW110109   1.400   1.186   1.924
 3070SOL    HW210110   1.365   1.028   1.940
 3071SOL     OW10111   6.385   6.033   3.100
 3071SOL    HW110112   6.290   6.064   3.089
 3071SOL    HW210113   6.421   6.005   3.011
 3072SOL     OW10114   1.474   0.262   6.779
 3072SOL    HW110115   1.479   0.233   6.875
 3072SOL    HW210116   1.433   0.353   6.774
 3073SOL     OW10117   6.274   2.460   4.802
 3073SOL    HW110118   6.309   2.411   4.722
 3073SOL    HW210119   6.296   2.558   4.794
 3074SOL     OW10120   6.039   3.141   1.002
 3074SOL    HW110121   6.070   3.146   0.908
 3074SOL    HW210122   5.948   3.099   1.005
 3075SOL     OW10123   2.185   5.780   1.878
 3075SOL    HW110124   2.240   5.862   1.862
 3075SOL    HW210125   2.117   5.771   1.806
 3076SOL     OW10126   6.926   0.641   4.229
 3076SOL    HW110127   6.938   0.580   4.307
 3076SOL    HW210128   6.953   0.595   4.145
 3077SOL     OW10129   4.628   5.999   2.355
 3077SOL    HW110130   4.723   6.028   2.348
 3077SOL    HW210131   4.606   5.940   2.277
 3078SOL     OW10132   1.344   3.279   2.193
 3078SOL    HW110133   1.279   3.208   2.223
 3078SOL    HW210134   1.296   3.366   2.184
 3079SOL     OW10135   2.278   1.781   4.257
 3079SOL    HW110136   2.325   1.852   4.309
 3079SOL    HW210137   2.179   1.790   4.271
 3080SOL     OW10138   4.801   4.096   3.361
 3080SOL    HW110139   4.846   4.111   3.273
 3080SOL    HW210140   4.820   4.003   3.392
 3081SOL     OW10141   0.786   2.592   6.225
 3081SOL    HW110142   0.831   2.513   6.266
 3081SOL    HW210143   0.828   2.676   6.259
 3082SOL     OW10144   2.727   0.203   4.246
 3082SOL    HW110145   2.788   0.249   4.310
 3082SOL    HW210146   2.765   0.114   4.222
 3083SOL     OW10147   3.808   6.234   3.195
 3083SOL    HW110148   3.874   6.192   3.134
 3083SOL    HW210149   3.845   6.318   3.233
 3084SOL     OW10150   5.169   4.326   5.121
 3084SOL    HW110151   5.076   4.302   5.094
 3084SOL    HW210152   5.233   4.260   5.081
 3085SOL     OW10153   6.884   4.575   1.816
 3085SOL    HW110154   6.849   4.663   1.849
 3085SOL    HW210155   6.846   4.501   1.871
 3086SOL     OW10156   3.818   1.984   2.048
 3086SOL    HW110157   3.747   2.051   2.068
 3086SOL    HW210158   3.828   1.976   1.948
 3087SOL     OW10159   0.448   5.209   4.277
 3087SOL    HW110160   0.492   5.298   4.290
 3087SOL    HW210161   0.450   5.185   4.180
 3088SOL     OW10162   2.416   4.656   5.739
 3088SOL    HW110163   2.380   4.738   5.694
 3088SOL    HW210164   2.462   4.598   5.672
 3089SOL     OW10165   1.087   3.818   0.135
 3089SOL    HW110166   1.090   3.851   0.041
 3089SOL    HW210167   1.131   3.885   0.195
 3090SOL     OW10168   1.800   2.194   2.222
 3090SOL    HW110169   1.836   2.102   2.205
 3090SOL    HW210170   1.868   2.262   2.194
 3091SOL     OW10171   1.811   0.688   1.144
 3091SOL    HW110172   1.728   0.637   1.165
 3091SOL    HW210173   1.889   0.626   1.142
 3092SOL     OW10174   5.164   6.391   0.507
 3092SOL    HW110175   5.221   6.430   0.579
 3092SOL    HW210176   5.089   6.340   0.549
 3093SOL     OW10177   4.970   6.366   5.753
 3093SOL    HW110178   4.996   6.423   5.831
 3093SOL    HW210179   4.912   6.291   5.784
 3094SOL     OW10180   2.304   6.274   4.084
 3094SOL    HW110181   2.287   6.318   4.172
 3094SOL    HW210182   2.292   6.175   4.094
 3095SOL     OW10183   2.149   5.694   5.914
 3095SOL    HW110184   2.119   5.616   5.859
 3095SOL    HW210185   2.231   5.668   5.966
 3096SOL     OW10186   1.830   6.349   4.951
 3096SOL    HW110187   1.819   6.256   4.915
 3096SOL    HW210188   1.747   6.375   5.001
 3097SOL     OW10189   6.479   2.760   0.759
 3097SOL    HW110190   6.401   2.822   0.751
 3097SOL    HW210191   6.452   2.668   0.730
 3098SOL     OW10192   3.048   3.278   1.062
 3098SOL    HW110193   3.034   3.191   1.108
 3098SOL    HW210194   3.120   3.329   1.109
 3099SOL     OW10195   0.704   6.826   3.591
 3099SOL    HW110196   0.645   6.757   3.550
 3099SOL    HW210197   0.673   6.846   3.684
 3100SOL     OW10198   6.474   6.478   4.486
 3100SOL    HW110199   6.438   6.386   4.501
 3100SOL    HW210200   6.569   6.472   4.456
 3101SOL     OW10201   4.760   6.559   6.110
 3101SOL    HW110202   4.727   6.653   6.121
 3101SOL    HW210203   4.688   6.503   6.069
 3102SOL     OW10204   0.549   4.312   2.384
 3102SOL    HW110205   0.545   4.412   2.383
 3102SOL    HW210206   0.580   4.279   2.296
 3103SOL     OW10207   3.757   0.661   2.305
 3103SOL    HW110208   3.736   0.700   2.394
 3103SOL    HW210209   3.683   0.681   2.240
 3104SOL     OW10210   5.376   6.563   5.092
 3104SOL    HW110211   5.418   6.513   5.168
 3104SOL    HW210212   5.354   6.656   5.121
 3105SOL     OW10213   6.138   4.210   2.018
 3105SOL    HW110214   6.178   4.120   2.033
 3105SOL    HW210215   6.140   4.232   1.921
 3106SOL     OW10216   6.038   1.849   2.632
 3106SOL    HW110217   5.966   1.898   2.582
 3106SOL    HW210218   6.076   1.909   2.702
 3107SOL     OW10219   3.960   1.128   4.224
 3107SOL    HW110220   3.894   1.063   4.262
 3107SOL    HW210221   3.953   1.215   4.272
 3108SOL     OW10222   0.598   0.046   4.208
 3108SOL    HW110223   0.569   0.116   4.273
 3108SOL    HW210224   0.629   0.089   4.123
 3109SOL     OW10225   5.419   6.651   2.351
 3109SOL    HW110226   5.344   6.594   2.384
 3109SOL    HW210227   5.413   6.660   2.251
 3110SOL     OW10228   2.000   2.114   3.687
 3110SOL    HW110229   1.935   2.136   3.615
 3110SOL    HW210230   2.063   2.044   3.655
 3111SOL     OW10231   6.039   6.113   3.944
 3111SOL    HW110232   6.079   6.200   3.973
 3111SOL    HW210233   6.018   6.116   3.846
 3112SOL     OW10234   4.739   2.315   6.440
 3112SOL    HW110235   4.674   2.385   6.469
 3112SOL    HW210236   4.756   2.324   6.342
 3113SOL     OW10237   2.070   5.942   3.759
 3113SOL    HW110238   2.102   5.866   3.815
 3113SOL    HW210239   2.132   5.955   3.682
 3114SOL     OW10240   4.281   2.321   0.562
 3114SOL    HW110241   4.284   2.268   0.646
 3114SOL    HW210242   4.307   2.416   0.581
 3115SOL     OW10243   4.295   2.979   6.412
 3115SOL    HW110244   4.305   2.966   6.511
 3115SOL    HW210245   4.204   3.014   6.391
 3116SOL     OW10246   0.211   3.062   0.406
 3116SOL    HW110247   0.191   2.966   0.426
 3116SOL    HW210248   0.200   3.116   0.489
 3117SOL     OW10249   4.302   3.780   5.250
 3117SOL    HW110250   4.295   3.693   5.200
 3117SOL    HW210251   4.210   3.820   5.260
 3118SOL     OW10252   0.412   4.492   1.088
 3118SOL    HW110253   0.325   4.443   1.086
 3118SOL    HW210254   0.396   4.590   1.079
 3119SOL     OW10255   1.761   3.582   5.561
 3119SOL    HW110256   1.835   3.516   5.548
 3119SOL    HW210257   1.762   3.615   5.655
 3120SOL     OW10258   3.081   0.042   4.427
 3120SOL    HW110259   3.104   0.068   4.333
 3120SOL    HW210260   3.120   6.968   4.448
 3121SOL     OW10261   6.706   1.837   3.472
 3121SOL    HW110262   6.622   1.783   3.480
 3121SOL    HW210263   6.783   1.777   3.452
 3122SOL     OW10264   3.273   6.467   5.705
 3122SOL    HW110265   3.314   6.395   5.761
 3122SOL    HW210266   3.232   6.426   5.623
 3123SOL     OW10267   4.522   1.756   4.109
 3123SOL    HW110268   4.591   1.772   4.179
 3123SOL    HW210269   4.469   1.840   4.094
 3124SOL     OW10270   4.212   6.395   4.638
 3124SOL    HW110271   4.221   6.325   4.709
 3124SOL    HW210272   4.198   6.484   4.681
 3125SOL     OW10273   6.508   1.969   5.068
 3125SOL    HW110274   6.414   1.972   5.034
 3125SOL    HW210275   6.541   1.874   5.066
 3126SOL     OW10276   4.301   4.769   6.281
 3126SOL    HW110277   4.291   4.764   6.181
 3126SOL    HW210278   4.244   4.843   6.316
 3127SOL     OW10279   1.023   3.219   3.816
 3127SOL    HW110280   0.982   3.307   3.841
 3127SOL    HW210281   1.014   3.205   3.718
 3128SOL     OW10282   2.163   0.750   6.729
 3128SOL    HW110283   2.186   0.729   6.824
 3128SOL    HW210284   2.203   0.680   6.669
 3129SOL     OW10285   0.820   4.057   6.531
 3129SOL    HW110286   0.725   4.053   6.499
 3129SOL    HW210287   0.822   4.089   6.626
 3130SOL     OW10288   2.072   4.374   1.601
 3130SOL    HW110289   2.110   4.422   1.522
 3130SOL    HW210290   2.002   4.309   1.571
 3131SOL     OW10291   6.939   2.661   1.213
 3131SOL    HW110292   6.947   2.732   1.283
 3131SOL    HW210293   7.001   2.585   1.235
 3132SOL     OW10294   4.516   5.382   5.553
 3132SOL    HW110295   4.514   5.303   5.614
 3132SOL    HW210296   4.524   5.351   5.458
 3133SOL     OW10297   3.882   2.127   4.103
 3133SOL    HW110298   3.784   2.147   4.114
 3133SOL    HW210299   3.902   2.037   4.141
 3134SOL     OW10300   4.711   4.916   1.402
 3134SOL    HW110301   4.761   4.866   1.331
 3134SOL    HW210302   4.615   4.888   1.401
 3135SOL     OW10303   4.999   0.439   5.437
 3135SOL    HW110304   5.038   0.520   5.481
 3135SOL    HW210305   5.068   0.367   5.431
 3136SOL     OW10306   5.526   0.603   0.899
 3136SOL    HW110307   5.557   0.667   0.969
 3136SOL    HW210308   5.535   0.645   0.809
 3137SOL     OW10309   5.955   0.792   3.103
 3137SOL    HW110310   6.049   0.825   3.107
 3137SOL    HW210311   5.920   0.779   3.195
 3138SOL     OW10312   5.931   3.334   3.856
 3138SOL    HW110313   5.888   3.397   3.921
 3138SOL    HW210314   5.957   3.250   3.903
 3139SOL     OW10315   5.000   6.418   0.246
 3139SOL    HW110316   4.939   6.456   0.316
 3139SOL    HW210317   5.090   6.400   0.286
 3140SOL     OW10318   5.851   0.091   6.412
 3140SOL    HW110319   5.865   7.007   6.410
 3140SOL    HW210320   5.753   0.110   6.415
 3141SOL     OW10321   6.801   6.334   6.422
 3141SOL    HW110322   6.900   6.325   6.414
 3141SOL    HW210323   6.777   6.430   6.438
 3142SOL     OW10324   3.984   6.569   1.979
 3142SOL    HW110325   4.015   6.604   1.891
 3142SOL    HW210326   3.960   6.473   1.970
 3143SOL     OW10327   6.753   1.906   6.723
 3143SOL    HW110328   6.840   1.860   6.742
 3143SOL    HW210329   6.766   2.005   6.733
 3144SOL     OW10330   4.156   4.333   1.193
 3144SOL    HW110331   4.187   4.413   1.245
 3144SOL    HW210332   4.059   4.345   1.168
 3145SOL     OW10333   1.536   5.314   2.011
 3145SOL    HW110334   1.482   5.231   2.023
 3145SOL    HW210335   1.558   5.353   2.100
 3146SOL     OW10336   1.620   0.245   2.653
 3146SOL    HW110337   1.550   0.247   2.582
 3146SOL    HW210338   1.577   0.253   2.743
 3147SOL     OW10339   2.820   4.990   0.297
 3147SOL    HW110340   2.762   5.010   0.218
 3147SOL    HW210341   2.829   5.072   0.354
 3148SOL     OW10342   4.965   6.011   4.480
 3148SOL    HW110343   4.964   6.040   4.385
 3148SOL    HW210344   4.880   5.963   4.502
 3149SOL     OW10345   2.626   0.881   5.516
 3149SOL    HW110346   2.620   0.967   5.464
 3149SOL    HW210347   2.542   0.868   5.569
 3150SOL     OW10348   6.916   5.890   4.292
 3150SOL    HW110349   6.889   5.949   4.368
 3150SOL    HW210350   6.835   5.866   4.238
 3151SOL     OW10351   4.052   1.332   6.659
 3151SOL    HW110352   4.126   1.334   6.726
 3151SOL    HW210353   3.969   1.371   6.700
 3152SOL     OW10354   1.498   5.913   0.872
 3152SOL    HW110355   1.574   5.911   0.807
 3152SOL    HW210356   1.422   5.860   0.836
 3153SOL     OW10357   6.797   4.388   2.516
 3153SOL    HW110358   6.703   4.357   2.504
 3153SOL    HW210359   6.802   4.486   2.501
 3154SOL     OW10360   6.779   1.230   0.032
 3154SOL    HW110361   6.839   1.241   0.111
 3154SOL    HW210362   6.834   1.212   6.965
 3155SOL     OW10363   6.429   4.659   1.290
 3155SOL    HW110364   6.443   4.574   1.239
 3155SOL    HW210365   6.452   4.644   1.386
 3156SOL     OW10366   3.238   3.607   3.343
 3156SOL    HW110367   3.336   3.594   3.354
 3156SOL    HW210368   3.198   3.525   3.302
 3157SOL     OW10369   2.186   2.692   4.912
 3157SOL    HW110370   2.151   2.785   4.897
 3157SOL    HW210371   2.270   2.680   4.859
 3158SOL     OW10372   4.087   6.877   2.308
 3158SOL    HW110373   4.127   6.807   2.248
 3158SOL    HW210374   4.031   6.832   2.378
 3159SOL     OW10375   5.822   1.491   0.205
 3159SOL    HW110376   5.794   1.418   0.267
 3159SOL    HW210377   5.921   1.506   0.214
 3160SOL     OW10378   0.649   6.204   5.058
 3160SOL    HW110379   0.653   6.261   5.139
 3160SOL    HW210380   0.573   6.232   5.000
 3161SOL     OW10381   1.913   1.703   4.049
 3161SOL    HW110382   1.962   1.733   3.967
 3161SOL    HW210383   1.919   1.773   4.119
 3162SOL     OW10384   1.135   6.608   1.553
 3162SOL    HW110385   1.160   6.673   1.625
 3162SOL    HW210386   1.143   6.653   1.464
 3163SOL     OW10387   3.362   2.004   6.372
 3163SOL    HW110388   3.374   2.076   6.441
 3163SOL    HW210389   3.448   1.957   6.358
 3164SOL     OW10390   4.631   4.361   1.461
 3164SOL    HW110391   4.702   4.340   1.528
 3164SOL    HW210392   4.545   4.319   1.489
 3165SOL     OW10393   0.918   5.884   1.115
 3165SOL    HW110394   0.911   5.956   1.046
 3165SOL    HW210395   0.885   5.919   1.203
 3166SOL     OW10396   4.659   0.516   5.786
 3166SOL    HW110397   4.581   0.542   5.729
 3166SOL    HW210398   4.732   0.478   5.728
 3167SOL     OW10399   6.861   4.073   1.314
 3167SOL    HW110400   6.838   4.033   1.403
 3167SOL    HW210401   6.778   4.105   1.269
 3168SOL     OW10402   4.954   2.832   6.339
 3168SOL    HW110403   4.867   2.804   6.298
 3168SOL    HW210404   4.975   2.773   6.417
 3169SOL     OW10405   1.963   3.384   4.794
 3169SOL    HW110406   1.887   3.408   4.855
 3169SOL    HW210407   2.025   3.462   4.785
 3170SOL     OW10408   4.234   0.770   1.606
 3170SOL    HW110409   4.284   0.810   1.682
 3170SOL    HW210410   4.136   0.771   1.627
 3171SOL     OW10411   0.763   6.653   1.379
 3171SOL    HW110412   0.829   6.693   1.314
 3171SOL    HW210413   0.670   6.669   1.346
 3172SOL     OW10414   0.566   5.055   6.020
 3172SOL    HW110415   0.624   4.978   6.044
 3172SOL    HW210416   0.522   5.038   5.932
 3173SOL     OW10417   3.529   1.924   1.156
 3173SOL    HW110418   3.469   1.954   1.081
 3173SOL    HW210419   3.552   1.828   1.142
 3174SOL     OW10420   2.706   2.738   5.975
 3174SOL    HW110421   2.610   2.760   5.996
 3174SOL    HW210422   2.764   2.814   6.004
 3175SOL     OW10423   0.384   6.498   0.490
 3175SOL    HW110424   0.386   6.472   0.394
 3175SOL    HW210425   0.477   6.515   0.522
 3176SOL     OW10426   2.130   5.048   5.051
 3176SOL    HW110427   2.193   4.975   5.025
 3176SOL    HW210428   2.101   5.098   4.969
 3177SOL     OW10429   4.758   4.869   4.751
 3177SOL    HW110430   4.857   4.863   4.743
 3177SOL    HW210431   4.729   4.826   4.836
 3178SOL     OW10432   6.731   2.215   0.213
 3178SOL    HW110433   6.776   2.220   0.302
 3178SOL    HW210434   6.759   2.132   0.166
 3179SOL     OW10435   1.564   2.609   2.309
 3179SOL    HW110436   1.659   2.639   2.318
 3179SOL    HW210437   1.536   2.615   2.213
 3180SOL     OW10438   4.527   0.557   0.306
 3180SOL    HW110439   4.435   0.539   0.341
 3180SOL    HW210440   4.530   0.535   0.209
 3181SOL     OW10441   1.317   1.112   3.031
 3181SOL    HW110442   1.356   1.097   2.940
 3181SOL    HW210443   1.223   1.144   3.021
 3182SOL     OW10444   1.977   1.424   5.372
 3182SOL    HW110445   2.002   1.490   5.301
 3182SOL    HW210446   1.971   1.470   5.460
 3183SOL     OW10447   4.490   4.001   1.447
 3183SOL    HW110448   4.508   4.029   1.542
 3183SOL    HW210449   4.547   3.922   1.425
 3184SOL     OW10450   1.445   2.445   3.125
 3184SOL    HW110451   1.380   2.465   3.198
 3184SOL    HW210452   1.507   2.522   3.113
 3185SOL     OW10453   5.588   0.125   6.401
 3185SOL    HW110454   5.538   0.080   6.475
 3185SOL    HW210455   5.554   0.218   6.390
 3186SOL     OW10456   3.886   2.134   2.662
 3186SOL    HW110457   3.889   2.139   2.562
 3186SOL    HW210458   3.791   2.138   2.693
 3187SOL     OW10459   4.644   4.433   0.499
 3187SOL    HW110460   4.605   4.346   0.530
 3187SOL    HW210461   4.666   4.427   0.402
 3188SOL     OW10462   3.413   6.762   4.810
 3188SOL    HW110463   3.337   6.697   4.810
 3188SOL    HW210464   3.482   6.731   4.876
 3189SOL     OW10465   1.829   1.444   1.972
 3189SOL    HW110466   1.767   1.454   1.895
 3189SOL    HW210467   1.813   1.519   2.037
 3190SOL     OW10468   0.552   5.898   1.517
 3190SOL    HW110469   0.539   5.803   1.544
 3190SOL    HW210470   0.497   5.957   1.576
 3191SOL     OW10471   4.614   6.543   0.598
 3191SOL    HW110472   4.609   6.447   0.569
 3191SOL    HW210473   4.523   6.573   0.628
 3192SOL     OW10474   0.109   2.209   1.047
 3192SOL    HW110475   0.166   2.192   1.127
 3192SOL    HW210476   0.161   2.260   0.979
 3193SOL     OW10477   4.554   1.435   5.986
 3193SOL    HW110478   4.544   1.359   6.050
 3193SOL    HW210479   4.615   1.407   5.911
 3194SOL     OW10480   1.244   3.318   5.823
 3194SOL    HW110481   1.338   3.344   5.845
 3194SOL    HW210482   1.229   3.222   5.847
 3195SOL     OW10483   2.237   2.880   2.906
 3195SOL    HW110484   2.144   2.852   2.931
 3195SOL    HW210485   2.234   2.971   2.864
 3196SOL     OW10486   6.997   0.601   4.849
 3196SOL    HW110487   6.908   0.619   4.891
 3196SOL    HW210488   0.054   0.614   4.917
 3197SOL     OW10489   1.939   6.276   3.507
 3197SOL    HW110490   1.969   6.271   3.602
 3197SOL    HW210491   2.005   6.330   3.454
 3198SOL     OW10492   6.481   2.016   5.864
 3198SOL    HW110493   6.506   2.066   5.780
 3198SOL    HW210494   6.434   2.078   5.926
 3199SOL     OW10495   4.696   2.823   1.680
 3199SOL    HW110496   4.777   2.801   1.734
 3199SOL    HW210497   4.640   2.889   1.730
 3200SOL     OW10498   0.268   1.902   2.344
 3200SOL    HW110499   0.179   1.878   2.382
 3200SOL    HW210500   0.259   1.981   2.283
 3201SOL     OW10501   5.414   4.713   4.551
 3201SOL    HW110502   5.375   4.772   4.621
 3201SOL    HW210503   5.512   4.702   4.568
 3202SOL     OW10504   1.060   4.685   1.863
 3202SOL    HW110505   1.014   4.601   1.834
 3202SOL    HW210506   1.156   4.681   1.836
 3203SOL     OW10507   5.539   1.532   0.299
 3203SOL    HW110508   5.564   1.589   0.378
 3203SOL    HW210509   5.619   1.522   0.239
 3204SOL     OW10510   5.280   6.255   1.613
 3204SOL    HW110511   5.214   6.181   1.597
 3204SOL    HW210512   5.335   6.233   1.693
 3205SOL     OW10513   0.673   3.612   6.618
 3205SOL    HW110514   0.746   3.554   6.653
 3205SOL    HW210515   0.685   3.626   6.519
 3206SOL     OW10516   6.728   6.482   6.112
 3206SOL    HW110517   6.725   6.501   6.014
 3206SOL    HW210518   6.804   6.421   6.132
 3207SOL     OW10519   0.231   1.418   5.864
 3207SOL    HW110520   0.255   1.515   5.870
 3207SOL    HW210521   0.141   1.404   5.905
 3208SOL     OW10522   4.570   6.102   5.756
 3208SOL    HW110523   4.639   6.113   5.685
 3208SOL    HW210524   4.481   6.085   5.713
 3209SOL     OW10525   3.416   5.449   3.473
 3209SOL    HW110526   3.466   5.375   3.519
 3209SOL    HW210527   3.334   5.411   3.429
 3210SOL     OW10528   0.657   3.843   2.222
 3210SOL    HW110529   0.610   3.755   2.226
 3210SOL    HW210530   0.592   3.914   2.198
 3211SOL     OW10531   2.531   3.515   1.071
 3211SOL    HW110532   2.553   3.569   0.990
 3211SOL    HW210533   2.615   3.492   1.120
 3212SOL     OW10534   3.537   1.211   6.774
 3212SOL    HW110535   3.567   1.299   6.738
 3212SOL    HW210536   3.438   1.200   6.761
 3213SOL     OW10537   6.025   5.738   2.645
 3213SOL    HW110538   6.054   5.662   2.586
 3213SOL    HW210539   5.927   5.731   2.661
 3214SOL     OW10540   5.235   5.376   0.139
 3214SOL    HW110541   5.289   5.297   0.110
 3214SOL    HW210542   5.138   5.356   0.130
 3215SOL     OW10543   6.989   3.108   1.540
 3215SOL    HW110544   0.010   3.175   1.475
 3215SOL    HW210545   0.045   3.083   1.605
 3216SOL     OW10546   5.352   5.683   1.770
 3216SOL    HW110547   5.444   5.708   1.742
 3216SOL    HW210548   5.356   5.635   1.858
 3217SOL     OW10549   0.811   5.273   2.355
 3217SOL    HW110550   0.800   5.365   2.318
 3217SOL    HW210551   0.775   5.206   2.290
 3218SOL     OW10552   3.670   6.665   3.725
 3218SOL    HW110553   3.656   6.593   3.657
 3218SOL    HW210554   3.592   6.727   3.724
 3219SOL     OW10555   0.169   1.816   3.132
 3219SOL    HW110556   0.153   1.899   3.078
 3219SOL    HW210557   0.171   1.840   3.229
 3220SOL     OW10558   6.701   5.787   5.888
 3220SOL    HW110559   6.795   5.803   5.917
 3220SOL    HW210560   6.641   5.853   5.935
 3221SOL     OW10561   3.289   0.557   2.320
 3221SOL    HW110562   3.196   0.523   2.306
 3221SOL    HW210563   3.333   0.506   2.394
 3222SOL     OW10564   4.473   1.836   3.546
 3222SOL    HW110565   4.572   1.829   3.531
 3222SOL    HW210566   4.453   1.820   3.643
 3223SOL     OW10567   1.591   5.137   6.523
 3223SOL    HW110568   1.613   5.146   6.426
 3223SOL    HW210569   1.644   5.061   6.562
 3224SOL     OW10570   3.892   4.900   6.320
 3224SOL    HW110571   3.828   4.859   6.256
 3224SOL    HW210572   3.943   4.828   6.367
 3225SOL     OW10573   4.494   2.659   5.324
 3225SOL    HW110574   4.572   2.657   5.388
 3225SOL    HW210575   4.498   2.743   5.271
 3226SOL     OW10576   1.506   2.162   4.882
 3226SOL    HW110577   1.551   2.183   4.969
 3226SOL    HW210578   1.495   2.063   4.873
 3227SOL     OW10579   3.355   2.105   6.128
 3227SOL    HW110580   3.346   2.065   6.219
 3227SOL    HW210581   3.347   2.033   6.059
 3228SOL     OW10582   5.596   3.533   3.999
 3228SOL    HW110583   5.591   3.465   3.926
 3228SOL    HW210584   5.517   3.594   3.993
 3229SOL     OW10585   3.387   1.706   5.788
 3229SOL    HW110586   3.397   1.722   5.690
 3229SOL    HW210587   3.393   1.608   5.807
 3230SOL     OW10588   0.825   2.588   4.195
 3230SOL    HW110589   0.805   2.660   4.128
 3230SOL    HW210590   0.920   2.559   4.185
 3231SOL     OW10591   3.120   6.148   2.301
 3231SOL    HW110592   3.194   6.101   2.253
 3231SOL    HW210593   3.097   6.097   2.384
 3232SOL     OW10594   4.306   4.940   4.028
 3232SOL    HW110595   4.250   5.008   4.074
 3232SOL    HW210596   4.399   4.975   4.016
 3233SOL     OW10597   2.268   3.336   1.408
 3233SOL    HW110598   2.342   3.282   1.369
 3233SOL    HW210599   2.243   3.409   1.344
 3234SOL     OW10600   0.193   2.803   0.508
 3234SOL    HW110601   0.208   2.711   0.472
 3234SOL    HW210602   0.221   2.807   0.603
 3235SOL     OW10603   4.964   6.348   1.403
 3235SOL    HW110604   5.050   6.307   1.374
 3235SOL    HW210605   4.955   6.440   1.363
 3236SOL     OW10606   1.466   3.533   1.084
 3236SOL    HW110607   1.492   3.473   1.159
 3236SOL    HW210608   1.431   3.619   1.120
 3237SOL     OW10609   5.430   1.345   3.763
 3237SOL    HW110610   5.378   1.415   3.714
 3237SOL    HW210611   5.368   1.294   3.823
 3238SOL     OW10612   7.006   4.830   0.010
 3238SOL    HW110613   0.030   4.920   0.034
 3238SOL    HW210614   0.064   4.770   6.994
 3239SOL     OW10615   6.137   1.440   0.141
 3239SOL    HW110616   6.197   1.379   0.089
 3239SOL    HW210617   6.163   1.438   0.238
 3240SOL     OW10618   0.986   6.415   5.098
 3240SOL    HW110619   0.948   6.503   5.126
 3240SOL    HW210620   0.992   6.412   4.998
 3241SOL     OW10621   5.654   1.349   4.377
 3241SOL    HW110622   5.586   1.395   4.434
 3241SOL    HW210623   5.608   1.280   4.320
 3242SOL     OW10624   3.385   5.028   1.268
 3242SOL    HW110625   3.326   5.014   1.189
 3242SOL    HW210626   3.475   4.987   1.251
 3243SOL     OW10627   5.985   5.473   0.069
 3243SOL    HW110628   5.996   5.453   6.987
 3243SOL    HW210629   6.008   5.392   0.122
 3244SOL     OW10630   4.548   5.541   6.728
 3244SOL    HW110631   4.600   5.551   6.813
 3244SOL    HW210632   4.611   5.543   6.650
 3245SOL     OW10633   4.959   2.309   5.680
 3245SOL    HW110634   4.958   2.402   5.716
 3245SOL    HW210635   5.042   2.262   5.710
 3246SOL     OW10636   6.512   0.336   2.984
 3246SOL    HW110637   6.483   0.241   2.996
 3246SOL    HW210638   6.549   0.350   2.892
 3247SOL     OW10639   6.821   5.221   3.234
 3247SOL    HW110640   6.900   5.210   3.296
 3247SOL    HW210641   6.782   5.131   3.215
 3248SOL     OW10642   5.926   3.152   1.706
 3248SOL    HW110643   5.978   3.225   1.661
 3248SOL    HW210644   5.973   3.125   1.790
 3249SOL     OW10645   3.748   3.742   5.663
 3249SOL    HW110646   3.788   3.687   5.590
 3249SOL    HW210647   3.703   3.822   5.624
 3250SOL     OW10648   5.431   0.607   2.716
 3250SOL    HW110649   5.455   0.687   2.771
 3250SOL    HW210650   5.432   0.631   2.619
 3251SOL     OW10651   4.190   1.046   2.659
 3251SOL    HW110652   4.189   1.046   2.759
 3251SOL    HW210653   4.179   0.952   2.625
 3252SOL     OW10654   2.972   0.874   2.063
 3252SOL    HW110655   2.918   0.921   2.133
 3252SOL    HW210656   2.930   0.785   2.043
 3253SOL     OW10657   4.909   3.533   2.556
 3253SOL    HW110658   4.981   3.490   2.503
 3253SOL    HW210659   4.836   3.467   2.573
 3254SOL     OW10660   4.009   5.149   5.057
 3254SOL    HW110661   3.998   5.082   4.983
 3254SOL    HW210662   3.920   5.191   5.078
 3255SOL     OW10663   4.583   6.078   1.692
 3255SOL    HW110664   4.624   6.150   1.635
 3255SOL    HW210665   4.554   6.117   1.780
 3256SOL     OW10666   5.234   0.348   6.561
 3256SOL    HW110667   5.265   0.253   6.560
 3256SOL    HW210668   5.190   0.369   6.473
 3257SOL     OW10669   1.438   1.800   1.260
 3257SOL    HW110670   1.517   1.742   1.281
 3257SOL    HW210671   1.373   1.797   1.335
 3258SOL     OW10672   4.331   5.691   2.564
 3258SOL    HW110673   4.404   5.627   2.540
 3258SOL    HW210674   4.363   5.785   2.550
 3259SOL     OW10675   4.388   5.915   4.045
 3259SOL    HW110676   4.412   5.903   4.141
 3259SOL    HW210677   4.292   5.945   4.038
 3260SOL     OW10678   1.986   2.050   1.992
 3260SOL    HW110679   1.895   2.018   1.966
 3260SOL    HW210680   2.053   2.022   1.922
 3261SOL     OW10681   4.588   5.928   0.217
 3261SOL    HW110682   4.646   5.971   0.286
 3261SOL    HW210683   4.514   5.878   0.262
 3262SOL     OW10684   3.553   1.736   2.291
 3262SOL    HW110685   3.578   1.832   2.304
 3262SOL    HW210686   3.456   1.730   2.267
 3263SOL     OW10687   5.026   0.635   3.713
 3263SOL    HW110688   4.953   0.668   3.653
 3263SOL    HW210689   5.096   0.589   3.659
 3264SOL     OW10690   0.829   4.661   0.589
 3264SOL    HW110691   0.832   4.565   0.564
 3264SOL    HW210692   0.792   4.671   0.681
 3265SOL     OW10693   4.090   1.930   6.020
 3265SOL    HW110694   4.158   1.899   6.087
 3265SOL    HW210695   4.082   2.029   6.024
 3266SOL     OW10696   0.868   2.841   0.458
 3266SOL    HW110697   0.925   2.839   0.376
 3266SOL    HW210698   0.926   2.835   0.540
 3267SOL     OW10699   3.580   2.273   0.507
 3267SOL    HW110700   3.614   2.210   0.576
 3267SOL    HW210701   3.509   2.227   0.453
 3268SOL     OW10702   1.103   3.636   6.444
 3268SOL    HW110703   1.013   3.674   6.425
 3268SOL    HW210704   1.171   3.682   6.388
 3269SOL     OW10705   4.458   5.055   1.784
 3269SOL    HW110706   4.487   5.104   1.866
 3269SOL    HW210707   4.520   5.076   1.708
 3270SOL     OW10708   1.482   5.239   4.994
 3270SOL    HW110709   1.529   5.326   5.014
 3270SOL    HW210710   1.424   5.214   5.072
 3271SOL     OW10711   5.713   3.486   2.448
 3271SOL    HW110712   5.740   3.403   2.398
 3271SOL    HW210713   5.640   3.464   2.512
 3272SOL     OW10714   3.181   4.801   0.677
 3272SOL    HW110715   3.150   4.891   0.646
 3272SOL    HW210716   3.103   4.752   0.717
 3273SOL     OW10717   0.787   6.453   2.014
 3273SOL    HW110718   0.815   6.483   1.922
 3273SOL    HW210719   0.821   6.519   2.081
 3274SOL     OW10720   3.740   2.125   6.825
 3274SOL    HW110721   3.724   2.143   6.728
 3274SOL    HW210722   3.811   2.056   6.835
 3275SOL     OW10723   1.673   0.513   6.878
 3275SOL    HW110724   1.664   0.588   6.944
 3275SOL    HW210725   1.693   0.429   6.928
 3276SOL     OW10726   2.891   4.891   6.404
 3276SOL    HW110727   2.973   4.844   6.437
 3276SOL    HW210728   2.913   4.944   6.322
 3277SOL     OW10729   5.471   6.614   6.072
 3277SOL    HW110730   5.517   6.690   6.117
 3277SOL    HW210731   5.536   6.539   6.057
 3278SOL     OW10732   6.543   1.236   5.535
 3278SOL    HW110733   6.513   1.329   5.511
 3278SOL    HW210734   6.538   1.225   5.635
 3279SOL     OW10735   0.283   1.023   1.195
 3279SOL    HW110736   0.363   1.058   1.244
 3279SOL    HW210737   0.208   1.088   1.202
 3280SOL     OW10738   3.357   5.338   5.993
 3280SOL    HW110739   3.421   5.269   5.958
 3280SOL    HW210740   3.328   5.397   5.918
 3281SOL     OW10741   1.544   5.386   1.082
 3281SOL    HW110742   1.451   5.375   1.117
 3281SOL    HW210743   1.572   5.303   1.034
 3282SOL     OW10744   2.391   5.148   4.468
 3282SOL    HW110745   2.450   5.084   4.419
 3282SOL    HW210746   2.345   5.208   4.404
 3283SOL     OW10747   2.891   1.044   1.832
 3283SOL    HW110748   2.988   1.055   1.854
 3283SOL    HW210749   2.840   1.023   1.916
 3284SOL     OW10750   5.901   6.850   6.348
 3284SOL    HW110751   5.897   6.820   6.252
 3284SOL    HW210752   5.997   6.866   6.373
 3285SOL     OW10753   6.186   2.864   3.480
 3285SOL    HW110754   6.233   2.906   3.558
 3285SOL    HW210755   6.093   2.900   3.474
 3286SOL     OW10756   4.050   3.364   3.733
 3286SOL    HW110757   4.015   3.344   3.825
 3286SOL    HW210758   4.101   3.285   3.699
 3287SOL     OW10759   1.233   6.045   0.409
 3287SOL    HW110760   1.301   6.027   0.480
 3287SOL    HW210761   1.145   6.066   0.452
 3288SOL     OW10762   0.828   4.984   6.677
 3288SOL    HW110763   0.854   4.889   6.657
 3288SOL    HW210764   0.746   4.984   6.734
 3289SOL     OW10765   2.163   6.848   5.667
 3289SOL    HW110766   2.163   6.889   5.576
 3289SOL    HW210767   2.069   6.822   5.691
 3290SOL     OW10768   0.388   6.590   2.017
 3290SOL    HW110769   0.459   6.605   1.948
 3290SOL    HW210770   0.431   6.561   2.103
 3291SOL     OW10771   1.224   6.627   6.665
 3291SOL    HW110772   1.156   6.687   6.624
 3291SOL    HW210773   1.314   6.671   6.660
 3292SOL     OW10774   0.337   1.494   6.929
 3292SOL    HW110775   0.327   1.499   6.830
 3292SOL    HW210776   0.316   1.401   6.960
 3293SOL     OW10777   6.525   2.899   2.854
 3293SOL    HW110778   6.620   2.879   2.833
 3293SOL    HW210779   6.518   2.991   2.894
 3294SOL     OW10780   6.920   0.558   6.015
 3294SOL    HW110781   7.010   0.531   5.983
 3294SOL    HW210782   6.897   0.648   5.979
 3295SOL     OW10783   2.344   2.633   0.945
 3295SOL    HW110784   2.359   2.539   0.976
 3295SOL    HW210785   2.246   2.652   0.940
 3296SOL     OW10786   2.274   6.687   1.387
 3296SOL    HW110787   2.269   6.641   1.299
 3296SOL    HW210788   2.286   6.618   1.459
 3297SOL     OW10789   2.591   0.936   4.739
 3297SOL    HW110790   2.622   1.016   4.790
 3297SOL    HW210791   2.669   0.891   4.696
 3298SOL     OW10792   6.273   2.608   3.463
 3298SOL    HW110793   6.263   2.704   3.440
 3298SOL    HW210794   6.207   2.584   3.534
 3299SOL     OW10795   2.104   6.842   3.622
 3299SOL    HW110796   2.174   6.785   3.666
 3299SOL    HW210797   2.021   6.840   3.676
 3300SOL     OW10798   6.745   0.122   6.007
 3300SOL    HW110799   6.828   0.067   6.008
 3300SOL    HW210800   6.760   0.205   5.954
 3301SOL     OW10801   2.199   3.954   3.387
 3301SOL    HW110802   2.231   4.032   3.441
 3301SOL    HW210803   2.175   3.985   3.295
 3302SOL     OW10804   1.333   5.701   4.586
 3302SOL    HW110805   1.425   5.737   4.569
 3302SOL    HW210806   1.294   5.746   4.666
 3303SOL     OW10807   3.659   3.106   1.644
 3303SOL    HW110808   3.563   3.129   1.629
 3303SOL    HW210809   3.703   3.090   1.556
 3304SOL     OW10810   1.447   5.064   3.367
 3304SOL    HW110811   1.545   5.068   3.349
 3304SOL    HW210812   1.425   4.978   3.413
 3305SOL     OW10813   2.959   1.922   2.784
 3305SOL    HW110814   2.976   2.004   2.838
 3305SOL    HW210815   2.954   1.946   2.687
 3306SOL     OW10816   2.550   4.962   3.805
 3306SOL    HW110817   2.640   4.970   3.847
 3306SOL    HW210818   2.556   4.903   3.725
 3307SOL     OW10819   0.637   5.609   6.321
 3307SOL    HW110820   0.655   5.555   6.239
 3307SOL    HW210821   0.546   5.650   6.316
 3308SOL     OW10822   4.724   5.973   6.525
 3308SOL    HW110823   4.820   5.948   6.536
 3308SOL    HW210824   4.685   5.996   6.615
 3309SOL     OW10825   0.605   5.232   2.562
 3309SOL    HW110826   0.673   5.179   2.510
 3309SOL    HW210827   0.593   5.322   2.520
 3310SOL     OW10828   6.844   4.097   3.683
 3310SOL    HW110829   6.907   4.156   3.632
 3310SOL    HW210830   6.750   4.131   3.671
 3311SOL     OW10831   2.792   4.806   1.606
 3311SOL    HW110832   2.879   4.763   1.633
 3311SOL    HW210833   2.802   4.846   1.514
 3312SOL     OW10834   2.704   4.446   6.044
 3312SOL    HW110835   2.752   4.453   6.132
 3312SOL    HW210836   2.645   4.526   6.033
 3313SOL     OW10837   0.390   5.090   2.629
 3313SOL    HW110838   0.368   5.032   2.707
 3313SOL    HW210839   0.478   5.134   2.643
 3314SOL     OW10840   1.782   2.729   5.193
 3314SOL    HW110841   1.718   2.783   5.138
 3314SOL    HW210842   1.833   2.667   5.133
 3315SOL     OW10843   6.539   2.750   4.233
 3315SOL    HW110844   6.512   2.746   4.136
 3315SOL    HW210845   6.614   2.816   4.244
 3316SOL     OW10846   3.688   1.318   6.132
 3316SOL    HW110847   3.626   1.245   6.104
 3316SOL    HW210848   3.758   1.281   6.192
 3317SOL     OW10849   5.030   2.970   2.007
 3317SOL    HW110850   4.934   2.993   1.994
 3317SOL    HW210851   5.075   2.966   1.917
 3318SOL     OW10852   2.854   6.788   0.356
 3318SOL    HW110853   2.819   6.719   0.419
 3318SOL    HW210854   2.953   6.797   0.367
 3319SOL     OW10855   6.283   6.658   3.729
 3319SOL    HW110856   6.226   6.657   3.812
 3319SOL    HW210857   6.325   6.568   3.717
 3320SOL     OW10858   5.465   1.085   5.793
 3320SOL    HW110859   5.462   1.152   5.719
 3320SOL    HW210860   5.374   1.078   5.834
 3321SOL     OW10861   3.252   2.616   1.585
 3321SOL    HW110862   3.301   2.696   1.551
 3321SOL    HW210863   3.314   2.537   1.586
 3322SOL     OW10864   5.291   2.653   1.851
 3322SOL    HW110865   5.334   2.712   1.782
 3322SOL    HW210866   5.339   2.662   1.938
 3323SOL     OW10867   1.903   3.832   6.624
 3323SOL    HW110868   1.860   3.908   6.673
 3323SOL    HW210869   1.852   3.748   6.641
 3324SOL     OW10870   0.690   3.833   6.988
 3324SOL    HW110871   0.652   3.740   6.993
 3324SOL    HW210872   0.728   3.848   6.897
 3325SOL     OW10873   2.200   3.285   6.743
 3325SOL    HW110874   2.213   3.358   6.810
 3325SOL    HW210875   2.287   3.266   6.697
 3326SOL     OW10876   4.897   1.649   1.733
 3326SOL    HW110877   4.806   1.655   1.692
 3326SOL    HW210878   4.909   1.724   1.797
 3327SOL     OW10879   2.967   6.106   1.156
 3327SOL    HW110880   3.047   6.148   1.114
 3327SOL    HW210881   2.972   6.007   1.145
 3328SOL     OW10882   4.406   1.298   2.820
 3328SOL    HW110883   4.389   1.299   2.918
 3328SOL    HW210884   4.322   1.323   2.771
 3329SOL     OW10885   4.149   0.116   5.435
 3329SOL    HW110886   4.153   0.141   5.338
 3329SOL    HW210887   4.173   0.019   5.445
 3330SOL     OW10888   5.397   6.263   2.145
 3330SOL    HW110889   5.418   6.241   2.241
 3330SOL    HW210890   5.376   6.361   2.138
 3331SOL     OW10891   1.509   3.153   2.582
 3331SOL    HW110892   1.536   3.189   2.672
 3331SOL    HW210893   1.412   3.172   2.567
 3332SOL     OW10894   6.861   4.419   6.971
 3332SOL    HW110895   6.849   4.325   7.005
 3332SOL    HW210896   6.774   4.468   6.976
 3333SOL     OW10897   2.659   3.593   6.913
 3333SOL    HW110898   2.607   3.523   6.961
 3333SOL    HW210899   2.757   3.578   6.928
 3334SOL     OW10900   2.005   3.292   2.004
 3334SOL    HW110901   2.074   3.347   1.957
 3334SOL    HW210902   1.923   3.284   1.947
 3335SOL     OW10903   4.805   5.754   5.793
 3335SOL    HW110904   4.707   5.763   5.812
 3335SOL    HW210905   4.858   5.792   5.869
 3336SOL     OW10906   2.143   0.363   4.482
 3336SOL    HW110907   2.071   0.302   4.515
 3336SOL    HW210908   2.133   0.453   4.526
 3337SOL     OW10909   3.049   3.482   1.391
 3337SOL    HW110910   3.048   3.445   1.484
 3337SOL    HW210911   3.083   3.576   1.394
 3338SOL     OW10912   0.222   2.311   1.798
 3338SOL    HW110913   0.147   2.351   1.850
 3338SOL    HW210914   0.308   2.354   1.826
 3339SOL     OW10915   1.608   0.122   6.393
 3339SOL    HW110916   1.606   0.212   6.350
 3339SOL    HW210917   1.527   0.070   6.364
 3340SOL     OW10918   4.167   0.937   4.327
 3340SOL    HW110919   4.131   1.018   4.280
 3340SOL    HW210920   4.122   0.855   4.291
 3341SOL     OW10921   2.316   4.524   3.860
 3341SOL    HW110922   2.263   4.581   3.797
 3341SOL    HW210923   2.327   4.572   3.947
 3342SOL     OW10924   0.690   0.354   2.428
 3342SOL    HW110925   0.685   0.383   2.333
 3342SOL    HW210926   0.755   0.413   2.477
 3343SOL     OW10927   5.279   5.027   6.173
 3343SOL    HW110928   5.185   5.050   6.147
 3343SOL    HW210929   5.314   4.956   6.112
 3344SOL     OW10930   6.249   3.050   4.244
 3344SOL    HW110931   6.214   3.065   4.152
 3344SOL    HW210932   6.245   3.135   4.296
 3345SOL     OW10933   0.874   3.705   6.294
 3345SOL    HW110934   0.799   3.745   6.347
 3345SOL    HW210935   0.848   3.703   6.197
 3346SOL     OW10936   1.605   0.938   6.779
 3346SOL    HW110937   1.616   0.978   6.870
 3346SOL    HW210938   1.674   0.867   6.766
 3347SOL     OW10939   1.857   2.817   6.355
 3347SOL    HW110940   1.921   2.770   6.295
 3347SOL    HW210941   1.821   2.898   6.309
 3348SOL     OW10942   4.275   3.531   5.184
 3348SOL    HW110943   4.369   3.497   5.174
 3348SOL    HW210944   4.221   3.502   5.105
 3349SOL     OW10945   2.574   4.800   3.582
 3349SOL    HW110946   2.628   4.748   3.516
 3349SOL    HW210947   2.500   4.848   3.533
 3350SOL     OW10948   0.676   2.946   5.948
 3350SOL    HW110949   0.708   2.986   6.034
 3350SOL    HW210950   0.718   2.855   5.937
 3351SOL     OW10951   4.990   1.444   1.557
 3351SOL    HW110952   4.989   1.527   1.613
 3351SOL    HW210953   5.035   1.371   1.607
 3352SOL     OW10954   5.493   2.446   1.099
 3352SOL    HW110955   5.575   2.472   1.149
 3352SOL    HW210956   5.496   2.348   1.078
 3353SOL     OW10957   2.127   6.217   0.555
 3353SOL    HW110958   2.188   6.145   0.587
 3353SOL    HW210959   2.097   6.273   0.633
 3354SOL     OW10960   4.092   2.760   5.312
 3354SOL    HW110961   4.117   2.678   5.261
 3354SOL    HW210962   4.173   2.816   5.327
 3355SOL     OW10963   2.144   1.309   6.012
 3355SOL    HW110964   2.226   1.319   6.069
 3355SOL    HW210965   2.149   1.222   5.963
 3356SOL     OW10966   0.992   6.469   6.477
 3356SOL    HW110967   1.044   6.384   6.476
 3356SOL    HW210968   0.979   6.501   6.383
 3357SOL     OW10969   3.331   3.055   1.610
 3357SOL    HW110970   3.302   3.067   1.705
 3357SOL    HW210971   3.282   3.120   1.552
 3358SOL     OW10972   5.192   1.190   3.370
 3358SOL    HW110973   5.202   1.118   3.302
 3358SOL    HW210974   5.253   1.266   3.347
 3359SOL     OW10975   0.020   5.724   3.360
 3359SOL    HW110976   6.970   5.662   3.404
 3359SOL    HW210977   6.998   5.753   3.272
 3360SOL     OW10978   0.750   2.046   6.283
 3360SOL    HW110979   0.794   1.956   6.280
 3360SOL    HW210980   0.722   2.066   6.377
 3361SOL     OW10981   0.944   0.039   4.685
 3361SOL    HW110982   0.907   7.008   4.604
 3361SOL    HW210983   0.975   6.985   4.751
 3362SOL     OW10984   3.597   1.543   2.812
 3362SOL    HW110985   3.576   1.550   2.715
 3362SOL    HW210986   3.693   1.569   2.828
 3363SOL     OW10987   0.135   2.814   1.571
 3363SOL    HW110988   0.170   2.727   1.607
 3363SOL    HW210989   0.072   2.795   1.495
 3364SOL     OW10990   2.056   4.422   2.644
 3364SOL    HW110991   2.028   4.423   2.548
 3364SOL    HW210992   2.120   4.346   2.658
 3365SOL     OW10993   0.718   2.749   4.729
 3365SOL    HW110994   0.788   2.804   4.775
 3365SOL    HW210995   0.753   2.716   4.642
 3366SOL     OW10996   6.379   4.804   3.823
 3366SOL    HW110997   6.450   4.838   3.761
 3366SOL    HW210998   6.290   4.813   3.779
 3367SOL     OW10999   3.136   3.284   2.465
 3367SOL    HW111000   3.075   3.229   2.407
 3367SOL    HW211001   3.132   3.380   2.437
 3368SOL     OW11002   0.703   5.614   6.596
 3368SOL    HW111003   0.799   5.640   6.602
 3368SOL    HW211004   0.675   5.608   6.501
 3369SOL     OW11005   4.367   2.154   1.764
 3369SOL    HW111006   4.306   2.219   1.810
 3369SOL    HW211007   4.354   2.063   1.803
 3370SOL     OW11008   5.928   6.579   2.023
 3370SOL    HW111009   6.021   6.594   1.989
 3370SOL    HW211010   5.862   6.609   1.955
 3371SOL     OW11011   2.262   3.695   1.704
 3371SOL    HW111012   2.240   3.622   1.769
 3371SOL    HW211013   2.348   3.738   1.729
 3372SOL     OW11014   0.211   2.173   0.050
 3372SOL    HW111015   0.303   2.211   0.041
 3372SOL    HW211016   0.218   2.074   0.063
 3373SOL     OW11017   6.910   1.984   4.055
 3373SOL    HW111018   7.007   1.965   4.074
 3373SOL    HW211019   6.884   1.938   3.969
 3374SOL     OW11020   1.245   0.712   3.740
 3374SOL    HW111021   1.289   0.741   3.825
 3374SOL    HW211022   1.156   0.671   3.761
 3375SOL     OW11023   6.907   4.395   0.697
 3375SOL    HW111024   6.883   4.448   0.779
 3375SOL    HW211025   6.825   4.381   0.642
 3376SOL     OW11026   2.971   3.156   4.695
 3376SOL    HW111027   3.002   3.090   4.627
 3376SOL    HW211028   3.051   3.199   4.738
 3377SOL     OW11029   6.572   4.961   5.311
 3377SOL    HW111030   6.612   5.040   5.264
 3377SOL    HW211031   6.606   4.877   5.269
 3378SOL     OW11032   1.011   6.871   6.742
 3378SOL    HW111033   0.975   6.859   6.650
 3378SOL    HW211034   1.014   6.969   6.764
 3379SOL     OW11035   0.683   2.573   4.908
 3379SOL    HW111036   0.684   2.623   4.821
 3379SOL    HW211037   0.774   2.577   4.949
 3380SOL     OW11038   4.259   5.509   5.295
 3380SOL    HW111039   4.234   5.497   5.199
 3380SOL    HW211040   4.299   5.424   5.330
 3381SOL     OW11041   6.916   2.867   1.398
 3381SOL    HW111042   6.932   2.965   1.402
 3381SOL    HW211043   6.817   2.849   1.394
 3382SOL     OW11044   0.437   3.025   0.940
 3382SOL    HW111045   0.475   3.010   0.849
 3382SOL    HW211046   0.442   2.940   0.993
 3383SOL     OW11047   3.367   4.983   0.808
 3383SOL    HW111048   3.377   5.029   0.719
 3383SOL    HW211049   3.341   4.888   0.794
 3384SOL     OW11050   2.632   3.830   0.560
 3384SOL    HW111051   2.643   3.917   0.608
 3384SOL    HW211052   2.598   3.847   0.467
 3385SOL     OW11053   6.452   3.577   4.024
 3385SOL    HW111054   6.354   3.556   4.020
 3385SOL    HW211055   6.501   3.500   4.064
 3386SOL     OW11056   6.195   4.460   6.827
 3386SOL    HW111057   6.104   4.476   6.791
 3386SOL    HW211058   6.234   4.379   6.784
 3387SOL     OW11059   4.634   0.417   2.925
 3387SOL    HW111060   4.654   0.398   3.021
 3387SOL    HW211061   4.549   0.373   2.899
 3388SOL     OW11062   5.643   4.245   2.459
 3388SOL    HW111063   5.701   4.166   2.479
 3388SOL    HW211064   5.576   4.220   2.389
 3389SOL     OW11065   6.188   5.650   6.536
 3389SOL    HW111066   6.241   5.702   6.604
 3389SOL    HW211067   6.091   5.658   6.557
 3390SOL     OW11068   4.049   6.708   6.401
 3390SOL    HW111069   4.110   6.641   6.359
 3390SOL    HW211070   4.040   6.689   6.498
 3391SOL     OW11071   5.220   2.050   2.997
 3391SOL    HW111072   5.299   2.110   3.011
 3391SOL    HW211073   5.162   2.087   2.924
 3392SOL     OW11074   3.260   0.307   4.096
 3392SOL    HW111075   3.172   0.320   4.142
 3392SOL    HW211076   3.310   0.394   4.094
 3393SOL     OW11077   5.668   6.321   0.247
 3393SOL    HW111078   5.604   6.396   0.235
 3393SOL    HW211079   5.661   6.259   0.168
 3394SOL     OW11080   4.031   4.328   0.494
 3394SOL    HW111081   4.033   4.253   0.560
 3394SOL    HW211082   4.120   4.372   0.491
 3395SOL     OW11083   4.824   1.778   3.006
 3395SOL    HW111084   4.829   1.786   2.907
 3395SOL    HW211085   4.915   1.790   3.045
 3396SOL     OW11086   5.814   1.997   3.646
 3396SOL    HW111087   5.902   1.986   3.601
 3396SOL    HW211088   5.742   2.003   3.577
 3397SOL     OW11089   3.345   5.356   6.257
 3397SOL    HW111090   3.309   5.443   6.291
 3397SOL    HW211091   3.350   5.358   6.157
 3398SOL     OW11092   0.709   0.296   5.034
 3398SOL    HW111093   0.808   0.305   5.041
 3398SOL    HW211094   0.674   0.248   5.115
 3399SOL     OW11095   6.399   4.619   2.853
 3399SOL    HW111096   6.429   4.560   2.928
 3399SOL    HW211097   6.320   4.673   2.883
 3400SOL     OW11098   6.226   3.578   0.119
 3400SOL    HW111099   6.139   3.596   0.165
 3400SOL    HW211100   6.226   3.486   0.081
 3401SOL     OW11101   6.430   3.761   6.551
 3401SOL    HW111102   6.504   3.714   6.504
 3401SOL    HW211103   6.465   3.844   6.594
 3402SOL     OW11104   6.191   5.469   0.677
 3402SOL    HW111105   6.208   5.568   0.685
 3402SOL    HW211106   6.101   5.448   0.714
 3403SOL     OW11107   5.025   5.519   6.104
 3403SOL    HW111108   4.943   5.484   6.060
 3403SOL    HW211109   5.090   5.549   6.034
 3404SOL     OW11110   4.931   3.056   6.790
 3404SOL    HW111111   4.846   3.066   6.842
 3404SOL    HW211112   4.957   3.145   6.753
 3405SOL     OW11113   5.737   4.519   6.355
 3405SOL    HW111114   5.714   4.501   6.260
 3405SOL    HW211115   5.748   4.432   6.404
 3406SOL     OW11116   1.529   3.672   2.224
 3406SOL    HW111117   1.524   3.771   2.208
 3406SOL    HW211118   1.608   3.652   2.282
 3407SOL     OW11119   2.666   4.539   0.193
 3407SOL    HW111120   2.583   4.579   0.231
 3407SOL    HW211121   2.704   4.474   0.258
 3408SOL     OW11122   5.220   3.310   4.836
 3408SOL    HW111123   5.224   3.238   4.905
 3408SOL    HW211124   5.128   3.350   4.835
 3409SOL     OW11125   3.892   6.073   0.632
 3409SOL    HW111126   3.811   6.055   0.689
 3409SOL    HW211127   3.900   6.001   0.563
 3410SOL     OW11128   5.873   6.249   2.929
 3410SOL    HW111129   5.852   6.327   2.870
 3410SOL    HW211130   5.805   6.243   3.001
 3411SOL     OW11131   0.519   3.066   0.519
 3411SOL    HW111132   0.469   3.143   0.478
 3411SOL    HW211133   0.471   2.981   0.498
 3412SOL     OW11134   5.296   3.862   1.208
 3412SOL    HW111135   5.287   3.772   1.164
 3412SOL    HW211136   5.371   3.858   1.274
 3413SOL     OW11137   6.100   2.089   6.818
 3413SOL    HW111138   6.008   2.127   6.805
 3413SOL    HW211139   6.126   2.095   6.914
 3414SOL     OW11140   3.119   1.630   5.552
 3414SOL    HW111141   3.212   1.668   5.548
 3414SOL    HW211142   3.059   1.695   5.599
 3415SOL     OW11143   2.614   2.455   4.064
 3415SOL    HW111144   2.707   2.431   4.095
 3415SOL    HW211145   2.608   2.443   3.965
 3416SOL     OW11146   5.841   0.417   6.683
 3416SOL    HW111147   5.904   0.444   6.755
 3416SOL    HW211148   5.847   0.482   6.606
 3417SOL     OW11149   0.068   6.734   2.813
 3417SOL    HW111150   0.131   6.749   2.889
 3417SOL    HW211151   0.112   6.761   2.727
 3418SOL     OW11152   3.574   5.939   3.844
 3418SOL    HW111153   3.515   5.943   3.763
 3418SOL    HW211154   3.541   6.003   3.913
 3419SOL     OW11155   3.885   5.408   5.947
 3419SOL    HW111156   3.806   5.360   5.911
 3419SOL    HW211157   3.877   5.506   5.928
 3420SOL     OW11158   5.433   3.147   4.294
 3420SOL    HW111159   5.519   3.117   4.335
 3420SOL    HW211160   5.452   3.210   4.219
 3421SOL     OW11161   5.810   1.866   2.947
 3421SOL    HW111162   5.790   1.920   2.866
 3421SOL    HW211163   5.908   1.844   2.949
 3422SOL     OW11164   2.537   0.582   0.905
 3422SOL    HW111165   2.472   0.543   0.840
 3422SOL    HW211166   2.522   0.542   0.996
 3423SOL     OW11167   0.429   4.110   5.961
 3423SOL    HW111168   0.386   4.198   5.943
 3423SOL    HW211169   0.529   4.119   5.955
 3424SOL     OW11170   3.464   0.759   1.322
 3424SOL    HW111171   3.511   0.698   1.386
 3424SOL    HW211172   3.425   0.836   1.373
 3425SOL     OW11173   4.761   4.654   1.774
 3425SOL    HW111174   4.708   4.572   1.791
 3425SOL    HW211175   4.769   4.669   1.676
 3426SOL     OW11176   5.181   2.865   0.184
 3426SOL    HW111177   5.271   2.874   0.142
 3426SOL    HW211178   5.163   2.944   0.242
 3427SOL     OW11179   0.460   2.373   1.946
 3427SOL    HW111180   0.510   2.293   1.979
 3427SOL    HW211181   0.523   2.434   1.898
 3428SOL     OW11182   4.507   4.579   6.359
 3428SOL    HW111183   4.424   4.636   6.361
 3428SOL    HW211184   4.546   4.580   6.267
 3429SOL     OW11185   0.505   1.244   1.018
 3429SOL    HW111186   0.523   1.150   1.048
 3429SOL    HW211187   0.533   1.255   0.922
 3430SOL     OW11188   2.341   5.588   6.074
 3430SOL    HW111189   2.432   5.614   6.106
 3430SOL    HW211190   2.292   5.540   6.147
 3431SOL     OW11191   1.891   6.844   1.750
 3431SOL    HW111192   1.891   6.905   1.829
 3431SOL    HW211193   1.909   6.751   1.781
 3432SOL     OW11194   2.575   4.988   6.098
 3432SOL    HW111195   2.596   5.050   6.174
 3432SOL    HW211196   2.544   4.900   6.134
 3433SOL     OW11197   1.819   1.570   6.345
 3433SOL    HW111198   1.884   1.644   6.365
 3433SOL    HW211199   1.869   1.488   6.318
 3434SOL     OW11200   3.778   1.760   1.540
 3434SOL    HW111201   3.799   1.857   1.554
 3434SOL    HW211202   3.712   1.750   1.466
 3435SOL     OW11203   3.000   0.847   0.376
 3435SOL    HW111204   2.930   0.853   0.305
 3435SOL    HW211205   3.050   0.761   0.367
 3436SOL     OW11206   3.422   5.682   0.411
 3436SOL    HW111207   3.517   5.696   0.438
 3436SOL    HW211208   3.375   5.631   0.483
 3437SOL     OW11209   1.947   6.808   6.013
 3437SOL    HW111210   2.004   6.885   5.984
 3437SOL    HW211211   2.005   6.734   6.046
 3438SOL     OW11212   0.229   3.921   1.207
 3438SOL    HW111213   0.191   3.832   1.181
 3438SOL    HW211214   0.281   3.911   1.292
 3439SOL     OW11215   3.216   6.311   3.999
 3439SOL    HW111216   3.200   6.407   3.979
 3439SOL    HW211217   3.200   6.257   3.916
 3440SOL     OW11218   3.924   3.439   2.956
 3440SOL    HW111219   3.836   3.392   2.955
 3440SOL    HW211220   3.915   3.526   3.004
 3441SOL     OW11221   0.736   6.027   6.426
 3441SOL    HW111222   0.793   5.946   6.414
 3441SOL    HW211223   0.715   6.039   6.523
 3442SOL     OW11224   2.853   3.469   0.687
 3442SOL    HW111225   2.855   3.559   0.645
 3442SOL    HW211226   2.857   3.479   0.787
 3443SOL     OW11227   3.333   6.033   2.149
 3443SOL    HW111228   3.254   5.988   2.105
 3443SOL    HW211229   3.400   5.963   2.175
 3444SOL     OW11230   5.129   5.348   1.295
 3444SOL    HW111231   5.200   5.403   1.338
 3444SOL    HW211232   5.157   5.252   1.296
 3445SOL     OW11233   6.890   5.180   4.231
 3445SOL    HW111234   6.845   5.198   4.319
 3445SOL    HW211235   6.971   5.125   4.247
 3446SOL     OW11236   5.689   0.713   1.117
 3446SOL    HW111237   5.634   0.701   1.200
 3446SOL    HW211238   5.717   0.809   1.110
 3447SOL     OW11239   5.031   0.473   0.283
 3447SOL    HW111240   5.017   0.525   0.368
 3447SOL    HW211241   4.986   0.384   0.291
 3448SOL     OW11242   2.993   6.497   6.099
 3448SOL    HW111243   2.893   6.488   6.089
 3448SOL    HW211244   3.029   6.552   6.024
 3449SOL     OW11245   6.101   5.099   4.950
 3449SOL    HW111246   6.121   5.179   5.006
 3449SOL    HW211247   6.048   5.033   5.004
 3450SOL     OW11248   1.536   1.157   6.655
 3450SOL    HW111249   1.448   1.140   6.612
 3450SOL    HW211250   1.575   1.071   6.687
 3451SOL     OW11251   1.414   5.898   0.225
 3451SOL    HW111252   1.438   5.808   0.263
 3451SOL    HW211253   1.340   5.938   0.280
 3452SOL     OW11254   5.818   0.457   6.011
 3452SOL    HW111255   5.740   0.459   5.948
 3452SOL    HW211256   5.893   0.512   5.974
 3453SOL     OW11257   5.730   5.821   6.116
 3453SOL    HW111258   5.799   5.748   6.110
 3453SOL    HW211259   5.704   5.850   6.024
 3454SOL     OW11260   1.455   3.893   4.768
 3454SOL    HW111261   1.407   3.806   4.756
 3454SOL    HW211262   1.502   3.894   4.856
 3455SOL     OW11263   2.558   1.341   4.973
 3455SOL    HW111264   2.524   1.281   5.046
 3455SOL    HW211265   2.614   1.413   5.012
 3456SOL     OW11266   4.318   4.614   1.988
 3456SOL    HW111267   4.377   4.538   2.015
 3456SOL    HW211268   4.366   4.673   1.923
 3457SOL     OW11269   3.988   5.176   4.598
 3457SOL    HW111270   3.908   5.234   4.586
 3457SOL    HW211271   3.976   5.091   4.546
 3458SOL     OW11272   4.552   1.915   2.382
 3458SOL    HW111273   4.481   1.938   2.448
 3458SOL    HW211274   4.587   1.823   2.401
 3459SOL     OW11275   5.260   1.795   3.444
 3459SOL    HW111276   5.243   1.821   3.539
 3459SOL    HW211277   5.204   1.716   3.421
 3460SOL     OW11278   3.101   1.893   5.698
 3460SOL    HW111279   3.056   1.946   5.627
 3460SOL    HW211280   3.196   1.924   5.707
 3461SOL     OW11281   5.697   4.396   0.015
 3461SOL    HW111282   5.655   4.473   0.063
 3461SOL    HW211283   5.632   4.321   0.009
 3462SOL     OW11284   0.811   3.753   5.398
 3462SOL    HW111285   0.877   3.707   5.457
 3462SOL    HW211286   0.722   3.708   5.406
 3463SOL     OW11287   0.922   4.352   1.003
 3463SOL    HW111288   0.968   4.403   0.931
 3463SOL    HW211289   0.854   4.411   1.047
 3464SOL     OW11290   0.484   4.525   6.103
 3464SOL    HW111291   0.430   4.516   6.186
 3464SOL    HW211292   0.538   4.442   6.088
 3465SOL     OW11293   2.393   2.334   2.009
 3465SOL    HW111294   2.381   2.254   1.951
 3465SOL    HW211295   2.391   2.417   1.953
 3466SOL     OW11296   0.056   5.725   6.131
 3466SOL    HW111297   0.135   5.782   6.153
 3466SOL    HW211298   0.016   5.688   6.215
 3467SOL     OW11299   1.731   2.075   6.777
 3467SOL    HW111300   1.828   2.072   6.753
 3467SOL    HW211301   1.687   2.151   6.728
 3468SOL     OW11302   3.472   5.479   2.985
 3468SOL    HW111303   3.412   5.420   3.039
 3468SOL    HW211304   3.566   5.447   2.994
 3469SOL     OW11305   6.325   1.678   3.952
 3469SOL    HW111306   6.347   1.707   3.859
 3469SOL    HW211307   6.276   1.752   4.000
 3470SOL     OW11308   6.723   4.897   1.138
 3470SOL    HW111309   6.770   4.928   1.221
 3470SOL    HW211310   6.767   4.937   1.058
 3471SOL     OW11311   4.394   5.091   4.770
 3471SOL    HW111312   4.341   5.130   4.695
 3471SOL    HW211313   4.466   5.155   4.797
 3472SOL     OW11314   2.385   0.686   3.803
 3472SOL    HW111315   2.427   0.727   3.722
 3472SOL    HW211316   2.401   0.745   3.882
 3473SOL     OW11317   5.466   1.539   6.205
 3473SOL    HW111318   5.417   1.553   6.119
 3473SOL    HW211319   5.563   1.559   6.191
 3474SOL     OW11320   3.003   5.212   1.788
 3474SOL    HW111321   2.911   5.246   1.772
 3474SOL    HW211322   3.015   5.124   1.742
 3475SOL     OW11323   1.302   6.607   4.468
 3475SOL    HW111324   1.221   6.605   4.409
 3475SOL    HW211325   1.316   6.516   4.508
 3476SOL     OW11326   3.670   0.699   4.422
 3476SOL    HW111327   3.570   0.701   4.421
 3476SOL    HW211328   3.702   0.629   4.486
 3477SOL     OW11329   2.875   5.749   1.926
 3477SOL    HW111330   2.879   5.660   1.970
 3477SOL    HW211331   2.835   5.740   1.835
 3478SOL     OW11332   2.725   6.352   5.873
 3478SOL    HW111333   2.713   6.434   5.929
 3478SOL    HW211334   2.780   6.374   5.792
 3479SOL     OW11335   0.568   6.826   3.078
 3479SOL    HW111336   0.613   6.911   3.053
 3479SOL    HW211337   0.526   6.836   3.169
 3480SOL     OW11338   6.852   1.299   4.542
 3480SOL    HW111339   6.879   1.257   4.455
 3480SOL    HW211340   6.753   1.298   4.551
 3481SOL     OW11341   4.709   6.570   6.467
 3481SOL    HW111342   4.731   6.475   6.443
 3481SOL    HW211343   4.746   6.631   6.397
 3482SOL     OW11344   5.400   1.225   1.009
 3482SOL    HW111345   5.373   1.138   1.050
 3482SOL    HW211346   5.325   1.291   1.019
 3483SOL     OW11347   3.224   0.336   1.028
 3483SOL    HW111348   3.185   0.308   1.116
 3483SOL    HW211349   3.177   0.289   0.954
 3484SOL     OW11350   2.836   3.391   2.036
 3484SOL    HW111351   2.863   3.295   2.029
 3484SOL    HW211352   2.738   3.397   2.056
 3485SOL     OW11353   1.557   0.848   5.091
 3485SOL    HW111354   1.584   0.916   5.023
 3485SOL    HW211355   1.638   0.802   5.127
 3486SOL     OW11356   3.261   1.635   1.801
 3486SOL    HW111357   3.336   1.638   1.734
 3486SOL    HW211358   3.272   1.555   1.859
 3487SOL     OW11359   5.422   1.716   6.640
 3487SOL    HW111360   5.450   1.791   6.700
 3487SOL    HW211361   5.503   1.673   6.600
 3488SOL     OW11362   5.864   3.501   4.081
 3488SOL    HW111363   5.859   3.423   4.143
 3488SOL    HW211364   5.779   3.553   4.085
 3489SOL     OW11365   3.416   6.837   0.605
 3489SOL    HW111366   3.474   6.778   0.548
 3489SOL    HW211367   3.474   6.892   0.665
 3490SOL     OW11368   4.461   4.218   7.008
 3490SOL    HW111369   4.486   4.192   0.086
 3490SOL    HW211370   4.397   4.152   6.970
 3491SOL     OW11371   6.738   3.113   5.822
 3491SOL    HW111372   6.835   3.138   5.817
 3491SOL    HW211373   6.698   3.118   5.730
 3492SOL     OW11374   0.608   5.781   0.705
 3492SOL    HW111375   0.619   5.711   0.777
 3492SOL    HW211376   0.698   5.813   0.676
 3493SOL     OW11377   6.483   5.024   6.656
 3493SOL    HW111378   6.533   5.087   6.597
 3493SOL    HW211379   6.524   5.023   6.747
 3494SOL     OW11380   4.680   0.171   0.594
 3494SOL    HW111381   4.738   0.226   0.654
 3494SOL    HW211382   4.620   0.113   0.650
 3495SOL     OW11383   4.463   4.714   2.522
 3495SOL    HW111384   4.445   4.728   2.425
 3495SOL    HW211385   4.561   4.714   2.539
 3496SOL     OW11386   1.155   3.231   1.119
 3496SOL    HW111387   1.081   3.209   1.182
 3496SOL    HW211388   1.242   3.230   1.169
 3497SOL     OW11389   3.752   0.606   2.978
 3497SOL    HW111390   3.796   0.675   3.036
 3497SOL    HW211391   3.818   0.536   2.953
 3498SOL     OW11392   3.391   1.988   0.910
 3498SOL    HW111393   3.357   2.058   0.974
 3498SOL    HW211394   3.333   1.988   0.829
 3499SOL     OW11395   5.729   3.012   4.257
 3499SOL    HW111396   5.710   2.927   4.209
 3499SOL    HW211397   5.707   3.002   4.354
 3500SOL     OW11398   6.774   4.235   6.143
 3500SOL    HW111399   6.829   4.175   6.085
 3500SOL    HW211400   6.834   4.301   6.189
 3501SOL     OW11401   0.364   4.931   4.824
 3501SOL    HW111402   0.380   4.834   4.806
 3501SOL    HW211403   0.308   4.970   4.752
 3502SOL     OW11404   0.039   2.415   1.965
 3502SOL    HW111405   7.008   2.498   1.933
 3502SOL    HW211406   0.102   2.438   2.038
 3503SOL     OW11407   5.109   5.676   5.230
 3503SOL    HW111408   5.178   5.624   5.180
 3503SOL    HW211409   5.151   5.756   5.273
 3504SOL     OW11410   2.914   2.735   1.161
 3504SOL    HW111411   2.939   2.668   1.091
 3504SOL    HW211412   2.924   2.694   1.252
 3505SOL     OW11413   5.363   5.471   5.113
 3505SOL    HW111414   5.343   5.500   5.020
 3505SOL    HW211415   5.394   5.375   5.112
 3506SOL     OW11416   4.117   5.469   4.625
 3506SOL    HW111417   4.098   5.567   4.618
 3506SOL    HW211418   4.048   5.426   4.683
 3507SOL     OW11419   1.879   0.826   6.756
 3507SOL    HW111420   1.965   0.790   6.718
 3507SOL    HW211421   1.895   0.856   6.850
 3508SOL     OW11422   4.309   2.091   6.712
 3508SOL    HW111423   4.267   2.030   6.778
 3508SOL    HW211424   4.250   2.099   6.631
 3509SOL     OW11425   5.522   5.615   6.698
 3509SOL    HW111426   5.569   5.679   6.638
 3509SOL    HW211427   5.524   5.649   6.792
 3510SOL     OW11428   1.874   2.435   1.660
 3510SOL    HW111429   1.937   2.438   1.737
 3510SOL    HW211430   1.833   2.344   1.653
 3511SOL     OW11431   1.631   3.814   6.785
 3511SOL    HW111432   1.545   3.834   6.738
 3511SOL    HW211433   1.688   3.896   6.786
 3512SOL     OW11434   0.646   4.834   0.811
 3512SOL    HW111435   0.676   4.898   0.882
 3512SOL    HW211436   0.634   4.744   0.851
 3513SOL     OW11437   6.151   4.320   0.540
 3513SOL    HW111438   6.084   4.359   0.602
 3513SOL    HW211439   6.191   4.237   0.580
 3514SOL     OW11440   0.809   0.640   1.805
 3514SOL    HW111441   0.758   0.650   1.890
 3514SOL    HW211442   0.776   0.706   1.738
 3515SOL     OW11443   3.375   5.783   2.520
 3515SOL    HW111444   3.278   5.779   2.544
 3515SOL    HW211445   3.429   5.736   2.591
 3516SOL     OW11446   3.922   1.122   1.027
 3516SOL    HW111447   3.899   1.206   1.077
 3516SOL    HW211448   3.902   1.043   1.085
 3517SOL     OW11449   0.710   1.278   0.318
 3517SOL    HW111450   0.686   1.325   0.234
 3517SOL    HW211451   0.652   1.197   0.329
 3518SOL     OW11452   4.728   4.236   5.483
 3518SOL    HW111453   4.673   4.247   5.399
 3518SOL    HW211454   4.667   4.220   5.560
 3519SOL     OW11455   1.332   0.532   6.118
 3519SOL    HW111456   1.378   0.610   6.162
 3519SOL    HW211457   1.338   0.452   6.177
 3520SOL     OW11458   3.563   4.446   1.522
 3520SOL    HW111459   3.609   4.477   1.438
 3520SOL    HW211460   3.629   4.396   1.578
 3521SOL     OW11461   5.893   2.874   1.330
 3521SOL    HW111462   5.869   2.878   1.427
 3521SOL    HW211463   5.931   2.784   1.309
 3522SOL     OW11464   3.215   5.323   2.159
 3522SOL    HW111465   3.168   5.382   2.093
 3522SOL    HW211466   3.310   5.311   2.130
 3523SOL     OW11467   3.032   4.442   5.530
 3523SOL    HW111468   3.042   4.437   5.430
 3523SOL    HW211469   3.033   4.350   5.569
 3524SOL     OW11470   2.812   0.797   1.354
 3524SOL    HW111471   2.778   0.703   1.345
 3524SOL    HW211472   2.881   0.801   1.426
 3525SOL     OW11473   0.815   3.360   2.193
 3525SOL    HW111474   0.744   3.364   2.123
 3525SOL    HW211475   0.786   3.411   2.274
 3526SOL     OW11476   1.589   0.481   4.154
 3526SOL    HW111477   1.499   0.453   4.121
 3526SOL    HW211478   1.621   0.560   4.101
 3527SOL     OW11479   5.192   2.737   5.639
 3527SOL    HW111480   5.266   2.670   5.633
 3527SOL    HW211481   5.213   2.803   5.711
 3528SOL     OW11482   0.986   6.621   3.847
 3528SOL    HW111483   0.959   6.652   3.755
 3528SOL    HW211484   0.931   6.542   3.873
 3529SOL     OW11485   3.663   0.019   5.544
 3529SOL    HW111486   3.609   7.007   5.623
 3529SOL    HW211487   3.665   6.960   5.477
 3530SOL     OW11488   2.166   5.619   2.615
 3530SOL    HW111489   2.189   5.702   2.564
 3530SOL    HW211490   2.135   5.549   2.551
 3531SOL     OW11491   5.715   3.830   0.230
 3531SOL    HW111492   5.684   3.868   0.317
 3531SOL    HW211493   5.637   3.793   0.180
 3532SOL     OW11494   3.048   0.308   0.029
 3532SOL    HW111495   3.067   0.214   0.002
 3532SOL    HW211496   2.955   0.333   0.003
 3533SOL     OW11497   1.358   1.914   3.587
 3533SOL    HW111498   1.392   1.888   3.677
 3533SOL    HW211499   1.372   1.838   3.523
 3534SOL     OW11500   5.544   1.610   5.457
 3534SOL    HW111501   5.477   1.656   5.516
 3534SOL    HW211502   5.499   1.540   5.403
 3535SOL     OW11503   6.741   5.836   0.650
 3535SOL    HW111504   6.812   5.866   0.586
 3535SOL    HW211505   6.677   5.777   0.602
 3536SOL     OW11506   1.702   3.497   3.541
 3536SOL    HW111507   1.637   3.422   3.541
 3536SOL    HW211508   1.662   3.576   3.587
 3537SOL     OW11509   2.281   4.899   0.657
 3537SOL    HW111510   2.344   4.960   0.610
 3537SOL    HW211511   2.264   4.932   0.749
 3538SOL     OW11512   3.156   0.979   4.035
 3538SOL    HW111513   3.121   1.073   4.033
 3538SOL    HW211514   3.248   0.978   4.074
 3539SOL     OW11515   6.098   3.346   5.428
 3539SOL    HW111516   6.130   3.430   5.384
 3539SOL    HW211517   6.131   3.267   5.376
 3540SOL     OW11518   2.221   2.904   6.422
 3540SOL    HW111519   2.290   2.847   6.466
 3540SOL    HW211520   2.213   2.878   6.326
 3541SOL     OW11521   2.576   2.983   0.643
 3541SOL    HW111522   2.609   2.980   0.738
 3541SOL    HW211523   2.535   3.072   0.624
 3542SOL     OW11524   5.376   2.130   0.158
 3542SOL    HW111525   5.348   2.136   0.063
 3542SOL    HW211526   5.453   2.192   0.175
 3543SOL     OW11527   1.398   3.753   3.221
 3543SOL    HW111528   1.345   3.775   3.303
 3543SOL    HW211529   1.375   3.661   3.190
 3544SOL     OW11530   2.879   4.412   0.042
 3544SOL    HW111531   2.810   4.483   0.059
 3544SOL    HW211532   2.843   4.323   0.069
 3545SOL     OW11533   3.988   4.876   0.133
 3545SOL    HW111534   4.083   4.899   0.156
 3545SOL    HW211535   3.928   4.951   0.162
 3546SOL     OW11536   6.238   4.795   3.178
 3546SOL    HW111537   6.202   4.736   3.106
 3546SOL    HW211538   6.321   4.840   3.145
 3547SOL     OW11539   6.721   3.258   4.546
 3547SOL    HW111540   6.646   3.288   4.487
 3547SOL    HW211541   6.699   3.281   4.641
 3548SOL     OW11542   5.158   1.094   5.508
 3548SOL    HW111543   5.167   1.177   5.562
 3548SOL    HW211544   5.249   1.063   5.479
 3549SOL     OW11545   2.001   4.927   6.589
 3549SOL    HW111546   2.070   4.946   6.659
 3549SOL    HW211547   2.046   4.913   6.501
 3550SOL     OW11548   5.625   2.387   4.957
 3550SOL    HW111549   5.540   2.435   4.980
 3550SOL    HW211550   5.616   2.344   4.867
 3551SOL     OW11551   3.378   1.879   5.058
 3551SOL    HW111552   3.290   1.833   5.049
 3551SOL    HW211553   3.365   1.968   5.103
 3552SOL     OW11554   6.271   5.425   2.248
 3552SOL    HW111555   6.242   5.331   2.235
 3552SOL    HW211556   6.214   5.469   2.318
 3553SOL     OW11557   3.239   5.729   6.599
 3553SOL    HW111558   3.157   5.739   6.655
 3553SOL    HW211559   3.215   5.683   6.513
 3554SOL     OW11560   3.787   4.072   0.915
 3554SOL    HW111561   3.719   4.045   0.983
 3554SOL    HW211562   3.868   4.014   0.924
 3555SOL     OW11563   2.316   2.311   4.463
 3555SOL    HW111564   2.387   2.363   4.417
 3555SOL    HW211565   2.357   2.243   4.524
 3556SOL     OW11566   3.998   1.360   4.368
 3556SOL    HW111567   3.939   1.439   4.350
 3556SOL    HW211568   4.087   1.374   4.323
 3557SOL     OW11569   0.316   0.334   2.963
 3557SOL    HW111570   0.330   0.238   2.939
 3557SOL    HW211571   0.313   0.389   2.879
 3558SOL     OW11572   2.414   5.601   0.923
 3558SOL    HW111573   2.321   5.620   0.893
 3558SOL    HW211574   2.459   5.686   0.950
 3559SOL     OW11575   2.501   0.068   5.041
 3559SOL    HW111576   2.499   0.166   5.064
 3559SOL    HW211577   2.593   0.033   5.052
 3560SOL     OW11578   1.863   4.745   4.045
 3560SOL    HW111579   1.903   4.694   4.121
 3560SOL    HW211580   1.810   4.682   3.987
 3561SOL     OW11581   5.512   4.547   5.683
 3561SOL    HW111582   5.561   4.481   5.624
 3561SOL    HW211583   5.559   4.553   5.771
 3562SOL     OW11584   3.587   1.782   4.269
 3562SOL    HW111585   3.498   1.744   4.295
 3562SOL    HW211586   3.594   1.875   4.304
 3563SOL     OW11587   5.811   2.455   6.695
 3563SOL    HW111588   5.746   2.472   6.621
 3563SOL    HW211589   5.801   2.525   6.765
 3564SOL     OW11590   0.700   5.037   2.914
 3564SOL    HW111591   0.670   5.013   2.822
 3564SOL    HW211592   0.774   5.104   2.909
 3565SOL     OW11593   3.824   4.870   2.617
 3565SOL    HW111594   3.871   4.830   2.696
 3565SOL    HW211595   3.847   4.820   2.534
 3566SOL     OW11596   6.661   0.976   5.609
 3566SOL    HW111597   6.606   1.057   5.589
 3566SOL    HW211598   6.755   0.991   5.579
 3567SOL     OW11599   0.136   2.915   6.371
 3567SOL    HW111600   0.158   3.008   6.399
 3567SOL    HW211601   0.165   2.900   6.276
 3568SOL     OW11602   6.722   3.985   5.517
 3568SOL    HW111603   6.671   4.027   5.592
 3568SOL    HW211604   6.790   3.922   5.553
 3569SOL     OW11605   2.825   1.739   5.046
 3569SOL    HW111606   2.808   1.790   4.962
 3569SOL    HW211607   2.894   1.786   5.100
 3570SOL     OW11608   4.903   0.326   6.052
 3570SOL    HW111609   4.839   0.263   6.097
 3570SOL    HW211610   4.908   0.411   6.103
 3571SOL     OW11611   0.322   5.564   6.846
 3571SOL    HW111612   0.392   5.514   6.794
 3571SOL    HW211613   0.324   5.660   6.822
 3572SOL     OW11614   5.429   3.875   3.581
 3572SOL    HW111615   5.478   3.943   3.526
 3572SOL    HW211616   5.494   3.829   3.642
 3573SOL     OW11617   0.470   4.550   4.013
 3573SOL    HW111618   0.498   4.461   3.976
 3573SOL    HW211619   0.513   4.564   4.102
 3574SOL     OW11620   0.419   4.815   7.014
 3574SOL    HW111621   0.420   4.905   0.043
 3574SOL    HW211622   0.498   4.762   0.029
 3575SOL     OW11623   5.505   5.023   3.520
 3575SOL    HW111624   5.595   4.988   3.493
 3575SOL    HW211625   5.434   4.958   3.491
 3576SOL     OW11626   2.015   1.516   5.878
 3576SOL    HW111627   2.069   1.444   5.921
 3576SOL    HW211628   2.072   1.567   5.814
 3577SOL     OW11629   1.436   2.605   6.853
 3577SOL    HW111630   1.475   2.687   6.811
 3577SOL    HW211631   1.508   2.538   6.869
 3578SOL     OW11632   3.763   3.307   0.144
 3578SOL    HW111633   3.678   3.356   0.127
 3578SOL    HW211634   3.754   3.213   0.111
 3579SOL     OW11635   6.993   3.677   4.564
 3579SOL    HW111636   0.019   3.765   4.588
 3579SOL    HW211637   0.033   3.603   4.603
 3580SOL     OW11638   5.850   1.329   1.379
 3580SOL    HW111639   5.851   1.389   1.460
 3580SOL    HW211640   5.836   1.384   1.297
 3581SOL     OW11641   6.030   0.479   4.208
 3581SOL    HW111642   5.951   0.418   4.211
 3581SOL    HW211643   6.017   0.546   4.135
 3582SOL     OW11644   0.430   2.413   6.000
 3582SOL    HW111645   0.395   2.376   5.914
 3582SOL    HW211646   0.513   2.363   6.025
 3583SOL     OW11647   0.783   4.111   6.828
 3583SOL    HW111648   0.833   4.196   6.847
 3583SOL    HW211649   0.835   4.033   6.862
 3584SOL     OW11650   6.029   5.876   6.362
 3584SOL    HW111651   6.065   5.884   6.454
 3584SOL    HW211652   5.976   5.792   6.353
 3585SOL     OW11653   3.546   5.432   5.218
 3585SOL    HW111654   3.563   5.519   5.172
 3585SOL    HW211655   3.528   5.361   5.149
 3586SOL     OW11656   6.689   2.086   5.295
 3586SOL    HW111657   6.634   2.163   5.263
 3586SOL    HW211658   6.632   2.005   5.302
 3587SOL     OW11659   2.671   5.279   0.239
 3587SOL    HW111660   2.762   5.271   0.280
 3587SOL    HW211661   2.664   5.216   0.161
 3588SOL     OW11662   1.017   2.957   5.446
 3588SOL    HW111663   1.058   2.891   5.509
 3588SOL    HW211664   1.087   2.988   5.381
 3589SOL     OW11665   3.925   1.411   4.009
 3589SOL    HW111666   3.947   1.458   4.094
 3589SOL    HW211667   3.994   1.341   3.990
 3590SOL     OW11668   0.010   4.009   6.236
 3590SOL    HW111669   0.036   4.097   6.274
 3590SOL    HW211670   0.084   3.973   6.180
 3591SOL     OW11671   4.913   3.361   6.424
 3591SOL    HW111672   4.831   3.376   6.480
 3591SOL    HW211673   4.944   3.266   6.436
 3592SOL     OW11674   5.652   3.975   2.920
 3592SOL    HW111675   5.729   4.033   2.895
 3592SOL    HW211676   5.675   3.879   2.902
 3593SOL     OW11677   2.203   5.890   4.728
 3593SOL    HW111678   2.129   5.925   4.786
 3593SOL    HW211679   2.290   5.926   4.761
 3594SOL     OW11680   3.565   0.515   2.750
 3594SOL    HW111681   3.618   0.538   2.832
 3594SOL    HW211682   3.470   0.498   2.776
 3595SOL     OW11683   1.955   6.039   6.388
 3595SOL    HW111684   1.920   5.966   6.447
 3595SOL    HW211685   1.958   6.124   6.439
 3596SOL     OW11686   6.789   2.145   2.989
 3596SOL    HW111687   6.803   2.096   3.075
 3596SOL    HW211688   6.695   2.180   2.986
 3597SOL     OW11689   2.709   6.858   5.038
 3597SOL    HW111690   2.620   6.828   5.003
 3597SOL    HW211691   2.729   6.810   5.123
 3598SOL     OW11692   1.383   0.321   5.693
 3598SOL    HW111693   1.337   0.352   5.776
 3598SOL    HW211694   1.324   0.335   5.614
 3599SOL     OW11695   0.944   2.361   5.258
 3599SOL    HW111696   0.880   2.426   5.301
 3599SOL    HW211697   0.893   2.283   5.224
 3600SOL     OW11698   0.485   3.302   1.066
 3600SOL    HW111699   0.423   3.251   1.126
 3600SOL    HW211700   0.450   3.298   0.972
 3601SOL     OW11701   6.594   4.268   0.307
 3601SOL    HW111702   6.618   4.184   0.259
 3601SOL    HW211703   6.495   4.283   0.300
 3602SOL     OW11704   1.344   1.255   1.070
 3602SOL    HW111705   1.365   1.297   0.982
 3602SOL    HW211706   1.427   1.249   1.126
 3603SOL     OW11707   3.177   6.571   3.953
 3603SOL    HW111708   3.229   6.651   3.924
 3603SOL    HW211709   3.115   6.597   4.027
 3604SOL     OW11710   6.414   5.016   4.004
 3604SOL    HW111711   6.346   5.033   4.076
 3604SOL    HW211712   6.385   4.938   3.948
 3605SOL     OW11713   5.896   4.543   5.991
 3605SOL    HW111714   5.985   4.588   5.982
 3605SOL    HW211715   5.909   4.444   6.000
 3606SOL     OW11716   6.584   5.191   5.537
 3606SOL    HW111717   6.576   5.231   5.446
 3606SOL    HW211718   6.519   5.116   5.546
 3607SOL     OW11719   5.363   6.445   0.704
 3607SOL    HW111720   5.426   6.507   0.656
 3607SOL    HW211721   5.416   6.383   0.762
 3608SOL     OW11722   6.834   1.846   1.804
 3608SOL    HW111723   6.854   1.828   1.708
 3608SOL    HW211724   6.766   1.779   1.837
 3609SOL     OW11725   0.285   0.353   4.055
 3609SOL    HW111726   0.218   0.417   4.016
 3609SOL    HW211727   0.263   0.337   4.151
 3610SOL     OW11728   0.469   0.541   5.791
 3610SOL    HW111729   0.403   0.466   5.798
 3610SOL    HW211730   0.520   0.533   5.706
 3611SOL     OW11731   3.708   5.506   5.688
 3611SOL    HW111732   3.695   5.497   5.590
 3611SOL    HW211733   3.670   5.425   5.734
 3612SOL     OW11734   6.221   0.378   5.768
 3612SOL    HW111735   6.279   0.458   5.754
 3612SOL    HW211736   6.222   0.353   5.865
 3613SOL     OW11737   5.499   5.340   1.303
 3613SOL    HW111738   5.557   5.283   1.362
 3613SOL    HW211739   5.431   5.387   1.358
 3614SOL     OW11740   3.241   3.332   3.221
 3614SOL    HW111741   3.337   3.355   3.237
 3614SOL    HW211742   3.218   3.350   3.126
 3615SOL     OW11743   5.944   6.145   6.323
 3615SOL    HW111744   5.870   6.174   6.262
 3615SOL    HW211745   5.971   6.052   6.300
 3616SOL     OW11746   6.950   1.700   6.390
 3616SOL    HW111747   7.015   1.770   6.361
 3616SOL    HW211748   6.859   1.740   6.400
 3617SOL     OW11749   5.354   1.078   6.920
 3617SOL    HW111750   5.263   1.038   6.919
 3617SOL    HW211751   5.347   1.177   6.907
 3618SOL     OW11752   1.943   1.892   5.319
 3618SOL    HW111753   1.845   1.912   5.325
 3618SOL    HW211754   1.984   1.951   5.250
 3619SOL     OW11755   5.961   2.768   3.736
 3619SOL    HW111756   5.942   2.862   3.707
 3619SOL    HW211757   5.878   2.728   3.775
 3620SOL     OW11758   5.888   5.641   5.984
 3620SOL    HW111759   5.986   5.626   5.984
 3620SOL    HW211760   5.843   5.569   5.931
 3621SOL     OW11761   3.195   2.176   5.675
 3621SOL    HW111762   3.098   2.163   5.694
 3621SOL    HW211763   3.210   2.265   5.631
 3622SOL     OW11764   2.406   2.150   3.411
 3622SOL    HW111765   2.367   2.204   3.337
 3622SOL    HW211766   2.407   2.203   3.495
 3623SOL     OW11767   5.603   6.020   3.945
 3623SOL    HW111768   5.637   5.962   4.020
 3623SOL    HW211769   5.645   6.111   3.953
 3624SOL     OW11770   1.958   0.456   2.229
 3624SOL    HW111771   1.889   0.410   2.285
 3624SOL    HW211772   2.049   0.426   2.258
 3625SOL     OW11773   6.136   3.050   6.986
 3625SOL    HW111774   6.155   3.023   0.065
 3625SOL    HW211775   6.130   2.968   6.928
 3626SOL     OW11776   1.759   3.606   5.290
 3626SOL    HW111777   1.847   3.605   5.243
 3626SOL    HW211778   1.773   3.623   5.388
 3627SOL     OW11779   3.776   3.001   3.356
 3627SOL    HW111780   3.875   2.989   3.356
 3627SOL    HW211781   3.744   3.021   3.264
 3628SOL     OW11782   2.106   0.086   1.443
 3628SOL    HW111783   2.063   0.150   1.507
 3628SOL    HW211784   2.041   0.063   1.370
 3629SOL     OW11785   6.278   2.113   3.924
 3629SOL    HW111786   6.191   2.127   3.878
 3629SOL    HW211787   6.270   2.037   3.989
 3630SOL     OW11788   5.199   2.663   3.218
 3630SOL    HW111789   5.103   2.634   3.218
 3630SOL    HW211790   5.245   2.625   3.298
 3631SOL     OW11791   1.966   6.774   3.972
 3631SOL    HW111792   1.892   6.795   3.908
 3631SOL    HW211793   2.054   6.777   3.925
 3632SOL     OW11794   5.133   0.138   0.536
 3632SOL    HW111795   5.143   0.091   0.624
 3632SOL    HW211796   5.038   0.133   0.506
 3633SOL     OW11797   3.132   1.455   5.865
 3633SOL    HW111798   3.077   1.407   5.797
 3633SOL    HW211799   3.224   1.469   5.829
 3634SOL     OW11800   0.710   5.417   5.460
 3634SOL    HW111801   0.656   5.454   5.384
 3634SOL    HW211802   0.650   5.389   5.534
 3635SOL     OW11803   2.262   0.201   6.377
 3635SOL    HW111804   2.294   0.268   6.444
 3635SOL    HW211805   2.212   0.248   6.304
 3636SOL     OW11806   0.835   5.791   6.374
 3636SOL    HW111807   0.907   5.757   6.435
 3636SOL    HW211808   0.774   5.716   6.349
 3637SOL     OW11809   6.542   2.165   1.378
 3637SOL    HW111810   6.464   2.103   1.384
 3637SOL    HW211811   6.627   2.113   1.372
 3638SOL     OW11812   0.150   4.653   4.370
 3638SOL    HW111813   0.084   4.716   4.329
 3638SOL    HW211814   0.188   4.594   4.299
 3639SOL     OW11815   4.029   3.953   0.921
 3639SOL    HW111816   4.092   3.988   0.991
 3639SOL    HW211817   4.003   3.859   0.943
 3640SOL     OW11818   3.722   0.267   6.888
 3640SOL    HW111819   3.669   0.323   6.952
 3640SOL    HW211820   3.700   0.171   6.902
 3641SOL     OW11821   4.753   2.855   3.694
 3641SOL    HW111822   4.767   2.947   3.656
 3641SOL    HW211823   4.764   2.787   3.622
 3642SOL     OW11824   5.204   1.029   0.419
 3642SOL    HW111825   5.292   1.078   0.422
 3642SOL    HW211826   5.188   0.995   0.327
 3643SOL     OW11827   3.102   5.578   4.771
 3643SOL    HW111828   3.180   5.618   4.820
 3643SOL    HW211829   3.070   5.497   4.820
 3644SOL     OW11830   6.895   1.081   1.622
 3644SOL    HW111831   6.983   1.045   1.593
 3644SOL    HW211832   6.854   1.132   1.546
 3645SOL     OW11833   6.650   1.633   3.783
 3645SOL    HW111834   6.567   1.590   3.818
 3645SOL    HW211835   6.728   1.572   3.801
 3646SOL     OW11836   6.631   4.042   6.563
 3646SOL    HW111837   6.728   4.034   6.586
 3646SOL    HW211838   6.620   4.039   6.464
 3647SOL     OW11839   2.228   3.108   0.006
 3647SOL    HW111840   2.212   3.132   6.925
 3647SOL    HW211841   2.141   3.103   0.054
 3648SOL     OW11842   2.852   4.877   2.967
 3648SOL    HW111843   2.788   4.944   2.928
 3648SOL    HW211844   2.937   4.877   2.915
 3649SOL     OW11845   4.878   3.069   1.594
 3649SOL    HW111846   4.911   3.109   1.679
 3649SOL    HW211847   4.828   2.985   1.614
 3650SOL     OW11848   7.001   4.868   0.451
 3650SOL    HW111849   6.909   4.845   0.418
 3650SOL    HW211850   0.049   4.872   0.374
 3651SOL     OW11851   0.144   6.474   3.827
 3651SOL    HW111852   0.079   6.529   3.774
 3651SOL    HW211853   0.237   6.503   3.807
 3652SOL     OW11854   6.129   6.598   3.138
 3652SOL    HW111855   6.093   6.622   3.228
 3652SOL    HW211856   6.216   6.646   3.123
 3653SOL     OW11857   6.936   0.961   3.699
 3653SOL    HW111858   6.971   1.055   3.693
 3653SOL    HW211859   6.862   0.958   3.766
 3654SOL     OW11860   2.451   5.770   0.549
 3654SOL    HW111861   2.397   5.712   0.487
 3654SOL    HW211862   2.546   5.772   0.518
 3655SOL     OW11863   2.020   0.188   3.441
 3655SOL    HW111864   2.067   0.171   3.527
 3655SOL    HW211865   2.020   0.286   3.421
 3656SOL     OW11866   0.784   3.591   2.397
 3656SOL    HW111867   0.811   3.536   2.476
 3656SOL    HW211868   0.692   3.627   2.412
 3657SOL     OW11869   4.815   5.065   6.264
 3657SOL    HW111870   4.877   5.039   6.190
 3657SOL    HW211871   4.752   4.989   6.282
 3658SOL     OW11872   1.939   6.110   4.133
 3658SOL    HW111873   1.969   6.093   4.227
 3658SOL    HW211874   2.017   6.101   4.071
 3659SOL     OW11875   2.608   3.326   5.721
 3659SOL    HW111876   2.590   3.415   5.762
 3659SOL    HW211877   2.527   3.293   5.674
 3660SOL     OW11878   4.394   0.160   2.805
 3660SOL    HW111879   4.354   0.171   2.896
 3660SOL    HW211880   4.419   0.065   2.791
 3661SOL     OW11881   4.826   1.736   5.531
 3661SOL    HW111882   4.805   1.784   5.446
 3661SOL    HW211883   4.755   1.755   5.598
 3662SOL     OW11884   4.292   0.741   3.669
 3662SOL    HW111885   4.247   0.828   3.689
 3662SOL    HW211886   4.344   0.712   3.749
 3663SOL     OW11887   2.060   1.827   0.331
 3663SOL    HW111888   2.085   1.907   0.277
 3663SOL    HW211889   2.067   1.745   0.274
 3664SOL     OW11890   4.650   1.895   1.767
 3664SOL    HW111891   4.577   1.889   1.835
 3664SOL    HW211892   4.625   1.840   1.687
 3665SOL     OW11893   1.492   6.280   5.692
 3665SOL    HW111894   1.427   6.215   5.653
 3665SOL    HW211895   1.560   6.306   5.623
 3666SOL     OW11896   1.752   3.861   3.033
 3666SOL    HW111897   1.775   3.946   3.080
 3666SOL    HW211898   1.718   3.794   3.100
 3667SOL     OW11899   6.942   0.427   0.970
 3667SOL    HW111900   6.962   0.377   0.887
 3667SOL    HW211901   6.892   0.511   0.947
 3668SOL     OW11902   1.567   1.121   2.225
 3668SOL    HW111903   1.626   1.044   2.202
 3668SOL    HW211904   1.533   1.163   2.141
 3669SOL     OW11905   5.758   1.500   3.476
 3669SOL    HW111906   5.784   1.522   3.570
 3669SOL    HW211907   5.705   1.575   3.437
 3670SOL     OW11908   2.210   4.674   0.317
 3670SOL    HW111909   2.287   4.611   0.310
 3670SOL    HW211910   2.244   4.768   0.315
 3671SOL     OW11911   6.108   0.236   3.864
 3671SOL    HW111912   6.038   0.255   3.932
 3671SOL    HW211913   6.089   0.149   3.819
 3672SOL     OW11914   5.560   2.266   1.854
 3672SOL    HW111915   5.472   2.289   1.814
 3672SOL    HW211916   5.555   2.175   1.897
 3673SOL     OW11917   3.739   0.068   6.538
 3673SOL    HW111918   3.670   0.104   6.476
 3673SOL    HW211919   3.798   0.003   6.489
 3674SOL     OW11920   0.599   0.147   5.248
 3674SOL    HW111921   0.516   0.145   5.305
 3674SOL    HW211922   0.619   0.054   5.217
 3675SOL     OW11923   1.658   2.937   5.008
 3675SOL    HW111924   1.612   2.851   4.984
 3675SOL    HW211925   1.626   3.009   4.947
 3676SOL     OW11926   5.094   4.587   4.625
 3676SOL    HW111927   5.144   4.507   4.658
 3676SOL    HW211928   5.088   4.656   4.698
 3677SOL     OW11929   2.239   6.391   3.073
 3677SOL    HW111930   2.186   6.413   2.991
 3677SOL    HW211931   2.285   6.473   3.106
 3678SOL     OW11932   0.392   3.624   4.420
 3678SOL    HW111933   0.491   3.614   4.412
 3678SOL    HW211934   0.350   3.534   4.435
 3679SOL     OW11935   1.613   0.408   3.208
 3679SOL    HW111936   1.682   0.430   3.138
 3679SOL    HW211937   1.522   0.419   3.169
 3680SOL     OW11938   5.758   2.381   2.927
 3680SOL    HW111939   5.816   2.447   2.879
 3680SOL    HW211940   5.792   2.368   3.020
 3681SOL     OW11941   0.748   0.755   5.310
 3681SOL    HW111942   0.811   0.799   5.247
 3681SOL    HW211943   0.777   0.661   5.326
 3682SOL     OW11944   5.175   2.413   6.791
 3682SOL    HW111945   5.164   2.352   6.869
 3682SOL    HW211946   5.102   2.396   6.725
 3683SOL     OW11947   6.899   6.466   3.458
 3683SOL    HW111948   6.901   6.371   3.430
 3683SOL    HW211949   6.812   6.507   3.430
 3684SOL     OW11950   1.673   4.805   0.167
 3684SOL    HW111951   1.621   4.836   0.087
 3684SOL    HW211952   1.620   4.737   0.217
 3685SOL     OW11953   6.353   6.406   6.130
 3685SOL    HW111954   6.304   6.490   6.106
 3685SOL    HW211955   6.446   6.428   6.160
 3686SOL     OW11956   6.404   6.539   2.951
 3686SOL    HW111957   6.307   6.514   2.945
 3686SOL    HW211958   6.413   6.620   3.009
 3687SOL     OW11959   3.679   5.754   5.350
 3687SOL    HW111960   3.704   5.822   5.419
 3687SOL    HW211961   3.616   5.687   5.390
 3688SOL     OW11962   6.958   3.163   6.460
 3688SOL    HW111963   0.039   3.169   6.435
 3688SOL    HW211964   6.909   3.107   6.394
 3689SOL     OW11965   1.920   0.903   0.011
 3689SOL    HW111966   1.929   0.815   0.058
 3689SOL    HW211967   1.862   0.964   0.065
 3690SOL     OW11968   4.532   6.494   6.864
 3690SOL    HW111969   4.549   6.441   6.781
 3690SOL    HW211970   4.604   6.476   6.931
 3691SOL     OW11971   2.975   2.562   0.170
 3691SOL    HW111972   3.063   2.599   0.140
 3691SOL    HW211973   2.961   2.585   0.267
 3692SOL     OW11974   0.621   5.869   5.287
 3692SOL    HW111975   0.669   5.878   5.200
 3692SOL    HW211976   0.543   5.931   5.290
 3693SOL     OW11977   1.977   2.944   2.961
 3693SOL    HW111978   1.991   2.954   3.059
 3693SOL    HW211979   1.879   2.944   2.941
 3694SOL     OW11980   1.559   5.413   2.712
 3694SOL    HW111981   1.543   5.336   2.773
 3694SOL    HW211982   1.537   5.498   2.760
 3695SOL     OW11983   6.331   2.672   2.189
 3695SOL    HW111984   6.405   2.693   2.125
 3695SOL    HW211985   6.285   2.589   2.160
 3696SOL     OW11986   3.064   5.806   5.054
 3696SOL    HW111987   2.968   5.822   5.077
 3696SOL    HW211988   3.085   5.854   4.968
 3697SOL     OW11989   0.296   6.197   3.510
 3697SOL    HW111990   0.318   6.189   3.607
 3697SOL    HW211991   0.319   6.289   3.478
 3698SOL     OW11992   2.299   6.892   4.999
 3698SOL    HW111993   2.350   6.976   5.018
 3698SOL    HW211994   2.362   6.818   4.979
 3699SOL     OW11995   0.383   3.351   3.439
 3699SOL    HW111996   0.300   3.354   3.383
 3699SOL    HW211997   0.463   3.369   3.382
 3700SOL     OW11998   0.082   0.521   4.433
 3700SOL    HW111999   0.134   0.607   4.441
 3700SOL    HW212000   0.061   0.487   4.525
 3701SOL     OW12001   1.005   0.550   3.787
 3701SOL    HW112002   0.935   0.615   3.819
 3701SOL    HW212003   0.993   0.534   3.689
 3702SOL     OW12004   5.903   6.383   2.488
 3702SOL    HW112005   5.901   6.332   2.574
 3702SOL    HW212006   5.848   6.466   2.496
 3703SOL     OW12007   4.170   2.103   6.470
 3703SOL    HW112008   4.207   2.014   6.447
 3703SOL    HW212009   4.105   2.132   6.399
 3704SOL     OW12010   3.617   1.411   1.024
 3704SOL    HW112011   3.711   1.400   0.992
 3704SOL    HW212012   3.554   1.411   0.946
 3705SOL     OW12013   5.116   5.683   3.659
 3705SOL    HW112014   5.029   5.695   3.708
 3705SOL    HW212015   5.169   5.768   3.664
 3706SOL     OW12016   1.517   3.525   5.190
 3706SOL    HW112017   1.439   3.542   5.249
 3706SOL    HW212018   1.601   3.551   5.238
 3707SOL     OW12019   5.778   3.963   5.556
 3707SOL    HW112020   5.743   3.980   5.648
 3707SOL    HW212021   5.701   3.947   5.494
 3708SOL     OW12022   6.710   1.050   6.541
 3708SOL    HW112023   6.672   1.142   6.554
 3708SOL    HW212024   6.803   1.058   6.504
 3709SOL     OW12025   3.658   0.706   0.879
 3709SOL    HW112026   3.625   0.741   0.967
 3709SOL    HW212027   3.745   0.749   0.856
 3710SOL     OW12028   0.028   5.536   6.935
 3710SOL    HW112029   0.048   5.485   6.851
 3710SOL    HW212030   0.096   5.511   7.005
 3711SOL     OW12031   0.005   6.557   2.249
 3711SOL    HW112032   0.041   6.528   2.160
 3711SOL    HW212033   0.075   6.544   2.319
 3712SOL     OW12034   6.894   6.475   6.904
 3712SOL    HW112035   6.833   6.518   6.838
 3712SOL    HW212036   6.978   6.528   6.911
 3713SOL     OW12037   1.631   5.990   4.408
 3713SOL    HW112038   1.605   6.078   4.449
 3713SOL    HW212039   1.641   6.002   4.309
 3714SOL     OW12040   4.673   5.117   4.974
 3714SOL    HW112041   4.771   5.097   4.967
 3714SOL    HW212042   4.649   5.187   4.907
 3715SOL     OW12043   5.985   3.921   2.988
 3715SOL    HW112044   6.030   4.003   2.954
 3715SOL    HW212045   5.977   3.854   2.914
 3716SOL     OW12046   6.023   6.492   4.920
 3716SOL    HW112047   5.944   6.550   4.899
 3716SOL    HW212048   6.098   6.516   4.860
 3717SOL     OW12049   5.397   5.486   5.908
 3717SOL    HW112050   5.444   5.562   5.952
 3717SOL    HW212051   5.349   5.518   5.827
 3718SOL     OW12052   2.190   0.633   6.978
 3718SOL    HW112053   2.139   0.643   0.048
 3718SOL    HW212054   2.187   0.538   6.948
 3719SOL     OW12055   5.266   4.495   0.729
 3719SOL    HW112056   5.366   4.491   0.723
 3719SOL    HW212057   5.228   4.507   0.637
 3720SOL     OW12058   6.509   1.860   5.460
 3720SOL    HW112059   6.425   1.809   5.443
 3720SOL    HW212060   6.588   1.798   5.450
 3721SOL     OW12061   5.547   4.585   1.073
 3721SOL    HW112062   5.485   4.623   1.006
 3721SOL    HW212063   5.497   4.522   1.133
 3722SOL     OW12064   6.448   6.605   1.513
 3722SOL    HW112065   6.366   6.634   1.562
 3722SOL    HW212066   6.505   6.548   1.572
 3723SOL     OW12067   6.279   6.112   1.959
 3723SOL    HW112068   6.301   6.203   1.924
 3723SOL    HW212069   6.246   6.119   2.053
 3724SOL     OW12070   1.685   5.198   6.261
 3724SOL    HW112071   1.762   5.142   6.227
 3724SOL    HW212072   1.615   5.202   6.190
 3725SOL     OW12073   5.794   5.357   0.722
 3725SOL    HW112074   5.811   5.287   0.653
 3725SOL    HW212075   5.711   5.408   0.698
 3726SOL     OW12076   6.608   5.655   0.485
 3726SOL    HW112077   6.607   5.643   0.386
 3726SOL    HW212078   6.514   5.655   0.520
 3727SOL     OW12079   6.677   1.858   5.887
 3727SOL    HW112080   6.603   1.924   5.879
 3727SOL    HW212081   6.706   1.829   5.796
 3728SOL     OW12082   1.090   4.330   0.203
 3728SOL    HW112083   1.011   4.270   0.188
 3728SOL    HW212084   1.066   4.423   0.175
 3729SOL     OW12085   1.086   2.047   3.551
 3729SOL    HW112086   1.185   2.035   3.541
 3729SOL    HW212087   1.039   1.991   3.483
 3730SOL     OW12088   2.382   5.322   6.471
 3730SOL    HW112089   2.468   5.275   6.447
 3730SOL    HW212090   2.394   5.421   6.461
 3731SOL     OW12091   5.017   0.347   1.049
 3731SOL    HW112092   5.107   0.351   1.004
 3731SOL    HW212093   5.007   0.426   1.109
 3732SOL     OW12094   1.889   2.197   6.243
 3732SOL    HW112095   1.903   2.174   6.146
 3732SOL    HW212096   1.931   2.285   6.263
 3733SOL     OW12097   1.537   3.817   1.550
 3733SOL    HW112098   1.597   3.883   1.594
 3733SOL    HW212099   1.576   3.725   1.560
 3734SOL     OW12100   4.787   1.180   2.105
 3734SOL    HW112101   4.724   1.237   2.159
 3734SOL    HW212102   4.849   1.131   2.166
 3735SOL     OW12103   2.141   0.639   3.592
 3735SOL    HW112104   2.096   0.706   3.651
 3735SOL    HW212105   2.204   0.584   3.646
 3736SOL     OW12106   6.388   2.559   0.607
 3736SOL    HW112107   6.424   2.605   0.526
 3736SOL    HW212108   6.343   2.474   0.580
 3737SOL     OW12109   4.743   0.658   3.614
 3737SOL    HW112110   4.742   0.575   3.670
 3737SOL    HW212111   4.652   0.674   3.577
 3738SOL     OW12112   6.862   5.622   2.204
 3738SOL    HW112113   6.907   5.605   2.117
 3738SOL    HW212114   6.928   5.613   2.279
 3739SOL     OW12115   2.488   4.815   1.657
 3739SOL    HW112116   2.577   4.801   1.614
 3739SOL    HW212117   2.451   4.727   1.686
 3740SOL     OW12118   5.596   6.858   0.525
 3740SOL    HW112119   5.588   6.916   0.606
 3740SOL    HW212120   5.680   6.882   0.476
 3741SOL     OW12121   4.695   3.254   1.313
 3741SOL    HW112122   4.680   3.292   1.222
 3741SOL    HW212123   4.631   3.296   1.377
 3742SOL     OW12124   2.626   1.754   6.265
 3742SOL    HW112125   2.713   1.792   6.234
 3742SOL    HW212126   2.640   1.703   6.350
 3743SOL     OW12127   5.306   3.627   1.065
 3743SOL    HW112128   5.357   3.558   1.015
 3743SOL    HW212129   5.235   3.666   1.006
 3744SOL     OW12130   0.746   6.163   2.702
 3744SOL    HW112131   0.728   6.207   2.614
 3744SOL    HW212132   0.843   6.144   2.711
 3745SOL     OW12133   3.947   5.125   2.135
 3745SOL    HW112134   3.931   5.027   2.136
 3745SOL    HW212135   3.934   5.161   2.043
 3746SOL     OW12136   5.107   1.628   2.788
 3746SOL    HW112137   5.169   1.584   2.853
 3746SOL    HW212138   5.021   1.578   2.784
 3747SOL     OW12139   2.753   0.239   5.472
 3747SOL    HW112140   2.689   0.198   5.537
 3747SOL    HW212141   2.788   0.325   5.509
 3748SOL     OW12142   5.493   0.305   1.753
 3748SOL    HW112143   5.405   0.276   1.789
 3748SOL    HW212144   5.527   0.382   1.807
 3749SOL     OW12145   1.787   6.509   3.997
 3749SOL    HW112146   1.709   6.565   4.025
 3749SOL    HW212147   1.872   6.553   4.026
 3750SOL     OW12148   1.137   3.868   0.591
 3750SOL    HW112149   1.127   3.925   0.509
 3750SOL    HW212150   1.229   3.880   0.629
 3751SOL     OW12151   6.732   3.651   2.263
 3751SOL    HW112152   6.772   3.562   2.242
 3751SOL    HW212153   6.642   3.658   2.220
 3752SOL     OW12154   5.180   0.416   6.866
 3752SOL    HW112155   5.136   0.376   6.786
 3752SOL    HW212156   5.279   0.418   6.852
 3753SOL     OW12157   6.096   0.680   5.600
 3753SOL    HW112158   6.181   0.667   5.650
 3753SOL    HW212159   6.022   0.703   5.664
 3754SOL     OW12160   2.265   0.358   1.617
 3754SOL    HW112161   2.319   0.331   1.538
 3754SOL    HW212162   2.168   0.345   1.596
 3755SOL     OW12163   4.524   5.599   5.045
 3755SOL    HW112164   4.460   5.540   5.093
 3755SOL    HW212165   4.503   5.695   5.064
 3756SOL     OW12166   2.682   5.359   6.550
 3756SOL    HW112167   2.640   5.447   6.529
 3756SOL    HW212168   2.731   5.366   6.637
 3757SOL     OW12169   5.938   5.114   2.032
 3757SOL    HW112170   5.976   5.192   1.981
 3757SOL    HW212171   5.999   5.036   2.022
 3758SOL     OW12172   2.180   1.329   4.339
 3758SOL    HW112173   2.098   1.385   4.328
 3758SOL    HW212174   2.170   1.269   4.418
 3759SOL     OW12175   3.989   0.279   5.583
 3759SOL    HW112176   4.057   0.226   5.532
 3759SOL    HW212177   3.904   0.284   5.531
 3760SOL     OW12178   0.765   1.650   4.070
 3760SOL    HW112179   0.814   1.565   4.048
 3760SOL    HW212180   0.822   1.728   4.044
 3761SOL     OW12181   6.410   0.749   5.400
 3761SOL    HW112182   6.326   0.802   5.385
 3761SOL    HW212183   6.487   0.812   5.411
 3762SOL     OW12184   1.708   4.261   1.290
 3762SOL    HW112185   1.776   4.332   1.273
 3762SOL    HW212186   1.616   4.299   1.278
 3763SOL     OW12187   6.741   3.718   0.208
 3763SOL    HW112188   6.816   3.654   0.192
 3763SOL    HW212189   6.713   3.759   0.121
 3764SOL     OW12190   1.651   0.047   2.413
 3764SOL    HW112191   1.727   0.022   2.353
 3764SOL    HW212192   1.651   7.003   2.494
 3765SOL     OW12193   5.878   1.550   1.107
 3765SOL    HW112194   5.950   1.548   1.176
 3765SOL    HW212195   5.818   1.629   1.123
 3766SOL     OW12196   2.011   1.835   4.292
 3766SOL    HW112197   1.944   1.839   4.367
 3766SOL    HW212198   1.997   1.913   4.231
 3767SOL     OW12199   2.827   4.398   6.311
 3767SOL    HW112200   2.796   4.309   6.346
 3767SOL    HW212201   2.840   4.460   6.388
 3768SOL     OW12202   0.515   6.965   4.866
 3768SOL    HW112203   0.603   6.961   4.915
 3768SOL    HW212204   0.493   0.045   4.845
 3769SOL     OW12205   6.218   5.286   5.190
 3769SOL    HW112206   6.222   5.332   5.278
 3769SOL    HW212207   6.236   5.352   5.117
 3770SOL     OW12208   1.359   0.786   6.875
 3770SOL    HW112209   1.443   0.821   6.833
 3770SOL    HW212210   1.333   0.845   6.951
 3771SOL     OW12211   5.538   4.055   6.527
 3771SOL    HW112212   5.458   4.105   6.560
 3771SOL    HW212213   5.517   3.958   6.521
 3772SOL     OW12214   0.754   0.402   0.434
 3772SOL    HW112215   0.832   0.432   0.378
 3772SOL    HW212216   0.774   0.312   0.472
 3773SOL     OW12217   6.493   3.163   5.157
 3773SOL    HW112218   6.441   3.095   5.106
 3773SOL    HW212219   6.520   3.125   5.246
 3774SOL     OW12220   5.589   5.668   1.617
 3774SOL    HW112221   5.674   5.714   1.642
 3774SOL    HW212222   5.605   5.569   1.608
 3775SOL     OW12223   4.116   5.433   3.466
 3775SOL    HW112224   4.200   5.426   3.412
 3775SOL    HW212225   4.052   5.495   3.421
 3776SOL     OW12226   3.707   2.160   6.568
 3776SOL    HW112227   3.740   2.221   6.496
 3776SOL    HW212228   3.607   2.164   6.571
 3777SOL     OW12229   2.489   5.259   4.108
 3777SOL    HW112230   2.477   5.166   4.143
 3777SOL    HW212231   2.432   5.322   4.161
 3778SOL     OW12232   2.303   5.881   3.559
 3778SOL    HW112233   2.247   5.855   3.480
 3778SOL    HW212234   2.350   5.800   3.594
 3779SOL     OW12235   0.456   5.411   0.945
 3779SOL    HW112236   0.359   5.404   0.922
 3779SOL    HW212237   0.468   5.392   1.042
 3780SOL     OW12238   6.419   3.944   4.559
 3780SOL    HW112239   6.378   3.934   4.468
 3780SOL    HW212240   6.354   3.915   4.629
 3781SOL     OW12241   0.371   0.217   3.828
 3781SOL    HW112242   0.326   0.258   3.907
 3781SOL    HW212243   0.363   0.117   3.833
 3782SOL     OW12244   3.416   6.978   2.904
 3782SOL    HW112245   3.471   0.045   2.890
 3782SOL    HW212246   3.400   6.933   2.816
 3783SOL     OW12247   6.267   5.408   4.052
 3783SOL    HW112248   6.222   5.494   4.076
 3783SOL    HW212249   6.209   5.331   4.077
 3784SOL     OW12250   5.295   3.068   2.603
 3784SOL    HW112251   5.277   3.156   2.647
 3784SOL    HW212252   5.394   3.055   2.594
 3785SOL     OW12253   1.591   3.069   4.590
 3785SOL    HW112254   1.653   3.085   4.667
 3785SOL    HW212255   1.514   3.132   4.596
 3786SOL     OW12256   2.115   4.001   3.145
 3786SOL    HW112257   2.132   3.934   3.073
 3786SOL    HW212258   2.163   4.086   3.123
 3787SOL     OW12259   5.550   0.678   2.429
 3787SOL    HW112260   5.630   0.654   2.484
 3787SOL    HW212261   5.565   0.652   2.334
 3788SOL     OW12262   6.583   4.070   5.001
 3788SOL    HW112263   6.564   4.116   5.088
 3788SOL    HW212264   6.614   4.137   4.934
 3789SOL     OW12265   0.376   3.622   3.514
 3789SOL    HW112266   0.338   3.694   3.456
 3789SOL    HW212267   0.372   3.535   3.466
 3790SOL     OW12268   0.823   4.593   6.057
 3790SOL    HW112269   0.851   4.524   5.990
 3790SOL    HW212270   0.904   4.644   6.086
 3791SOL     OW12271   4.887   1.921   6.387
 3791SOL    HW112272   4.821   1.972   6.443
 3791SOL    HW212273   4.856   1.826   6.379
 3792SOL     OW12274   1.519   1.770   4.254
 3792SOL    HW112275   1.520   1.842   4.323
 3792SOL    HW212276   1.487   1.807   4.167
 3793SOL     OW12277   4.584   6.461   1.573
 3793SOL    HW112278   4.581   6.506   1.663
 3793SOL    HW212279   4.593   6.530   1.502
 3794SOL     OW12280   2.872   2.966   1.381
 3794SOL    HW112281   2.865   2.867   1.369
 3794SOL    HW212282   2.780   3.006   1.376
 3795SOL     OW12283   4.309   5.640   1.299
 3795SOL    HW112284   4.352   5.555   1.332
 3795SOL    HW212285   4.273   5.691   1.377
 3796SOL     OW12286   4.266   1.938   2.073
 3796SOL    HW112287   4.282   2.020   2.128
 3796SOL    HW212288   4.177   1.899   2.097
 3797SOL     OW12289   0.666   3.600   3.537
 3797SOL    HW112290   0.744   3.542   3.513
 3797SOL    HW212291   0.603   3.603   3.460
 3798SOL     OW12292   2.675   6.419   2.481
 3798SOL    HW112293   2.734   6.475   2.539
 3798SOL    HW212294   2.670   6.326   2.519
 3799SOL     OW12295   6.757   2.929   3.718
 3799SOL    HW112296   6.822   3.003   3.700
 3799SOL    HW212297   6.799   2.841   3.694
 3800SOL     OW12298   5.401   2.024   3.398
 3800SOL    HW112299   5.363   1.938   3.363
 3800SOL    HW212300   5.447   2.007   3.485
 3801SOL     OW12301   5.920   6.742   2.260
 3801SOL    HW112302   5.938   6.650   2.294
 3801SOL    HW212303   5.842   6.740   2.197
 3802SOL     OW12304   0.834   1.518   2.080
 3802SOL    HW112305   0.870   1.430   2.110
 3802SOL    HW212306   0.893   1.556   2.009
 3803SOL     OW12307   3.883   3.709   3.049
 3803SOL    HW112308   3.946   3.764   3.104
 3803SOL    HW212309   3.789   3.725   3.079
 3804SOL     OW12310   4.290   1.521   3.742
 3804SOL    HW112311   4.286   1.556   3.649
 3804SOL    HW212312   4.335   1.431   3.742
 3805SOL     OW12313   1.631   2.611   1.620
 3805SOL    HW112314   1.695   2.548   1.576
 3805SOL    HW212315   1.553   2.559   1.656
 3806SOL     OW12316   3.597   3.368   5.218
 3806SOL    HW112317   3.577   3.276   5.253
 3806SOL    HW212318   3.545   3.384   5.135
 3807SOL     OW12319   2.323   5.123   3.295
 3807SOL    HW112320   2.306   5.222   3.289
 3807SOL    HW212321   2.246   5.080   3.342
 3808SOL     OW12322   4.233   1.017   0.088
 3808SOL    HW112323   4.293   1.096   0.092
 3808SOL    HW212324   4.173   1.026   0.008
 3809SOL     OW12325   5.603   2.788   1.298
 3809SOL    HW112326   5.635   2.872   1.253
 3809SOL    HW212327   5.666   2.714   1.278
 3810SOL     OW12328   6.091   2.560   3.643
 3810SOL    HW112329   6.039   2.636   3.681
 3810SOL    HW212330   6.141   2.514   3.717
 3811SOL     OW12331   0.209   6.540   4.798
 3811SOL    HW112332   0.162   6.629   4.802
 3811SOL    HW212333   0.299   6.548   4.841
 3812SOL     OW12334   3.503   4.424   5.548
 3812SOL    HW112335   3.486   4.496   5.616
 3812SOL    HW212336   3.444   4.346   5.566
 3813SOL     OW12337   5.961   3.731   0.284
 3813SOL    HW112338   5.869   3.763   0.261
 3813SOL    HW212339   5.954   3.660   0.355
 3814SOL     OW12340   6.645   0.016   4.827
 3814SOL    HW112341   6.721   0.016   4.892
 3814SOL    HW212342   6.677   7.003   4.737
 3815SOL     OW12343   4.066   2.855   0.786
 3815SOL    HW112344   3.980   2.804   0.784
 3815SOL    HW212345   4.056   2.939   0.733
 3816SOL     OW12346   1.172   4.951   6.246
 3816SOL    HW112347   1.135   4.974   6.336
 3816SOL    HW212348   1.266   4.985   6.240
 3817SOL     OW12349   4.966   3.660   2.282
 3817SOL    HW112350   4.926   3.749   2.257
 3817SOL    HW212351   4.936   3.635   2.374
 3818SOL     OW12352   6.403   1.068   0.147
 3818SOL    HW112353   6.344   1.119   0.084
 3818SOL    HW212354   6.477   1.127   0.179
 3819SOL     OW12355   6.055   4.726   2.609
 3819SOL    HW112356   6.150   4.700   2.594
 3819SOL    HW212357   5.996   4.645   2.606
 3820SOL     OW12358   5.491   0.062   4.084
 3820SOL    HW112359   5.571   0.067   4.023
 3820SOL    HW212360   5.456   0.155   4.099
 3821SOL     OW12361   1.303   0.780   1.704
 3821SOL    HW112362   1.352   0.695   1.687
 3821SOL    HW212363   1.223   0.762   1.761
 3822SOL     OW12364   1.972   6.492   0.355
 3822SOL    HW112365   1.908   6.489   0.278
 3822SOL    HW212366   1.921   6.488   0.441
 3823SOL     OW12367   3.738   3.630   6.591
 3823SOL    HW112368   3.690   3.717   6.595
 3823SOL    HW212369   3.738   3.587   6.682
 3824SOL     OW12370   0.688   2.545   0.625
 3824SOL    HW112371   0.689   2.600   0.708
 3824SOL    HW212372   0.775   2.557   0.576
 3825SOL     OW12373   0.657   4.791   6.817
 3825SOL    HW112374   0.677   4.764   6.911
 3825SOL    HW212375   0.645   4.709   6.761
 3826SOL     OW12376   0.422   3.554   1.237
 3826SOL    HW112377   0.463   3.465   1.220
 3826SOL    HW212378   0.482   3.607   1.297
 3827SOL     OW12379   1.234   0.787   1.320
 3827SOL    HW112380   1.161   0.799   1.387
 3827SOL    HW212381   1.199   0.804   1.228
 3828SOL     OW12382   3.444   3.584   3.543
 3828SOL    HW112383   3.508   3.640   3.595
 3828SOL    HW212384   3.473   3.488   3.546
 3829SOL     OW12385   0.480   4.404   2.115
 3829SOL    HW112386   0.406   4.415   2.050
 3829SOL    HW212387   0.526   4.316   2.099
 3830SOL     OW12388   0.607   1.443   5.528
 3830SOL    HW112389   0.668   1.474   5.456
 3830SOL    HW212390   0.584   1.347   5.513
 3831SOL     OW12391   4.636   2.324   2.278
 3831SOL    HW112392   4.629   2.421   2.259
 3831SOL    HW212393   4.601   2.272   2.200
 3832SOL     OW12394   6.932   0.423   2.696
 3832SOL    HW112395   6.936   0.342   2.755
 3832SOL    HW212396   6.935   0.505   2.752
 3833SOL     OW12397   0.282   5.704   6.541
 3833SOL    HW112398   0.187   5.737   6.534
 3833SOL    HW212399   0.281   5.604   6.544
 3834SOL     OW12400   3.472   4.178   0.724
 3834SOL    HW112401   3.537   4.246   0.692
 3834SOL    HW212402   3.391   4.179   0.665
 3835SOL     OW12403   4.092   6.029   4.846
 3835SOL    HW112404   4.123   5.942   4.883
 3835SOL    HW212405   4.167   6.095   4.848
 3836SOL     OW12406   6.868   5.235   5.778
 3836SOL    HW112407   6.848   5.244   5.681
 3836SOL    HW212408   6.939   5.301   5.804
 3837SOL     OW12409   4.481   4.462   5.734
 3837SOL    HW112410   4.499   4.364   5.743
 3837SOL    HW212411   4.549   4.513   5.787
 3838SOL     OW12412   0.682   2.719   3.993
 3838SOL    HW112413   0.682   2.629   3.949
 3838SOL    HW212414   0.734   2.784   3.938
 3839SOL     OW12415   5.584   1.582   2.752
 3839SOL    HW112416   5.584   1.487   2.718
 3839SOL    HW212417   5.662   1.595   2.813
 3840SOL     OW12418   3.136   0.983   6.213
 3840SOL    HW112419   3.165   1.069   6.172
 3840SOL    HW212420   3.042   0.991   6.246
 3841SOL     OW12421   0.273   3.018   4.470
 3841SOL    HW112422   0.214   2.956   4.418
 3841SOL    HW212423   0.367   2.984   4.468
 3842SOL     OW12424   1.545   2.526   2.704
 3842SOL    HW112425   1.527   2.612   2.751
 3842SOL    HW212426   1.570   2.544   2.609
 3843SOL     OW12427   5.758   3.942   2.320
 3843SOL    HW112428   5.765   3.855   2.271
 3843SOL    HW212429   5.715   4.010   2.261
 3844SOL     OW12430   1.122   2.974   5.036
 3844SOL    HW112431   1.185   3.030   4.981
 3844SOL    HW212432   1.133   2.998   5.133
 3845SOL     OW12433   3.239   4.246   5.854
 3845SOL    HW112434   3.266   4.202   5.940
 3845SOL    HW212435   3.140   4.239   5.842
 3846SOL     OW12436   0.652   4.777   3.567
 3846SOL    HW112437   0.698   4.777   3.656
 3846SOL    HW212438   0.698   4.841   3.506
 3847SOL     OW12439   5.529   3.189   4.672
 3847SOL    HW112440   5.580   3.202   4.757
 3847SOL    HW212441   5.521   3.277   4.624
 3848SOL     OW12442   4.601   4.789   2.854
 3848SOL    HW112443   4.664   4.825   2.785
 3848SOL    HW212444   4.652   4.728   2.915
 3849SOL     OW12445   0.811   1.595   6.025
 3849SOL    HW112446   0.874   1.657   6.072
 3849SOL    HW212447   0.862   1.516   5.990
 3850SOL     OW12448   3.140   3.251   1.749
 3850SOL    HW112449   3.094   3.163   1.733
 3850SOL    HW212450   3.223   3.236   1.801
 3851SOL     OW12451   0.759   4.014   3.375
 3851SOL    HW112452   0.705   3.982   3.296
 3851SOL    HW212453   0.856   4.014   3.352
 3852SOL     OW12454   4.138   6.741   4.088
 3852SOL    HW112455   4.114   6.731   3.992
 3852SOL    HW212456   4.085   6.817   4.127
 3853SOL     OW12457   0.650   4.052   3.749
 3853SOL    HW112458   0.630   4.009   3.837
 3853SOL    HW212459   0.697   3.987   3.690
 3854SOL     OW12460   1.482   2.199   2.959
 3854SOL    HW112461   1.460   2.274   3.022
 3854SOL    HW212462   1.574   2.212   2.923
 3855SOL     OW12463   4.791   6.300   6.356
 3855SOL    HW112464   4.726   6.266   6.288
 3855SOL    HW212465   4.861   6.230   6.373
 3856SOL     OW12466   6.539   0.477   6.075
 3856SOL    HW112467   6.532   0.412   6.150
 3856SOL    HW212468   6.565   0.428   5.991
 3857SOL     OW12469   0.823   6.293   6.331
 3857SOL    HW112470   0.781   6.216   6.379
 3857SOL    HW212471   0.877   6.347   6.395
 3858SOL     OW12472   2.371   0.841   5.668
 3858SOL    HW112473   2.280   0.803   5.686
 3858SOL    HW212474   2.361   0.930   5.623
 3859SOL     OW12475   5.587   1.239   1.374
 3859SOL    HW112476   5.594   1.281   1.284
 3859SOL    HW212477   5.580   1.310   1.444
 3860SOL     OW12478   1.775   1.715   3.704
 3860SOL    HW112479   1.855   1.735   3.761
 3860SOL    HW212480   1.754   1.618   3.709
 3861SOL     OW12481   4.327   5.618   3.693
 3861SOL    HW112482   4.362   5.549   3.630
 3861SOL    HW212483   4.403   5.664   3.738
 3862SOL     OW12484   0.300   0.645   4.862
 3862SOL    HW112485   0.395   0.669   4.880
 3862SOL    HW212486   0.275   0.564   4.916
 3863SOL     OW12487   5.839   2.379   0.030
 3863SOL    HW112488   5.776   2.335   6.980
 3863SOL    HW212489   5.787   2.439   0.091
 3864SOL     OW12490   2.129   1.071   5.858
 3864SOL    HW112491   2.043   1.026   5.882
 3864SOL    HW212492   2.126   1.100   5.762
 3865SOL     OW12493   4.489   0.646   0.885
 3865SOL    HW112494   4.587   0.658   0.900
 3865SOL    HW212495   4.473   0.560   0.837
 3866SOL     OW12496   4.504   6.968   0.228
 3866SOL    HW112497   4.596   6.932   0.241
 3866SOL    HW212498   4.498   7.013   0.139
 3867SOL     OW12499   0.241   5.834   4.489
 3867SOL    HW112500   0.337   5.809   4.476
 3867SOL    HW212501   0.216   5.904   4.422
 3868SOL     OW12502   2.578   6.769   0.636
 3868SOL    HW112503   2.502   6.733   0.581
 3868SOL    HW212504   2.655   6.705   0.631
 3869SOL     OW12505   6.260   3.666   4.604
 3869SOL    HW112506   6.263   3.687   4.506
 3869SOL    HW212507   6.336   3.606   4.628
 3870SOL     OW12508   6.100   6.702   6.819
 3870SOL    HW112509   6.020   6.646   6.799
 3870SOL    HW212510   6.172   6.683   6.752
 3871SOL     OW12511   3.764   1.470   3.140
 3871SOL    HW112512   3.674   1.460   3.182
 3871SOL    HW212513   3.834   1.433   3.201
 3872SOL     OW12514   3.717   2.989   3.954
 3872SOL    HW112515   3.747   2.957   4.044
 3872SOL    HW212516   3.621   3.017   3.960
 3873SOL     OW12517   6.474   3.266   1.129
 3873SOL    HW112518   6.441   3.216   1.049
 3873SOL    HW212519   6.565   3.303   1.110
 3874SOL     OW12520   4.612   6.071   6.764
 3874SOL    HW112521   4.670   6.065   6.846
 3874SOL    HW212522   4.521   6.037   6.786
 3875SOL     OW12523   2.095   3.012   2.575
 3875SOL    HW112524   1.999   2.988   2.561
 3875SOL    HW212525   2.151   2.930   2.566
 3876SOL     OW12526   4.003   5.950   1.216
 3876SOL    HW112527   4.015   6.047   1.197
 3876SOL    HW212528   3.983   5.901   1.131
 3877SOL     OW12529   5.643   2.709   0.601
 3877SOL    HW112530   5.595   2.760   0.673
 3877SOL    HW212531   5.702   2.640   0.643
 3878SOL     OW12532   3.272   0.153   4.618
 3878SOL    HW112533   3.320   0.198   4.542
 3878SOL    HW212534   3.221   0.074   4.582
 3879SOL     OW12535   5.974   4.900   0.797
 3879SOL    HW112536   5.953   4.921   0.893
 3879SOL    HW212537   5.915   4.826   0.765
 3880SOL     OW12538   5.817   4.870   4.232
 3880SOL    HW112539   5.771   4.955   4.204
 3880SOL    HW212540   5.784   4.842   4.322
 3881SOL     OW12541   1.356   3.379   1.799
 3881SOL    HW112542   1.333   3.436   1.878
 3881SOL    HW212543   1.326   3.285   1.816
 3882SOL     OW12544   1.479   0.959   5.683
 3882SOL    HW112545   1.388   0.926   5.704
 3882SOL    HW212546   1.473   1.047   5.636
 3883SOL     OW12547   4.387   1.017   3.105
 3883SOL    HW112548   4.435   1.082   3.045
 3883SOL    HW212549   4.387   1.053   3.198
 3884SOL     OW12550   0.460   5.546   2.563
 3884SOL    HW112551   0.551   5.586   2.558
 3884SOL    HW212552   0.434   5.532   2.659
 3885SOL     OW12553   5.981   6.643   2.717
 3885SOL    HW112554   5.990   6.741   2.701
 3885SOL    HW212555   6.060   6.596   2.677
 3886SOL     OW12556   5.532   5.522   4.889
 3886SOL    HW112557   5.586   5.438   4.893
 3886SOL    HW212558   5.549   5.568   4.802
 3887SOL     OW12559   0.882   0.443   0.109
 3887SOL    HW112560   0.924   0.504   0.042
 3887SOL    HW212561   0.923   0.459   0.199
 3888SOL     OW12562   6.592   0.863   5.056
 3888SOL    HW112563   6.601   0.912   4.969
 3888SOL    HW212564   6.498   0.831   5.066
 3889SOL     OW12565   0.072   3.735   0.694
 3889SOL    HW112566   0.042   3.768   0.783
 3889SOL    HW212567   0.091   3.812   0.634
 3890SOL     OW12568   5.837   5.940   3.351
 3890SOL    HW112569   5.926   5.968   3.315
 3890SOL    HW212570   5.850   5.875   3.426
 3891SOL     OW12571   5.849   4.836   4.534
 3891SOL    HW112572   5.887   4.773   4.466
 3891SOL    HW212573   5.890   4.816   4.624
 3892SOL     OW12574   6.945   2.294   1.630
 3892SOL    HW112575   6.850   2.270   1.646
 3892SOL    HW212576   6.994   2.213   1.597
 3893SOL     OW12577   4.592   4.726   0.441
 3893SOL    HW112578   4.604   4.699   0.346
 3893SOL    HW212579   4.574   4.644   0.496
 3894SOL     OW12580   3.930   1.578   0.780
 3894SOL    HW112581   3.997   1.523   0.730
 3894SOL    HW212582   3.904   1.531   0.864
 3895SOL     OW12583   1.254   0.756   5.223
 3895SOL    HW112584   1.169   0.794   5.258
 3895SOL    HW212585   1.316   0.736   5.299
 3896SOL     OW12586   6.652   0.724   6.091
 3896SOL    HW112587   6.612   0.635   6.066
 3896SOL    HW212588   6.644   0.738   6.189
 3897SOL     OW12589   3.175   5.373   2.693
 3897SOL    HW112590   3.250   5.315   2.659
 3897SOL    HW212591   3.116   5.320   2.753
 3898SOL     OW12592   2.831   3.871   5.130
 3898SOL    HW112593   2.896   3.919   5.072
 3898SOL    HW212594   2.778   3.807   5.074
 3899SOL     OW12595   5.654   0.276   4.859
 3899SOL    HW112596   5.643   0.364   4.813
 3899SOL    HW212597   5.564   0.239   4.882
 3900SOL     OW12598   4.928   3.528   4.039
 3900SOL    HW112599   4.947   3.603   3.975
 3900SOL    HW212600   4.881   3.454   3.990
 3901SOL     OW12601   2.873   0.419   6.142
 3901SOL    HW112602   2.879   0.323   6.114
 3901SOL    HW212603   2.869   0.425   6.242
 3902SOL     OW12604   5.188   3.847   1.853
 3902SOL    HW112605   5.230   3.802   1.775
 3902SOL    HW212606   5.200   3.946   1.845
 3903SOL     OW12607   3.803   6.266   6.825
 3903SOL    HW112608   3.861   6.253   6.906
 3903SOL    HW212609   3.717   6.217   6.839
 3904SOL     OW12610   2.387   1.089   4.898
 3904SOL    HW112611   2.418   1.108   4.991
 3904SOL    HW212612   2.295   1.125   4.885
 3905SOL     OW12613   6.962   6.729   6.153
 3905SOL    HW112614   6.991   6.684   6.069
 3905SOL    HW212615   6.862   6.730   6.158
 3906SOL     OW12616   4.019   5.044   5.668
 3906SOL    HW112617   4.043   4.953   5.633
 3906SOL    HW212618   4.069   5.062   5.752
 3907SOL     OW12619   5.401   0.369   5.146
 3907SOL    HW112620   5.321   0.323   5.107
 3907SOL    HW212621   5.471   0.301   5.167
 3908SOL     OW12622   1.198   1.176   0.561
 3908SOL    HW112623   1.214   1.215   0.470
 3908SOL    HW212624   1.265   1.213   0.625
 3909SOL     OW12625   0.085   5.372   5.268
 3909SOL    HW112626   0.044   5.283   5.244
 3909SOL    HW212627   0.164   5.389   5.210
 3910SOL     OW12628   3.415   3.834   2.026
 3910SOL    HW112629   3.348   3.795   1.963
 3910SOL    HW212630   3.482   3.764   2.052
 3911SOL     OW12631   4.524   1.020   0.099
 3911SOL    HW112632   4.561   0.946   0.156
 3911SOL    HW212633   4.576   1.104   0.116
 3912SOL     OW12634   3.901   0.074   6.040
 3912SOL    HW112635   3.885   0.081   5.942
 3912SOL    HW212636   3.869   7.000   6.073
 3913SOL     OW12637   2.486   6.628   5.816
 3913SOL    HW112638   2.475   6.630   5.717
 3913SOL    HW212639   2.447   6.543   5.851
 3914SOL     OW12640   4.536   0.981   0.851
 3914SOL    HW112641   4.575   1.004   0.940
 3914SOL    HW212642   4.540   0.882   0.837
 3915SOL     OW12643   3.459   5.807   2.240
 3915SOL    HW112644   3.529   5.872   2.271
 3915SOL    HW212645   3.413   5.768   2.319
 3916SOL     OW12646   1.381   5.763   3.615
 3916SOL    HW112647   1.425   5.703   3.682
 3916SOL    HW212648   1.410   5.857   3.630
 3917SOL     OW12649   1.205   4.931   0.027
 3917SOL    HW112650   1.205   4.842   0.074
 3917SOL    HW212651   1.110   4.961   0.014
 3918SOL     OW12652   4.795   0.271   2.374
 3918SOL    HW112653   4.817   0.209   2.450
 3918SOL    HW212654   4.757   0.356   2.410
 3919SOL     OW12655   2.574   5.706   6.544
 3919SOL    HW112656   2.525   5.682   6.461
 3919SOL    HW212657   2.664   5.742   6.521
 3920SOL     OW12658   2.374   2.897   0.044
 3920SOL    HW112659   2.333   2.987   0.047
 3920SOL    HW212660   2.380   2.866   6.964
 3921SOL     OW12661   6.882   3.109   1.064
 3921SOL    HW112662   6.896   3.189   1.006
 3921SOL    HW212663   6.829   3.135   1.145
 3922SOL     OW12664   6.111   4.426   1.023
 3922SOL    HW112665   6.122   4.369   0.942
 3922SOL    HW212666   6.036   4.391   1.079
 3923SOL     OW12667   6.718   1.874   0.066
 3923SOL    HW112668   6.694   1.809   7.009
 3923SOL    HW212669   6.765   1.826   0.140
 3924SOL     OW12670   0.169   5.109   3.120
 3924SOL    HW112671   0.107   5.150   3.053
 3924SOL    HW212672   0.159   5.009   3.116
 3925SOL     OW12673   3.985   4.584   1.134
 3925SOL    HW112674   3.937   4.499   1.114
 3925SOL    HW212675   4.066   4.565   1.190
 3926SOL     OW12676   6.771   5.518   2.822
 3926SOL    HW112677   6.825   5.491   2.901
 3926SOL    HW212678   6.731   5.609   2.837
 3927SOL     OW12679   6.682   3.620   3.555
 3927SOL    HW112680   6.640   3.619   3.647
 3927SOL    HW212681   6.744   3.698   3.548
 3928SOL     OW12682   2.663   5.332   5.647
 3928SOL    HW112683   2.615   5.392   5.711
 3928SOL    HW212684   2.757   5.364   5.635
 3929SOL     OW12685   0.667   1.966   5.741
 3929SOL    HW112686   0.568   1.951   5.741
 3929SOL    HW212687   0.706   1.929   5.825
 3930SOL     OW12688   2.219   1.288   4.078
 3930SOL    HW112689   2.224   1.381   4.043
 3930SOL    HW212690   2.194   1.289   4.175
 3931SOL     OW12691   1.621   1.977   2.698
 3931SOL    HW112692   1.576   1.922   2.768
 3931SOL    HW212693   1.645   2.066   2.736
 3932SOL     OW12694   1.800   4.076   2.585
 3932SOL    HW112695   1.870   4.007   2.603
 3932SOL    HW212696   1.737   4.080   2.663
 3933SOL     OW12697   2.296   0.011   6.779
 3933SOL    HW112698   2.232   0.068   6.728
 3933SOL    HW212699   2.275   0.017   6.877
 3934SOL     OW12700   6.763   0.807   1.179
 3934SOL    HW112701   6.861   0.806   1.194
 3934SOL    HW212702   6.737   0.891   1.130
 3935SOL     OW12703   1.928   6.981   6.832
 3935SOL    HW112704   1.871   0.029   6.779
 3935SOL    HW212705   1.988   0.018   6.893
 3936SOL     OW12706   0.185   5.271   5.524
 3936SOL    HW112707   0.179   5.314   5.434
 3936SOL    HW212708   0.099   5.283   5.572
 3937SOL     OW12709   0.141   0.496   2.026
 3937SOL    HW112710   0.219   0.535   1.978
 3937SOL    HW212711   0.174   0.437   2.101
 3938SOL     OW12712   6.837   1.847   3.799
 3938SOL    HW112713   6.793   1.918   3.744
 3938SOL    HW212714   6.778   1.766   3.803
 3939SOL     OW12715   3.036   1.803   1.832
 3939SOL    HW112716   3.124   1.756   1.819
 3939SOL    HW212717   3.053   1.900   1.853
 3940SOL     OW12718   4.436   5.454   2.150
 3940SOL    HW112719   4.386   5.476   2.234
 3940SOL    HW212720   4.394   5.501   2.072
 3941SOL     OW12721   5.115   1.185   6.151
 3941SOL    HW112722   5.200   1.234   6.171
 3941SOL    HW212723   5.107   1.106   6.212
 3942SOL     OW12724   6.989   6.985   6.035
 3942SOL    HW112725   0.028   0.003   6.112
 3942SOL    HW212726   7.011   6.889   6.018
 3943SOL     OW12727   1.269   3.926   3.049
 3943SOL    HW112728   1.243   4.015   3.087
 3943SOL    HW212729   1.333   3.881   3.111
 3944SOL     OW12730   5.948   3.557   5.892
 3944SOL    HW112731   5.983   3.605   5.972
 3944SOL    HW212732   5.861   3.513   5.915
 3945SOL     OW12733   0.716   2.553   1.872
 3945SOL    HW112734   0.743   2.649   1.876
 3945SOL    HW212735   0.735   2.510   1.960
 3946SOL     OW12736   5.800   5.367   5.913
 3946SOL    HW112737   5.715   5.353   5.861
 3946SOL    HW212738   5.798   5.310   5.995
 3947SOL     OW12739   6.300   5.110   1.509
 3947SOL    HW112740   6.258   5.201   1.516
 3947SOL    HW212741   6.269   5.065   1.426
 3948SOL     OW12742   0.658   5.347   1.495
 3948SOL    HW112743   0.669   5.270   1.432
 3948SOL    HW212744   0.722   5.420   1.469
 3949SOL     OW12745   5.764   0.601   3.028
 3949SOL    HW112746   5.814   0.671   3.078
 3949SOL    HW212747   5.739   0.636   2.938
 3950SOL     OW12748   2.951   4.290   1.659
 3950SOL    HW112749   3.048   4.269   1.673
 3950SOL    HW212750   2.921   4.354   1.731
 3951SOL     OW12751   0.201   0.110   0.935
 3951SOL    HW112752   0.218   0.192   0.990
 3951SOL    HW212753   0.228   0.029   0.987
 3952SOL     OW12754   6.629   3.976   3.419
 3952SOL    HW112755   6.690   3.941   3.490
 3952SOL    HW212756   6.539   3.933   3.429
 3953SOL     OW12757   3.631   4.537   0.861
 3953SOL    HW112758   3.596   4.489   0.942
 3953SOL    HW212759   3.696   4.608   0.890
 3954SOL     OW12760   5.620   5.672   5.103
 3954SOL    HW112761   5.571   5.709   5.183
 3954SOL    HW212762   5.562   5.605   5.057
 3955SOL     OW12763   3.452   5.934   5.932
 3955SOL    HW112764   3.464   6.013   5.872
 3955SOL    HW212765   3.354   5.919   5.947
 3956SOL     OW12766   0.342   1.223   2.828
 3956SOL    HW112767   0.394   1.306   2.845
 3956SOL    HW212768   0.405   1.145   2.825
 3957SOL     OW12769   5.075   6.644   3.462
 3957SOL    HW112770   5.032   6.732   3.483
 3957SOL    HW212771   5.122   6.609   3.543
 3958SOL     OW12772   5.490   0.750   5.940
 3958SOL    HW112773   5.440   0.760   5.854
 3958SOL    HW212774   5.451   0.811   6.009
 3959SOL     OW12775   3.857   6.344   1.435
 3959SOL    HW112776   3.887   6.374   1.345
 3959SOL    HW212777   3.854   6.422   1.497
 3960SOL     OW12778   4.260   1.335   6.823
 3960SOL    HW112779   4.288   1.240   6.814
 3960SOL    HW212780   4.328   1.385   6.877
 3961SOL     OW12781   5.616   2.653   1.861
 3961SOL    HW112782   5.558   2.651   1.943
 3961SOL    HW212783   5.578   2.591   1.792
 3962SOL     OW12784   2.074   4.777   0.084
 3962SOL    HW112785   2.001   4.840   0.109
 3962SOL    HW212786   2.109   4.732   0.167
 3963SOL     OW12787   4.968   4.132   4.481
 3963SOL    HW112788   4.939   4.224   4.455
 3963SOL    HW212789   4.902   4.066   4.447
 3964SOL     OW12790   4.507   4.840   3.752
 3964SOL    HW112791   4.469   4.760   3.799
 3964SOL    HW212792   4.569   4.889   3.813
 3965SOL     OW12793   4.168   3.047   6.120
 3965SOL    HW112794   4.138   3.098   6.039
 3965SOL    HW212795   4.240   2.983   6.094
 3966SOL     OW12796   5.688   5.669   0.506
 3966SOL    HW112797   5.686   5.757   0.458
 3966SOL    HW212798   5.783   5.642   0.522
 3967SOL     OW12799   1.356   4.146   2.561
 3967SOL    HW112800   1.269   4.178   2.597
 3967SOL    HW212801   1.425   4.218   2.571
 3968SOL     OW12802   6.020   6.809   1.207
 3968SOL    HW112803   6.009   6.757   1.291
 3968SOL    HW212804   5.993   6.753   1.129
 3969SOL     OW12805   1.920   3.763   2.836
 3969SOL    HW112806   1.878   3.796   2.920
 3969SOL    HW212807   1.904   3.664   2.828
 3970SOL     OW12808   5.969   5.878   4.040
 3970SOL    HW112809   5.953   5.816   3.963
 3970SOL    HW212810   5.982   5.971   4.005
 3971SOL     OW12811   2.641   5.282   2.066
 3971SOL    HW112812   2.558   5.246   2.023
 3971SOL    HW212813   2.625   5.294   2.164
 3972SOL     OW12814   1.144   5.509   0.842
 3972SOL    HW112815   1.164   5.416   0.809
 3972SOL    HW212816   1.079   5.553   0.780
 3973SOL     OW12817   0.887   4.382   5.901
 3973SOL    HW112818   0.805   4.359   5.848
 3973SOL    HW212819   0.961   4.319   5.877
 3974SOL     OW12820   1.076   0.489   4.643
 3974SOL    HW112821   1.083   0.554   4.719
 3974SOL    HW212822   1.087   0.396   4.677
 3975SOL     OW12823   5.082   7.004   6.044
 3975SOL    HW112824   4.995   7.006   5.994
 3975SOL    HW212825   5.109   6.909   6.060
 3976SOL     OW12826   1.563   5.446   1.739
 3976SOL    HW112827   1.559   5.427   1.837
 3976SOL    HW212828   1.534   5.365   1.688
 3977SOL     OW12829   2.712   4.374   5.784
 3977SOL    HW112830   2.718   4.392   5.882
 3977SOL    HW212831   2.773   4.435   5.734
 3978SOL     OW12832   5.537   6.891   4.736
 3978SOL    HW112833   5.539   6.944   4.652
 3978SOL    HW212834   5.539   6.793   4.714
 3979SOL     OW12835   2.975   5.878   1.529
 3979SOL    HW112836   3.025   5.911   1.609
 3979SOL    HW212837   2.942   5.785   1.546
 3980SOL     OW12838   0.096   5.936   6.570
 3980SOL    HW112839   0.086   5.980   6.480
 3980SOL    HW212840   0.011   5.888   6.593
 3981SOL     OW12841   2.078   1.633   0.151
 3981SOL    HW112842   2.156   1.610   0.092
 3981SOL    HW212843   2.007   1.564   0.140
 3982SOL     OW12844   2.156   0.224   4.126
 3982SOL    HW112845   2.194   0.133   4.142
 3982SOL    HW212846   2.123   0.229   4.031
 3983SOL     OW12847   5.020   5.200   4.234
 3983SOL    HW112848   5.082   5.277   4.247
 3983SOL    HW212849   4.982   5.172   4.322
 3984SOL     OW12850   0.464   0.545   2.263
 3984SOL    HW112851   0.402   0.622   2.248
 3984SOL    HW212852   0.418   0.475   2.318
 3985SOL     OW12853   3.692   4.673   6.406
 3985SOL    HW112854   3.681   4.699   6.310
 3985SOL    HW212855   3.640   4.736   6.464
 3986SOL     OW12856   6.392   2.109   2.756
 3986SOL    HW112857   6.399   2.202   2.793
 3986SOL    HW212858   6.371   2.045   2.830
 3987SOL     OW12859   2.818   5.196   4.180
 3987SOL    HW112860   2.790   5.101   4.190
 3987SOL    HW212861   2.918   5.202   4.187
 3988SOL     OW12862   4.004   3.669   6.834
 3988SOL    HW112863   3.984   3.766   6.842
 3988SOL    HW212864   3.934   3.616   6.882
 3989SOL     OW12865   6.769   2.185   6.845
 3989SOL    HW112866   6.689   2.143   6.889
 3989SOL    HW212867   6.753   2.283   6.833
 3990SOL     OW12868   5.542   2.544   2.688
 3990SOL    HW112869   5.532   2.458   2.740
 3990SOL    HW212870   5.487   2.615   2.732
 3991SOL     OW12871   5.733   1.524   1.879
 3991SOL    HW112872   5.729   1.504   1.977
 3991SOL    HW212873   5.726   1.622   1.864
 3992SOL     OW12874   3.291   2.208   6.773
 3992SOL    HW112875   3.304   2.191   6.870
 3992SOL    HW212876   3.195   2.194   6.749
 3993SOL     OW12877   0.600   2.224   3.206
 3993SOL    HW112878   0.615   2.237   3.304
 3993SOL    HW212879   0.629   2.133   3.179
 3994SOL     OW12880   0.406   1.174   6.560
 3994SOL    HW112881   0.462   1.217   6.491
 3994SOL    HW212882   0.437   1.202   6.651
 3995SOL     OW12883   1.629   4.186   4.484
 3995SOL    HW112884   1.709   4.199   4.542
 3995SOL    HW212885   1.658   4.152   4.394
 3996SOL     OW12886   1.257   1.047   4.590
 3996SOL    HW112887   1.165   1.013   4.572
 3996SOL    HW212888   1.259   1.092   4.679
 3997SOL     OW12889   5.365   1.561   3.621
 3997SOL    HW112890   5.289   1.602   3.671
 3997SOL    HW212891   5.450   1.610   3.644
 3998SOL     OW12892   3.812   1.320   2.901
 3998SOL    HW112893   3.730   1.285   2.855
 3998SOL    HW212894   3.785   1.387   2.971
 3999SOL     OW12895   5.619   3.344   3.817
 3999SOL    HW112896   5.698   3.320   3.761
 3999SOL    HW212897   5.572   3.260   3.845
 4000SOL     OW12898   3.078   5.522   3.116
 4000SOL    HW112899   3.002   5.527   3.051
 4000SOL    HW212900   3.063   5.589   3.189
 4001SOL     OW12901   2.655   1.950   4.138
 4001SOL    HW112902   2.618   1.893   4.210
 4001SOL    HW212903   2.742   1.912   4.107
 4002SOL     OW12904   3.116   2.416   0.802
 4002SOL    HW112905   3.169   2.474   0.864
 4002SOL    HW212906   3.172   2.392   0.722
 4003SOL     OW12907   2.914   6.173   5.037
 4003SOL    HW112908   2.905   6.169   4.937
 4003SOL    HW212909   3.002   6.132   5.064
 4004SOL     OW12910   5.702   2.503   3.465
 4004SOL    HW112911   5.605   2.481   3.474
 4004SOL    HW212912   5.757   2.437   3.517
 4005SOL     OW12913   5.325   5.742   0.731
 4005SOL    HW112914   5.388   5.816   0.753
 4005SOL    HW212915   5.276   5.714   0.814
 4006SOL     OW12916   3.768   5.461   3.041
 4006SOL    HW112917   3.865   5.466   3.063
 4006SOL    HW212918   3.714   5.490   3.119
 4007SOL     OW12919   1.190   2.696   1.752
 4007SOL    HW112920   1.231   2.610   1.724
 4007SOL    HW212921   1.136   2.734   1.677
 4008SOL     OW12922   3.667   2.044   3.834
 4008SOL    HW112923   3.710   1.956   3.855
 4008SOL    HW212924   3.577   2.049   3.877
 4009SOL     OW12925   5.426   3.228   0.712
 4009SOL    HW112926   5.342   3.229   0.767
 4009SOL    HW212927   5.495   3.171   0.756
 4010SOL     OW12928   2.469   2.874   1.779
 4010SOL    HW112929   2.478   2.816   1.699
 4010SOL    HW212930   2.414   2.955   1.756
 4011SOL     OW12931   0.279   0.983   2.077
 4011SOL    HW112932   0.329   1.069   2.089
 4011SOL    HW212933   0.196   0.999   2.024
 4012SOL     OW12934   4.023   5.708   1.930
 4012SOL    HW112935   4.018   5.730   1.833
 4012SOL    HW212936   3.956   5.637   1.952
 4013SOL     OW12937   3.036   6.440   0.116
 4013SOL    HW112938   3.042   6.444   0.216
 4013SOL    HW212939   3.063   6.349   0.085
 4014SOL     OW12940   3.707   6.031   3.383
 4014SOL    HW112941   3.662   5.963   3.325
 4014SOL    HW212942   3.728   6.113   3.329
 4015SOL     OW12943   4.628   5.234   6.199
 4015SOL    HW112944   4.703   5.172   6.223
 4015SOL    HW212945   4.552   5.220   6.263
 4016SOL     OW12946   2.097   6.025   6.855
 4016SOL    HW112947   2.144   5.972   6.785
 4016SOL    HW212948   2.087   5.970   6.938
 4017SOL     OW12949   0.369   6.380   1.256
 4017SOL    HW112950   0.346   6.283   1.252
 4017SOL    HW212951   0.360   6.413   1.350
 4018SOL     OW12952   4.998   6.290   3.298
 4018SOL    HW112953   4.951   6.268   3.213
 4018SOL    HW212954   4.949   6.362   3.346
 4019SOL     OW12955   5.960   3.727   2.791
 4019SOL    HW112956   5.967   3.765   2.699
 4019SOL    HW212957   5.884   3.663   2.794
 4020SOL     OW12958   5.541   2.394   6.260
 4020SOL    HW112959   5.499   2.484   6.249
 4020SOL    HW212960   5.583   2.366   6.174
 4021SOL     OW12961   3.766   3.323   5.998
 4021SOL    HW112962   3.815   3.404   6.031
 4021SOL    HW212963   3.807   3.241   6.037
 4022SOL     OW12964   4.333   0.241   0.302
 4022SOL    HW112965   4.300   0.334   0.292
 4022SOL    HW212966   4.352   0.202   0.212
 4023SOL     OW12967   6.333   1.687   5.355
 4023SOL    HW112968   6.243   1.663   5.318
 4023SOL    HW212969   6.376   1.606   5.394
 4024SOL     OW12970   3.382   6.050   4.040
 4024SOL    HW112971   3.363   6.148   4.054
 4024SOL    HW212972   3.422   6.012   4.123
 4025SOL     OW12973   1.006   6.315   4.260
 4025SOL    HW112974   0.950   6.258   4.199
 4025SOL    HW212975   1.077   6.260   4.302
 4026SOL     OW12976   6.422   5.989   4.410
 4026SOL    HW112977   6.442   5.968   4.314
 4026SOL    HW212978   6.487   5.942   4.469
 4027SOL     OW12979   3.644   3.981   1.988
 4027SOL    HW112980   3.554   3.941   2.007
 4027SOL    HW212981   3.636   4.081   1.985
 4028SOL     OW12982   1.183   2.345   3.780
 4028SOL    HW112983   1.238   2.303   3.708
 4028SOL    HW212984   1.204   2.443   3.785
 4029SOL     OW12985   1.756   4.075   6.738
 4029SOL    HW112986   1.703   4.158   6.757
 4029SOL    HW212987   1.828   4.064   6.806
 4030SOL     OW12988   1.478   1.979   5.997
 4030SOL    HW112989   1.473   2.030   6.083
 4030SOL    HW212990   1.430   1.891   6.008
 4031SOL     OW12991   4.605   6.145   3.140
 4031SOL    HW112992   4.690   6.198   3.138
 4031SOL    HW212993   4.610   6.077   3.212
 4032SOL     OW12994   5.587   0.382   3.069
 4032SOL    HW112995   5.557   0.351   2.978
 4032SOL    HW212996   5.661   0.448   3.059
 4033SOL     OW12997   2.944   3.236   2.893
 4033SOL    HW112998   2.975   3.144   2.868
 4033SOL    HW212999   2.890   3.274   2.818
 4034SOL     OW13000   5.594   1.784   5.250
 4034SOL    HW113001   5.592   1.730   5.334
 4034SOL    HW213002   5.590   1.723   5.171
 4035SOL     OW13003   6.201   3.323   1.088
 4035SOL    HW113004   6.127   3.259   1.066
 4035SOL    HW213005   6.282   3.272   1.117
 4036SOL     OW13006   5.677   6.545   3.157
 4036SOL    HW113007   5.602   6.608   3.177
 4036SOL    HW213008   5.746   6.591   3.100
 4037SOL     OW13009   1.861   2.230   0.856
 4037SOL    HW113010   1.904   2.194   0.939
 4037SOL    HW213011   1.926   2.288   0.807
 4038SOL     OW13012   4.956   4.665   1.977
 4038SOL    HW113013   5.022   4.591   1.960
 4038SOL    HW213014   4.896   4.674   1.898
 4039SOL     OW13015   5.212   5.166   0.937
 4039SOL    HW113016   5.150   5.233   0.977
 4039SOL    HW213017   5.279   5.139   1.006
 4040SOL     OW13018   2.716   6.439   6.992
 4040SOL    HW113019   2.782   6.503   0.018
 4040SOL    HW213020   2.676   6.383   0.049
 4041SOL     OW13021   1.748   5.588   1.548
 4041SOL    HW113022   1.704   5.665   1.502
 4041SOL    HW213023   1.703   5.571   1.635
 4042SOL     OW13024   6.526   4.055   2.944
 4042SOL    HW113025   6.488   4.035   2.854
 4042SOL    HW213026   6.521   3.972   3.001
 4043SOL     OW13027   5.243   2.568   4.222
 4043SOL    HW113028   5.210   2.528   4.136
 4043SOL    HW213029   5.194   2.528   4.299
 4044SOL     OW13030   4.893   0.890   4.833
 4044SOL    HW113031   4.964   0.832   4.792
 4044SOL    HW213032   4.935   0.949   4.903
 4045SOL     OW13033   2.636   4.399   6.564
 4045SOL    HW113034   2.548   4.436   6.593
 4045SOL    HW213035   2.623   4.307   6.526
 4046SOL     OW13036   0.606   2.225   3.480
 4046SOL    HW113037   0.629   2.228   3.577
 4046SOL    HW213038   0.512   2.258   3.468
 4047SOL     OW13039   2.898   2.492   1.014
 4047SOL    HW113040   2.972   2.483   0.947
 4047SOL    HW213041   2.811   2.467   0.971
 4048SOL     OW13042   5.746   1.126   1.617
 4048SOL    HW113043   5.675   1.183   1.659
 4048SOL    HW213044   5.756   1.152   1.521
 4049SOL     OW13045   6.083   6.605   6.422
 4049SOL    HW113046   6.076   6.703   6.404
 4049SOL    HW213047   6.146   6.589   6.498
 4050SOL     OW13048   1.636   6.733   0.406
 4050SOL    HW113049   1.606   6.655   0.351
 4050SOL    HW213050   1.735   6.745   0.398
 4051SOL     OW13051   3.531   3.256   6.854
 4051SOL    HW113052   3.550   3.269   6.951
 4051SOL    HW213053   3.534   3.344   6.807
 4052SOL     OW13054   1.227   0.212   1.400
 4052SOL    HW113055   1.156   0.282   1.388
 4052SOL    HW213056   1.203   0.152   1.476
 4053SOL     OW13057   3.102   5.221   4.202
 4053SOL    HW113058   3.123   5.283   4.126
 4053SOL    HW213059   3.175   5.153   4.211
 4054SOL     OW13060   2.163   2.796   1.156
 4054SOL    HW113061   2.092   2.759   1.216
 4054SOL    HW213062   2.158   2.751   1.067
 4055SOL     OW13063   2.989   3.286   5.354
 4055SOL    HW113064   2.931   3.269   5.433
 4055SOL    HW213065   2.941   3.345   5.289
 4056SOL     OW13066   4.327   2.958   6.695
 4056SOL    HW113067   4.409   2.908   6.723
 4056SOL    HW213068   4.250   2.895   6.689
 4057SOL     OW13069   5.073   3.032   0.358
 4057SOL    HW113070   5.014   3.080   0.294
 4057SOL    HW213071   5.019   3.002   0.437
 4058SOL     OW13072   1.331   1.425   4.048
 4058SOL    HW113073   1.310   1.366   4.126
 4058SOL    HW213074   1.338   1.371   3.965
 4059SOL     OW13075   2.069   2.062   2.847
 4059SOL    HW113076   2.064   1.987   2.913
 4059SOL    HW213077   2.160   2.105   2.852
 4060SOL     OW13078   4.024   4.845   5.174
 4060SOL    HW113079   4.058   4.930   5.215
 4060SOL    HW213080   4.078   4.825   5.092
 4061SOL     OW13081   3.378   4.527   1.690
 4061SOL    HW113082   3.411   4.588   1.761
 4061SOL    HW213083   3.454   4.499   1.631
 4062SOL     OW13084   4.114   1.718   2.988
 4062SOL    HW113085   4.173   1.688   2.913
 4062SOL    HW213086   4.170   1.759   3.060
 4063SOL     OW13087   4.396   6.420   5.381
 4063SOL    HW113088   4.372   6.501   5.328
 4063SOL    HW213089   4.492   6.398   5.366
 4064SOL     OW13090   2.280   6.911   2.528
 4064SOL    HW113091   2.202   6.921   2.590
 4064SOL    HW213092   2.313   7.002   2.501
 4065SOL     OW13093   1.243   6.826   0.324
 4065SOL    HW113094   1.163   6.818   0.265
 4065SOL    HW213095   1.228   6.773   0.408
 4066SOL     OW13096   5.668   4.720   2.558
 4066SOL    HW113097   5.664   4.734   2.459
 4066SOL    HW213098   5.637   4.628   2.581
 4067SOL     OW13099   5.911   2.408   2.367
 4067SOL    HW113100   5.959   2.332   2.411
 4067SOL    HW213101   5.896   2.481   2.434
 4068SOL     OW13102   4.443   0.337   4.585
 4068SOL    HW113103   4.468   0.299   4.496
 4068SOL    HW213104   4.524   0.339   4.644
 4069SOL     OW13105   4.601   3.406   6.697
 4069SOL    HW113106   4.577   3.499   6.670
 4069SOL    HW213107   4.520   3.358   6.729
 4070SOL     OW13108   1.851   3.506   2.907
 4070SOL    HW113109   1.799   3.459   2.979
 4070SOL    HW213110   1.949   3.487   2.919
 4071SOL     OW13111   1.441   1.021   5.275
 4071SOL    HW113112   1.471   0.953   5.207
 4071SOL    HW213113   1.386   0.976   5.345
 4072SOL     OW13114   1.744   6.764   4.553
 4072SOL    HW113115   1.665   6.715   4.517
 4072SOL    HW213116   1.765   6.842   4.494
 4073SOL     OW13117   2.593   5.563   6.144
 4073SOL    HW113118   2.642   5.632   6.197
 4073SOL    HW213119   2.640   5.475   6.151
 4074SOL     OW13120   1.010   2.787   1.941
 4074SOL    HW113121   0.926   2.800   1.889
 4074SOL    HW213122   1.082   2.754   1.880
 4075SOL     OW13123   4.871   2.452   2.610
 4075SOL    HW113124   4.776   2.467   2.639
 4075SOL    HW213125   4.910   2.538   2.577
 4076SOL     OW13126   2.304   3.821   5.485
 4076SOL    HW113127   2.239   3.751   5.516
 4076SOL    HW213128   2.362   3.783   5.413
 4077SOL     OW13129   2.676   6.281   1.311
 4077SOL    HW113130   2.655   6.194   1.356
 4077SOL    HW213131   2.718   6.343   1.377
 4078SOL     OW13132   6.014   5.358   1.921
 4078SOL    HW113133   5.965   5.421   1.981
 4078SOL    HW213134   6.110   5.384   1.916
 4079SOL     OW13135   1.368   0.441   3.080
 4079SOL    HW113136   1.393   0.538   3.077
 4079SOL    HW213137   1.316   0.422   3.163
 4080SOL     OW13138   2.581   3.302   6.852
 4080SOL    HW113139   2.636   3.319   6.771
 4080SOL    HW213140   2.522   3.223   6.835
 4081SOL     OW13141   1.708   1.158   4.659
 4081SOL    HW113142   1.781   1.181   4.595
 4081SOL    HW213143   1.635   1.110   4.611
 4082SOL     OW13144   1.668   1.959   0.015
 4082SOL    HW113145   1.744   2.016   0.046
 4082SOL    HW213146   1.649   1.980   6.934
 4083SOL     OW13147   5.548   4.069   3.441
 4083SOL    HW113148   5.635   4.108   3.473
 4083SOL    HW213149   5.545   4.070   3.341
 4084SOL     OW13150   4.841   3.120   3.004
 4084SOL    HW113151   4.825   3.212   3.040
 4084SOL    HW213152   4.939   3.100   3.005
 4085SOL     OW13153   2.716   5.120   1.529
 4085SOL    HW113154   2.810   5.154   1.526
 4085SOL    HW213155   2.704   5.048   1.461
 4086SOL     OW13156   0.022   4.862   0.731
 4086SOL    HW113157   0.122   4.867   0.725
 4086SOL    HW213158   6.999   4.854   0.639
 4087SOL     OW13159   2.519   1.341   2.785
 4087SOL    HW113160   2.476   1.391   2.860
 4087SOL    HW213161   2.525   1.400   2.704
 4088SOL     OW13162   6.255   1.202   5.272
 4088SOL    HW113163   6.278   1.131   5.339
 4088SOL    HW213164   6.167   1.180   5.231
 4089SOL     OW13165   0.166   5.569   4.458
 4089SOL    HW113166   0.193   5.661   4.484
 4089SOL    HW213167   0.138   5.568   4.361
 4090SOL     OW13168   1.638   6.145   5.222
 4090SOL    HW113169   1.662   6.051   5.198
 4090SOL    HW213170   1.560   6.175   5.168
 4091SOL     OW13171   0.835   5.399   0.340
 4091SOL    HW113172   0.780   5.330   0.387
 4091SOL    HW213173   0.932   5.379   0.352
 4092SOL     OW13174   5.076   3.136   3.703
 4092SOL    HW113175   5.155   3.170   3.753
 4092SOL    HW213176   5.106   3.075   3.630
 4093SOL     OW13177   5.482   6.017   1.657
 4093SOL    HW113178   5.396   5.974   1.629
 4093SOL    HW213179   5.487   6.018   1.757
 4094SOL     OW13180   1.264   4.647   0.050
 4094SOL    HW113181   1.262   4.676   0.145
 4094SOL    HW213182   1.179   4.598   0.028
 4095SOL     OW13183   0.723   3.352   0.401
 4095SOL    HW113184   0.796   3.419   0.391
 4095SOL    HW213185   0.638   3.389   0.364
 4096SOL     OW13186   2.061   0.840   6.364
 4096SOL    HW113187   2.077   0.939   6.374
 4096SOL    HW213188   2.142   0.797   6.326
 4097SOL     OW13189   5.777   4.357   5.689
 4097SOL    HW113190   5.732   4.312   5.611
 4097SOL    HW213191   5.849   4.298   5.723
 4098SOL     OW13192   2.260   2.626   1.409
 4098SOL    HW113193   2.161   2.627   1.395
 4098SOL    HW213194   2.301   2.705   1.364
 4099SOL     OW13195   3.594   5.130   0.192
 4099SOL    HW113196   3.507   5.178   0.203
 4099SOL    HW213197   3.575   5.035   0.167
 4100SOL     OW13198   1.354   0.858   3.982
 4100SOL    HW113199   1.406   0.845   4.066
 4100SOL    HW213200   1.364   0.953   3.951
 4101SOL     OW13201   6.952   1.055   6.371
 4101SOL    HW113202   6.936   1.087   6.278
 4101SOL    HW213203   0.017   1.101   6.409
 4102SOL     OW13204   1.954   0.853   0.915
 4102SOL    HW113205   1.857   0.830   0.903
 4102SOL    HW213206   1.965   0.952   0.907
 4103SOL     OW13207   0.272   6.813   1.880
 4103SOL    HW113208   0.189   6.854   1.918
 4103SOL    HW213209   0.293   6.728   1.928
 4104SOL     OW13210   0.038   5.125   3.354
 4104SOL    HW113211   0.110   5.169   3.299
 4104SOL    HW213212   0.040   5.026   3.338
 4105SOL     OW13213   4.727   1.579   2.108
 4105SOL    HW113214   4.753   1.495   2.155
 4105SOL    HW213215   4.759   1.658   2.161
 4106SOL     OW13216   0.299   1.950   3.864
 4106SOL    HW113217   0.326   2.034   3.817
 4106SOL    HW213218   0.247   1.973   3.946
 4107SOL     OW13219   0.184   6.060   6.799
 4107SOL    HW113220   0.151   6.001   6.725
 4107SOL    HW213221   0.106   6.109   6.839
 4108SOL     OW13222   0.501   5.606   4.616
 4108SOL    HW113223   0.468   5.512   4.619
 4108SOL    HW213224   0.492   5.649   4.706
 4109SOL     OW13225   5.443   6.085   3.505
 4109SOL    HW113226   5.434   6.142   3.587
 4109SOL    HW213227   5.373   6.111   3.438
 4110SOL     OW13228   4.044   3.103   6.418
 4110SOL    HW113229   4.079   3.153   6.497
 4110SOL    HW213230   3.957   3.060   6.441
 4111SOL     OW13231   5.761   5.263   6.165
 4111SOL    HW113232   5.697   5.338   6.186
 4111SOL    HW213233   5.855   5.296   6.175
 4112SOL     OW13234   5.258   6.963   4.715
 4112SOL    HW113235   5.358   6.965   4.716
 4112SOL    HW213236   5.227   6.869   4.699
 4113SOL     OW13237   4.633   5.609   4.299
 4113SOL    HW113238   4.618   5.605   4.398
 4113SOL    HW213239   4.717   5.559   4.277
 4114SOL     OW13240   6.262   1.348   3.016
 4114SOL    HW113241   6.296   1.290   3.090
 4114SOL    HW213242   6.297   1.315   2.928
 4115SOL     OW13243   2.446   4.505   3.357
 4115SOL    HW113244   2.426   4.474   3.450
 4115SOL    HW213245   2.528   4.563   3.359
 4116SOL     OW13246   4.813   2.630   3.564
 4116SOL    HW113247   4.843   2.544   3.607
 4116SOL    HW213248   4.714   2.627   3.551
 4117SOL     OW13249   1.540   1.935   2.985
 4117SOL    HW113250   1.529   2.034   2.981
 4117SOL    HW213251   1.501   1.901   3.071
 4118SOL     OW13252   6.310   6.750   5.706
 4118SOL    HW113253   6.314   6.650   5.707
 4118SOL    HW213254   6.322   6.783   5.613
 4119SOL     OW13255   2.878   0.924   3.268
 4119SOL    HW113256   2.976   0.942   3.258
 4119SOL    HW213257   2.836   0.997   3.321
 4120SOL     OW13258   3.885   1.218   6.290
 4120SOL    HW113259   3.966   1.275   6.304
 4120SOL    HW213260   3.909   1.122   6.305
 4121SOL     OW13261   6.990   6.831   2.330
 4121SOL    HW113262   0.059   6.885   2.323
 4121SOL    HW213263   7.008   6.738   2.297
 4122SOL     OW13264   1.286   6.687   5.032
 4122SOL    HW113265   1.203   6.741   5.045
 4122SOL    HW213266   1.366   6.741   5.059
 4123SOL     OW13267   4.202   5.121   4.185
 4123SOL    HW113268   4.231   5.065   4.264
 4123SOL    HW213269   4.103   5.125   4.182
 4124SOL     OW13270   6.910   6.657   0.961
 4124SOL    HW113271   6.966   6.576   0.979
 4124SOL    HW213272   6.960   6.739   0.988
 4125SOL     OW13273   4.629   2.501   2.676
 4125SOL    HW113274   4.600   2.553   2.596
 4125SOL    HW213275   4.578   2.415   2.680
 4126SOL     OW13276   1.822   3.012   2.575
 4126SOL    HW113277   1.767   3.023   2.492
 4126SOL    HW213278   1.843   3.102   2.613
 4127SOL     OW13279   4.948   2.694   5.152
 4127SOL    HW113280   4.905   2.784   5.149
 4127SOL    HW213281   5.019   2.688   5.083
 4128SOL     OW13282   0.888   3.038   1.628
 4128SOL    HW113283   0.969   3.074   1.674
 4128SOL    HW213284   0.906   2.944   1.599
 4129SOL     OW13285   3.371   1.160   0.369
 4129SOL    HW113286   3.411   1.224   0.303
 4129SOL    HW213287   3.295   1.111   0.325
 4130SOL     OW13288   5.959   2.065   0.367
 4130SOL    HW113289   6.048   2.065   0.413
 4130SOL    HW213290   5.901   2.136   0.407
 4131SOL     OW13291   6.709   0.893   2.862
 4131SOL    HW113292   6.755   0.982   2.850
 4131SOL    HW213293   6.688   0.879   2.958
 4132SOL     OW13294   5.482   4.046   4.397
 4132SOL    HW113295   5.534   4.119   4.441
 4132SOL    HW213296   5.389   4.078   4.378
 4133SOL     OW13297   4.166   6.336   1.737
 4133SOL    HW113298   4.114   6.308   1.656
 4133SOL    HW213299   4.220   6.417   1.715
 4134SOL     OW13300   2.299   3.194   1.036
 4134SOL    HW113301   2.288   3.258   0.960
 4134SOL    HW213302   2.386   3.145   1.025
 4135SOL     OW13303   0.215   2.213   2.776
 4135SOL    HW113304   0.295   2.160   2.750
 4135SOL    HW213305   0.142   2.198   2.709
 4136SOL     OW13306   1.261   3.771   1.895
 4136SOL    HW113307   1.186   3.831   1.923
 4136SOL    HW213308   1.268   3.771   1.796
 4137SOL     OW13309   1.157   3.238   6.916
 4137SOL    HW113310   1.105   3.158   6.945
 4137SOL    HW213311   1.249   3.210   6.888
 4138SOL     OW13312   3.930   5.136   1.517
 4138SOL    HW113313   3.921   5.039   1.542
 4138SOL    HW213314   3.839   5.177   1.512
 4139SOL     OW13315   1.314   1.587   3.639
 4139SOL    HW113316   1.326   1.609   3.735
 4139SOL    HW213317   1.220   1.556   3.623
 4140SOL     OW13318   3.270   2.154   3.992
 4140SOL    HW113319   3.216   2.187   3.914
 4140SOL    HW213320   3.214   2.158   4.075
 4141SOL     OW13321   5.458   0.047   0.730
 4141SOL    HW113322   5.376   7.011   0.755
 4141SOL    HW213323   5.436   0.115   0.661
 4142SOL     OW13324   6.635   3.993   1.794
 4142SOL    HW113325   6.659   4.088   1.815
 4142SOL    HW213326   6.619   3.943   1.879
 4143SOL     OW13327   5.320   3.175   0.459
 4143SOL    HW113328   5.350   3.195   0.552
 4143SOL    HW213329   5.254   3.099   0.461
 4144SOL     OW13330   5.004   1.313   0.134
 4144SOL    HW113331   5.091   1.276   0.100
 4144SOL    HW213332   4.982   1.270   0.221
 4145SOL     OW13333   1.000   6.278   0.758
 4145SOL    HW113334   0.939   6.356   0.743
 4145SOL    HW213335   1.071   6.278   0.687
 4146SOL     OW13336   6.587   0.871   3.477
 4146SOL    HW113337   6.582   0.830   3.568
 4146SOL    HW213338   6.552   0.807   3.409
 4147SOL     OW13339   4.848   4.409   5.836
 4147SOL    HW113340   4.884   4.316   5.836
 4147SOL    HW213341   4.839   4.441   5.741
 4148SOL     OW13342   2.880   0.735   5.419
 4148SOL    HW113343   2.803   0.799   5.419
 4148SOL    HW213344   2.941   0.757   5.495
 4149SOL     OW13345   0.504   3.606   1.754
 4149SOL    HW113346   0.529   3.515   1.787
 4149SOL    HW213347   0.409   3.625   1.776
 4150SOL     OW13348   6.959   1.863   5.247
 4150SOL    HW113349   6.969   1.867   5.346
 4150SOL    HW213350   6.918   1.777   5.220
 4151SOL     OW13351   1.728   6.904   6.159
 4151SOL    HW113352   1.759   6.906   6.254
 4151SOL    HW213353   1.806   6.882   6.100
 4152SOL     OW13354   3.911   5.445   1.974
 4152SOL    HW113355   3.994   5.433   2.028
 4152SOL    HW213356   3.898   5.367   1.914
 4153SOL     OW13357   6.748   5.184   1.642
 4153SOL    HW113358   6.668   5.227   1.600
 4153SOL    HW213359   6.816   5.164   1.572
 4154SOL     OW13360   0.439   5.839   3.904
 4154SOL    HW113361   0.533   5.857   3.934
 4154SOL    HW213362   0.434   5.749   3.862
 4155SOL     OW13363   0.322   1.700   1.179
 4155SOL    HW113364   0.381   1.619   1.176
 4155SOL    HW213365   0.361   1.767   1.243
 4156SOL     OW13366   6.657   5.441   5.214
 4156SOL    HW113367   6.560   5.445   5.238
 4156SOL    HW213368   6.696   5.533   5.214
 4157SOL     OW13369   5.655   6.148   3.342
 4157SOL    HW113370   5.740   6.098   3.353
 4157SOL    HW213371   5.587   6.112   3.406
 4158SOL     OW13372   1.832   2.699   2.191
 4158SOL    HW113373   1.885   2.615   2.208
 4158SOL    HW213374   1.838   2.723   2.095
 4159SOL     OW13375   2.703   2.394   3.639
 4159SOL    HW113376   2.675   2.476   3.690
 4159SOL    HW213377   2.780   2.351   3.685
 4160SOL     OW13378   5.747   7.008   6.898
 4160SOL    HW113379   5.843   6.984   6.905
 4160SOL    HW213380   5.695   6.930   6.862
 4161SOL     OW13381   1.732   1.994   1.964
 4161SOL    HW113382   1.716   1.895   1.959
 4161SOL    HW213383   1.647   2.041   1.986
 4162SOL     OW13384   6.160   5.851   0.917
 4162SOL    HW113385   6.217   5.822   0.993
 4162SOL    HW213386   6.145   5.950   0.922
 4163SOL     OW13387   5.757   1.567   3.017
 4163SOL    HW113388   5.781   1.658   3.051
 4163SOL    HW213389   5.695   1.522   3.080
 4164SOL     OW13390   0.667   6.951   5.493
 4164SOL    HW113391   0.666   6.929   5.591
 4164SOL    HW213392   0.703   0.028   5.480
 4165SOL     OW13393   4.653   0.130   5.598
 4165SOL    HW113394   4.673   0.170   5.688
 4165SOL    HW213395   4.739   0.119   5.547
 4166SOL     OW13396   5.321   1.415   1.559
 4166SOL    HW113397   5.243   1.415   1.620
 4166SOL    HW213398   5.294   1.378   1.470
 4167SOL     OW13399   3.221   4.926   6.181
 4167SOL    HW113400   3.218   4.836   6.223
 4167SOL    HW213401   3.191   4.919   6.085
 4168SOL     OW13402   0.152   4.378   1.091
 4168SOL    HW113403   0.153   4.390   0.992
 4168SOL    HW213404   0.116   4.287   1.113
 4169SOL     OW13405   5.993   4.104   5.034
 4169SOL    HW113406   6.087   4.138   5.028
 4169SOL    HW213407   5.991   4.025   5.095
 4170SOL     OW13408   5.322   3.097   5.062
 4170SOL    HW113409   5.398   3.162   5.065
 4170SOL    HW213410   5.358   3.004   5.060
 4171SOL     OW13411   0.493   5.418   1.216
 4171SOL    HW113412   0.578   5.457   1.254
 4171SOL    HW213413   0.439   5.379   1.290
 4172SOL     OW13414   2.413   2.467   0.604
 4172SOL    HW113415   2.449   2.431   0.690
 4172SOL    HW213416   2.450   2.414   0.528
 4173SOL     OW13417   5.503   3.285   5.122
 4173SOL    HW113418   5.590   3.288   5.073
 4173SOL    HW213419   5.464   3.377   5.126
 4174SOL     OW13420   4.929   1.423   2.302
 4174SOL    HW113421   4.915   1.480   2.383
 4174SOL    HW213422   5.027   1.419   2.282
 4175SOL     OW13423   1.457   4.706   4.631
 4175SOL    HW113424   1.493   4.799   4.622
 4175SOL    HW213425   1.532   4.641   4.630
 4176SOL     OW13426   4.059   6.677   1.223
 4176SOL    HW113427   3.967   6.638   1.230
 4176SOL    HW213428   4.116   6.637   1.295
 4177SOL     OW13429   5.550   4.665   4.997
 4177SOL    HW113430   5.604   4.682   4.915
 4177SOL    HW213431   5.610   4.662   5.077
 4178SOL     OW13432   4.067   0.393   3.666
 4178SOL    HW113433   4.090   0.416   3.760
 4178SOL    HW213434   4.020   0.471   3.623
 4179SOL     OW13435   5.221   4.151   3.026
 4179SOL    HW113436   5.274   4.208   3.089
 4179SOL    HW213437   5.276   4.072   2.998
 4180SOL     OW13438   4.635   2.640   0.908
 4180SOL    HW113439   4.628   2.558   0.852
 4180SOL    HW213440   4.731   2.667   0.917
 4181SOL     OW13441   4.427   0.661   6.986
 4181SOL    HW113442   4.388   0.731   6.927
 4181SOL    HW213443   4.521   0.685   7.009
 4182SOL     OW13444   0.454   5.398   3.016
 4182SOL    HW113445   0.516   5.369   2.943
 4182SOL    HW213446   0.438   5.321   3.079
 4183SOL     OW13447   3.204   1.134   0.647
 4183SOL    HW113448   3.233   1.128   0.551
 4183SOL    HW213449   3.172   1.226   0.667
 4184SOL     OW13450   3.773   6.887   2.253
 4184SOL    HW113451   3.757   6.805   2.198
 4184SOL    HW213452   3.871   6.897   2.270
 4185SOL     OW13453   0.801   4.291   3.404
 4185SOL    HW113454   0.705   4.276   3.428
 4185SOL    HW213455   0.847   4.204   3.391
 4186SOL     OW13456   2.188   5.286   6.684
 4186SOL    HW113457   2.159   5.382   6.675
 4186SOL    HW213458   2.250   5.264   6.608
 4187SOL     OW13459   2.571   2.918   5.741
 4187SOL    HW113460   2.595   2.963   5.827
 4187SOL    HW213461   2.575   2.984   5.666
 4188SOL     OW13462   4.973   0.583   5.181
 4188SOL    HW113463   4.878   0.611   5.162
 4188SOL    HW213464   4.974   0.521   5.259
 4189SOL     OW13465   3.488   5.139   4.244
 4189SOL    HW113466   3.528   5.141   4.152
 4189SOL    HW213467   3.401   5.089   4.241
 4190SOL     OW13468   1.078   0.454   1.307
 4190SOL    HW113469   1.004   0.501   1.259
 4190SOL    HW213470   1.165   0.499   1.285
 4191SOL     OW13471   5.297   4.527   4.957
 4191SOL    HW113472   5.371   4.595   4.967
 4191SOL    HW213473   5.268   4.496   5.047
 4192SOL     OW13474   0.771   1.672   2.683
 4192SOL    HW113475   0.814   1.592   2.641
 4192SOL    HW213476   0.803   1.755   2.638
 4193SOL     OW13477   5.678   0.367   0.955
 4193SOL    HW113478   5.588   0.404   0.930
 4193SOL    HW213479   5.677   0.342   1.052
 4194SOL     OW13480   4.518   0.188   4.377
 4194SOL    HW113481   4.572   0.250   4.320
 4194SOL    HW213482   4.506   0.101   4.330
 4195SOL     OW13483   4.164   5.285   1.511
 4195SOL    HW113484   4.075   5.244   1.529
 4195SOL    HW213485   4.195   5.336   1.591
 4196SOL     OW13486   6.773   2.783   2.806
 4196SOL    HW113487   6.760   2.683   2.805
 4196SOL    HW213488   6.776   2.815   2.901
 4197SOL     OW13489   4.852   5.311   5.383
 4197SOL    HW113490   4.863   5.212   5.398
 4197SOL    HW213491   4.805   5.327   5.297
 4198SOL     OW13492   6.494   2.080   1.014
 4198SOL    HW113493   6.395   2.079   1.023
 4198SOL    HW213494   6.528   2.173   1.027
 4199SOL     OW13495   1.047   2.477   5.672
 4199SOL    HW113496   1.106   2.400   5.697
 4199SOL    HW213497   1.069   2.506   5.579
 4200SOL     OW13498   2.695   7.006   6.483
 4200SOL    HW113499   2.608   0.021   6.446
 4200SOL    HW213500   2.687   6.994   6.582
 4201SOL     OW13501   5.741   6.986   3.749
 4201SOL    HW113502   5.742   6.898   3.796
 4201SOL    HW213503   5.734   0.045   3.816
 4202SOL     OW13504   2.884   5.683   6.241
 4202SOL    HW113505   2.910   5.587   6.245
 4202SOL    HW213506   2.868   5.717   6.334
 4203SOL     OW13507   4.817   4.003   0.388
 4203SOL    HW113508   4.800   3.971   0.294
 4203SOL    HW213509   4.736   3.984   0.443
 4204SOL     OW13510   4.120   3.597   4.045
 4204SOL    HW113511   4.217   3.580   4.031
 4204SOL    HW213512   4.079   3.629   3.959
 4205SOL     OW13513   4.333   6.235   4.846
 4205SOL    HW113514   4.338   6.186   4.932
 4205SOL    HW213515   4.411   6.298   4.838
 4206SOL     OW13516   6.291   1.445   5.088
 4206SOL    HW113517   6.248   1.387   5.019
 4206SOL    HW213518   6.331   1.388   5.160
 4207SOL     OW13519   2.062   2.277   2.150
 4207SOL    HW113520   2.048   2.197   2.091
 4207SOL    HW213521   2.158   2.303   2.150
 4208SOL     OW13522   6.946   3.676   5.238
 4208SOL    HW113523   0.025   3.700   5.265
 4208SOL    HW213524   6.898   3.759   5.210
 4209SOL     OW13525   6.864   6.263   3.796
 4209SOL    HW113526   6.840   6.167   3.803
 4209SOL    HW213527   6.922   6.290   3.873
 4210SOL     OW13528   3.648   3.584   2.724
 4210SOL    HW113529   3.596   3.565   2.641
 4210SOL    HW213530   3.729   3.639   2.701
 4211SOL     OW13531   3.644   0.908   5.892
 4211SOL    HW113532   3.585   0.836   5.930
 4211SOL    HW213533   3.715   0.931   5.959
 4212SOL     OW13534   6.370   2.368   2.380
 4212SOL    HW113535   6.345   2.356   2.283
 4212SOL    HW213536   6.379   2.279   2.423
 4213SOL     OW13537   2.575   0.863   2.459
 4213SOL    HW113538   2.568   0.789   2.392
 4213SOL    HW213539   2.608   0.946   2.413
 4214SOL     OW13540   0.395   5.729   5.584
 4214SOL    HW113541   0.464   5.744   5.654
 4214SOL    HW213542   0.310   5.772   5.611
 4215SOL     OW13543   4.265   6.458   5.860
 4215SOL    HW113544   4.245   6.486   5.953
 4215SOL    HW213545   4.218   6.372   5.840
 4216SOL     OW13546   2.218   0.738   3.054
 4216SOL    HW113547   2.129   0.779   3.035
 4216SOL    HW213548   2.232   0.730   3.152
 4217SOL     OW13549   1.165   0.839   2.897
 4217SOL    HW113550   1.071   0.869   2.916
 4217SOL    HW213551   1.188   0.859   2.802
 4218SOL     OW13552   3.436   1.000   1.465
 4218SOL    HW113553   3.502   1.057   1.416
 4218SOL    HW213554   3.346   1.043   1.462
 4219SOL     OW13555   4.399   5.616   4.485
 4219SOL    HW113556   4.410   5.523   4.451
 4219SOL    HW213557   4.372   5.677   4.410
 4220SOL     OW13558   6.455   3.153   3.060
 4220SOL    HW113559   6.546   3.185   3.036
 4220SOL    HW213560   6.434   3.178   3.155
 4221SOL     OW13561   5.838   5.007   6.205
 4221SOL    HW113562   5.833   4.964   6.115
 4221SOL    HW213563   5.837   5.106   6.195
 4222SOL     OW13564   0.130   1.661   1.959
 4222SOL    HW113565   0.041   1.635   1.996
 4222SOL    HW213566   0.193   1.680   2.035
 4223SOL     OW13567   3.109   3.927   0.678
 4223SOL    HW113568   3.010   3.928   0.668
 4223SOL    HW213569   3.142   3.833   0.678
 4224SOL     OW13570   5.268   5.289   3.997
 4224SOL    HW113571   5.317   5.336   4.070
 4224SOL    HW213572   5.300   5.324   3.908
 4225SOL     OW13573   2.509   2.849   5.364
 4225SOL    HW113574   2.485   2.924   5.303
 4225SOL    HW213575   2.594   2.871   5.413
 4226SOL     OW13576   0.918   6.523   3.008
 4226SOL    HW113577   0.908   6.453   2.937
 4226SOL    HW213578   0.832   6.535   3.056
 4227SOL     OW13579   3.403   5.555   1.696
 4227SOL    HW113580   3.344   5.605   1.759
 4227SOL    HW213581   3.357   5.470   1.669
 4228SOL     OW13582   0.823   5.611   5.624
 4228SOL    HW113583   0.781   5.576   5.708
 4228SOL    HW213584   0.791   5.556   5.547
 4229SOL     OW13585   4.545   5.794   5.826
 4229SOL    HW113586   4.550   5.890   5.798
 4229SOL    HW213587   4.456   5.756   5.803
 4230SOL     OW13588   1.325   5.478   2.876
 4230SOL    HW113589   1.400   5.538   2.904
 4230SOL    HW213590   1.289   5.508   2.788
 4231SOL     OW13591   5.001   6.552   5.970
 4231SOL    HW113592   5.068   6.603   6.024
 4231SOL    HW213593   4.913   6.551   6.018
 4232SOL     OW13594   0.889   4.868   3.092
 4232SOL    HW113595   0.829   4.791   3.111
 4232SOL    HW213596   0.848   4.926   3.021
 4233SOL     OW13597   6.025   0.452   5.420
 4233SOL    HW113598   6.061   0.537   5.457
 4233SOL    HW213599   5.993   0.393   5.495
 4234SOL     OW13600   2.275   5.414   5.108
 4234SOL    HW113601   2.310   5.422   5.015
 4234SOL    HW213602   2.350   5.422   5.173
 4235SOL     OW13603   5.578   3.948   6.169
 4235SOL    HW113604   5.509   3.997   6.222
 4235SOL    HW213605   5.622   3.879   6.227
 4236SOL     OW13606   6.576   3.872   2.018
 4236SOL    HW113607   6.594   3.914   2.107
 4236SOL    HW213608   6.541   3.780   2.031
 4237SOL     OW13609   5.818   5.164   3.303
 4237SOL    HW113610   5.874   5.084   3.321
 4237SOL    HW213611   5.794   5.209   3.389
 4238SOL     OW13612   2.094   6.530   2.572
 4238SOL    HW113613   2.087   6.602   2.503
 4238SOL    HW213614   2.101   6.441   2.528
 4239SOL     OW13615   5.094   1.323   2.654
 4239SOL    HW113616   5.047   1.236   2.641
 4239SOL    HW213617   5.032   1.398   2.630
 4240SOL     OW13618   1.917   6.202   0.385
 4240SOL    HW113619   2.004   6.217   0.433
 4240SOL    HW213620   1.891   6.285   0.336
 4241SOL     OW13621   5.811   0.714   0.764
 4241SOL    HW113622   5.858   0.701   0.851
 4241SOL    HW213623   5.760   0.631   0.742
 4242SOL     OW13624   3.122   2.185   4.233
 4242SOL    HW113625   3.173   2.228   4.308
 4242SOL    HW213626   3.070   2.108   4.269
 4243SOL     OW13627   6.451   2.947   2.392
 4243SOL    HW113628   6.526   2.995   2.436
 4243SOL    HW213629   6.475   2.850   2.380
 4244SOL     OW13630   4.314   4.590   1.565
 4244SOL    HW113631   4.379   4.514   1.561
 4244SOL    HW213632   4.357   4.669   1.609
 4245SOL     OW13633   6.674   1.383   6.510
 4245SOL    HW113634   6.628   1.348   6.591
 4245SOL    HW213635   6.612   1.445   6.461
 4246SOL     OW13636   0.177   3.818   3.132
 4246SOL    HW113637   0.125   3.832   3.048
 4246SOL    HW213638   0.166   3.897   3.192
 4247SOL     OW13639   2.843   6.242   3.346
 4247SOL    HW113640   2.818   6.153   3.307
 4247SOL    HW213641   2.779   6.265   3.420
 4248SOL     OW13642   3.666   1.419   3.548
 4248SOL    HW113643   3.702   1.338   3.594
 4248SOL    HW213644   3.742   1.474   3.514
 4249SOL     OW13645   6.180   2.814   4.561
 4249SOL    HW113646   6.275   2.823   4.531
 4249SOL    HW213647   6.119   2.842   4.487
 4250SOL     OW13648   6.632   4.317   2.952
 4250SOL    HW113649   6.715   4.288   2.905
 4250SOL    HW213650   6.558   4.253   2.932
 4251SOL     OW13651   5.777   4.700   0.775
 4251SOL    HW113652   5.697   4.759   0.781
 4251SOL    HW213653   5.814   4.683   0.866
 4252SOL     OW13654   5.549   6.390   5.657
 4252SOL    HW113655   5.595   6.478   5.670
 4252SOL    HW213656   5.591   6.341   5.580
 4253SOL     OW13657   3.611   6.364   0.689
 4253SOL    HW113658   3.685   6.418   0.729
 4253SOL    HW213659   3.560   6.318   0.762
 4254SOL     OW13660   0.615   2.738   2.582
 4254SOL    HW113661   0.699   2.696   2.616
 4254SOL    HW213662   0.566   2.781   2.658
 4255SOL     OW13663   6.072   3.910   3.432
 4255SOL    HW113664   5.974   3.891   3.446
 4255SOL    HW213665   6.106   3.855   3.355
 4256SOL     OW13666   2.133   6.700   0.249
 4256SOL    HW113667   2.059   6.725   0.186
 4256SOL    HW213668   2.110   6.612   0.293
 4257SOL     OW13669   2.668   0.559   3.995
 4257SOL    HW113670   2.592   0.499   4.017
 4257SOL    HW213671   2.729   0.513   3.931
 4258SOL     OW13672   5.079   6.135   0.887
 4258SOL    HW113673   5.050   6.138   0.791
 4258SOL    HW213674   5.008   6.177   0.944
 4259SOL     OW13675   2.968   0.646   0.655
 4259SOL    HW113676   2.917   0.709   0.596
 4259SOL    HW213677   3.066   0.666   0.649
 4260SOL     OW13678   5.198   6.720   6.798
 4260SOL    HW113679   5.127   6.718   6.728
 4260SOL    HW213680   5.286   6.698   6.756
 4261SOL     OW13681   1.804   0.102   1.620
 4261SOL    HW113682   1.710   0.111   1.586
 4261SOL    HW213683   1.844   0.019   1.584
 4262SOL     OW13684   0.641   4.788   5.240
 4262SOL    HW113685   0.614   4.801   5.336
 4262SOL    HW213686   0.740   4.791   5.232
 4263SOL     OW13687   2.781   6.560   3.335
 4263SOL    HW113688   2.823   6.473   3.308
 4263SOL    HW213689   2.767   6.560   3.434
 4264SOL     OW13690   0.404   2.807   2.757
 4264SOL    HW113691   0.323   2.857   2.787
 4264SOL    HW213692   0.380   2.710   2.746
 4265SOL     OW13693   5.768   1.306   0.782
 4265SOL    HW113694   5.688   1.302   0.722
 4265SOL    HW213695   5.782   1.218   0.826
 4266SOL     OW13696   1.805   5.142   0.412
 4266SOL    HW113697   1.780   5.045   0.412
 4266SOL    HW213698   1.881   5.157   0.475
 4267SOL     OW13699   2.126   3.563   4.529
 4267SOL    HW113700   2.095   3.490   4.468
 4267SOL    HW213701   2.139   3.647   4.477
 4268SOL     OW13702   1.063   6.097   6.232
 4268SOL    HW113703   1.020   6.007   6.235
 4268SOL    HW213704   1.020   6.156   6.301
 4269SOL     OW13705   2.268   1.359   1.865
 4269SOL    HW113706   2.193   1.364   1.799
 4269SOL    HW213707   2.244   1.410   1.948
 4270SOL     OW13708   3.986   3.640   3.419
 4270SOL    HW113709   4.047   3.562   3.404
 4270SOL    HW213710   4.016   3.717   3.362
 4271SOL     OW13711   0.197   1.043   6.750
 4271SOL    HW113712   0.193   1.110   6.676
 4271SOL    HW213713   0.108   1.039   6.796
 4272SOL     OW13714   6.089   2.833   4.812
 4272SOL    HW113715   6.129   2.857   4.723
 4272SOL    HW213716   6.010   2.774   4.797
 4273SOL     OW13717   4.182   6.278   5.230
 4273SOL    HW113718   4.207   6.189   5.191
 4273SOL    HW213719   4.263   6.322   5.268
 4274SOL     OW13720   1.465   6.653   1.905
 4274SOL    HW113721   1.498   6.725   1.844
 4274SOL    HW213722   1.463   6.687   1.999
 4275SOL     OW13723   6.566   0.830   4.320
 4275SOL    HW113724   6.567   0.790   4.411
 4275SOL    HW213725   6.593   0.761   4.253
 4276SOL     OW13726   2.123   4.998   3.440
 4276SOL    HW113727   2.175   5.024   3.521
 4276SOL    HW213728   2.031   5.038   3.446
 4277SOL     OW13729   6.080   4.925   4.237
 4277SOL    HW113730   5.981   4.923   4.227
 4277SOL    HW213731   6.118   4.836   4.211
 4278SOL     OW13732   0.483   0.433   4.375
 4278SOL    HW113733   0.476   0.442   4.275
 4278SOL    HW213734   0.437   0.510   4.419
 4279SOL     OW13735   3.612   0.473   4.655
 4279SOL    HW113736   3.657   0.397   4.607
 4279SOL    HW213737   3.521   0.443   4.685
 4280SOL     OW13738   5.125   0.085   6.300
 4280SOL    HW113739   5.194   0.019   6.331
 4280SOL    HW213740   5.105   0.068   6.204
 4281SOL     OW13741   0.791   5.188   3.676
 4281SOL    HW113742   0.790   5.167   3.579
 4281SOL    HW213743   0.821   5.107   3.727
 4282SOL     OW13744   3.273   3.908   6.734
 4282SOL    HW113745   3.304   3.977   6.669
 4282SOL    HW213746   3.326   3.915   6.818
 4283SOL     OW13747   1.623   0.779   3.428
 4283SOL    HW113748   1.550   0.815   3.485
 4283SOL    HW213749   1.624   0.679   3.434
 4284SOL     OW13750   4.402   4.915   1.286
 4284SOL    HW113751   4.466   4.865   1.227
 4284SOL    HW213752   4.374   5.000   1.241
 4285SOL     OW13753   0.319   0.533   6.170
 4285SOL    HW113754   0.245   0.551   6.235
 4285SOL    HW213755   0.290   0.560   6.078
 4286SOL     OW13756   4.942   5.806   6.044
 4286SOL    HW113757   4.939   5.736   6.116
 4286SOL    HW213758   5.018   5.787   5.982
 4287SOL     OW13759   5.559   1.925   6.774
 4287SOL    HW113760   5.585   1.959   6.683
 4287SOL    HW213761   5.629   1.951   6.841
 4288SOL     OW13762   0.948   6.238   3.625
 4288SOL    HW113763   0.861   6.286   3.636
 4288SOL    HW213764   0.961   6.175   3.702
 4289SOL     OW13765   6.902   3.089   0.671
 4289SOL    HW113766   6.987   3.055   0.712
 4289SOL    HW213767   6.918   3.107   0.574
 4290SOL     OW13768   1.849   0.098   2.640
 4290SOL    HW113769   1.752   0.121   2.631
 4290SOL    HW213770   1.865   0.055   2.729
 4291SOL     OW13771   4.098   3.721   1.260
 4291SOL    HW113772   4.119   3.663   1.338
 4291SOL    HW213773   4.138   3.812   1.274
 4292SOL     OW13774   6.454   4.616   6.487
 4292SOL    HW113775   6.450   4.521   6.458
 4292SOL    HW213776   6.532   4.661   6.442
 4293SOL     OW13777   1.772   3.223   0.585
 4293SOL    HW113778   1.684   3.177   0.588
 4293SOL    HW213779   1.763   3.314   0.625
 4294SOL     OW13780   2.698   2.890   6.559
 4294SOL    HW113781   2.689   2.987   6.540
 4294SOL    HW213782   2.788   2.858   6.531
 4295SOL     OW13783   4.117   5.583   4.130
 4295SOL    HW113784   4.141   5.512   4.196
 4295SOL    HW213785   4.143   5.554   4.038
 4296SOL     OW13786   4.276   0.766   0.724
 4296SOL    HW113787   4.319   0.713   0.797
 4296SOL    HW213788   4.179   0.780   0.747
 4297SOL     OW13789   5.118   0.720   6.763
 4297SOL    HW113790   5.193   0.676   6.714
 4297SOL    HW213791   5.145   0.735   6.858
 4298SOL     OW13792   3.482   5.531   0.171
 4298SOL    HW113793   3.442   5.546   0.261
 4298SOL    HW213794   3.545   5.606   0.150
 4299SOL     OW13795   1.230   2.520   0.166
 4299SOL    HW113796   1.231   2.603   0.112
 4299SOL    HW213797   1.255   2.541   0.261
 4300SOL     OW13798   4.254   0.246   0.032
 4300SOL    HW113799   4.195   0.326   0.016
 4300SOL    HW213800   4.308   0.228   6.964
 4301SOL     OW13801   3.944   1.878   0.832
 4301SOL    HW113802   3.872   1.916   0.892
 4301SOL    HW213803   3.932   1.779   0.824
 4302SOL     OW13804   1.464   6.676   5.790
 4302SOL    HW113805   1.465   6.653   5.887
 4302SOL    HW213806   1.555   6.661   5.751
 4303SOL     OW13807   6.221   4.699   4.221
 4303SOL    HW113808   6.250   4.659   4.134
 4303SOL    HW213809   6.292   4.685   4.290
 4304SOL     OW13810   3.087   3.960   2.881
 4304SOL    HW113811   3.050   3.875   2.917
 4304SOL    HW213812   3.134   4.010   2.954
 4305SOL     OW13813   6.507   0.784   4.606
 4305SOL    HW113814   6.565   0.716   4.650
 4305SOL    HW213815   6.525   0.874   4.645
 4306SOL     OW13816   6.651   3.529   6.923
 4306SOL    HW113817   6.699   3.541   6.835
 4306SOL    HW213818   6.563   3.485   6.906
 4307SOL     OW13819   4.209   3.777   6.205
 4307SOL    HW113820   4.240   3.686   6.179
 4307SOL    HW213821   4.114   3.773   6.238
 4308SOL     OW13822   6.067   5.202   6.392
 4308SOL    HW113823   6.025   5.141   6.459
 4308SOL    HW213824   6.162   5.219   6.417
 4309SOL     OW13825   1.332   1.202   0.289
 4309SOL    HW113826   1.420   1.240   0.316
 4309SOL    HW213827   1.329   1.105   0.311
 4310SOL     OW13828   1.698   2.961   3.021
 4310SOL    HW113829   1.605   2.925   3.025
 4310SOL    HW213830   1.741   2.953   3.112
 4311SOL     OW13831   1.867   5.998   3.529
 4311SOL    HW113832   1.805   5.971   3.603
 4311SOL    HW213833   1.876   6.097   3.528
 4312SOL     OW13834   1.287   5.096   0.980
 4312SOL    HW113835   1.300   5.156   1.059
 4312SOL    HW213836   1.264   5.004   1.012
 4313SOL     OW13837   4.597   1.721   1.234
 4313SOL    HW113838   4.619   1.720   1.137
 4313SOL    HW213839   4.572   1.813   1.262
 4314SOL     OW13840   5.769   1.483   3.999
 4314SOL    HW113841   5.753   1.385   4.013
 4314SOL    HW213842   5.811   1.522   4.080
 4315SOL     OW13843   2.907   0.082   2.005
 4315SOL    HW113844   2.858   0.083   1.917
 4315SOL    HW213845   2.843   0.098   2.079
 4316SOL     OW13846   5.570   6.910   1.682
 4316SOL    HW113847   5.598   6.933   1.589
 4316SOL    HW213848   5.491   6.849   1.679
 4317SOL     OW13849   4.477   1.249   5.117
 4317SOL    HW113850   4.513   1.171   5.065
 4317SOL    HW213851   4.413   1.300   5.060
 4318SOL     OW13852   0.656   3.432   4.590
 4318SOL    HW113853   0.738   3.478   4.556
 4318SOL    HW213854   0.656   3.433   4.690
 4319SOL     OW13855   2.190   2.632   0.663
 4319SOL    HW113856   2.239   2.717   0.685
 4319SOL    HW213857   2.256   2.561   0.640
 4320SOL     OW13858   6.048   6.289   1.797
 4320SOL    HW113859   5.973   6.292   1.731
 4320SOL    HW213860   6.107   6.368   1.785
 4321SOL     OW13861   6.955   6.622   5.211
 4321SOL    HW113862   6.899   6.558   5.158
 4321SOL    HW213863   6.985   6.697   5.152
 4322SOL     OW13864   6.537   2.258   6.648
 4322SOL    HW113865   6.627   2.287   6.680
 4322SOL    HW213866   6.468   2.284   6.715
 4323SOL     OW13867   4.888   4.035   0.914
 4323SOL    HW113868   4.870   3.972   0.989
 4323SOL    HW213869   4.873   3.988   0.827
 4324SOL     OW13870   5.347   3.982   6.297
 4324SOL    HW113871   5.370   4.003   6.392
 4324SOL    HW213872   5.287   3.902   6.294
 4325SOL     OW13873   2.666   1.274   1.408
 4325SOL    HW113874   2.722   1.281   1.325
 4325SOL    HW213875   2.726   1.270   1.488
 4326SOL     OW13876   5.277   4.453   5.333
 4326SOL    HW113877   5.266   4.394   5.413
 4326SOL    HW213878   5.243   4.405   5.252
 4327SOL     OW13879   5.909   5.561   2.089
 4327SOL    HW113880   5.837   5.574   2.158
 4327SOL    HW213881   5.969   5.641   2.089
 4328SOL     OW13882   4.533   3.493   5.619
 4328SOL    HW113883   4.493   3.403   5.633
 4328SOL    HW213884   4.534   3.514   5.521
 4329SOL     OW13885   4.157   1.536   5.759
 4329SOL    HW113886   4.209   1.594   5.822
 4329SOL    HW213887   4.088   1.486   5.810
 4330SOL     OW13888   2.781   0.275   5.149
 4330SOL    HW113889   2.695   0.316   5.121
 4330SOL    HW213890   2.778   0.253   5.247
 4331SOL     OW13891   5.235   2.838   0.593
 4331SOL    HW113892   5.283   2.807   0.511
 4331SOL    HW213893   5.161   2.774   0.615
 4332SOL     OW13894   4.955   4.658   2.236
 4332SOL    HW113895   4.988   4.571   2.273
 4332SOL    HW213896   4.952   4.653   2.137
 4333SOL     OW13897   3.786   0.578   5.332
 4333SOL    HW113898   3.709   0.586   5.395
 4333SOL    HW213899   3.794   0.661   5.277
 4334SOL     OW13900   1.895   2.399   2.539
 4334SOL    HW113901   1.973   2.337   2.528
 4334SOL    HW213902   1.909   2.456   2.621
 4335SOL     OW13903   3.465   3.711   2.895
 4335SOL    HW113904   3.430   3.800   2.865
 4335SOL    HW213905   3.538   3.681   2.832
 4336SOL     OW13906   1.725   6.343   0.240
 4336SOL    HW113907   1.691   6.267   0.295
 4336SOL    HW213908   1.728   6.317   0.144
 4337SOL     OW13909   0.308   4.874   0.680
 4337SOL    HW113910   0.332   4.781   0.655
 4337SOL    HW213911   0.385   4.935   0.659
 4338SOL     OW13912   5.199   5.850   4.523
 4338SOL    HW113913   5.223   5.855   4.620
 4338SOL    HW213914   5.110   5.893   4.509
 4339SOL     OW13915   5.600   3.149   5.350
 4339SOL    HW113916   5.546   3.183   5.426
 4339SOL    HW213917   5.577   3.201   5.267
 4340SOL     OW13918   6.523   3.900   1.330
 4340SOL    HW113919   6.513   3.914   1.429
 4340SOL    HW213920   6.546   3.804   1.312
 4341SOL     OW13921   0.046   5.615   2.013
 4341SOL    HW113922   0.068   5.687   2.079
 4341SOL    HW213923   0.107   5.621   1.935
 4342SOL     OW13924   5.843   3.950   4.358
 4342SOL    HW113925   5.899   3.868   4.348
 4342SOL    HW213926   5.898   4.023   4.399
 4343SOL     OW13927   2.375   6.194   5.631
 4343SOL    HW113928   2.390   6.172   5.534
 4343SOL    HW213929   2.277   6.191   5.651
 4344SOL     OW13930   1.464   5.193   2.847
 4344SOL    HW113931   1.393   5.176   2.779
 4344SOL    HW213932   1.421   5.222   2.933
 4345SOL     OW13933   2.554   3.239   5.328
 4345SOL    HW113934   2.504   3.174   5.271
 4345SOL    HW213935   2.509   3.329   5.324
 4346SOL     OW13936   1.808   3.173   2.186
 4346SOL    HW113937   1.791   3.144   2.092
 4346SOL    HW213938   1.759   3.114   2.250
 4347SOL     OW13939   6.394   0.109   3.029
 4347SOL    HW113940   6.295   0.119   3.032
 4347SOL    HW213941   6.417   0.021   2.985
 4348SOL     OW13942   0.387   4.345   2.723
 4348SOL    HW113943   0.451   4.420   2.710
 4348SOL    HW213944   0.319   4.370   2.792
 4349SOL     OW13945   0.115   1.704   2.567
 4349SOL    HW113946   0.085   1.705   2.662
 4349SOL    HW213947   0.069   1.778   2.517
 4350SOL     OW13948   5.358   2.029   3.829
 4350SOL    HW113949   5.325   2.059   3.739
 4350SOL    HW213950   5.440   1.973   3.818
 4351SOL     OW13951   2.408   6.114   1.340
 4351SOL    HW113952   2.432   6.159   1.426
 4351SOL    HW213953   2.314   6.079   1.346
 4352SOL     OW13954   0.895   3.103   2.467
 4352SOL    HW113955   0.955   3.040   2.517
 4352SOL    HW213956   0.931   3.117   2.375
 4353SOL     OW13957   3.201   3.373   0.015
 4353SOL    HW113958   3.255   3.295   0.046
 4353SOL    HW213959   3.104   3.357   0.037
 4354SOL     OW13960   2.535   0.109   5.641
 4354SOL    HW113961   2.606   0.128   5.710
 4354SOL    HW213962   2.472   0.040   5.677
 4355SOL     OW13963   3.062   0.411   2.349
 4355SOL    HW113964   3.053   0.321   2.393
 4355SOL    HW213965   3.017   0.480   2.405
 4356SOL     OW13966   4.934   4.277   0.763
 4356SOL    HW113967   4.964   4.363   0.804
 4356SOL    HW213968   4.928   4.207   0.834
 4357SOL     OW13969   6.255   0.587   6.937
 4357SOL    HW113970   6.340   0.545   6.968
 4357SOL    HW213971   6.264   0.615   6.842
 4358SOL     OW13972   0.742   6.318   0.054
 4358SOL    HW113973   0.742   6.292   0.151
 4358SOL    HW213974   0.655   6.291   0.013
 4359SOL     OW13975   2.706   2.063   6.340
 4359SOL    HW113976   2.781   2.115   6.298
 4359SOL    HW213977   2.657   2.012   6.269
 4360SOL     OW13978   1.121   2.268   4.238
 4360SOL    HW113979   1.172   2.243   4.156
 4360SOL    HW213980   1.079   2.358   4.225
 4361SOL     OW13981   2.460   3.225   1.264
 4361SOL    HW113982   2.521   3.283   1.210
 4361SOL    HW213983   2.405   3.168   1.204
 4362SOL     OW13984   6.246   5.043   2.955
 4362SOL    HW113985   6.284   5.111   2.893
 4362SOL    HW213986   6.315   5.017   3.023
 4363SOL     OW13987   4.976   2.764   0.051
 4363SOL    HW113988   4.891   2.815   0.069
 4363SOL    HW213989   5.052   2.809   0.098
 4364SOL     OW13990   3.346   3.755   4.992
 4364SOL    HW113991   3.261   3.726   5.035
 4364SOL    HW213992   3.330   3.837   4.937
 4365SOL     OW13993   2.251   1.939   1.847
 4365SOL    HW113994   2.301   2.026   1.842
 4365SOL    HW213995   2.283   1.878   1.775
 4366SOL     OW13996   6.433   6.562   6.955
 4366SOL    HW113997   6.361   6.614   7.001
 4366SOL    HW213998   6.483   6.508   0.007
 4367SOL     OW13999   2.392   4.596   4.873
 4367SOL    HW114000   2.485   4.630   4.880
 4367SOL    HW214001   2.360   4.565   4.962
 4368SOL     OW14002   4.048   4.521   0.861
 4368SOL    HW114003   3.958   4.517   0.818
 4368SOL    HW214004   4.037   4.512   0.960
 4369SOL     OW14005   3.875   5.265   3.276
 4369SOL    HW114006   3.971   5.283   3.252
 4369SOL    HW214007   3.856   5.168   3.267
 4370SOL     OW14008   4.969   5.448   2.698
 4370SOL    HW114009   5.065   5.455   2.671
 4370SOL    HW214010   4.934   5.358   2.672
 4371SOL     OW14011   1.256   1.981   1.555
 4371SOL    HW114012   1.163   1.951   1.576
 4371SOL    HW214013   1.253   2.047   1.479
 4372SOL     OW14014   3.478   1.211   3.069
 4372SOL    HW114015   3.518   1.289   3.118
 4372SOL    HW214016   3.484   1.227   2.971
 4373SOL     OW14017   6.916   2.221   6.576
 4373SOL    HW114018   6.878   2.241   6.666
 4373SOL    HW214019   6.907   2.302   6.518
 4374SOL     OW14020   1.324   1.991   2.425
 4374SOL    HW114021   1.416   1.979   2.387
 4374SOL    HW214022   1.312   1.930   2.503
 4375SOL     OW14023   3.490   0.517   3.083
 4375SOL    HW114024   3.513   0.426   3.117
 4375SOL    HW214025   3.571   0.574   3.082
 4376SOL     OW14026   6.462   6.872   1.835
 4376SOL    HW114027   6.402   6.800   1.870
 4376SOL    HW214028   6.527   6.900   1.906
 4377SOL     OW14029   5.357   4.081   0.912
 4377SOL    HW114030   5.379   3.999   0.965
 4377SOL    HW214031   5.276   4.126   0.952
 4378SOL     OW14032   2.418   1.691   2.833
 4378SOL    HW114033   2.436   1.716   2.738
 4378SOL    HW214034   2.374   1.768   2.880
 4379SOL     OW14035   1.983   1.306   2.664
 4379SOL    HW114036   1.959   1.380   2.601
 4379SOL    HW214037   1.961   1.218   2.622
 4380SOL     OW14038   1.404   0.162   2.469
 4380SOL    HW114039   1.497   0.126   2.459
 4380SOL    HW214040   1.338   0.088   2.457
 4381SOL     OW14041   0.513   5.269   5.309
 4381SOL    HW114042   0.573   5.211   5.254
 4381SOL    HW214043   0.526   5.364   5.283
 4382SOL     OW14044   0.650   3.524   5.158
 4382SOL    HW114045   0.580   3.454   5.146
 4382SOL    HW214046   0.632   3.575   5.242
 4383SOL     OW14047   0.765   3.172   6.874
 4383SOL    HW114048   0.812   3.259   6.862
 4383SOL    HW214049   0.706   3.177   6.954
 4384SOL     OW14050   5.840   0.710   4.781
 4384SOL    HW114051   5.866   0.797   4.823
 4384SOL    HW214052   5.829   0.722   4.683
 4385SOL     OW14053   5.396   2.524   5.002
 4385SOL    HW114054   5.342   2.556   4.924
 4385SOL    HW214055   5.341   2.534   5.086
 4386SOL     OW14056   1.810   3.715   5.814
 4386SOL    HW114057   1.895   3.764   5.831
 4386SOL    HW214058   1.760   3.704   5.901
 4387SOL     OW14059   0.022   2.534   1.584
 4387SOL    HW114060   7.009   2.444   1.618
 4387SOL    HW214061   6.956   2.591   1.569
 4388SOL     OW14062   4.360   2.608   5.825
 4388SOL    HW114063   4.295   2.673   5.785
 4388SOL    HW214064   4.338   2.594   5.922
 4389SOL     OW14065   6.098   3.137   1.304
 4389SOL    HW114066   6.155   3.093   1.235
 4389SOL    HW214067   6.017   3.081   1.320
 4390SOL     OW14068   3.748   6.797   1.615
 4390SOL    HW114069   3.821   6.816   1.679
 4390SOL    HW214070   3.777   6.820   1.522
 4391SOL     OW14071   2.199   5.766   0.094
 4391SOL    HW114072   2.190   5.681   0.044
 4391SOL    HW214073   2.288   5.807   0.077
 4392SOL     OW14074   6.979   2.876   5.662
 4392SOL    HW114075   6.987   2.781   5.692
 4392SOL    HW214076   6.923   2.881   5.579
 4393SOL     OW14077   6.248   0.793   2.073
 4393SOL    HW114078   6.306   0.723   2.114
 4393SOL    HW214079   6.211   0.759   1.986
 4394SOL     OW14080   6.575   5.473   2.352
 4394SOL    HW114081   6.595   5.570   2.339
 4394SOL    HW214082   6.503   5.445   2.287
 4395SOL     OW14083   2.119   0.266   1.849
 4395SOL    HW114084   2.138   0.340   1.913
 4395SOL    HW214085   2.072   0.302   1.769
 4396SOL     OW14086   1.977   1.519   4.247
 4396SOL    HW114087   1.963   1.600   4.190
 4396SOL    HW214088   1.905   1.515   4.317
 4397SOL     OW14089   1.921   2.040   4.162
 4397SOL    HW114090   1.830   2.058   4.200
 4397SOL    HW214091   1.926   2.079   4.070
 4398SOL     OW14092   1.011   3.557   5.469
 4398SOL    HW114093   1.093   3.528   5.519
 4398SOL    HW214094   1.031   3.558   5.371
 4399SOL     OW14095   3.556   6.615   2.610
 4399SOL    HW114096   3.533   6.533   2.558
 4399SOL    HW214097   3.644   6.601   2.656
 4400SOL     OW14098   2.073   6.502   5.406
 4400SOL    HW114099   2.076   6.450   5.321
 4400SOL    HW214100   2.164   6.533   5.430
 4401SOL     OW14101   2.802   7.009   5.663
 4401SOL    HW114102   2.844   6.954   5.735
 4401SOL    HW214103   2.715   6.967   5.636
 4402SOL     OW14104   1.444   0.699   2.748
 4402SOL    HW114105   1.401   0.705   2.838
 4402SOL    HW214106   1.420   0.779   2.694
 4403SOL     OW14107   0.811   0.450   0.726
 4403SOL    HW114108   0.854   0.520   0.782
 4403SOL    HW214109   0.878   0.415   0.659
 4404SOL     OW14110   1.951   6.298   5.978
 4404SOL    HW114111   1.984   6.210   6.011
 4404SOL    HW214112   2.028   6.351   5.943
 4405SOL     OW14113   1.775   4.398   1.854
 4405SOL    HW114114   1.786   4.386   1.953
 4405SOL    HW214115   1.777   4.308   1.810
 4406SOL     OW14116   0.735   2.717   0.819
 4406SOL    HW114117   0.750   2.683   0.912
 4406SOL    HW214118   0.674   2.796   0.822
 4407SOL     OW14119   6.560   5.613   0.990
 4407SOL    HW114120   6.508   5.558   0.924
 4407SOL    HW214121   6.582   5.557   1.070
 4408SOL     OW14122   2.421   0.022   0.724
 4408SOL    HW114123   2.389   6.944   0.704
 4408SOL    HW214124   2.488   0.049   0.655
 4409SOL     OW14125   4.395   1.023   2.317
 4409SOL    HW114126   4.408   1.121   2.302
 4409SOL    HW214127   4.310   0.994   2.273
 4410SOL     OW14128   0.824   4.461   0.234
 4410SOL    HW114129   0.783   4.370   0.236
 4410SOL    HW214130   0.871   4.478   0.321
 4411SOL     OW14131   3.783   4.191   5.074
 4411SOL    HW114132   3.807   4.191   4.977
 4411SOL    HW214133   3.790   4.283   5.111
 4412SOL     OW14134   4.589   6.131   3.977
 4412SOL    HW114135   4.527   6.059   4.010
 4412SOL    HW214136   4.672   6.130   4.032
 4413SOL     OW14137   5.608   4.687   4.250
 4413SOL    HW114138   5.693   4.703   4.199
 4413SOL    HW214139   5.551   4.622   4.200
 4414SOL     OW14140   3.562   5.886   1.269
 4414SOL    HW114141   3.639   5.830   1.302
 4414SOL    HW214142   3.592   5.980   1.256
 4415SOL     OW14143   4.819   2.555   0.165
 4415SOL    HW114144   4.771   2.474   0.131
 4415SOL    HW214145   4.833   2.619   0.089
 4416SOL     OW14146   4.184   1.912   3.834
 4416SOL    HW114147   4.125   1.894   3.755
 4416SOL    HW214148   4.170   2.006   3.865
 4417SOL     OW14149   5.643   3.869   3.785
 4417SOL    HW114150   5.639   3.845   3.882
 4417SOL    HW214151   5.653   3.968   3.776
 4418SOL     OW14152   6.588   2.048   2.170
 4418SOL    HW114153   6.495   2.032   2.204
 4418SOL    HW214154   6.583   2.090   2.079
 4419SOL     OW14155   6.077   0.115   5.481
 4419SOL    HW114156   6.041   0.168   5.558
 4419SOL    HW214157   6.016   0.125   5.403
 4420SOL     OW14158   4.042   1.275   2.035
 4420SOL    HW114159   4.001   1.233   2.116
 4420SOL    HW214160   3.974   1.333   1.989
 4421SOL     OW14161   1.792   1.504   5.011
 4421SOL    HW114162   1.784   1.559   5.095
 4421SOL    HW214163   1.747   1.415   5.026
 4422SOL     OW14164   1.232   4.225   6.826
 4422SOL    HW114165   1.251   4.194   6.732
 4422SOL    HW214166   1.309   4.201   6.885
 4423SOL     OW14167   0.276   3.530   5.384
 4423SOL    HW114168   0.239   3.552   5.474
 4423SOL    HW214169   0.305   3.614   5.339
 4424SOL     OW14170   5.418   0.720   4.136
 4424SOL    HW114171   5.483   0.683   4.201
 4424SOL    HW214172   5.325   0.704   4.169
 4425SOL     OW14173   3.151   5.034   0.539
 4425SOL    HW114174   3.188   4.995   0.455
 4425SOL    HW214175   3.218   5.098   0.579
 4426SOL     OW14176   1.032   0.993   4.109
 4426SOL    HW114177   0.937   1.016   4.087
 4426SOL    HW214178   1.043   0.893   4.107
 4427SOL     OW14179   6.214   6.697   2.385
 4427SOL    HW114180   6.241   6.617   2.331
 4427SOL    HW214181   6.138   6.743   2.339
 4428SOL     OW14182   4.146   0.973   3.705
 4428SOL    HW114183   4.101   0.995   3.618
 4428SOL    HW214184   4.199   1.052   3.736
 4429SOL     OW14185   3.384   0.166   2.260
 4429SOL    HW114186   3.349   0.131   2.172
 4429SOL    HW214187   3.406   0.263   2.251
 4430SOL     OW14188   5.039   4.809   5.104
 4430SOL    HW114189   4.999   4.720   5.080
 4430SOL    HW214190   5.124   4.794   5.155
 4431SOL     OW14191   2.663   0.938   3.047
 4431SOL    HW114192   2.736   0.963   3.111
 4431SOL    HW214193   2.645   1.016   2.986
 4432SOL     OW14194   2.977   3.080   5.691
 4432SOL    HW114195   2.955   3.171   5.657
 4432SOL    HW214196   2.900   3.018   5.674
 4433SOL     OW14197   5.979   2.179   4.021
 4433SOL    HW114198   5.879   2.171   4.015
 4433SOL    HW214199   6.017   2.194   3.929
 4434SOL     OW14200   6.044   1.733   2.919
 4434SOL    HW114201   6.074   1.686   2.835
 4434SOL    HW214202   6.047   1.669   2.995
 4435SOL     OW14203   4.499   4.010   1.037
 4435SOL    HW114204   4.553   4.070   1.096
 4435SOL    HW214205   4.539   3.919   1.036
 4436SOL     OW14206   4.610   0.984   1.717
 4436SOL    HW114207   4.634   0.888   1.709
 4436SOL    HW214208   4.522   0.992   1.764
 4437SOL     OW14209   1.295   2.949   2.734
 4437SOL    HW114210   1.393   2.935   2.719
 4437SOL    HW214211   1.257   3.004   2.660
 4438SOL     OW14212   4.663   6.833   6.625
 4438SOL    HW114213   4.670   6.767   6.551
 4438SOL    HW214214   4.571   6.828   6.666
 4439SOL     OW14215   0.126   4.179   1.583
 4439SOL    HW114216   0.105   4.081   1.577
 4439SOL    HW214217   0.048   4.232   1.550
 4440SOL     OW14218   2.945   4.982   1.169
 4440SOL    HW114219   3.045   4.978   1.175
 4440SOL    HW214220   2.918   4.979   1.073
 4441SOL     OW14221   0.633   1.663   1.736
 4441SOL    HW114222   0.625   1.668   1.835
 4441SOL    HW214223   0.630   1.756   1.698
 4442SOL     OW14224   1.675   4.815   4.390
 4442SOL    HW114225   1.604   4.762   4.343
 4442SOL    HW214226   1.634   4.864   4.467
 4443SOL     OW14227   1.501   3.413   5.541
 4443SOL    HW114228   1.541   3.456   5.460
 4443SOL    HW214229   1.566   3.347   5.579
 4444SOL     OW14230   3.418   3.606   6.822
 4444SOL    HW114231   3.432   3.530   6.758
 4444SOL    HW214232   3.329   3.648   6.804
 4445SOL     OW14233   1.310   6.604   0.471
 4445SOL    HW114234   1.350   6.544   0.540
 4445SOL    HW214235   1.366   6.603   0.388
 4446SOL     OW14236   5.111   2.273   1.280
 4446SOL    HW114237   5.035   2.211   1.299
 4446SOL    HW214238   5.196   2.233   1.315
 4447SOL     OW14239   5.663   3.973   5.819
 4447SOL    HW114240   5.583   4.021   5.856
 4447SOL    HW214241   5.643   3.875   5.815
 4448SOL     OW14242   2.450   5.323   1.823
 4448SOL    HW114243   2.394   5.359   1.898
 4448SOL    HW214244   2.404   5.245   1.781
 4449SOL     OW14245   5.341   0.793   6.386
 4449SOL    HW114246   5.435   0.760   6.393
 4449SOL    HW214247   5.285   0.748   6.456
 4450SOL     OW14248   3.612   2.174   5.937
 4450SOL    HW114249   3.668   2.100   5.973
 4450SOL    HW214250   3.600   2.245   6.006
 4451SOL     OW14251   5.507   4.522   4.051
 4451SOL    HW114252   5.445   4.450   4.079
 4451SOL    HW214253   5.475   4.563   3.966
 4452SOL     OW14254   5.655   5.586   4.479
 4452SOL    HW114255   5.691   5.545   4.395
 4452SOL    HW214256   5.567   5.545   4.501
 4453SOL     OW14257   1.779   2.480   1.403
 4453SOL    HW114258   1.824   2.455   1.489
 4453SOL    HW214259   1.688   2.440   1.400
 4454SOL     OW14260   1.378   1.578   0.123
 4454SOL    HW114261   1.316   1.539   0.190
 4454SOL    HW214262   1.388   1.515   0.046
 4455SOL     OW14263   5.406   5.164   5.616
 4455SOL    HW114264   5.346   5.234   5.579
 4455SOL    HW214265   5.352   5.084   5.643
 4456SOL     OW14266   2.479   6.529   3.306
 4456SOL    HW114267   2.568   6.543   3.350
 4456SOL    HW214268   2.480   6.570   3.215
 4457SOL     OW14269   3.829   1.675   2.953
 4457SOL    HW114270   3.801   1.600   3.014
 4457SOL    HW214271   3.918   1.710   2.982
 4458SOL     OW14272   1.965   3.156   0.754
 4458SOL    HW114273   2.003   3.246   0.779
 4458SOL    HW214274   1.893   3.168   0.686
 4459SOL     OW14275   4.482   2.073   4.707
 4459SOL    HW114276   4.437   2.150   4.753
 4459SOL    HW214277   4.447   2.064   4.614
 4460SOL     OW14278   1.101   3.471   0.010
 4460SOL    HW114279   1.127   3.384   6.983
 4460SOL    HW214280   1.148   3.482   0.097
 4461SOL     OW14281   1.684   0.712   0.870
 4461SOL    HW114282   1.704   0.616   0.851
 4461SOL    HW214283   1.723   0.737   0.959
 4462SOL     OW14284   6.669   4.717   2.187
 4462SOL    HW114285   6.628   4.656   2.120
 4462SOL    HW214286   6.759   4.746   2.155
 4463SOL     OW14287   4.943   0.916   0.972
 4463SOL    HW114288   4.949   0.885   1.067
 4463SOL    HW214289   4.892   0.850   0.919
 4464SOL     OW14290   0.248   5.661   0.356
 4464SOL    HW114291   0.249   5.674   0.455
 4464SOL    HW214292   0.183   5.724   0.315
 4465SOL     OW14293   3.761   5.413   1.046
 4465SOL    HW114294   3.826   5.412   1.122
 4465SOL    HW214295   3.790   5.347   0.976
 4466SOL     OW14296   1.200   2.029   3.239
 4466SOL    HW114297   1.118   2.017   3.184
 4466SOL    HW214298   1.271   1.966   3.207
 4467SOL     OW14299   1.986   5.416   3.537
 4467SOL    HW114300   1.901   5.461   3.566
 4467SOL    HW214301   1.970   5.318   3.525
 4468SOL     OW14302   1.393   3.885   0.691
 4468SOL    HW114303   1.457   3.848   0.623
 4468SOL    HW214304   1.423   3.857   0.782
 4469SOL     OW14305   3.666   1.102   1.349
 4469SOL    HW114306   3.679   1.016   1.299
 4469SOL    HW214307   3.733   1.108   1.423
 4470SOL     OW14308   0.466   1.890   2.176
 4470SOL    HW114309   0.550   1.938   2.202
 4470SOL    HW214310   0.401   1.892   2.253
 4471SOL     OW14311   0.754   2.408   6.551
 4471SOL    HW114312   0.830   2.414   6.486
 4471SOL    HW214313   0.696   2.490   6.542
 4472SOL     OW14314   0.607   2.511   1.620
 4472SOL    HW114315   0.655   2.495   1.707
 4472SOL    HW214316   0.628   2.603   1.587
 4473SOL     OW14317   5.824   3.282   4.251
 4473SOL    HW114318   5.780   3.193   4.254
 4473SOL    HW214319   5.760   3.352   4.283
 4474SOL     OW14320   2.997   6.919   2.215
 4474SOL    HW114321   2.988   6.981   2.137
 4474SOL    HW214322   2.956   6.960   2.296
 4475SOL     OW14323   1.285   4.099   2.037
 4475SOL    HW114324   1.271   4.169   2.107
 4475SOL    HW214325   1.197   4.064   2.007
 4476SOL     OW14326   6.276   1.189   3.278
 4476SOL    HW114327   6.254   1.141   3.363
 4476SOL    HW214328   6.249   1.285   3.286
 4477SOL     OW14329   1.610   0.554   5.374
 4477SOL    HW114330   1.581   0.462   5.346
 4477SOL    HW214331   1.544   0.591   5.439
 4478SOL     OW14332   3.025   0.168   2.513
 4478SOL    HW114333   2.948   0.201   2.568
 4478SOL    HW214334   3.106   0.160   2.571
 4479SOL     OW14335   0.244   2.204   1.529
 4479SOL    HW114336   0.237   2.216   1.628
 4479SOL    HW214337   0.268   2.109   1.510
 4480SOL     OW14338   0.243   4.035   4.951
 4480SOL    HW114339   0.305   4.098   4.904
 4480SOL    HW214340   0.263   3.941   4.924
 4481SOL     OW14341   2.697   5.284   5.038
 4481SOL    HW114342   2.627   5.216   5.061
 4481SOL    HW214343   2.652   5.369   5.009
 4482SOL     OW14344   2.181   2.865   5.174
 4482SOL    HW114345   2.253   2.916   5.129
 4482SOL    HW214346   2.097   2.869   5.119
 4483SOL     OW14347   6.823   2.306   2.046
 4483SOL    HW114348   6.806   2.216   2.004
 4483SOL    HW214349   6.900   2.350   2.000
 4484SOL     OW14350   2.997   2.388   6.366
 4484SOL    HW114351   3.072   2.442   6.327
 4484SOL    HW214352   2.958   2.330   6.294
 4485SOL     OW14353   5.987   2.525   4.308
 4485SOL    HW114354   6.043   2.465   4.366
 4485SOL    HW214355   6.030   2.615   4.301
 4486SOL     OW14356   6.030   5.654   5.031
 4486SOL    HW114357   6.004   5.570   5.079
 4486SOL    HW214358   6.129   5.657   5.020
 4487SOL     OW14359   2.831   2.509   6.549
 4487SOL    HW114360   2.858   2.595   6.593
 4487SOL    HW214361   2.903   2.482   6.485
 4488SOL     OW14362   1.228   3.424   5.561
 4488SOL    HW114363   1.324   3.426   5.534
 4488SOL    HW214364   1.221   3.384   5.653
 4489SOL     OW14365   5.247   5.379   4.745
 4489SOL    HW114366   5.224   5.385   4.648
 4489SOL    HW214367   5.177   5.326   4.793
 4490SOL     OW14368   5.140   2.088   1.587
 4490SOL    HW114369   5.050   2.082   1.543
 4490SOL    HW214370   5.142   2.026   1.666
 4491SOL     OW14371   0.073   3.354   3.750
 4491SOL    HW114372   0.100   3.402   3.834
 4491SOL    HW214373   0.144   3.288   3.725
 4492SOL     OW14374   5.960   4.199   2.273
 4492SOL    HW114375   5.946   4.297   2.285
 4492SOL    HW214376   6.029   4.184   2.202
 4493SOL     OW14377   5.156   6.061   4.784
 4493SOL    HW114378   5.225   6.119   4.741
 4493SOL    HW214379   5.111   6.112   4.857
 4494SOL     OW14380   0.212   0.855   6.253
 4494SOL    HW114381   0.164   0.783   6.303
 4494SOL    HW214382   0.168   0.869   6.165
 4495SOL     OW14383   4.501   0.387   3.796
 4495SOL    HW114384   4.455   0.371   3.708
 4495SOL    HW214385   4.588   0.338   3.798
 4496SOL     OW14386   5.598   6.258   0.738
 4496SOL    HW114387   5.613   6.238   0.641
 4496SOL    HW214388   5.679   6.233   0.791
 4497SOL     OW14389   4.057   1.689   6.710
 4497SOL    HW114390   4.118   1.750   6.761
 4497SOL    HW214391   4.014   1.625   6.773
 4498SOL     OW14392   0.093   4.087   6.856
 4498SOL    HW114393   0.088   4.136   6.769
 4498SOL    HW214394   0.181   4.105   6.900
 4499SOL     OW14395   6.077   3.493   3.705
 4499SOL    HW114396   6.055   3.581   3.748
 4499SOL    HW214397   6.025   3.420   3.750
 4500SOL     OW14398   3.346   3.541   5.404
 4500SOL    HW114399   3.431   3.492   5.384
 4500SOL    HW214400   3.368   3.626   5.452
 4501SOL     OW14401   6.874   3.386   2.896
 4501SOL    HW114402   6.818   3.465   2.920
 4501SOL    HW214403   6.949   3.416   2.837
 4502SOL     OW14404   0.596   3.188   0.083
 4502SOL    HW114405   0.515   3.233   0.121
 4502SOL    HW214406   0.617   3.107   0.137
 4503SOL     OW14407   3.735   6.849   1.108
 4503SOL    HW114408   3.756   6.782   1.037
 4503SOL    HW214409   3.686   6.926   1.067
 4504SOL     OW14410   0.909   1.231   4.668
 4504SOL    HW114411   0.878   1.170   4.595
 4504SOL    HW214412   0.982   1.187   4.720
 4505SOL     OW14413   6.303   5.065   1.785
 4505SOL    HW114414   6.296   5.066   1.685
 4505SOL    HW214415   6.324   5.158   1.818
 4506SOL     OW14416   4.805   2.771   3.181
 4506SOL    HW114417   4.807   2.789   3.083
 4506SOL    HW214418   4.744   2.694   3.200
 4507SOL     OW14419   6.874   3.865   3.274
 4507SOL    HW114420   6.930   3.897   3.350
 4507SOL    HW214421   6.822   3.942   3.236
 4508SOL     OW14422   1.408   4.960   6.380
 4508SOL    HW114423   1.387   4.862   6.380
 4508SOL    HW214424   1.395   4.997   6.472
 4509SOL     OW14425   5.014   2.346   2.994
 4509SOL    HW114426   5.033   2.434   2.951
 4509SOL    HW214427   5.023   2.274   2.926
 4510SOL     OW14428   4.410   2.063   4.104
 4510SOL    HW114429   4.313   2.084   4.117
 4510SOL    HW214430   4.447   2.122   4.033
 4511SOL     OW14431   6.238   3.301   6.561
 4511SOL    HW114432   6.179   3.344   6.629
 4511SOL    HW214433   6.207   3.208   6.542
 4512SOL     OW14434   3.077   0.518   6.023
 4512SOL    HW114435   2.997   0.473   6.061
 4512SOL    HW214436   3.151   0.516   6.089
 4513SOL     OW14437   0.850   4.887   5.898
 4513SOL    HW114438   0.766   4.864   5.948
 4513SOL    HW214439   0.905   4.949   5.954
 4514SOL     OW14440   3.310   2.412   5.852
 4514SOL    HW114441   3.304   2.477   5.775
 4514SOL    HW214442   3.403   2.375   5.856
 4515SOL     OW14443   5.871   1.888   5.263
 4515SOL    HW114444   5.772   1.897   5.275
 4515SOL    HW214445   5.911   1.851   5.346
 4516SOL     OW14446   2.530   6.961   0.218
 4516SOL    HW114447   2.588   6.956   0.299
 4516SOL    HW214448   2.520   6.870   0.179
 4517SOL     OW14449   4.857   6.381   6.824
 4517SOL    HW114450   4.771   6.340   6.793
 4517SOL    HW214451   4.848   6.480   6.825
 4518SOL     OW14452   0.414   6.702   2.381
 4518SOL    HW114453   0.442   6.720   2.475
 4518SOL    HW214454   0.431   6.606   2.358
 4519SOL     OW14455   5.586   6.613   1.056
 4519SOL    HW114456   5.605   6.660   0.970
 4519SOL    HW214457   5.672   6.597   1.105
 4520SOL     OW14458   4.014   6.110   6.269
 4520SOL    HW114459   4.009   6.141   6.364
 4520SOL    HW214460   3.941   6.044   6.252
 4521SOL     OW14461   5.783   1.995   5.641
 4521SOL    HW114462   5.830   2.034   5.563
 4521SOL    HW214463   5.848   1.978   5.715
 4522SOL     OW14464   5.606   5.315   3.221
 4522SOL    HW114465   5.684   5.258   3.247
 4522SOL    HW214466   5.631   5.411   3.231
 4523SOL     OW14467   1.355   4.412   0.325
 4523SOL    HW114468   1.448   4.449   0.329
 4523SOL    HW214469   1.322   4.416   0.231
 4524SOL     OW14470   6.267   3.483   2.212
 4524SOL    HW114471   6.228   3.431   2.288
 4524SOL    HW214472   6.266   3.427   2.129
 4525SOL     OW14473   4.256   2.281   5.374
 4525SOL    HW114474   4.247   2.208   5.442
 4525SOL    HW214475   4.178   2.343   5.381
 4526SOL     OW14476   6.905   0.375   6.771
 4526SOL    HW114477   6.914   0.472   6.748
 4526SOL    HW214478   6.988   0.327   6.744
 4527SOL     OW14479   6.731   0.040   2.724
 4527SOL    HW114480   6.801   6.983   2.714
 4527SOL    HW214481   6.675   0.043   2.641
 4528SOL     OW14482   4.740   0.127   6.166
 4528SOL    HW114483   4.655   0.166   6.202
 4528SOL    HW214484   4.794   0.089   6.242
 4529SOL     OW14485   1.833   0.780   4.979
 4529SOL    HW114486   1.812   0.786   5.077
 4529SOL    HW214487   1.927   0.747   4.967
 4530SOL     OW14488   2.492   5.469   3.410
 4530SOL    HW114489   2.534   5.383   3.441
 4530SOL    HW214490   2.405   5.449   3.365
 4531SOL     OW14491   0.454   3.224   6.021
 4531SOL    HW114492   0.505   3.139   6.004
 4531SOL    HW214493   0.471   3.289   5.947
 4532SOL     OW14494   6.780   1.298   2.346
 4532SOL    HW114495   6.787   1.261   2.254
 4532SOL    HW214496   6.793   1.397   2.344
 4533SOL     OW14497   2.287   1.109   3.051
 4533SOL    HW114498   2.234   1.177   3.101
 4533SOL    HW214499   2.353   1.066   3.113
 4534SOL     OW14500   5.370   4.062   5.649
 4534SOL    HW114501   5.345   3.976   5.605
 4534SOL    HW214502   5.388   4.046   5.746
 4535SOL     OW14503   3.810   0.940   2.202
 4535SOL    HW114504   3.722   0.976   2.170
 4535SOL    HW214505   3.873   0.932   2.125
 4536SOL     OW14506   3.625   1.958   4.909
 4536SOL    HW114507   3.708   1.901   4.902
 4536SOL    HW214508   3.558   1.911   4.966
 4537SOL     OW14509   4.112   3.593   1.016
 4537SOL    HW114510   4.107   3.615   1.114
 4537SOL    HW214511   4.027   3.622   0.972
 4538SOL     OW14512   2.640   0.407   2.170
 4538SOL    HW114513   2.681   0.481   2.223
 4538SOL    HW214514   2.547   0.433   2.143
 4539SOL     OW14515   3.356   5.664   4.878
 4539SOL    HW114516   3.456   5.656   4.886
 4539SOL    HW214517   3.330   5.760   4.880
 4540SOL     OW14518   2.463   1.560   0.544
 4540SOL    HW114519   2.393   1.628   0.565
 4540SOL    HW214520   2.424   1.469   0.549
 4541SOL     OW14521   5.103   1.356   6.411
 4541SOL    HW114522   5.049   1.276   6.437
 4541SOL    HW214523   5.177   1.327   6.351
 4542SOL     OW14524   0.263   2.608   1.671
 4542SOL    HW114525   0.334   2.555   1.625
 4542SOL    HW214526   0.175   2.562   1.662
 4543SOL     OW14527   5.252   2.043   0.818
 4543SOL    HW114528   5.233   2.038   0.720
 4543SOL    HW214529   5.182   1.991   0.868
 4544SOL     OW14530   3.229   5.560   0.037
 4544SOL    HW114531   3.267   5.559   6.959
 4544SOL    HW214532   3.296   5.601   0.099
 4545SOL     OW14533   5.993   3.082   4.903
 4545SOL    HW114534   6.021   2.993   4.867
 4545SOL    HW214535   5.905   3.073   4.951
 4546SOL     OW14536   2.374   7.005   4.384
 4546SOL    HW114537   2.468   6.985   4.359
 4546SOL    HW214538   2.368   0.084   4.419
 4547SOL     OW14539   6.463   1.491   0.516
 4547SOL    HW114540   6.501   1.547   0.442
 4547SOL    HW214541   6.372   1.459   0.489
 4548SOL     OW14542   2.273   2.388   3.844
 4548SOL    HW114543   2.187   2.433   3.818
 4548SOL    HW214544   2.314   2.438   3.921
 4549SOL     OW14545   5.442   4.067   2.338
 4549SOL    HW114546   5.512   4.064   2.267
 4549SOL    HW214547   5.406   3.975   2.354
 4550SOL     OW14548   1.149   4.590   2.997
 4550SOL    HW114549   1.066   4.579   2.942
 4550SOL    HW214550   1.222   4.534   2.959
 4551SOL     OW14551   0.622   3.435   4.885
 4551SOL    HW114552   0.672   3.377   4.949
 4551SOL    HW214553   0.587   3.515   4.934
 4552SOL     OW14554   5.769   2.078   1.139
 4552SOL    HW114555   5.675   2.109   1.150
 4552SOL    HW214556   5.785   2.055   1.042
 4553SOL     OW14557   4.983   3.692   0.313
 4553SOL    HW114558   5.065   3.635   0.308
 4553SOL    HW214559   4.910   3.641   0.359
 4554SOL     OW14560   6.831   0.253   1.824
 4554SOL    HW114561   6.750   0.268   1.768
 4554SOL    HW214562   6.893   0.331   1.814
 4555SOL     OW14563   1.742   1.412   5.795
 4555SOL    HW114564   1.656   1.378   5.830
 4555SOL    HW214565   1.813   1.404   5.865
 4556SOL     OW14566   5.689   3.921   4.655
 4556SOL    HW114567   5.694   3.964   4.565
 4556SOL    HW214568   5.618   3.850   4.654
 4557SOL     OW14569   4.908   5.509   4.198
 4557SOL    HW114570   4.877   5.419   4.168
 4557SOL    HW214571   4.960   5.552   4.125
 4558SOL     OW14572   0.057   4.096   4.752
 4558SOL    HW114573   0.141   4.045   4.770
 4558SOL    HW214574   6.995   4.033   4.751
 4559SOL     OW14575   0.009   3.466   2.692
 4559SOL    HW114576   0.032   3.564   2.696
 4559SOL    HW214577   0.092   3.413   2.675
 4560SOL     OW14578   5.963   3.349   1.389
 4560SOL    HW114579   5.973   3.344   1.489
 4560SOL    HW214580   6.016   3.275   1.347
 4561SOL     OW14581   3.413   2.115   3.477
 4561SOL    HW114582   3.440   2.210   3.488
 4561SOL    HW214583   3.410   2.092   3.380
 4562SOL     OW14584   1.561   6.918   0.600
 4562SOL    HW114585   1.477   6.968   0.575
 4562SOL    HW214586   1.583   6.851   0.529
 4563SOL     OW14587   0.282   3.023   1.516
 4563SOL    HW114588   0.212   2.954   1.533
 4563SOL    HW214589   0.322   3.009   1.426
 4564SOL     OW14590   6.846   5.995   1.827
 4564SOL    HW114591   6.860   6.047   1.911
 4564SOL    HW214592   6.768   5.933   1.840
 4565SOL     OW14593   1.486   0.407   4.404
 4565SOL    HW114594   1.532   0.323   4.375
 4565SOL    HW214595   1.520   0.484   4.350
 4566SOL     OW14596   0.062   3.312   1.374
 4566SOL    HW114597   0.067   3.370   1.455
 4566SOL    HW214598   0.030   3.365   1.296
 4567SOL     OW14599   6.946   1.439   6.468
 4567SOL    HW114600   6.954   1.536   6.446
 4567SOL    HW214601   6.854   1.420   6.500
 4568SOL     OW14602   2.061   3.828   5.839
 4568SOL    HW114603   2.157   3.829   5.868
 4568SOL    HW214604   2.022   3.920   5.851
 4569SOL     OW14605   2.254   0.135   3.208
 4569SOL    HW114606   2.182   0.066   3.215
 4569SOL    HW214607   2.285   0.140   3.113
 4570SOL     OW14608   6.256   6.575   2.634
 4570SOL    HW114609   6.353   6.557   2.649
 4570SOL    HW214610   6.245   6.627   2.549
 4571SOL     OW14611   4.800   3.200   6.179
 4571SOL    HW114612   4.831   3.261   6.253
 4571SOL    HW214613   4.712   3.233   6.144
 4572SOL     OW14614   2.105   1.117   6.388
 4572SOL    HW114615   2.191   1.133   6.338
 4572SOL    HW214616   2.124   1.109   6.486
 4573SOL     OW14617   6.767   6.856   0.348
 4573SOL    HW114618   6.856   6.842   0.392
 4573SOL    HW214619   6.778   6.920   0.272
 4574SOL     OW14620   5.937   4.052   0.416
 4574SOL    HW114621   5.892   4.096   0.494
 4574SOL    HW214622   5.919   3.954   0.418
 4575SOL     OW14623   5.262   0.613   5.239
 4575SOL    HW114624   5.169   0.589   5.210
 4575SOL    HW214625   5.321   0.533   5.234
 4576SOL     OW14626   3.727   5.317   5.476
 4576SOL    HW114627   3.737   5.376   5.396
 4576SOL    HW214628   3.651   5.254   5.461
 4577SOL     OW14629   0.827   2.595   4.485
 4577SOL    HW114630   0.826   2.619   4.388
 4577SOL    HW214631   0.918   2.612   4.523
 4578SOL     OW14632   1.096   2.119   5.218
 4578SOL    HW114633   1.067   2.213   5.234
 4578SOL    HW214634   1.061   2.088   5.129
 4579SOL     OW14635   4.543   0.785   2.921
 4579SOL    HW114636   4.550   0.879   2.955
 4579SOL    HW214637   4.447   0.766   2.897
 4580SOL     OW14638   5.683   3.491   0.434
 4580SOL    HW114639   5.652   3.400   0.407
 4580SOL    HW214640   5.698   3.547   0.353
 4581SOL     OW14641   2.367   6.100   2.837
 4581SOL    HW114642   2.351   6.120   2.934
 4581SOL    HW214643   2.465   6.086   2.821
 4582SOL     OW14644   4.533   0.681   4.187
 4582SOL    HW114645   4.604   0.681   4.258
 4582SOL    HW214646   4.485   0.769   4.188
 4583SOL     OW14647   3.331   1.842   6.993
 4583SOL    HW114648   3.272   1.804   6.921
 4583SOL    HW214649   3.395   1.772   0.009
 4584SOL     OW14650   1.782   5.006   5.309
 4584SOL    HW114651   1.757   5.094   5.350
 4584SOL    HW214652   1.785   4.936   5.380
 4585SOL     OW14653   1.894   5.146   3.075
 4585SOL    HW114654   1.891   5.187   3.167
 4585SOL    HW214655   1.843   5.060   3.076
 4586SOL     OW14656   4.036   4.086   0.671
 4586SOL    HW114657   4.061   4.053   0.762
 4586SOL    HW214658   3.937   4.077   0.658
 4587SOL     OW14659   3.079   3.843   3.248
 4587SOL    HW114660   3.151   3.775   3.265
 4587SOL    HW214661   2.992   3.795   3.230
 4588SOL     OW14662   3.145   2.992   5.871
 4588SOL    HW114663   3.093   3.047   5.805
 4588SOL    HW214664   3.081   2.943   5.930
 4589SOL     OW14665   5.727   0.937   2.159
 4589SOL    HW114666   5.694   1.012   2.102
 4589SOL    HW214667   5.715   0.961   2.256
 4590SOL     OW14668   4.369   5.255   1.357
 4590SOL    HW114669   4.347   5.242   1.260
 4590SOL    HW214670   4.285   5.260   1.410
 4591SOL     OW14671   1.492   6.855   5.095
 4591SOL    HW114672   1.570   6.798   5.068
 4591SOL    HW214673   1.498   6.875   5.193
 4592SOL     OW14674   2.970   1.401   3.182
 4592SOL    HW114675   2.963   1.420   3.084
 4592SOL    HW214676   2.923   1.473   3.233
 4593SOL     OW14677   5.770   6.426   2.214
 4593SOL    HW114678   5.842   6.469   2.159
 4593SOL    HW214679   5.711   6.372   2.154
 4594SOL     OW14680   2.908   0.461   3.175
 4594SOL    HW114681   2.994   0.474   3.126
 4594SOL    HW214682   2.857   0.547   3.178
 4595SOL     OW14683   4.797   2.787   5.815
 4595SOL    HW114684   4.764   2.855   5.750
 4595SOL    HW214685   4.763   2.808   5.906
 4596SOL     OW14686   6.663   0.394   2.776
 4596SOL    HW114687   6.761   0.402   2.755
 4596SOL    HW214688   6.612   0.463   2.725
 4597SOL     OW14689   2.808   5.478   6.766
 4597SOL    HW114690   2.782   5.571   6.791
 4597SOL    HW214691   2.892   5.453   6.813
 4598SOL     OW14692   1.444   5.781   1.193
 4598SOL    HW114693   1.419   5.807   1.286
 4598SOL    HW214694   1.431   5.682   1.181
 4599SOL     OW14695   0.996   5.358   1.029
 4599SOL    HW114696   0.914   5.307   1.003
 4599SOL    HW214697   1.046   5.386   0.947
 4600SOL     OW14698   0.479   6.250   5.773
 4600SOL    HW114699   0.467   6.222   5.678
 4600SOL    HW214700   0.576   6.240   5.798
 4601SOL     OW14701   1.303   1.777   5.068
 4601SOL    HW114702   1.277   1.774   5.165
 4601SOL    HW214703   1.222   1.767   5.011
 4602SOL     OW14704   3.081   6.192   0.515
 4602SOL    HW114705   3.173   6.196   0.555
 4602SOL    HW214706   3.085   6.145   0.427
 4603SOL     OW14707   3.651   5.951   0.682
 4603SOL    HW114708   3.589   5.958   0.761
 4603SOL    HW214709   3.597   5.938   0.599
 4604SOL     OW14710   4.544   6.529   0.249
 4604SOL    HW114711   4.592   6.478   0.177
 4604SOL    HW214712   4.610   6.565   0.314
 4605SOL     OW14713   1.506   6.366   1.895
 4605SOL    HW114714   1.491   6.311   1.977
 4605SOL    HW214715   1.513   6.462   1.920
 4606SOL     OW14716   0.639   6.772   2.726
 4606SOL    HW114717   0.671   6.685   2.690
 4606SOL    HW214718   0.619   6.763   2.823
 4607SOL     OW14719   2.135   3.411   3.233
 4607SOL    HW114720   2.135   3.510   3.249
 4607SOL    HW214721   2.175   3.365   3.312
 4608SOL     OW14722   0.014   5.064   3.740
 4608SOL    HW114723   6.970   5.064   3.660
 4608SOL    HW214724   6.998   4.995   3.805
 4609SOL     OW14725   4.994   4.846   6.596
 4609SOL    HW114726   5.051   4.918   6.558
 4609SOL    HW214727   4.899   4.878   6.603
 4610SOL     OW14728   4.782   1.504   0.410
 4610SOL    HW114729   4.695   1.462   0.434
 4610SOL    HW214730   4.790   1.510   0.311
 4611SOL     OW14731   0.912   6.742   5.861
 4611SOL    HW114732   0.950   6.791   5.939
 4611SOL    HW214733   0.895   6.647   5.885
 4612SOL     OW14734   2.225   6.818   0.698
 4612SOL    HW114735   2.193   6.855   0.610
 4612SOL    HW214736   2.148   6.780   0.748
 4613SOL     OW14737   1.743   5.723   2.124
 4613SOL    HW114738   1.729   5.794   2.055
 4613SOL    HW214739   1.820   5.748   2.182
 4614SOL     OW14740   5.746   3.203   3.438
 4614SOL    HW114741   5.668   3.153   3.473
 4614SOL    HW214742   5.826   3.143   3.436
 4615SOL     OW14743   0.645   1.747   0.475
 4615SOL    HW114744   0.550   1.718   0.471
 4615SOL    HW214745   0.693   1.714   0.394
 4616SOL     OW14746   5.881   1.319   4.534
 4616SOL    HW114747   5.798   1.263   4.528
 4616SOL    HW214748   5.867   1.393   4.599
 4617SOL     OW14749   1.383   1.685   2.866
 4617SOL    HW114750   1.383   1.591   2.901
 4617SOL    HW214751   1.436   1.744   2.927
 4618SOL     OW14752   2.154   3.348   5.319
 4618SOL    HW114753   2.133   3.359   5.222
 4618SOL    HW214754   2.175   3.253   5.339
 4619SOL     OW14755   2.934   5.976   3.546
 4619SOL    HW114756   2.964   6.037   3.472
 4619SOL    HW214757   2.977   6.005   3.632
 4620SOL     OW14758   0.809   5.204   0.914
 4620SOL    HW114759   0.734   5.240   0.857
 4620SOL    HW214760   0.782   5.116   0.952
 4621SOL     OW14761   4.942   0.975   2.216
 4621SOL    HW114762   4.920   0.968   2.313
 4621SOL    HW214763   5.001   0.898   2.190
 4622SOL     OW14764   4.003   4.770   0.616
 4622SOL    HW114765   3.990   4.847   0.679
 4622SOL    HW214766   3.928   4.706   0.626
 4623SOL     OW14767   4.917   5.694   1.437
 4623SOL    HW114768   4.883   5.638   1.362
 4623SOL    HW214769   4.983   5.761   1.402
 4624SOL     OW14770   3.358   0.359   2.874
 4624SOL    HW114771   3.430   0.292   2.861
 4624SOL    HW214772   3.381   0.419   2.951
 4625SOL     OW14773   1.600   4.994   1.914
 4625SOL    HW114774   1.656   4.915   1.939
 4625SOL    HW214775   1.559   5.033   1.997
 4626SOL     OW14776   4.598   4.043   1.696
 4626SOL    HW114777   4.534   4.112   1.730
 4626SOL    HW214778   4.664   4.022   1.768
 4627SOL     OW14779   1.601   4.870   5.058
 4627SOL    HW114780   1.691   4.852   5.019
 4627SOL    HW214781   1.584   4.969   5.061
 4628SOL     OW14782   4.589   4.530   4.883
 4628SOL    HW114783   4.623   4.601   4.945
 4628SOL    HW214784   4.499   4.499   4.914
 4629SOL     OW14785   2.455   5.463   5.730
 4629SOL    HW114786   2.416   5.548   5.765
 4629SOL    HW214787   2.384   5.411   5.682
 4630SOL     OW14788   2.229   5.445   2.206
 4630SOL    HW114789   2.240   5.409   2.299
 4630SOL    HW214790   2.295   5.519   2.191
 4631SOL     OW14791   1.382   6.358   2.926
 4631SOL    HW114792   1.459   6.362   2.989
 4631SOL    HW214793   1.326   6.278   2.945
 4632SOL     OW14794   2.341   4.297   2.431
 4632SOL    HW114795   2.374   4.385   2.465
 4632SOL    HW214796   2.338   4.299   2.331
 4633SOL     OW14797   5.805   0.760   4.517
 4633SOL    HW114798   5.897   0.751   4.478
 4633SOL    HW214799   5.742   0.699   4.468
 4634SOL     OW14800   2.688   3.997   5.326
 4634SOL    HW114801   2.753   3.944   5.272
 4634SOL    HW214802   2.601   4.001   5.278
 4635SOL     OW14803   4.408   4.314   1.585
 4635SOL    HW114804   4.406   4.259   1.669
 4635SOL    HW214805   4.340   4.278   1.520
 4636SOL     OW14806   2.345   4.102   0.679
 4636SOL    HW114807   2.262   4.065   0.722
 4636SOL    HW214808   2.425   4.058   0.719
 4637SOL     OW14809   0.769   6.768   1.036
 4637SOL    HW114810   0.838   6.715   0.987
 4637SOL    HW214811   0.812   6.847   1.080
 4638SOL     OW14812   3.857   5.652   7.009
 4638SOL    HW114813   3.782   5.666   6.945
 4638SOL    HW214814   3.943   5.684   6.969
 4639SOL     OW14815   3.165   2.668   6.216
 4639SOL    HW114816   3.100   2.656   6.141
 4639SOL    HW214817   3.156   2.760   6.254
 4640SOL     OW14818   5.267   3.987   4.658
 4640SOL    HW114819   5.300   4.069   4.611
 4640SOL    HW214820   5.329   3.910   4.638
 4641SOL     OW14821   2.347   0.473   4.151
 4641SOL    HW114822   2.398   0.419   4.084
 4641SOL    HW214823   2.409   0.501   4.224
 4642SOL     OW14824   1.333   6.846   2.713
 4642SOL    HW114825   1.289   6.913   2.773
 4642SOL    HW214826   1.391   6.786   2.768
 4643SOL     OW14827   6.580   1.639   0.284
 4643SOL    HW114828   6.540   1.594   0.204
 4643SOL    HW214829   6.677   1.656   0.268
 4644SOL     OW14830   0.558   0.494   5.524
 4644SOL    HW114831   0.474   0.498   5.470
 4644SOL    HW214832   0.630   0.449   5.470
 4645SOL     OW14833   1.490   0.587   4.649
 4645SOL    HW114834   1.460   0.549   4.737
 4645SOL    HW214835   1.490   0.515   4.580
 4646SOL     OW14836   2.559   5.668   3.600
 4646SOL    HW114837   2.657   5.648   3.604
 4646SOL    HW214838   2.517   5.611   3.529
 4647SOL     OW14839   1.730   0.563   2.716
 4647SOL    HW114840   1.764   0.490   2.775
 4647SOL    HW214841   1.648   0.603   2.757
 4648SOL     OW14842   3.884   1.127   3.335
 4648SOL    HW114843   3.889   1.225   3.313
 4648SOL    HW214844   3.813   1.112   3.403
 4649SOL     OW14845   6.342   0.826   0.893
 4649SOL    HW114846   6.341   0.909   0.948
 4649SOL    HW214847   6.320   0.747   0.950
 4650SOL     OW14848   4.705   5.484   2.156
 4650SOL    HW114849   4.609   5.459   2.169
 4650SOL    HW214850   4.714   5.540   2.074
 4651SOL     OW14851   6.844   3.442   6.303
 4651SOL    HW114852   6.857   3.395   6.390
 4651SOL    HW214853   6.747   3.461   6.288
 4652SOL     OW14854   6.639   5.935   4.905
 4652SOL    HW114855   6.610   5.923   5.000
 4652SOL    HW214856   6.688   5.853   4.874
 4653SOL     OW14857   5.374   5.934   1.192
 4653SOL    HW114858   5.430   6.003   1.236
 4653SOL    HW214859   5.378   5.849   1.245
 4654SOL     OW14860   0.805   5.906   6.100
 4654SOL    HW114861   0.813   5.886   6.197
 4654SOL    HW214862   0.876   5.859   6.049
 4655SOL     OW14863   6.232   3.460   1.323
 4655SOL    HW114864   6.180   3.429   1.402
 4655SOL    HW214865   6.193   3.421   1.239
 4656SOL     OW14866   1.302   1.189   1.655
 4656SOL    HW114867   1.335   1.105   1.612
 4656SOL    HW214868   1.301   1.178   1.754
 4657SOL     OW14869   4.664   5.781   1.672
 4657SOL    HW114870   4.752   5.766   1.627
 4657SOL    HW214871   4.653   5.878   1.693
 4658SOL     OW14872   2.801   0.862   4.576
 4658SOL    HW114873   2.854   0.893   4.497
 4658SOL    HW214874   2.804   0.762   4.580
 4659SOL     OW14875   2.733   4.147   6.396
 4659SOL    HW114876   2.664   4.085   6.357
 4659SOL    HW214877   2.798   4.093   6.450
 4660SOL     OW14878   1.140   6.012   4.601
 4660SOL    HW114879   1.143   5.938   4.534
 4660SOL    HW214880   1.165   6.098   4.557
 4661SOL     OW14881   3.179   4.627   6.151
 4661SOL    HW114882   3.225   4.591   6.070
 4661SOL    HW214883   3.090   4.665   6.125
 4662SOL     OW14884   2.799   0.508   5.557
 4662SOL    HW114885   2.776   0.561   5.476
 4662SOL    HW214886   2.832   0.569   5.629
 4663SOL     OW14887   0.463   0.707   1.177
 4663SOL    HW114888   0.395   0.677   1.110
 4663SOL    HW214889   0.442   0.668   1.267
 4664SOL     OW14890   1.021   0.482   0.342
 4664SOL    HW114891   1.058   0.566   0.383
 4664SOL    HW214892   1.096   0.429   0.302
 4665SOL     OW14893   2.748   6.831   6.266
 4665SOL    HW114894   2.834   6.868   6.230
 4665SOL    HW214895   2.713   6.893   6.337
 4666SOL     OW14896   2.168   2.461   0.293
 4666SOL    HW114897   2.077   2.486   0.325
 4666SOL    HW214898   2.219   2.544   0.269
 4667SOL     OW14899   6.448   3.882   1.609
 4667SOL    HW114900   6.418   3.826   1.686
 4667SOL    HW214901   6.494   3.964   1.644
 4668SOL     OW14902   4.633   1.867   4.460
 4668SOL    HW114903   4.584   1.796   4.511
 4668SOL    HW214904   4.686   1.923   4.524
 4669SOL     OW14905   5.148   6.165   6.505
 4669SOL    HW114906   5.093   6.101   6.559
 4669SOL    HW214907   5.135   6.258   6.540
 4670SOL     OW14908   1.156   2.486   6.598
 4670SOL    HW114909   1.167   2.569   6.653
 4670SOL    HW214910   1.245   2.455   6.566
 4671SOL     OW14911   0.412   3.315   6.649
 4671SOL    HW114912   0.412   3.392   6.585
 4671SOL    HW214913   0.439   3.346   6.740
 4672SOL     OW14914   3.069   4.699   6.504
 4672SOL    HW114915   3.129   4.663   6.433
 4672SOL    HW214916   2.999   4.630   6.526
 4673SOL     OW14917   4.837   0.136   1.284
 4673SOL    HW114918   4.843   0.230   1.250
 4673SOL    HW214919   4.745   0.100   1.267
 4674SOL     OW14920   5.421   1.366   6.940
 4674SOL    HW114921   5.389   1.440   6.881
 4674SOL    HW214922   5.519   1.374   6.955
 4675SOL     OW14923   3.623   0.571   0.438
 4675SOL    HW114924   3.544   0.615   0.394
 4675SOL    HW214925   3.593   0.485   0.480
 4676SOL     OW14926   0.205   6.264   4.202
 4676SOL    HW114927   0.175   6.175   4.236
 4676SOL    HW214928   0.170   6.336   4.262
 4677SOL     OW14929   2.854   0.930   0.609
 4677SOL    HW114930   2.909   0.915   0.527
 4677SOL    HW214931   2.913   0.959   0.685
 4678SOL     OW14932   1.604   4.409   2.445
 4678SOL    HW114933   1.569   4.478   2.509
 4678SOL    HW214934   1.620   4.453   2.356
 4679SOL     OW14935   3.456   0.807   0.020
 4679SOL    HW114936   3.383   0.871   0.044
 4679SOL    HW214937   3.543   0.855   0.017
 4680SOL     OW14938   1.784   0.356   1.893
 4680SOL    HW114939   1.781   0.386   1.988
 4680SOL    HW214940   1.770   0.257   1.889
 4681SOL     OW14941   6.076   5.241   5.713
 4681SOL    HW114942   6.145   5.286   5.655
 4681SOL    HW214943   6.046   5.305   5.784
 4682SOL     OW14944   4.312   4.041   6.834
 4682SOL    HW114945   4.377   3.985   6.783
 4682SOL    HW214946   4.269   3.987   6.906
 4683SOL     OW14947   4.745   4.826   2.619
 4683SOL    HW114948   4.706   4.918   2.616
 4683SOL    HW214949   4.844   4.831   2.631
 4684SOL     OW14950   0.021   1.569   4.267
 4684SOL    HW114951   7.013   1.551   4.363
 4684SOL    HW214952   6.952   1.579   4.214
 4685SOL     OW14953   0.618   6.590   5.228
 4685SOL    HW114954   0.600   6.551   5.318
 4685SOL    HW214955   0.536   6.637   5.195
 4686SOL     OW14956   5.506   5.437   0.358
 4686SOL    HW114957   5.579   5.393   0.306
 4686SOL    HW214958   5.543   5.517   0.405
 4687SOL     OW14959   0.134   4.998   5.428
 4687SOL    HW114960   0.189   4.926   5.387
 4687SOL    HW214961   0.192   5.076   5.449
 4688SOL     OW14962   6.969   3.547   5.808
 4688SOL    HW114963   6.961   3.479   5.880
 4688SOL    HW214964   0.045   3.542   5.767
 4689SOL     OW14965   6.015   0.464   6.878
 4689SOL    HW114966   6.104   0.502   6.905
 4689SOL    HW214967   5.942   0.506   6.932
 4690SOL     OW14968   1.335   0.967   0.075
 4690SOL    HW114969   1.275   1.040   0.043
 4690SOL    HW214970   1.286   0.910   0.140
 4691SOL     OW14971   3.129   4.780   1.915
 4691SOL    HW114972   3.051   4.722   1.936
 4691SOL    HW214973   3.163   4.822   1.999
 4692SOL     OW14974   6.773   5.893   2.584
 4692SOL    HW114975   6.808   5.899   2.678
 4692SOL    HW214976   6.680   5.929   2.581
 4693SOL     OW14977   0.538   0.925   3.891
 4693SOL    HW114978   0.630   0.923   3.854
 4693SOL    HW214979   0.492   0.839   3.871
 4694SOL     OW14980   3.186   0.061   0.550
 4694SOL    HW114981   3.169   6.992   0.500
 4694SOL    HW214982   3.218   0.040   0.643
 4695SOL     OW14983   2.630   3.509   1.737
 4695SOL    HW114984   2.549   3.507   1.795
 4695SOL    HW214985   2.642   3.421   1.692
 4696SOL     OW14986   0.553   4.508   5.381
 4696SOL    HW114987   0.526   4.487   5.475
 4696SOL    HW214988   0.651   4.487   5.369
 4697SOL     OW14989   1.562   3.022   1.287
 4697SOL    HW114990   1.619   3.037   1.206
 4697SOL    HW214991   1.474   2.982   1.260
 4698SOL     OW14992   3.819   5.836   3.102
 4698SOL    HW114993   3.744   5.814   3.165
 4698SOL    HW214994   3.903   5.850   3.153
 4699SOL     OW14995   0.990   6.394   2.294
 4699SOL    HW114996   0.896   6.365   2.274
 4699SOL    HW214997   1.054   6.336   2.244
 4700SOL     OW14998   6.323   1.373   2.542
 4700SOL    HW114999   6.385   1.383   2.465
 4700SOL    HW215000   6.326   1.456   2.599
 4701SOL     OW15001   1.582   1.946   0.983
 4701SOL    HW115002   1.617   1.955   1.076
 4701SOL    HW215003   1.614   1.859   0.944
 4702SOL     OW15004   5.815   4.811   6.383
 4702SOL    HW115005   5.723   4.782   6.354
 4702SOL    HW215006   5.846   4.885   6.324
 4703SOL     OW15007   1.299   2.416   1.623
 4703SOL    HW115008   1.291   2.449   1.528
 4703SOL    HW215009   1.318   2.318   1.622
 4704SOL     OW15010   1.265   6.683   6.948
 4704SOL    HW115011   1.241   6.643   6.860
 4704SOL    HW215012   1.247   6.617   0.006
 4705SOL     OW15013   3.446   3.448   2.993
 4705SOL    HW115014   3.494   3.377   2.943
 4705SOL    HW215015   3.460   3.536   2.948
 4706SOL     OW15016   3.656   6.165   6.205
 4706SOL    HW115017   3.565   6.172   6.164
 4706SOL    HW215018   3.651   6.193   6.301
 4707SOL     OW15019   2.144   5.649   0.829
 4707SOL    HW115020   2.082   5.633   0.905
 4707SOL    HW215021   2.102   5.714   0.765
 4708SOL     OW15022   1.597   2.340   6.713
 4708SOL    HW115023   1.535   2.371   6.642
 4708SOL    HW215024   1.549   2.335   6.800
 4709SOL     OW15025   3.858   5.530   5.275
 4709SOL    HW115026   3.950   5.570   5.277
 4709SOL    HW215027   3.796   5.591   5.226
 4710SOL     OW15028   3.472   1.049   5.736
 4710SOL    HW115029   3.495   1.062   5.640
 4710SOL    HW215030   3.549   1.006   5.783
 4711SOL     OW15031   5.235   0.535   2.082
 4711SOL    HW115032   5.297   0.539   2.004
 4711SOL    HW215033   5.272   0.472   2.151
 4712SOL     OW15034   2.821   4.604   0.640
 4712SOL    HW115035   2.821   4.633   0.544
 4712SOL    HW215036   2.873   4.520   0.650
 4713SOL     OW15037   2.989   3.987   1.233
 4713SOL    HW115038   2.911   3.972   1.172
 4713SOL    HW215039   2.958   4.035   1.316
 4714SOL     OW15040   1.840   2.081   0.187
 4714SOL    HW115041   1.938   2.060   0.194
 4714SOL    HW215042   1.788   2.019   0.245
 4715SOL     OW15043   6.666   3.609   1.373
 4715SOL    HW115044   6.591   3.623   1.308
 4715SOL    HW215045   6.647   3.529   1.430
 4716SOL     OW15046   3.985   5.904   6.617
 4716SOL    HW115047   3.904   5.963   6.625
 4716SOL    HW215048   3.963   5.827   6.557
 4717SOL     OW15049   0.170   6.506   3.364
 4717SOL    HW115050   0.093   6.505   3.429
 4717SOL    HW215051   0.152   6.441   3.290
 4718SOL     OW15052   5.866   2.186   6.766
 4718SOL    HW115053   5.782   2.160   6.814
 4718SOL    HW215054   5.853   2.275   6.722
 4719SOL     OW15055   5.197   3.416   2.479
 4719SOL    HW115056   5.219   3.362   2.560
 4719SOL    HW215057   5.244   3.377   2.400
 4720SOL     OW15058   2.105   6.145   5.721
 4720SOL    HW115059   2.067   6.058   5.754
 4720SOL    HW215060   2.048   6.179   5.646
 4721SOL     OW15061   0.072   2.446   1.307
 4721SOL    HW115062   0.121   2.360   1.293
 4721SOL    HW215063   0.064   2.464   1.405
 4722SOL     OW15064   1.157   5.846   6.798
 4722SOL    HW115065   1.100   5.822   6.876
 4722SOL    HW215066   1.171   5.945   6.796
 4723SOL     OW15067   2.213   4.977   6.177
 4723SOL    HW115068   2.197   4.919   6.097
 4723SOL    HW215069   2.306   5.012   6.174
 4724SOL     OW15070   5.282   5.811   3.010
 4724SOL    HW115071   5.246   5.742   2.948
 4724SOL    HW215072   5.368   5.779   3.050
 4725SOL     OW15073   6.323   6.879   2.544
 4725SOL    HW115074   6.294   6.795   2.499
 4725SOL    HW215075   6.369   6.939   2.479
 4726SOL     OW15076   1.821   3.068   6.735
 4726SOL    HW115077   1.904   3.030   6.693
 4726SOL    HW215078   1.755   3.091   6.664
 4727SOL     OW15079   0.110   6.641   6.971
 4727SOL    HW115080   0.207   6.664   6.977
 4727SOL    HW215081   0.065   6.703   6.907
 4728SOL     OW15082   5.231   0.638   0.627
 4728SOL    HW115083   5.186   0.561   0.672
 4728SOL    HW215084   5.308   0.604   0.571
 4729SOL     OW15085   2.031   1.702   1.867
 4729SOL    HW115086   2.073   1.790   1.847
 4729SOL    HW215087   1.939   1.699   1.827
 4730SOL     OW15088   2.341   5.717   5.439
 4730SOL    HW115089   2.284   5.796   5.413
 4730SOL    HW215090   2.367   5.725   5.535
 4731SOL     OW15091   4.265   6.811   6.221
 4731SOL    HW115092   4.238   6.798   6.316
 4731SOL    HW215093   4.317   6.732   6.189
 4732SOL     OW15094   0.152   3.952   5.728
 4732SOL    HW115095   0.089   3.998   5.666
 4732SOL    HW215096   0.105   3.928   5.813
 4733SOL     OW15097   1.257   4.166   3.182
 4733SOL    HW115098   1.354   4.166   3.206
 4733SOL    HW215099   1.225   4.261   3.177
 4734SOL     OW15100   4.907   3.084   6.481
 4734SOL    HW115101   4.825   3.076   6.538
 4734SOL    HW215102   4.923   2.996   6.435
 4735SOL     OW15103   0.663   5.951   4.331
 4735SOL    HW115104   0.648   5.915   4.239
 4735SOL    HW215105   0.660   5.876   4.397
 4736SOL     OW15106   0.469   1.745   6.264
 4736SOL    HW115107   0.463   1.765   6.362
 4736SOL    HW215108   0.389   1.693   6.236
 4737SOL     OW15109   1.060   5.196   2.074
 4737SOL    HW115110   1.057   5.148   2.162
 4737SOL    HW215111   1.123   5.149   2.012
 4738SOL     OW15112   0.284   5.879   2.645
 4738SOL    HW115113   0.288   5.790   2.600
 4738SOL    HW215114   0.370   5.927   2.632
 4739SOL     OW15115   4.358   6.881   3.201
 4739SOL    HW115116   4.344   6.868   3.102
 4739SOL    HW215117   4.308   6.810   3.251
 4740SOL     OW15118   0.302   1.516   0.822
 4740SOL    HW115119   0.365   1.588   0.851
 4740SOL    HW215120   0.336   1.428   0.854
 4741SOL     OW15121   3.428   2.820   1.495
 4741SOL    HW115122   3.382   2.896   1.541
 4741SOL    HW215123   3.431   2.839   1.396
 4742SOL     OW15124   2.184   6.426   5.149
 4742SOL    HW115125   2.230   6.512   5.172
 4742SOL    HW215126   2.118   6.442   5.075
 4743SOL     OW15127   2.016   4.101   2.796
 4743SOL    HW115128   1.924   4.129   2.768
 4743SOL    HW215129   2.069   4.075   2.716
 4744SOL     OW15130   1.683   5.191   0.949
 4744SOL    HW115131   1.673   5.212   0.852
 4744SOL    HW215132   1.777   5.210   0.978
 4745SOL     OW15133   2.938   4.054   6.563
 4745SOL    HW115134   3.013   4.116   6.587
 4745SOL    HW215135   2.910   4.003   6.645
 4746SOL     OW15136   4.555   6.565   3.887
 4746SOL    HW115137   4.479   6.506   3.915
 4746SOL    HW215138   4.579   6.625   3.963
 4747SOL     OW15139   0.766   3.915   0.825
 4747SOL    HW115140   0.771   3.882   0.731
 4747SOL    HW215141   0.828   3.993   0.837
 4748SOL     OW15142   1.889   5.920   1.495
 4748SOL    HW115143   1.842   5.846   1.447
 4748SOL    HW215144   1.835   6.004   1.486
 4749SOL     OW15145   1.772   6.737   6.592
 4749SOL    HW115146   1.776   6.650   6.543
 4749SOL    HW215147   1.801   6.812   6.532
 4750SOL     OW15148   6.965   3.382   5.179
 4750SOL    HW115149   6.936   3.410   5.087
 4750SOL    HW215150   7.002   3.461   5.228
 4751SOL     OW15151   4.611   2.635   2.929
 4751SOL    HW115152   4.673   2.714   2.928
 4751SOL    HW215153   4.616   2.587   2.842
 4752SOL     OW15154   4.250   0.893   0.330
 4752SOL    HW115155   4.212   0.934   0.247
 4752SOL    HW215156   4.348   0.879   0.318
 4753SOL     OW15157   0.703   0.199   4.004
 4753SOL    HW115158   0.722   0.281   4.057
 4753SOL    HW215159   0.620   0.214   3.949
 4754SOL     OW15160   5.103   3.888   5.033
 4754SOL    HW115161   5.157   3.923   5.110
 4754SOL    HW215162   5.006   3.893   5.056
 4755SOL     OW15163   3.016   1.038   0.830
 4755SOL    HW115164   3.057   1.018   0.919
 4755SOL    HW215165   3.087   1.073   0.768
 4756SOL     OW15166   5.851   3.692   5.458
 4756SOL    HW115167   5.825   3.761   5.391
 4756SOL    HW215168   5.877   3.737   5.544
 4757SOL     OW15169   1.938   1.998   1.585
 4757SOL    HW115170   1.988   2.036   1.507
 4757SOL    HW215171   1.935   1.898   1.576
 4758SOL     OW15172   1.577   6.310   3.130
 4758SOL    HW115173   1.646   6.239   3.142
 4758SOL    HW215174   1.602   6.391   3.183
 4759SOL     OW15175   0.844   4.777   6.334
 4759SOL    HW115176   0.921   4.748   6.278
 4759SOL    HW215177   0.819   4.871   6.309
 4760SOL     OW15178   2.311   1.325   0.656
 4760SOL    HW115179   2.391   1.266   0.669
 4760SOL    HW215180   2.306   1.390   0.731
 4761SOL     OW15181   1.453   0.579   0.686
 4761SOL    HW115182   1.445   0.671   0.725
 4761SOL    HW215183   1.465   0.513   0.760
 4762SOL     OW15184   1.573   5.919   2.559
 4762SOL    HW115185   1.635   5.841   2.545
 4762SOL    HW215186   1.602   5.995   2.502
 4763SOL     OW15187   5.095   0.316   2.611
 4763SOL    HW115188   5.110   0.396   2.669
 4763SOL    HW215189   5.071   0.346   2.519
 4764SOL     OW15190   4.516   3.505   5.329
 4764SOL    HW115191   4.587   3.495   5.259
 4764SOL    HW215192   4.503   3.602   5.351
 4765SOL     OW15193   3.723   0.753   5.639
 4765SOL    HW115194   3.728   0.823   5.568
 4765SOL    HW215195   3.680   0.791   5.721
 4766SOL     OW15196   6.213   6.012   4.150
 4766SOL    HW115197   6.159   6.057   4.080
 4766SOL    HW215198   6.153   5.979   4.223
 4767SOL     OW15199   3.333   4.829   5.089
 4767SOL    HW115200   3.250   4.784   5.123
 4767SOL    HW215201   3.412   4.798   5.142
 4768SOL     OW15202   3.484   2.596   5.645
 4768SOL    HW115203   3.539   2.517   5.669
 4768SOL    HW215204   3.392   2.566   5.620
 4769SOL     OW15205   4.452   6.113   0.602
 4769SOL    HW115206   4.482   6.110   0.697
 4769SOL    HW215207   4.426   6.021   0.572
 4770SOL     OW15208   0.563   1.923   4.706
 4770SOL    HW115209   0.549   1.934   4.608
 4770SOL    HW215210   0.484   1.877   4.746
 4771SOL     OW15211   2.787   6.624   6.460
 4771SOL    HW115212   2.709   6.643   6.519
 4771SOL    HW215213   2.780   6.679   6.377
 4772SOL     OW15214   3.297   4.715   1.008
 4772SOL    HW115215   3.216   4.710   1.066
 4772SOL    HW215216   3.326   4.810   0.999
 4773SOL     OW15217   0.367   5.712   5.327
 4773SOL    HW115218   0.369   5.702   5.426
 4773SOL    HW215219   0.376   5.809   5.303
 4774SOL     OW15220   1.749   4.333   0.967
 4774SOL    HW115221   1.692   4.337   1.049
 4774SOL    HW215222   1.843   4.309   0.993
 4775SOL     OW15223   4.833   6.935   3.724
 4775SOL    HW115224   4.781   6.934   3.810
 4775SOL    HW215225   4.835   6.843   3.686
 4776SOL     OW15226   0.859   1.112   5.300
 4776SOL    HW115227   0.782   1.157   5.256
 4776SOL    HW215228   0.935   1.177   5.310
 4777SOL     OW15229   1.975   5.597   1.048
 4777SOL    HW115230   2.037   5.593   1.127
 4777SOL    HW215231   1.903   5.664   1.066
 4778SOL     OW15232   6.975   2.635   4.632
 4778SOL    HW115233   6.985   2.611   4.536
 4778SOL    HW215234   6.954   2.732   4.640
 4779SOL     OW15235   5.498   6.910   3.636
 4779SOL    HW115236   5.493   6.979   3.564
 4779SOL    HW215237   5.589   6.913   3.678
 4780SOL     OW15238   5.727   2.678   6.832
 4780SOL    HW115239   5.722   2.777   6.818
 4780SOL    HW215240   5.735   2.660   6.930
 4781SOL     OW15241   2.868   5.509   2.077
 4781SOL    HW115242   2.953   5.484   2.030
 4781SOL    HW215243   2.813   5.427   2.092
 4782SOL     OW15244   5.924   5.679   6.550
 4782SOL    HW115245   5.895   5.630   6.467
 4782SOL    HW215246   5.865   5.651   6.626
 4783SOL     OW15247   5.866   3.399   6.931
 4783SOL    HW115248   5.804   3.320   6.934
 4783SOL    HW215249   5.815   3.479   6.900
 4784SOL     OW15250   6.198   1.991   6.034
 4784SOL    HW115251   6.137   1.936   5.977
 4784SOL    HW215252   6.275   1.935   6.065
 4785SOL     OW15253   0.243   6.552   3.048
 4785SOL    HW115254   0.336   6.544   3.011
 4785SOL    HW215255   0.248   6.584   3.143
 4786SOL     OW15256   2.543   6.428   6.774
 4786SOL    HW115257   2.604   6.427   6.854
 4786SOL    HW215258   2.471   6.361   6.787
 4787SOL     OW15259   3.916   1.915   3.213
 4787SOL    HW115260   3.869   1.927   3.126
 4787SOL    HW215261   3.926   2.004   3.258
 4788SOL     OW15262   6.830   5.494   0.605
 4788SOL    HW115263   6.888   5.469   0.528
 4788SOL    HW215264   6.758   5.556   0.574
 4789SOL     OW15265   4.872   1.990   1.545
 4789SOL    HW115266   4.881   1.896   1.511
 4789SOL    HW215267   4.798   1.995   1.611
 4790SOL     OW15268   5.912   2.000   5.920
 4790SOL    HW115269   5.883   2.040   6.007
 4790SOL    HW215270   5.932   1.903   5.933
 4791SOL     OW15271   0.151   2.986   1.854
 4791SOL    HW115272   0.157   2.944   1.763
 4791SOL    HW215273   0.164   2.916   1.924
 4792SOL     OW15274   2.091   4.507   4.663
 4792SOL    HW115275   2.191   4.497   4.668
 4792SOL    HW215276   2.048   4.436   4.719
 4793SOL     OW15277   1.892   3.810   5.015
 4793SOL    HW115278   1.812   3.856   5.054
 4793SOL    HW215279   1.945   3.768   5.088
 4794SOL     OW15280   4.276   6.852   4.517
 4794SOL    HW115281   4.219   6.780   4.557
 4794SOL    HW215282   4.337   6.888   4.587
 4795SOL     OW15283   6.422   1.705   4.276
 4795SOL    HW115284   6.450   1.792   4.235
 4795SOL    HW215285   6.323   1.706   4.293
 4796SOL     OW15286   4.280   0.284   6.377
 4796SOL    HW115287   4.248   0.378   6.362
 4796SOL    HW215288   4.215   0.219   6.338
 4797SOL     OW15289   0.601   6.062   4.784
 4797SOL    HW115290   0.587   6.140   4.844
 4797SOL    HW215291   0.698   6.054   4.761
 4798SOL     OW15292   6.281   4.740   5.388
 4798SOL    HW115293   6.319   4.649   5.403
 4798SOL    HW215294   6.204   4.734   5.324
 4799SOL     OW15295   4.384   1.460   0.820
 4799SOL    HW115296   4.366   1.522   0.744
 4799SOL    HW215297   4.405   1.369   0.783
 4800SOL     OW15298   1.728   3.992   0.009
 4800SOL    HW115299   1.654   4.050   6.988
 4800SOL    HW215300   1.688   3.915   0.058
 4801SOL     OW15301   3.385   2.454   6.414
 4801SOL    HW115302   3.377   2.533   6.475
 4801SOL    HW215303   3.351   2.479   6.323
 4802SOL     OW15304   0.134   6.487   2.022
 4802SOL    HW115305   0.124   6.437   1.936
 4802SOL    HW215306   0.227   6.523   2.030
 4803SOL     OW15307   6.897   4.578   0.908
 4803SOL    HW115308   6.972   4.641   0.894
 4803SOL    HW215309   6.897   4.545   1.003
 4804SOL     OW15310   6.687   0.125   1.330
 4804SOL    HW115311   6.635   0.100   1.248
 4804SOL    HW215312   6.663   0.065   1.405
 4805SOL     OW15313   6.404   1.094   2.162
 4805SOL    HW115314   6.437   1.112   2.255
 4805SOL    HW215315   6.310   1.129   2.153
 4806SOL     OW15316   1.142   3.541   2.783
 4806SOL    HW115317   1.117   3.635   2.760
 4806SOL    HW215318   1.238   3.525   2.759
 4807SOL     OW15319   1.335   4.022   6.174
 4807SOL    HW115320   1.285   4.107   6.192
 4807SOL    HW215321   1.430   4.032   6.204
 4808SOL     OW15322   4.094   5.465   0.801
 4808SOL    HW115323   4.147   5.530   0.855
 4808SOL    HW215324   4.156   5.399   0.759
 4809SOL     OW15325   3.945   4.856   1.518
 4809SOL    HW115326   3.979   4.824   1.607
 4809SOL    HW215327   4.019   4.903   1.469
 4810SOL     OW15328   1.567   4.526   3.066
 4810SOL    HW115329   1.648   4.477   3.096
 4810SOL    HW215330   1.508   4.545   3.145
 4811SOL     OW15331   3.829   4.037   3.339
 4811SOL    HW115332   3.894   4.076   3.405
 4811SOL    HW215333   3.852   4.069   3.247
 4812SOL     OW15334   0.182   0.272   2.173
 4812SOL    HW115335   0.150   0.217   2.096
 4812SOL    HW215336   0.279   0.255   2.189
 4813SOL     OW15337   6.233   1.497   6.220
 4813SOL    HW115338   6.191   1.512   6.309
 4813SOL    HW215339   6.175   1.535   6.149
 4814SOL     OW15340   6.976   3.245   1.907
 4814SOL    HW115341   0.015   3.163   1.926
 4814SOL    HW215342   6.897   3.219   1.851
 4815SOL     OW15343   5.436   4.473   2.850
 4815SOL    HW115344   5.469   4.558   2.890
 4815SOL    HW215345   5.341   4.484   2.822
 4816SOL     OW15346   2.059   5.240   1.617
 4816SOL    HW115347   2.107   5.311   1.667
 4816SOL    HW215348   1.975   5.277   1.577
 4817SOL     OW15349   2.930   1.008   1.549
 4817SOL    HW115350   2.969   0.927   1.594
 4817SOL    HW215351   2.854   1.043   1.603
 4818SOL     OW15352   0.940   1.405   4.094
 4818SOL    HW115353   0.951   1.318   4.046
 4818SOL    HW215354   0.899   1.389   4.184
 4819SOL     OW15355   2.912   2.365   1.393
 4819SOL    HW115356   2.814   2.378   1.375
 4819SOL    HW215357   2.925   2.339   1.488
 4820SOL     OW15358   6.441   2.233   0.642
 4820SOL    HW115359   6.534   2.254   0.614
 4820SOL    HW215360   6.429   2.256   0.739
 4821SOL     OW15361   6.943   6.844   1.203
 4821SOL    HW115362   6.929   6.914   1.133
 4821SOL    HW215363   6.965   6.889   1.290
 4822SOL     OW15364   1.711   2.768   3.679
 4822SOL    HW115365   1.662   2.855   3.667
 4822SOL    HW215366   1.660   2.709   3.740
 4823SOL     OW15367   0.184   1.428   3.747
 4823SOL    HW115368   0.262   1.423   3.685
 4823SOL    HW215369   0.200   1.499   3.815
 4824SOL     OW15370   5.700   2.049   3.413
 4824SOL    HW115371   5.775   2.111   3.392
 4824SOL    HW215372   5.663   2.010   3.328
 4825SOL     OW15373   2.252   2.752   4.259
 4825SOL    HW115374   2.309   2.688   4.208
 4825SOL    HW215375   2.171   2.775   4.205
 4826SOL     OW15376   0.598   0.737   6.789
 4826SOL    HW115377   0.618   0.661   6.851
 4826SOL    HW215378   0.519   0.788   6.824
 4827SOL     OW15379   5.946   0.983   1.714
 4827SOL    HW115380   6.023   1.043   1.692
 4827SOL    HW215381   5.862   1.023   1.678
 4828SOL     OW15382   5.632   3.077   0.888
 4828SOL    HW115383   5.693   3.054   0.963
 4828SOL    HW215384   5.547   3.025   0.898
 4829SOL     OW15385   3.572   6.330   6.566
 4829SOL    HW115386   3.624   6.365   6.644
 4829SOL    HW215387   3.598   6.381   6.484
 4830SOL     OW15388   5.193   5.931   4.145
 4830SOL    HW115389   5.262   5.940   4.216
 4830SOL    HW215390   5.106   5.967   4.178
 4831SOL     OW15391   6.963   5.491   5.924
 4831SOL    HW115392   6.874   5.455   5.951
 4831SOL    HW215393   7.005   5.538   6.002
 4832SOL     OW15394   2.782   2.461   5.582
 4832SOL    HW115395   2.786   2.477   5.681
 4832SOL    HW215396   2.705   2.511   5.543
 4833SOL     OW15397   5.389   1.145   3.098
 4833SOL    HW115398   5.455   1.097   3.157
 4833SOL    HW215399   5.396   1.110   3.005
 4834SOL     OW15400   3.749   0.533   0.684
 4834SOL    HW115401   3.691   0.609   0.714
 4834SOL    HW215402   3.692   0.454   0.662
 4835SOL     OW15403   0.954   1.358   6.385
 4835SOL    HW115404   0.990   1.358   6.292
 4835SOL    HW215405   0.911   1.270   6.404
 4836SOL     OW15406   4.909   3.254   3.347
 4836SOL    HW115407   5.007   3.236   3.338
 4836SOL    HW215408   4.857   3.179   3.306
 4837SOL     OW15409   4.560   3.335   1.524
 4837SOL    HW115410   4.585   3.412   1.582
 4837SOL    HW215411   4.545   3.254   1.582
 4838SOL     OW15412   2.407   5.132   2.088
 4838SOL    HW115413   2.427   5.058   2.024
 4838SOL    HW215414   2.312   5.126   2.117
 4839SOL     OW15415   1.673   3.946   5.755
 4839SOL    HW115416   1.597   3.952   5.820
 4839SOL    HW215417   1.722   3.859   5.769
 4840SOL     OW15418   0.793   6.710   5.460
 4840SOL    HW115419   0.744   6.794   5.482
 4840SOL    HW215420   0.770   6.640   5.528
 4841SOL     OW15421   2.945   6.137   1.438
 4841SOL    HW115422   2.964   6.058   1.496
 4841SOL    HW215423   2.917   6.106   1.347
 4842SOL     OW15424   3.421   4.835   1.666
 4842SOL    HW115425   3.474   4.915   1.640
 4842SOL    HW215426   3.480   4.769   1.712
 4843SOL     OW15427   5.883   3.684   0.621
 4843SOL    HW115428   5.962   3.637   0.582
 4843SOL    HW215429   5.801   3.661   0.569
 4844SOL     OW15430   6.715   3.463   5.892
 4844SOL    HW115431   6.780   3.478   5.817
 4844SOL    HW215432   6.652   3.540   5.897
 4845SOL     OW15433   6.665   5.653   4.454
 4845SOL    HW115434   6.664   5.752   4.466
 4845SOL    HW215435   6.753   5.617   4.485
 4846SOL     OW15436   6.411   3.359   3.262
 4846SOL    HW115437   6.312   3.362   3.279
 4846SOL    HW215438   6.449   3.450   3.275
 4847SOL     OW15439   3.391   1.426   5.843
 4847SOL    HW115440   3.490   1.422   5.826
 4847SOL    HW215441   3.366   1.357   5.911
 4848SOL     OW15442   1.432   0.854   3.611
 4848SOL    HW115443   1.392   0.938   3.573
 4848SOL    HW215444   1.361   0.799   3.654
 4849SOL     OW15445   0.944   6.750   6.528
 4849SOL    HW115446   1.020   6.729   6.466
 4849SOL    HW215447   0.859   6.755   6.475
 4850SOL     OW15448   3.840   1.410   2.518
 4850SOL    HW115449   3.879   1.318   2.511
 4850SOL    HW215450   3.911   1.478   2.499
 4851SOL     OW15451   3.583   5.845   4.896
 4851SOL    HW115452   3.671   5.866   4.852
 4851SOL    HW215453   3.560   5.920   4.959
 4852SOL     OW15454   0.808   0.630   5.575
 4852SOL    HW115455   0.721   0.598   5.538
 4852SOL    HW215456   0.815   0.729   5.561
 4853SOL     OW15457   3.184   1.107   2.687
 4853SOL    HW115458   3.154   1.184   2.745
 4853SOL    HW215459   3.133   1.025   2.712
 4854SOL     OW15460   5.103   6.934   2.447
 4854SOL    HW115461   5.088   6.987   2.363
 4854SOL    HW215462   5.033   6.862   2.454
 4855SOL     OW15463   5.669   2.806   2.199
 4855SOL    HW115464   5.757   2.764   2.223
 4855SOL    HW215465   5.642   2.869   2.272
 4856SOL     OW15466   2.186   4.103   2.532
 4856SOL    HW115467   2.249   4.173   2.496
 4856SOL    HW215468   2.171   4.033   2.463
 4857SOL     OW15469   2.395   3.182   5.604
 4857SOL    HW115470   2.477   3.152   5.557
 4857SOL    HW215471   2.315   3.170   5.544
 4858SOL     OW15472   1.465   1.391   4.675
 4858SOL    HW115473   1.463   1.293   4.689
 4858SOL    HW215474   1.549   1.417   4.628
 4859SOL     OW15475   1.407   0.796   4.476
 4859SOL    HW115476   1.445   0.722   4.532
 4859SOL    HW215477   1.307   0.793   4.479
 4860SOL     OW15478   3.885   4.863   2.101
 4860SOL    HW115479   3.812   4.835   2.038
 4860SOL    HW215480   3.969   4.814   2.077
 4861SOL     OW15481   5.134   4.973   0.262
 4861SOL    HW115482   5.036   4.968   0.239
 4861SOL    HW215483   5.185   4.909   0.205
 4862SOL     OW15484   2.968   4.845   4.892
 4862SOL    HW115485   2.931   4.757   4.920
 4862SOL    HW215486   3.003   4.894   4.972
 4863SOL     OW15487   6.085   4.277   1.739
 4863SOL    HW115488   6.030   4.313   1.663
 4863SOL    HW215489   6.162   4.225   1.703
 4864SOL     OW15490   4.092   1.278   3.630
 4864SOL    HW115491   3.998   1.263   3.660
 4864SOL    HW215492   4.154   1.267   3.708
 4865SOL     OW15493   2.367   0.492   5.813
 4865SOL    HW115494   2.443   0.465   5.754
 4865SOL    HW215495   2.388   0.579   5.857
 4866SOL     OW15496   0.216   2.483   0.521
 4866SOL    HW115497   0.303   2.478   0.570
 4866SOL    HW215498   0.195   2.394   0.481
 4867SOL     OW15499   3.816   5.001   3.337
 4867SOL    HW115500   3.854   4.935   3.272
 4867SOL    HW215501   3.867   4.996   3.423
 4868SOL     OW15502   7.008   5.118   2.895
 4868SOL    HW115503   6.931   5.065   2.931
 4868SOL    HW215504   7.000   5.125   2.796
 4869SOL     OW15505   1.025   1.784   2.474
 4869SOL    HW115506   1.108   1.802   2.527
 4869SOL    HW215507   0.953   1.846   2.504
 4870SOL     OW15508   0.260   6.225   1.930
 4870SOL    HW115509   0.331   6.284   1.892
 4870SOL    HW215510   0.301   6.141   1.965
 4871SOL     OW15511   1.681   0.820   3.761
 4871SOL    HW115512   1.763   0.845   3.709
 4871SOL    HW215513   1.601   0.824   3.701
 4872SOL     OW15514   6.500   0.223   3.690
 4872SOL    HW115515   6.434   0.194   3.759
 4872SOL    HW215516   6.455   0.277   3.619
 4873SOL     OW15517   6.489   5.278   3.955
 4873SOL    HW115518   6.407   5.314   3.998
 4873SOL    HW215519   6.493   5.179   3.968
 4874SOL     OW15520   6.043   3.820   2.002
 4874SOL    HW115521   6.131   3.869   1.997
 4874SOL    HW215522   6.030   3.784   2.094
 4875SOL     OW15523   6.054   1.600   0.703
 4875SOL    HW115524   6.100   1.511   0.712
 4875SOL    HW215525   5.956   1.589   0.721
 4876SOL     OW15526   5.983   2.329   2.643
 4876SOL    HW115527   6.075   2.360   2.620
 4876SOL    HW215528   5.936   2.399   2.695
 4877SOL     OW15529   1.499   2.100   5.746
 4877SOL    HW115530   1.490   2.033   5.819
 4877SOL    HW215531   1.499   2.054   5.658
 4878SOL     OW15532   6.190   1.095   1.911
 4878SOL    HW115533   6.125   1.079   1.985
 4878SOL    HW215534   6.281   1.113   1.950
 4879SOL     OW15535   4.396   2.028   2.572
 4879SOL    HW115536   4.317   2.086   2.590
 4879SOL    HW215537   4.372   1.933   2.591
 4880SOL     OW15538   5.479   3.736   0.084
 4880SOL    HW115539   5.389   3.726   0.041
 4880SOL    HW215540   5.469   3.735   0.184
 4881SOL     OW15541   1.485   1.248   6.970
 4881SOL    HW115542   1.442   1.331   6.934
 4881SOL    HW215543   1.420   1.172   6.965
 4882SOL     OW15544   4.610   0.803   4.795
 4882SOL    HW115545   4.568   0.852   4.719
 4882SOL    HW215546   4.709   0.800   4.782
 4883SOL     OW15547   4.942   4.763   1.548
 4883SOL    HW115548   4.950   4.804   1.457
 4883SOL    HW215549   4.986   4.823   1.615
 4884SOL     OW15550   3.025   6.132   1.843
 4884SOL    HW115551   2.943   6.079   1.866
 4884SOL    HW215552   3.098   6.069   1.815
 4885SOL     OW15553   2.226   5.112   1.409
 4885SOL    HW115554   2.131   5.101   1.439
 4885SOL    HW215555   2.281   5.145   1.486
 4886SOL     OW15556   1.962   5.788   1.728
 4886SOL    HW115557   1.927   5.694   1.739
 4886SOL    HW215558   1.924   5.828   1.645
 4887SOL     OW15559   6.934   6.947   1.467
 4887SOL    HW115560   7.008   6.881   1.460
 4887SOL    HW215561   6.938   6.993   1.556
 4888SOL     OW15562   2.820   0.567   4.566
 4888SOL    HW115563   2.812   0.469   4.552
 4888SOL    HW215564   2.911   0.598   4.538
 4889SOL     OW15565   6.880   1.190   5.207
 4889SOL    HW115566   6.899   1.092   5.199
 4889SOL    HW215567   6.784   1.207   5.188
 4890SOL     OW15568   7.013   1.470   5.987
 4890SOL    HW115569   0.002   1.499   6.083
 4890SOL    HW215570   6.951   1.530   5.937
 4891SOL     OW15571   1.704   4.414   0.460
 4891SOL    HW115572   1.765   4.396   0.537
 4891SOL    HW215573   1.748   4.384   0.375
 4892SOL     OW15574   3.610   5.557   2.361
 4892SOL    HW115575   3.700   5.556   2.404
 4892SOL    HW215576   3.545   5.604   2.420
 4893SOL     OW15577   6.545   2.636   1.584
 4893SOL    HW115578   6.463   2.582   1.566
 4893SOL    HW215579   6.522   2.733   1.581
 4894SOL     OW15580   3.727   1.048   2.594
 4894SOL    HW115581   3.647   1.080   2.544
 4894SOL    HW215582   3.702   0.967   2.648
 4895SOL     OW15583   0.845   4.957   4.431
 4895SOL    HW115584   0.911   4.911   4.371
 4895SOL    HW215585   0.763   4.900   4.438
 4896SOL     OW15586   2.317   4.079   1.877
 4896SOL    HW115587   2.302   4.034   1.966
 4896SOL    HW215588   2.231   4.118   1.845
 4897SOL     OW15589   1.772   5.274   5.944
 4897SOL    HW115590   1.834   5.318   6.008
 4897SOL    HW215591   1.721   5.343   5.893
 4898SOL     OW15592   4.391   1.094   4.812
 4898SOL    HW115593   4.478   1.103   4.861
 4898SOL    HW215594   4.403   1.036   4.732
 4899SOL     OW15595   5.884   5.263   2.837
 4899SOL    HW115596   5.786   5.285   2.844
 4899SOL    HW215597   5.911   5.206   2.915
 4900SOL     OW15598   3.183   6.107   5.027
 4900SOL    HW115599   3.256   6.085   5.092
 4900SOL    HW215600   3.217   6.097   4.934
 4901SOL     OW15601   2.751   1.634   5.481
 4901SOL    HW115602   2.699   1.582   5.414
 4901SOL    HW215603   2.832   1.583   5.509
 4902SOL     OW15604   1.648   1.662   5.259
 4902SOL    HW115605   1.614   1.756   5.250
 4902SOL    HW215606   1.695   1.652   5.347
 4903SOL     OW15607   3.669   5.610   0.471
 4903SOL    HW115608   3.744   5.610   0.537
 4903SOL    HW215609   3.704   5.584   0.381
 4904SOL     OW15610   2.271   0.534   5.394
 4904SOL    HW115611   2.247   0.437   5.392
 4904SOL    HW215612   2.208   0.583   5.453
 4905SOL     OW15613   3.303   0.514   3.394
 4905SOL    HW115614   3.231   0.582   3.382
 4905SOL    HW215615   3.279   0.431   3.345
 4906SOL     OW15616   5.006   1.510   6.662
 4906SOL    HW115617   5.084   1.532   6.721
 4906SOL    HW215618   5.036   1.450   6.588
 4907SOL     OW15619   4.484   6.668   2.374
 4907SOL    HW115620   4.393   6.676   2.414
 4907SOL    HW215621   4.534   6.753   2.386
 4908SOL     OW15622   5.681   6.315   6.747
 4908SOL    HW115623   5.766   6.336   6.794
 4908SOL    HW215624   5.701   6.277   6.657
 4909SOL     OW15625   0.442   6.109   3.743
 4909SOL    HW115626   0.470   6.020   3.777
 4909SOL    HW215627   0.376   6.150   3.806
 4910SOL     OW15628   5.220   1.106   4.335
 4910SOL    HW115629   5.160   1.027   4.328
 4910SOL    HW215630   5.199   1.171   4.262
 4911SOL     OW15631   1.537   4.193   3.172
 4911SOL    HW115632   1.618   4.252   3.170
 4911SOL    HW215633   1.509   4.170   3.079
 4912SOL     OW15634   5.587   1.118   6.156
 4912SOL    HW115635   5.624   1.192   6.100
 4912SOL    HW215636   5.563   1.154   6.246
 4913SOL     OW15637   3.982   3.180   5.131
 4913SOL    HW115638   4.002   3.178   5.033
 4913SOL    HW215639   3.961   3.088   5.163
 4914SOL     OW15640   4.238   6.876   4.957
 4914SOL    HW115641   4.278   6.907   5.043
 4914SOL    HW215642   4.154   6.927   4.939
 4915SOL     OW15643   3.034   5.469   5.847
 4915SOL    HW115644   3.058   5.494   5.941
 4915SOL    HW215645   3.013   5.551   5.795
 4916SOL     OW15646   1.077   0.718   4.046
 4916SOL    HW115647   1.146   0.733   3.974
 4916SOL    HW215648   1.093   0.630   4.090
 4917SOL     OW15649   2.301   5.397   1.396
 4917SOL    HW115650   2.397   5.367   1.393
 4917SOL    HW215651   2.246   5.329   1.443
 4918SOL     OW15652   5.329   6.531   2.094
 4918SOL    HW115653   5.266   6.494   2.025
 4918SOL    HW215654   5.422   6.529   2.058
 4919SOL     OW15655   3.454   2.573   0.217
 4919SOL    HW115656   3.539   2.521   0.214
 4919SOL    HW215657   3.417   2.572   0.310
 4920SOL     OW15658   5.285   0.298   4.775
 4920SOL    HW115659   5.222   0.236   4.729
 4920SOL    HW215660   5.320   0.253   4.858
 4921SOL     OW15661   0.967   5.789   6.979
 4921SOL    HW115662   0.891   5.726   6.966
 4921SOL    HW215663   0.935   5.870   0.014
 4922SOL     OW15664   2.917   2.187   4.759
 4922SOL    HW115665   2.855   2.265   4.773
 4922SOL    HW215666   3.001   2.202   4.812
 4923SOL     OW15667   3.539   1.259   2.317
 4923SOL    HW115668   3.482   1.317   2.260
 4923SOL    HW215669   3.611   1.314   2.360
 4924SOL     OW15670   3.337   1.353   4.929
 4924SOL    HW115671   3.288   1.368   4.843
 4924SOL    HW215672   3.274   1.321   4.999
 4925SOL     OW15673   6.300   0.113   2.358
 4925SOL    HW115674   6.355   0.167   2.422
 4925SOL    HW215675   6.203   0.129   2.375
 4926SOL     OW15676   4.963   1.560   1.085
 4926SOL    HW115677   5.053   1.546   1.127
 4926SOL    HW215678   4.951   1.496   1.010
 4927SOL     OW15679   3.281   3.686   4.728
 4927SOL    HW115680   3.307   3.714   4.821
 4927SOL    HW215681   3.187   3.653   4.728
 4928SOL     OW15682   1.407   0.526   6.890
 4928SOL    HW115683   1.505   0.506   6.889
 4928SOL    HW215684   1.392   0.623   6.874
 4929SOL     OW15685   6.409   6.758   4.490
 4929SOL    HW115686   6.449   6.666   4.492
 4929SOL    HW215687   6.309   6.751   4.500
 4930SOL     OW15688   5.594   0.976   3.189
 4930SOL    HW115689   5.657   1.007   3.117
 4930SOL    HW215690   5.621   1.016   3.277
 4931SOL     OW15691   6.743   6.635   1.219
 4931SOL    HW115692   6.805   6.681   1.155
 4931SOL    HW215693   6.673   6.699   1.250
 4932SOL     OW15694   3.698   3.311   2.084
 4932SOL    HW115695   3.684   3.346   2.177
 4932SOL    HW215696   3.627   3.244   2.063
 4933SOL     OW15697   2.366   6.891   2.105
 4933SOL    HW115698   2.458   6.913   2.073
 4933SOL    HW215699   2.371   6.827   2.181
 4934SOL     OW15700   3.271   5.321   3.069
 4934SOL    HW115701   3.221   5.401   3.103
 4934SOL    HW215702   3.225   5.285   2.988
 4935SOL     OW15703   1.618   2.133   6.271
 4935SOL    HW115704   1.630   2.045   6.316
 4935SOL    HW215705   1.704   2.186   6.276
 4936SOL     OW15706   3.264   5.211   1.433
 4936SOL    HW115707   3.294   5.301   1.400
 4936SOL    HW215708   3.312   5.139   1.382
 4937SOL     OW15709   5.987   3.042   6.022
 4937SOL    HW115710   6.061   3.062   5.957
 4937SOL    HW215711   5.985   3.112   6.093
 4938SOL     OW15712   2.062   5.488   5.777
 4938SOL    HW115713   2.114   5.518   5.697
 4938SOL    HW215714   2.083   5.393   5.798
 4939SOL     OW15715   5.865   2.140   4.644
 4939SOL    HW115716   5.921   2.059   4.632
 4939SOL    HW215717   5.878   2.202   4.566
 4940SOL     OW15718   0.723   1.233   4.881
 4940SOL    HW115719   0.791   1.274   4.821
 4940SOL    HW215720   0.652   1.188   4.827
 4941SOL     OW15721   4.591   1.788   5.738
 4941SOL    HW115722   4.575   1.861   5.804
 4941SOL    HW215723   4.520   1.790   5.668
 4942SOL     OW15724   5.281   2.875   5.891
 4942SOL    HW115725   5.331   2.790   5.905
 4942SOL    HW215726   5.208   2.882   5.959
 4943SOL     OW15727   4.555   3.275   7.007
 4943SOL    HW115728   4.480   3.303   6.948
 4943SOL    HW215729   4.518   3.239   0.078
 4944SOL     OW15730   2.083   4.387   2.056
 4944SOL    HW115731   2.144   4.356   2.128
 4944SOL    HW215732   1.994   4.410   2.095
 4945SOL     OW15733   1.141   1.336   3.648
 4945SOL    HW115734   1.222   1.328   3.706
 4945SOL    HW215735   1.060   1.344   3.706
 4946SOL     OW15736   0.337   3.191   1.264
 4946SOL    HW115737   0.252   3.212   1.312
 4946SOL    HW215738   0.346   3.091   1.255
 4947SOL     OW15739   1.918   1.014   1.385
 4947SOL    HW115740   2.010   0.975   1.380
 4947SOL    HW215741   1.924   1.112   1.401
 4948SOL     OW15742   1.772   1.027   2.867
 4948SOL    HW115743   1.863   1.066   2.881
 4948SOL    HW215744   1.780   0.938   2.823
 4949SOL     OW15745   4.039   6.430   6.130
 4949SOL    HW115746   4.032   6.359   6.201
 4949SOL    HW215747   3.949   6.471   6.117
 4950SOL     OW15748   2.991   5.560   4.505
 4950SOL    HW115749   3.007   5.462   4.495
 4950SOL    HW215750   3.011   5.588   4.599
 4951SOL     OW15751   5.457   1.529   4.461
 4951SOL    HW115752   5.402   1.509   4.543
 4951SOL    HW215753   5.399   1.573   4.393
 4952SOL     OW15754   0.142   0.533   5.096
 4952SOL    HW115755   0.187   0.538   5.185
 4952SOL    HW215756   0.077   0.458   5.096
 4953SOL     OW15757   2.086   6.821   2.093
 4953SOL    HW115758   2.061   6.782   2.181
 4953SOL    HW215759   2.170   6.874   2.102
 4954SOL     OW15760   4.435   3.766   6.904
 4954SOL    HW115761   4.343   3.798   6.930
 4954SOL    HW215762   4.485   3.739   6.986
 4955SOL     OW15763   1.948   6.277   6.570
 4955SOL    HW115764   2.004   6.304   6.647
 4955SOL    HW215765   1.928   6.356   6.512
 4956SOL     OW15766   2.543   7.013   4.718
 4956SOL    HW115767   2.508   6.970   4.801
 4956SOL    HW215768   2.487   0.077   4.695
 4957SOL     OW15769   0.334   1.621   3.028
 4957SOL    HW115770   0.268   1.688   3.062
 4957SOL    HW215771   0.426   1.647   3.059
 4958SOL     OW15772   0.024   6.161   5.415
 4958SOL    HW115773   6.978   6.118   5.482
 4958SOL    HW215774   0.117   6.161   5.451
 4959SOL     OW15775   6.650   1.550   6.861
 4959SOL    HW115776   6.604   1.616   6.802
 4959SOL    HW215777   6.728   1.593   6.906
 4960SOL     OW15778   3.213   5.875   3.938
 4960SOL    HW115779   3.256   5.791   3.906
 4960SOL    HW215780   3.278   5.926   3.994
 4961SOL     OW15781   5.047   1.601   5.963
 4961SOL    HW115782   5.019   1.683   5.913
 4961SOL    HW215783   4.993   1.593   6.047
 4962SOL     OW15784   6.194   2.532   0.846
 4962SOL    HW115785   6.214   2.443   0.886
 4962SOL    HW215786   6.232   2.536   0.753
 4963SOL     OW15787   6.490   5.961   0.108
 4963SOL    HW115788   6.588   5.967   0.128
 4963SOL    HW215789   6.454   6.052   0.090
 4964SOL     OW15790   3.666   6.866   3.497
 4964SOL    HW115791   3.649   6.912   3.584
 4964SOL    HW215792   3.761   6.833   3.495
 4965SOL     OW15793   0.197   0.463   3.618
 4965SOL    HW115794   0.107   0.478   3.577
 4965SOL    HW215795   0.212   0.364   3.628
 4966SOL     OW15796   1.798   0.333   5.151
 4966SOL    HW115797   1.734   0.302   5.222
 4966SOL    HW215798   1.888   0.293   5.168
 4967SOL     OW15799   4.241   3.319   5.637
 4967SOL    HW115800   4.178   3.388   5.671
 4967SOL    HW215801   4.199   3.268   5.561
 4968SOL     OW15802   5.807   2.920   3.179
 4968SOL    HW115803   5.714   2.957   3.178
 4968SOL    HW215804   5.848   2.934   3.269
 4969SOL     OW15805   1.970   1.254   2.124
 4969SOL    HW115806   2.030   1.301   2.189
 4969SOL    HW215807   1.910   1.320   2.080
 4970SOL     OW15808   1.846   2.324   4.375
 4970SOL    HW115809   1.812   2.285   4.461
 4970SOL    HW215810   1.802   2.279   4.298
 4971SOL     OW15811   6.093   6.115   3.669
 4971SOL    HW115812   6.059   6.182   3.603
 4971SOL    HW215813   6.140   6.041   3.621
 4972SOL     OW15814   1.539   3.097   0.813
 4972SOL    HW115815   1.481   3.031   0.861
 4972SOL    HW215816   1.571   3.057   0.727
 4973SOL     OW15817   0.047   0.128   1.982
 4973SOL    HW115818   0.064   0.032   2.003
 4973SOL    HW215819   0.012   0.136   1.889
 4974SOL     OW15820   6.277   4.590   0.814
 4974SOL    HW115821   6.262   4.673   0.761
 4974SOL    HW215822   6.237   4.602   0.905
 4975SOL     OW15823   5.170   5.313   6.289
 4975SOL    HW115824   5.125   5.380   6.229
 4975SOL    HW215825   5.129   5.317   6.380
 4976SOL     OW15826   3.047   0.062   4.838
 4976SOL    HW115827   2.977   0.066   4.767
 4976SOL    HW215828   3.004   0.039   4.926
 4977SOL     OW15829   5.000   4.196   0.517
 4977SOL    HW115830   4.929   4.133   0.485
 4977SOL    HW215831   4.981   4.223   0.611
 4978SOL     OW15832   6.844   3.552   5.476
 4978SOL    HW115833   6.868   3.600   5.391
 4978SOL    HW215834   6.897   3.468   5.483
 4979SOL     OW15835   0.054   1.360   5.273
 4979SOL    HW115836   0.097   1.313   5.350
 4979SOL    HW215837   0.004   1.293   5.218
 4980SOL     OW15838   4.458   0.485   3.312
 4980SOL    HW115839   4.367   0.513   3.342
 4980SOL    HW215840   4.511   0.565   3.285
 4981SOL     OW15841   4.568   5.555   5.993
 4981SOL    HW115842   4.551   5.621   5.919
 4981SOL    HW215843   4.662   5.523   5.988
 4982SOL     OW15844   1.980   2.178   6.918
 4982SOL    HW115845   1.923   2.243   6.868
 4982SOL    HW215846   1.926   2.135   6.990
 4983SOL     OW15847   5.255   2.837   3.958
 4983SOL    HW115848   5.289   2.825   4.051
 4983SOL    HW215849   5.157   2.858   3.961
 4984SOL     OW15850   5.487   3.818   4.293
 4984SOL    HW115851   5.506   3.827   4.195
 4984SOL    HW215852   5.493   3.908   4.336
 4985SOL     OW15853   6.494   6.125   3.319
 4985SOL    HW115854   6.422   6.175   3.367
 4985SOL    HW215855   6.462   6.099   3.228
 4986SOL     OW15856   6.698   4.042   3.165
 4986SOL    HW115857   6.646   4.080   3.088
 4986SOL    HW215858   6.636   4.007   3.234
 4987SOL     OW15859   0.955   2.056   1.325
 4987SOL    HW115860   0.873   1.999   1.329
 4987SOL    HW215861   0.954   2.122   1.400
 4988SOL     OW15862   6.357   1.889   3.477
 4988SOL    HW115863   6.332   1.861   3.384
 4988SOL    HW215864   6.409   1.974   3.472
 4989SOL     OW15865   5.268   0.649   1.039
 4989SOL    HW115866   5.364   0.629   1.059
 4989SOL    HW215867   5.257   0.668   0.942
 4990SOL     OW15868   1.660   1.550   6.039
 4990SOL    HW115869   1.622   1.523   6.127
 4990SOL    HW215870   1.730   1.620   6.054
 4991SOL     OW15871   0.529   3.516   4.116
 4991SOL    HW115872   0.529   3.579   4.193
 4991SOL    HW215873   0.590   3.550   4.044
 4992SOL     OW15874   5.056   0.903   4.294
 4992SOL    HW115875   5.119   0.833   4.260
 4992SOL    HW215876   4.962   0.872   4.279
 4993SOL     OW15877   3.441   5.652   4.207
 4993SOL    HW115878   3.435   5.558   4.242
 4993SOL    HW215879   3.386   5.661   4.125
 4994SOL     OW15880   1.460   0.405   2.221
 4994SOL    HW115881   1.421   0.378   2.309
 4994SOL    HW215882   1.547   0.452   2.237
 4995SOL     OW15883   6.486   2.373   5.781
 4995SOL    HW115884   6.426   2.298   5.808
 4995SOL    HW215885   6.467   2.453   5.838
 4996SOL     OW15886   1.444   1.159   2.798
 4996SOL    HW115887   1.530   1.202   2.772
 4996SOL    HW215888   1.369   1.222   2.781
 4997SOL     OW15889   6.095   2.121   2.772
 4997SOL    HW115890   6.039   2.188   2.724
 4997SOL    HW215891   6.187   2.119   2.732
 4998SOL     OW15892   2.145   3.848   4.871
 4998SOL    HW115893   2.204   3.906   4.928
 4998SOL    HW215894   2.051   3.854   4.904
 4999SOL     OW15895   5.649   5.211   0.929
 4999SOL    HW115896   5.669   5.254   0.841
 4999SOL    HW215897   5.551   5.217   0.947
 5000SOL     OW15898   1.420   0.108   4.210
 5000SOL    HW115899   1.380   0.113   4.302
 5000SOL    HW215900   1.431   0.200   4.173
 5001SOL     OW15901   1.255   3.886   5.947
 5001SOL    HW115902   1.312   3.937   5.882
 5001SOL    HW215903   1.270   3.922   6.039
 5002SOL     OW15904   1.431   3.343   3.026
 5002SOL    HW115905   1.459   3.416   2.963
 5002SOL    HW215906   1.340   3.310   3.001
 5003SOL     OW15907   1.822   6.607   3.075
 5003SOL    HW115908   1.767   6.679   3.119
 5003SOL    HW215909   1.817   6.523   3.130
 5004SOL     OW15910   2.954   4.945   5.423
 5004SOL    HW115911   2.869   4.996   5.427
 5004SOL    HW215912   2.934   4.849   5.402
 5005SOL     OW15913   3.297   2.769   0.683
 5005SOL    HW115914   3.339   2.852   0.648
 5005SOL    HW215915   3.282   2.705   0.607
 5006SOL     OW15916   5.421   6.389   6.755
 5006SOL    HW115917   5.520   6.381   6.769
 5006SOL    HW215918   5.403   6.434   6.667
 5007SOL     OW15919   2.127   0.221   6.643
 5007SOL    HW115920   2.069   0.264   6.712
 5007SOL    HW215921   2.072   0.202   6.561
 5008SOL     OW15922   6.563   0.748   3.711
 5008SOL    HW115923   6.561   0.655   3.747
 5008SOL    HW215924   6.643   0.796   3.748
 5009SOL     OW15925   2.038   6.666   1.883
 5009SOL    HW115926   2.036   6.719   1.968
 5009SOL    HW215927   2.111   6.701   1.824
 5010SOL     OW15928   3.275   2.942   3.490
 5010SOL    HW115929   3.284   3.042   3.486
 5010SOL    HW215930   3.198   2.914   3.433
 5011SOL     OW15931   1.753   3.605   2.068
 5011SOL    HW115932   1.686   3.532   2.079
 5011SOL    HW215933   1.794   3.599   1.977
 5012SOL     OW15934   5.064   3.148   6.064
 5012SOL    HW115935   5.055   3.153   5.964
 5012SOL    HW215936   4.973   3.153   6.106
 5013SOL     OW15937   5.394   1.799   6.988
 5013SOL    HW115938   5.435   1.830   6.902
 5013SOL    HW215939   5.463   1.798   0.045
 5014SOL     OW15940   5.416   4.777   0.460
 5014SOL    HW115941   5.461   4.703   0.511
 5014SOL    HW215942   5.378   4.741   0.375
 5015SOL     OW15943   4.558   2.148   3.894
 5015SOL    HW115944   4.588   2.056   3.868
 5015SOL    HW215945   4.636   2.211   3.889
 5016SOL     OW15946   2.806   1.708   1.786
 5016SOL    HW115947   2.897   1.740   1.812
 5016SOL    HW215948   2.808   1.672   1.693
 5017SOL     OW15949   2.139   2.037   0.176
 5017SOL    HW115950   2.174   2.118   0.224
 5017SOL    HW215951   2.206   2.007   0.109
 5018SOL     OW15952   0.911   4.773   1.249
 5018SOL    HW115953   0.894   4.866   1.283
 5018SOL    HW215954   0.893   4.707   1.322
 5019SOL     OW15955   2.450   4.126   0.204
 5019SOL    HW115956   2.395   4.180   0.141
 5019SOL    HW215957   2.391   4.069   0.261
 5020SOL     OW15958   4.317   6.016   5.675
 5020SOL    HW115959   4.313   6.114   5.654
 5020SOL    HW215960   4.302   5.963   5.592
 5021SOL     OW15961   1.688   2.743   5.450
 5021SOL    HW115962   1.709   2.694   5.365
 5021SOL    HW215963   1.610   2.804   5.435
 5022SOL     OW15964   1.818   0.452   0.786
 5022SOL    HW115965   1.787   0.369   0.740
 5022SOL    HW215966   1.836   0.432   0.882
 5023SOL     OW15967   6.485   3.022   1.319
 5023SOL    HW115968   6.451   3.081   1.246
 5023SOL    HW215969   6.421   2.946   1.333
 5024SOL     OW15970   6.893   4.162   2.841
 5024SOL    HW115971   6.945   4.240   2.807
 5024SOL    HW215972   6.949   4.111   2.906
 5025SOL     OW15973   3.931   1.921   1.809
 5025SOL    HW115974   3.895   1.977   1.735
 5025SOL    HW215975   4.012   1.871   1.778
 5026SOL     OW15976   5.597   5.787   6.481
 5026SOL    HW115977   5.650   5.852   6.426
 5026SOL    HW215978   5.506   5.824   6.498
 5027SOL     OW15979   0.385   0.065   1.938
 5027SOL    HW115980   0.354   0.070   2.033
 5027SOL    HW215981   0.348   6.998   1.895
 5028SOL     OW15982   0.180   6.856   2.572
 5028SOL    HW115983   0.203   6.796   2.496
 5028SOL    HW215984   0.142   6.942   2.537
 5029SOL     OW15985   6.484   3.066   4.073
 5029SOL    HW115986   6.567   3.010   4.066
 5029SOL    HW215987   6.418   3.021   4.133
 5030SOL     OW15988   6.655   0.481   6.893
 5030SOL    HW115989   6.690   0.457   6.802
 5030SOL    HW215990   6.727   0.528   6.944
 5031SOL     OW15991   5.583   1.388   5.085
 5031SOL    HW115992   5.568   1.482   5.055
 5031SOL    HW215993   5.619   1.388   5.178
 5032SOL     OW15994   1.018   4.104   1.429
 5032SOL    HW115995   0.994   4.034   1.362
 5032SOL    HW215996   0.980   4.192   1.400
 5033SOL     OW15997   1.595   4.735   6.572
 5033SOL    HW115998   1.585   4.709   6.476
 5033SOL    HW215999   1.504   4.744   6.613
 5034SOL     OW16000   6.661   3.083   2.560
 5034SOL    HW116001   6.615   3.169   2.583
 5034SOL    HW216002   6.741   3.071   2.617
 5035SOL     OW16003   5.933   4.402   0.691
 5035SOL    HW116004   5.925   4.474   0.759
 5035SOL    HW216005   5.917   4.440   0.600
 5036SOL     OW16006   0.425   5.275   6.686
 5036SOL    HW116007   0.345   5.237   6.732
 5036SOL    HW216008   0.498   5.289   6.752
 5037SOL     OW16009   4.595   2.577   2.164
 5037SOL    HW116010   4.535   2.526   2.103
 5037SOL    HW216011   4.659   2.632   2.111
 5038SOL     OW16012   1.911   5.168   5.623
 5038SOL    HW116013   1.816   5.170   5.653
 5038SOL    HW216014   1.918   5.209   5.532
 5039SOL     OW16015   2.037   3.656   5.184
 5039SOL    HW116016   2.097   3.720   5.232
 5039SOL    HW216017   2.088   3.609   5.112
 5040SOL     OW16018   2.247   4.322   6.359
 5040SOL    HW116019   2.309   4.335   6.436
 5040SOL    HW216020   2.227   4.225   6.347
 5041SOL     OW16021   1.137   3.586   1.290
 5041SOL    HW116022   1.047   3.558   1.325
 5041SOL    HW216023   1.144   3.560   1.193
 5042SOL     OW16024   0.197   2.979   6.836
 5042SOL    HW116025   0.189   2.881   6.857
 5042SOL    HW216026   0.110   3.011   6.799
 5043SOL     OW16027   3.551   0.806   5.362
 5043SOL    HW116028   3.625   0.834   5.300
 5043SOL    HW216029   3.520   0.886   5.415
 5044SOL     OW16030   6.135   0.096   3.056
 5044SOL    HW116031   6.057   0.074   2.998
 5044SOL    HW216032   6.138   0.033   3.134
 5045SOL     OW16033   5.452   3.167   0.215
 5045SOL    HW116034   5.487   3.076   0.191
 5045SOL    HW216035   5.424   3.168   0.310
 5046SOL     OW16036   4.068   3.490   4.715
 5046SOL    HW116037   4.007   3.554   4.668
 5046SOL    HW216038   4.104   3.532   4.798
 5047SOL     OW16039   6.973   2.209   2.266
 5047SOL    HW116040   6.964   2.243   2.173
 5047SOL    HW216041   6.977   2.109   2.265
 5048SOL     OW16042   6.842   2.311   1.264
 5048SOL    HW116043   6.927   2.363   1.256
 5048SOL    HW216044   6.768   2.373   1.290
 5049SOL     OW16045   7.000   1.233   3.749
 5049SOL    HW116046   0.067   1.290   3.760
 5049SOL    HW216047   6.943   1.242   3.831
 5050SOL     OW16048   0.599   1.659   2.021
 5050SOL    HW116049   0.571   1.719   2.096
 5050SOL    HW216050   0.693   1.628   2.037
 5051SOL     OW16051   4.011   3.725   0.613
 5051SOL    HW116052   4.077   3.651   0.613
 5051SOL    HW216053   4.044   3.801   0.670
 5052SOL     OW16054   2.839   5.159   5.925
 5052SOL    HW116055   2.760   5.202   5.883
 5052SOL    HW216056   2.920   5.176   5.869
 5053SOL     OW16057   1.835   4.074   3.184
 5053SOL    HW116058   1.824   4.095   3.281
 5053SOL    HW216059   1.931   4.055   3.165
 5054SOL     OW16060   3.970   5.360   4.835
 5054SOL    HW116061   3.878   5.390   4.810
 5054SOL    HW216062   3.971   5.261   4.845
 5055SOL     OW16063   0.241   1.478   5.127
 5055SOL    HW116064   0.164   1.445   5.182
 5055SOL    HW216065   0.304   1.403   5.108
 5056SOL     OW16066   6.334   4.224   6.813
 5056SOL    HW116067   6.360   4.219   6.910
 5056SOL    HW216068   6.247   4.177   6.800
 5057SOL     OW16069   1.159   5.411   3.630
 5057SOL    HW116070   1.246   5.383   3.671
 5057SOL    HW216071   1.175   5.488   3.569
 5058SOL     OW16072   2.741   3.388   6.630
 5058SOL    HW116073   2.752   3.460   6.561
 5058SOL    HW216074   2.831   3.363   6.666
 5059SOL     OW16075   5.449   3.401   4.526
 5059SOL    HW116076   5.514   3.429   4.597
 5059SOL    HW216077   5.376   3.470   4.520
 5060SOL     OW16078   0.084   2.502   5.295
 5060SOL    HW116079   0.110   2.475   5.203
 5060SOL    HW216080   0.019   2.578   5.290
 5061SOL     OW16081   3.027   3.135   3.617
 5061SOL    HW116082   3.101   3.182   3.568
 5061SOL    HW216083   2.951   3.118   3.555
 5062SOL     OW16084   5.642   1.397   2.409
 5062SOL    HW116085   5.551   1.436   2.399
 5062SOL    HW216086   5.668   1.396   2.505
 5063SOL     OW16087   1.088   6.116   1.904
 5063SOL    HW116088   0.999   6.108   1.859
 5063SOL    HW216089   1.160   6.080   1.844
 5064SOL     OW16090   4.853   5.341   1.312
 5064SOL    HW116091   4.950   5.360   1.300
 5064SOL    HW216092   4.803   5.426   1.329
 5065SOL     OW16093   1.536   0.940   3.020
 5065SOL    HW116094   1.484   1.022   3.046
 5065SOL    HW216095   1.574   0.952   2.928
 5066SOL     OW16096   2.666   4.396   1.634
 5066SOL    HW116097   2.685   4.467   1.565
 5066SOL    HW216098   2.722   4.413   1.715
 5067SOL     OW16099   4.614   1.494   2.786
 5067SOL    HW116100   4.663   1.525   2.867
 5067SOL    HW216101   4.541   1.430   2.813
 5068SOL     OW16102   2.998   5.375   0.004
 5068SOL    HW116103   3.079   5.429   0.027
 5068SOL    HW216104   3.005   5.285   0.046
 5069SOL     OW16105   2.443   3.297   6.009
 5069SOL    HW116106   2.404   3.382   5.975
 5069SOL    HW216107   2.479   3.311   6.101
 5070SOL     OW16108   5.789   4.243   4.555
 5070SOL    HW116109   5.720   4.279   4.618
 5070SOL    HW216110   5.830   4.161   4.595
 5071SOL     OW16111   4.094   2.169   3.271
 5071SOL    HW116112   4.181   2.196   3.228
 5071SOL    HW216113   4.108   2.156   3.369
 5072SOL     OW16114   1.719   1.349   1.416
 5072SOL    HW116115   1.811   1.328   1.383
 5072SOL    HW216116   1.724   1.391   1.506
 5073SOL     OW16117   1.377   5.346   1.448
 5073SOL    HW116118   1.359   5.420   1.512
 5073SOL    HW216119   1.329   5.263   1.478
 5074SOL     OW16120   3.988   2.075   1.572
 5074SOL    HW116121   4.031   2.051   1.485
 5074SOL    HW216122   4.048   2.135   1.624
 5075SOL     OW16123   1.119   2.108   6.890
 5075SOL    HW116124   1.146   2.201   6.912
 5075SOL    HW216125   1.129   2.050   6.971
 5076SOL     OW16126   5.551   6.965   0.140
 5076SOL    HW116127   5.505   6.928   0.059
 5076SOL    HW216128   5.567   0.048   0.126
 5077SOL     OW16129   0.229   3.936   6.077
 5077SOL    HW116130   0.291   3.974   6.008
 5077SOL    HW216131   0.160   3.879   6.031
 5078SOL     OW16132   0.414   0.825   4.169
 5078SOL    HW116133   0.462   0.895   4.116
 5078SOL    HW216134   0.325   0.860   4.199
 5079SOL     OW16135   2.392   2.707   5.709
 5079SOL    HW116136   2.452   2.785   5.724
 5079SOL    HW216137   2.411   2.636   5.777
 5080SOL     OW16138   5.589   5.686   5.412
 5080SOL    HW116139   5.555   5.776   5.440
 5080SOL    HW216140   5.513   5.622   5.405
 5081SOL     OW16141   2.813   4.581   5.595
 5081SOL    HW116142   2.909   4.553   5.595
 5081SOL    HW216143   2.793   4.633   5.512
 5082SOL     OW16144   5.203   6.658   0.393
 5082SOL    HW116145   5.294   6.684   0.361
 5082SOL    HW216146   5.207   6.566   0.433
 5083SOL     OW16147   3.415   0.474   1.701
 5083SOL    HW116148   3.369   0.500   1.617
 5083SOL    HW216149   3.354   0.419   1.758
 5084SOL     OW16150   0.376   4.972   4.403
 5084SOL    HW116151   0.336   4.915   4.332
 5084SOL    HW216152   0.428   5.047   4.362
 5085SOL     OW16153   0.847   3.145   5.607
 5085SOL    HW116154   0.826   3.238   5.577
 5085SOL    HW216155   0.880   3.091   5.530
 5086SOL     OW16156   1.035   3.979   2.379
 5086SOL    HW116157   1.129   3.979   2.412
 5086SOL    HW216158   1.029   4.032   2.295
 5087SOL     OW16159   6.714   5.659   1.685
 5087SOL    HW116160   6.632   5.614   1.649
 5087SOL    HW216161   6.689   5.745   1.729
 5088SOL     OW16162   4.974   6.893   3.487
 5088SOL    HW116163   4.926   6.937   3.563
 5088SOL    HW216164   5.022   6.962   3.433
 5089SOL     OW16165   6.022   4.645   4.440
 5089SOL    HW116166   6.104   4.676   4.391
 5089SOL    HW216167   5.996   4.555   4.406
 5090SOL     OW16168   2.249   1.414   2.535
 5090SOL    HW116169   2.183   1.467   2.587
 5090SOL    HW216170   2.273   1.331   2.585
 5091SOL     OW16171   6.417   0.466   1.289
 5091SOL    HW116172   6.441   0.395   1.356
 5091SOL    HW216173   6.446   0.437   1.198
 5092SOL     OW16174   3.518   2.864   3.316
 5092SOL    HW116175   3.603   2.836   3.361
 5092SOL    HW216176   3.444   2.870   3.384
 5093SOL     OW16177   3.532   1.487   0.751
 5093SOL    HW116178   3.507   1.400   0.709
 5093SOL    HW216179   3.612   1.525   0.704
 5094SOL     OW16180   1.893   5.861   6.579
 5094SOL    HW116181   1.886   5.869   6.678
 5094SOL    HW216182   1.813   5.813   6.544
 5095SOL     OW16183   0.310   2.305   3.483
 5095SOL    HW116184   0.311   2.404   3.467
 5095SOL    HW216185   0.266   2.259   3.407
 5096SOL     OW16186   4.645   4.853   6.287
 5096SOL    HW116187   4.584   4.826   6.361
 5096SOL    HW216188   4.705   4.777   6.262
 5097SOL     OW16189   6.946   6.746   0.117
 5097SOL    HW116190   6.930   6.844   0.102
 5097SOL    HW216191   7.012   6.713   0.050
 5098SOL     OW16192   3.484   1.341   1.661
 5098SOL    HW116193   3.550   1.333   1.735
 5098SOL    HW216194   3.413   1.272   1.673
 5099SOL     OW16195   0.453   6.456   2.249
 5099SOL    HW116196   0.364   6.444   2.293
 5099SOL    HW216197   0.496   6.367   2.234
 5100SOL     OW16198   3.457   5.520   4.525
 5100SOL    HW116199   3.472   5.471   4.440
 5100SOL    HW216200   3.415   5.459   4.592
 5101SOL     OW16201   4.219   6.843   5.554
 5101SOL    HW116202   4.153   6.852   5.628
 5101SOL    HW216203   4.267   6.756   5.563
 5102SOL     OW16204   5.397   6.716   4.509
 5102SOL    HW116205   5.340   6.641   4.475
 5102SOL    HW216206   5.412   6.782   4.436
 5103SOL     OW16207   1.267   1.561   4.385
 5103SOL    HW116208   1.306   1.476   4.351
 5103SOL    HW216209   1.174   1.572   4.349
 5104SOL     OW16210   2.858   6.557   1.885
 5104SOL    HW116211   2.938   6.515   1.929
 5104SOL    HW216212   2.814   6.619   1.949
 5105SOL     OW16213   3.258   2.928   6.455
 5105SOL    HW116214   3.219   2.991   6.522
 5105SOL    HW216215   3.339   2.969   6.412
 5106SOL     OW16216   4.260   1.218   1.552
 5106SOL    HW116217   4.259   1.188   1.647
 5106SOL    HW216218   4.328   1.290   1.540
 5107SOL     OW16219   4.853   2.291   1.631
 5107SOL    HW116220   4.940   2.339   1.619
 5107SOL    HW216221   4.804   2.289   1.545
 5108SOL     OW16222   4.072   3.560   4.990
 5108SOL    HW116223   4.026   3.643   4.959
 5108SOL    HW216224   4.006   3.501   5.036
 5109SOL     OW16225   1.258   2.187   0.352
 5109SOL    HW116226   1.172   2.227   0.320
 5109SOL    HW216227   1.240   2.133   0.435
 5110SOL     OW16228   1.012   0.854   6.225
 5110SOL    HW116229   0.999   0.794   6.146
 5110SOL    HW216230   0.923   0.883   6.260
 5111SOL     OW16231   1.499   6.953   4.018
 5111SOL    HW116232   1.467   7.000   4.100
 5111SOL    HW216233   1.588   6.989   3.991
 5112SOL     OW16234   0.560   0.415   2.710
 5112SOL    HW116235   0.576   0.408   2.612
 5112SOL    HW216236   0.559   0.323   2.750
 5113SOL     OW16237   1.388   5.851   1.448
 5113SOL    HW116238   1.322   5.775   1.450
 5113SOL    HW216239   1.339   5.938   1.455
 5114SOL     OW16240   3.958   6.698   6.653
 5114SOL    HW116241   3.970   6.601   6.676
 5114SOL    HW216242   3.954   6.751   6.738
 5115SOL     OW16243   1.203   4.862   2.922
 5115SOL    HW116244   1.141   4.788   2.951
 5115SOL    HW216245   1.295   4.825   2.911
 5116SOL     OW16246   0.958   6.662   0.864
 5116SOL    HW116247   0.964   6.593   0.792
 5116SOL    HW216248   1.048   6.701   0.882
 5117SOL     OW16249   0.688   3.682   3.957
 5117SOL    HW116250   0.704   3.775   3.991
 5117SOL    HW216251   0.608   3.682   3.898
 5118SOL     OW16252   5.318   0.709   0.023
 5118SOL    HW116253   5.290   0.618   0.053
 5118SOL    HW216254   5.413   0.705   7.006
 5119SOL     OW16255   4.781   0.935   2.466
 5119SOL    HW116256   4.833   1.021   2.467
 5119SOL    HW216257   4.696   0.947   2.516
 5120SOL     OW16258   4.317   6.601   5.194
 5120SOL    HW116259   4.329   6.679   5.255
 5120SOL    HW216260   4.221   6.573   5.193
 5121SOL     OW16261   3.551   2.952   6.855
 5121SOL    HW116262   3.587   2.891   6.925
 5121SOL    HW216263   3.541   3.044   6.892
 5122SOL     OW16264   3.300   6.078   3.192
 5122SOL    HW116265   3.370   6.013   3.164
 5122SOL    HW216266   3.293   6.078   3.292
 5123SOL     OW16267   5.570   1.746   4.323
 5123SOL    HW116268   5.566   1.658   4.372
 5123SOL    HW216269   5.484   1.795   4.338
 5124SOL     OW16270   1.846   5.834   4.445
 5124SOL    HW116271   1.779   5.905   4.423
 5124SOL    HW216272   1.823   5.750   4.395
 5125SOL     OW16273   6.329   2.789   3.021
 5125SOL    HW116274   6.389   2.840   2.959
 5125SOL    HW216275   6.245   2.840   3.036
 5126SOL     OW16276   0.001   5.805   6.839
 5126SOL    HW116277   0.013   5.708   6.857
 5126SOL    HW216278   6.967   5.817   6.752
 5127SOL     OW16279   0.087   3.860   6.987
 5127SOL    HW116280   0.009   3.806   6.955
 5127SOL    HW216281   0.090   3.946   6.936
 5128SOL     OW16282   0.354   6.773   0.378
 5128SOL    HW116283   0.450   6.796   0.367
 5128SOL    HW216284   0.343   6.708   0.453
 5129SOL     OW16285   6.356   6.936   2.822
 5129SOL    HW116286   6.376   6.916   2.727
 5129SOL    HW216287   6.262   6.908   2.843
 5130SOL     OW16288   6.863   5.504   2.566
 5130SOL    HW116289   6.818   5.589   2.540
 5130SOL    HW216290   6.802   5.450   2.624
 5131SOL     OW16291   2.001   3.793   4.394
 5131SOL    HW116292   2.019   3.860   4.322
 5131SOL    HW216293   1.954   3.714   4.354
 5132SOL     OW16294   3.942   2.504   5.960
 5132SOL    HW116295   4.035   2.524   5.990
 5132SOL    HW216296   3.877   2.556   6.015
 5133SOL     OW16297   1.880   4.965   0.148
 5133SOL    HW116298   1.901   5.012   0.234
 5133SOL    HW216299   1.798   4.909   0.160
 5134SOL     OW16300   6.665   3.014   2.163
 5134SOL    HW116301   6.616   2.943   2.212
 5134SOL    HW216302   6.752   3.034   2.209
 5135SOL     OW16303   6.056   2.477   5.182
 5135SOL    HW116304   6.013   2.422   5.253
 5135SOL    HW216305   6.021   2.571   5.187
 5136SOL     OW16306   4.796   0.382   6.368
 5136SOL    HW116307   4.729   0.338   6.308
 5136SOL    HW216308   4.830   0.316   6.434
 5137SOL     OW16309   5.752   3.173   6.382
 5137SOL    HW116310   5.675   3.114   6.358
 5137SOL    HW216311   5.819   3.121   6.436
 5138SOL     OW16312   2.752   2.496   5.858
 5138SOL    HW116313   2.833   2.480   5.915
 5138SOL    HW216314   2.734   2.595   5.853
 5139SOL     OW16315   1.495   0.055   2.991
 5139SOL    HW116316   1.576   0.004   2.962
 5139SOL    HW216317   1.412   0.006   2.965
 5140SOL     OW16318   3.665   1.812   0.169
 5140SOL    HW116319   3.602   1.736   0.151
 5140SOL    HW216320   3.632   1.894   0.122
 5141SOL     OW16321   6.526   3.928   0.623
 5141SOL    HW116322   6.586   3.905   0.547
 5141SOL    HW216323   6.543   3.864   0.699
 5142SOL     OW16324   5.862   0.708   4.171
 5142SOL    HW116325   5.797   0.784   4.167
 5142SOL    HW216326   5.887   0.690   4.266
 5143SOL     OW16327   0.195   4.325   3.728
 5143SOL    HW116328   0.206   4.243   3.672
 5143SOL    HW216329   0.134   4.306   3.804
 5144SOL     OW16330   1.028   4.756   6.145
 5144SOL    HW116331   1.074   4.736   6.058
 5144SOL    HW216332   1.075   4.831   6.191
 5145SOL     OW16333   2.173   4.564   5.561
 5145SOL    HW116334   2.202   4.655   5.534
 5145SOL    HW216335   2.091   4.538   5.510
 5146SOL     OW16336   4.035   3.887   5.290
 5146SOL    HW116337   4.013   3.949   5.215
 5146SOL    HW216338   3.964   3.818   5.299
 5147SOL     OW16339   0.075   4.511   2.572
 5147SOL    HW116340   0.157   4.513   2.630
 5147SOL    HW216341   0.072   4.594   2.516
 5148SOL     OW16342   0.964   6.458   1.382
 5148SOL    HW116343   1.023   6.506   1.447
 5148SOL    HW216344   0.870   6.491   1.390
 5149SOL     OW16345   6.450   5.884   4.145
 5149SOL    HW116346   6.430   5.793   4.108
 5149SOL    HW216347   6.368   5.941   4.138
 5150SOL     OW16348   2.353   4.747   2.642
 5150SOL    HW116349   2.390   4.825   2.691
 5150SOL    HW216350   2.311   4.684   2.707
 5151SOL     OW16351   4.877   1.809   0.753
 5151SOL    HW116352   4.861   1.892   0.806
 5151SOL    HW216353   4.860   1.827   0.656
 5152SOL     OW16354   2.247   4.195   0.012
 5152SOL    HW116355   2.229   4.277   6.972
 5152SOL    HW216356   2.198   4.201   0.099
 5153SOL     OW16357   2.509   0.316   6.929
 5153SOL    HW116358   2.547   0.357   7.012
 5153SOL    HW216359   2.416   0.350   6.915
 5154SOL     OW16360   1.758   3.023   6.235
 5154SOL    HW116361   1.784   3.014   6.139
 5154SOL    HW216362   1.767   3.118   6.263
 5155SOL     OW16363   3.558   0.180   2.851
 5155SOL    HW116364   3.579   0.153   2.757
 5155SOL    HW216365   3.641   0.211   2.897
 5156SOL     OW16366   6.797   3.093   6.251
 5156SOL    HW116367   6.711   3.048   6.227
 5156SOL    HW216368   6.801   3.182   6.207
 5157SOL     OW16369   4.268   2.188   3.766
 5157SOL    HW116370   4.176   2.201   3.804
 5157SOL    HW216371   4.336   2.202   3.838
 5158SOL     OW16372   3.890   1.348   1.309
 5158SOL    HW116373   3.956   1.284   1.349
 5158SOL    HW216374   3.837   1.391   1.382
 5159SOL     OW16375   0.348   3.093   3.899
 5159SOL    HW116376   0.304   3.114   3.812
 5159SOL    HW216377   0.434   3.144   3.906
 5160SOL     OW16378   0.574   4.350   3.562
 5160SOL    HW116379   0.617   4.358   3.651
 5160SOL    HW216380   0.521   4.433   3.544
 5161SOL     OW16381   1.484   3.563   4.307
 5161SOL    HW116382   1.493   3.644   4.249
 5161SOL    HW216383   1.563   3.557   4.368
 5162SOL     OW16384   1.194   4.922   3.713
 5162SOL    HW116385   1.189   4.840   3.657
 5162SOL    HW216386   1.289   4.942   3.736
 5163SOL     OW16387   4.359   5.982   1.259
 5163SOL    HW116388   4.326   5.904   1.207
 5163SOL    HW216389   4.359   5.959   1.357
 5164SOL     OW16390   4.513   2.473   6.482
 5164SOL    HW116391   4.521   2.573   6.477
 5164SOL    HW216392   4.423   2.445   6.449
 5165SOL     OW16393   6.026   3.970   5.348
 5165SOL    HW116394   5.970   3.965   5.431
 5165SOL    HW216395   6.064   4.062   5.340
 5166SOL     OW16396   0.201   5.652   2.444
 5166SOL    HW116397   0.292   5.611   2.451
 5166SOL    HW216398   0.138   5.585   2.404
 5167SOL     OW16399   6.503   5.912   5.503
 5167SOL    HW116400   6.534   5.998   5.545
 5167SOL    HW216401   6.424   5.930   5.445
 5168SOL     OW16402   5.323   3.553   3.384
 5168SOL    HW116403   5.249   3.485   3.382
 5168SOL    HW216404   5.407   3.509   3.415
 5169SOL     OW16405   4.130   1.890   5.147
 5169SOL    HW116406   4.212   1.939   5.117
 5169SOL    HW216407   4.049   1.945   5.126
 5170SOL     OW16408   0.439   4.117   5.414
 5170SOL    HW116409   0.433   4.122   5.514
 5170SOL    HW216410   0.347   4.114   5.376
 5171SOL     OW16411   1.896   5.681   3.748
 5171SOL    HW116412   1.922   5.612   3.817
 5171SOL    HW216413   1.970   5.690   3.682
 5172SOL     OW16414   6.645   2.736   2.276
 5172SOL    HW116415   6.719   2.727   2.342
 5172SOL    HW216416   6.653   2.664   2.207
 5173SOL     OW16417   5.623   4.580   5.929
 5173SOL    HW116418   5.721   4.560   5.926
 5173SOL    HW216419   5.589   4.567   6.021
 5174SOL     OW16420   2.320   4.846   3.897
 5174SOL    HW116421   2.258   4.797   3.836
 5174SOL    HW216422   2.377   4.908   3.843
 5175SOL     OW16423   2.312   3.928   6.970
 5175SOL    HW116424   2.346   3.870   0.029
 5175SOL    HW216425   2.322   4.024   6.995
 5176SOL     OW16426   4.614   3.150   6.558
 5176SOL    HW116427   4.524   3.115   6.583
 5176SOL    HW216428   4.612   3.250   6.562
 5177SOL     OW16429   5.350   0.096   6.576
 5177SOL    HW116430   5.329   0.018   6.517
 5177SOL    HW216431   5.332   0.072   6.671
 5178SOL     OW16432   1.620   3.091   1.551
 5178SOL    HW116433   1.596   3.079   1.454
 5178SOL    HW216434   1.653   3.004   1.589
 5179SOL     OW16435   3.992   5.716   4.606
 5179SOL    HW116436   3.955   5.694   4.515
 5179SOL    HW216437   3.920   5.754   4.663
 5180SOL     OW16438   3.030   2.682   6.761
 5180SOL    HW116439   3.097   2.756   6.766
 5180SOL    HW216440   2.939   2.718   6.778
 5181SOL     OW16441   4.776   1.881   2.183
 5181SOL    HW116442   4.836   1.960   2.195
 5181SOL    HW216443   4.681   1.911   2.175
 5182SOL     OW16444   3.998   4.945   1.794
 5182SOL    HW116445   3.903   4.958   1.824
 5182SOL    HW216446   4.022   4.848   1.801
 5183SOL     OW16447   3.948   1.171   2.536
 5183SOL    HW116448   3.865   1.117   2.549
 5183SOL    HW216449   4.020   1.135   2.595
 5184SOL     OW16450   0.257   2.242   4.207
 5184SOL    HW116451   0.235   2.325   4.259
 5184SOL    HW216452   0.306   2.267   4.124
 5185SOL     OW16453   5.394   0.418   2.312
 5185SOL    HW116454   5.335   0.468   2.375
 5185SOL    HW216455   5.485   0.409   2.353
 5186SOL     OW16456   5.823   3.589   1.056
 5186SOL    HW116457   5.881   3.662   1.092
 5186SOL    HW216458   5.804   3.523   1.128
 5187SOL     OW16459   6.755   0.966   3.888
 5187SOL    HW116460   6.672   1.022   3.885
 5187SOL    HW216461   6.793   0.969   3.980
 5188SOL     OW16462   0.828   5.653   0.398
 5188SOL    HW116463   0.813   5.558   0.370
 5188SOL    HW216464   0.746   5.686   0.446
 5189SOL     OW16465   4.960   5.054   0.850
 5189SOL    HW116466   4.894   5.111   0.802
 5189SOL    HW216467   5.037   5.111   0.881
 5190SOL     OW16468   0.149   2.857   4.284
 5190SOL    HW116469   0.178   2.768   4.250
 5190SOL    HW216470   0.127   2.917   4.207
 5191SOL     OW16471   4.779   0.635   2.128
 5191SOL    HW116472   4.681   0.623   2.141
 5191SOL    HW216473   4.824   0.647   2.217
 5192SOL     OW16474   2.662   5.651   3.283
 5192SOL    HW116475   2.692   5.736   3.326
 5192SOL    HW216476   2.603   5.601   3.346
 5193SOL     OW16477   4.908   4.995   4.078
 5193SOL    HW116478   5.001   4.978   4.045
 5193SOL    HW216479   4.903   5.085   4.121
 5194SOL     OW16480   4.051   0.774   0.010
 5194SOL    HW116481   4.138   0.793   0.056
 5194SOL    HW216482   4.028   0.849   6.964
 5195SOL     OW16483   0.071   5.643   3.960
 5195SOL    HW116484   0.082   5.634   4.059
 5195SOL    HW216485   0.111   5.730   3.931
 5196SOL     OW16486   1.453   3.865   0.960
 5196SOL    HW116487   1.434   3.816   1.045
 5196SOL    HW216488   1.498   3.952   0.980
 5197SOL     OW16489   1.537   5.507   5.041
 5197SOL    HW116490   1.522   5.545   5.133
 5197SOL    HW216491   1.462   5.534   4.982
 5198SOL     OW16492   4.085   6.995   3.783
 5198SOL    HW116493   4.170   6.992   3.732
 5198SOL    HW216494   4.104   7.009   3.880
 5199SOL     OW16495   1.469   6.392   6.927
 5199SOL    HW116496   1.421   6.399   6.839
 5199SOL    HW216497   1.407   6.420   7.000
 5200SOL     OW16498   1.210   1.896   5.340
 5200SOL    HW116499   1.182   1.983   5.299
 5200SOL    HW216500   1.134   1.859   5.394
 5201SOL     OW16501   5.690   6.211   4.414
 5201SOL    HW116502   5.665   6.228   4.319
 5201SOL    HW216503   5.709   6.113   4.427
 5202SOL     OW16504   6.098   4.006   5.788
 5202SOL    HW116505   6.064   4.078   5.728
 5202SOL    HW216506   6.022   3.968   5.842
 5203SOL     OW16507   2.592   0.914   6.863
 5203SOL    HW116508   2.513   0.963   6.897
 5203SOL    HW216509   2.575   0.815   6.868
 5204SOL     OW16510   3.788   6.289   0.471
 5204SOL    HW116511   3.840   6.222   0.523
 5204SOL    HW216512   3.713   6.324   0.527
 5205SOL     OW16513   6.986   5.996   0.016
 5205SOL    HW116514   6.982   6.086   6.988
 5205SOL    HW216515   7.005   5.927   6.961
 5206SOL     OW16516   0.090   4.968   6.413
 5206SOL    HW116517   0.103   4.947   6.510
 5206SOL    HW216518   0.179   4.970   6.367
 5207SOL     OW16519   0.955   0.481   3.522
 5207SOL    HW116520   1.006   0.428   3.455
 5207SOL    HW216521   0.906   0.555   3.476
 5208SOL     OW16522   4.198   2.620   0.194
 5208SOL    HW116523   4.271   2.556   0.217
 5208SOL    HW216524   4.166   2.604   0.101
 5209SOL     OW16525   5.299   0.900   1.400
 5209SOL    HW116526   5.238   0.833   1.441
 5209SOL    HW216527   5.384   0.905   1.453
 5210SOL     OW16528   4.882   3.886   0.692
 5210SOL    HW116529   4.794   3.874   0.647
 5210SOL    HW216530   4.955   3.880   0.623
 5211SOL     OW16531   4.762   1.803   5.241
 5211SOL    HW116532   4.681   1.744   5.244
 5211SOL    HW216533   4.734   1.896   5.218
 5212SOL     OW16534   1.992   2.684   1.371
 5212SOL    HW116535   1.933   2.610   1.404
 5212SOL    HW216536   1.936   2.763   1.348
 5213SOL     OW16537   4.335   3.528   0.839
 5213SOL    HW116538   4.431   3.553   0.838
 5213SOL    HW216539   4.293   3.560   0.924
 5214SOL     OW16540   5.697   2.645   5.805
 5214SOL    HW116541   5.686   2.603   5.715
 5214SOL    HW216542   5.720   2.742   5.795
 5215SOL     OW16543   0.262   4.553   4.607
 5215SOL    HW116544   0.245   4.605   4.524
 5215SOL    HW216545   0.228   4.604   4.686
 5216SOL     OW16546   4.908   5.340   0.809
 5216SOL    HW116547   4.900   5.430   0.766
 5216SOL    HW216548   4.946   5.350   0.901
 5217SOL     OW16549   3.805   5.710   4.306
 5217SOL    HW116550   3.749   5.665   4.236
 5217SOL    HW216551   3.858   5.783   4.264
 5218SOL     OW16552   0.818   1.330   1.433
 5218SOL    HW116553   0.755   1.258   1.404
 5218SOL    HW216554   0.907   1.290   1.454
 5219SOL     OW16555   3.716   1.979   4.493
 5219SOL    HW116556   3.766   1.908   4.543
 5219SOL    HW216557   3.650   2.022   4.554
 5220SOL     OW16558   1.438   4.712   2.896
 5220SOL    HW116559   1.527   4.756   2.883
 5220SOL    HW216560   1.441   4.654   2.978
 5221SOL     OW16561   6.274   0.479   2.569
 5221SOL    HW116562   6.258   0.572   2.603
 5221SOL    HW216563   6.219   0.415   2.621
 5222SOL     OW16564   4.010   6.201   2.021
 5222SOL    HW116565   3.912   6.220   2.010
 5222SOL    HW216566   4.041   6.142   1.946
 5223SOL     OW16567   0.053   2.743   0.151
 5223SOL    HW116568   0.024   2.833   0.184
 5223SOL    HW216569   0.023   2.672   0.215
 5224SOL     OW16570   6.954   2.768   3.971
 5224SOL    HW116571   0.012   2.834   3.953
 5224SOL    HW216572   6.992   2.686   4.012
 5225SOL     OW16573   6.492   0.654   3.283
 5225SOL    HW116574   6.409   0.631   3.335
 5225SOL    HW216575   6.560   0.582   3.297
 5226SOL     OW16576   0.496   6.492   3.810
 5226SOL    HW116577   0.464   6.422   3.874
 5226SOL    HW216578   0.521   6.574   3.861
 5227SOL     OW16579   0.318   4.345   5.881
 5227SOL    HW116580   0.302   4.390   5.793
 5227SOL    HW216581   0.240   4.361   5.941
 5228SOL     OW16582   0.846   2.248   0.121
 5228SOL    HW116583   0.795   2.202   0.048
 5228SOL    HW216584   0.805   2.338   0.138
 5229SOL     OW16585   3.127   6.179   0.066
 5229SOL    HW116586   3.054   6.169   7.014
 5229SOL    HW216587   3.095   6.145   0.155
 5230SOL     OW16588   6.447   6.055   2.391
 5230SOL    HW116589   6.436   5.966   2.347
 5230SOL    HW216590   6.465   6.041   2.489
 5231SOL     OW16591   4.548   2.591   3.510
 5231SOL    HW116592   4.504   2.508   3.544
 5231SOL    HW216593   4.549   2.590   3.410
 5232SOL     OW16594   1.115   4.156   5.937
 5232SOL    HW116595   1.154   4.197   6.019
 5232SOL    HW216596   1.129   4.057   5.939
 5233SOL     OW16597   3.441   1.174   2.541
 5233SOL    HW116598   3.453   1.179   2.442
 5233SOL    HW216599   3.353   1.132   2.562
 5234SOL     OW16600   2.335   2.517   6.616
 5234SOL    HW116601   2.298   2.532   6.708
 5234SOL    HW216602   2.385   2.599   6.587
 5235SOL     OW16603   2.162   2.139   0.962
 5235SOL    HW116604   2.183   2.237   0.966
 5235SOL    HW216605   2.208   2.099   0.882
 5236SOL     OW16606   3.567   5.646   2.030
 5236SOL    HW116607   3.515   5.691   2.103
 5236SOL    HW216608   3.598   5.556   2.062
 5237SOL     OW16609   1.427   1.133   4.813
 5237SOL    HW116610   1.395   1.198   4.882
 5237SOL    HW216611   1.526   1.121   4.823
 5238SOL     OW16612   0.633   6.201   0.295
 5238SOL    HW116613   0.568   6.127   0.309
 5238SOL    HW216614   0.715   6.184   0.351
 5239SOL     OW16615   3.600   2.794   0.053
 5239SOL    HW116616   3.581   2.697   0.067
 5239SOL    HW216617   3.660   2.828   0.125
 5240SOL     OW16618   3.342   2.123   5.160
 5240SOL    HW116619   3.305   2.074   5.239
 5240SOL    HW216620   3.282   2.200   5.138
 5241SOL     OW16621   0.674   5.993   3.591
 5241SOL    HW116622   0.604   5.993   3.519
 5241SOL    HW216623   0.763   5.970   3.551
 5242SOL     OW16624   5.637   6.790   2.173
 5242SOL    HW116625   5.618   6.739   2.089
 5242SOL    HW216626   5.621   6.730   2.252
 5243SOL     OW16627   2.154   6.064   1.618
 5243SOL    HW116628   2.087   5.993   1.639
 5243SOL    HW216629   2.233   6.023   1.574
 5244SOL     OW16630   3.670   4.404   6.467
 5244SOL    HW116631   3.679   4.494   6.424
 5244SOL    HW216632   3.620   4.414   6.554
 5245SOL     OW16633   3.571   4.536   0.583
 5245SOL    HW116634   3.591   4.456   0.526
 5245SOL    HW216635   3.572   4.510   0.679
 5246SOL     OW16636   6.502   2.632   1.885
 5246SOL    HW116637   6.515   2.646   1.786
 5246SOL    HW216638   6.424   2.573   1.901
 5247SOL     OW16639   2.629   0.294   6.383
 5247SOL    HW116640   2.603   0.230   6.455
 5247SOL    HW216641   2.629   0.248   6.295
 5248SOL     OW16642   6.972   2.678   3.054
 5248SOL    HW116643   6.965   2.591   3.004
 5248SOL    HW216644   6.882   2.721   3.057
 5249SOL     OW16645   1.140   5.827   6.205
 5249SOL    HW116646   1.166   5.813   6.301
 5249SOL    HW216647   1.108   5.740   6.167
 5250SOL     OW16648   0.839   6.008   0.319
 5250SOL    HW116649   0.905   6.034   0.248
 5250SOL    HW216650   0.773   5.944   0.281
 5251SOL     OW16651   1.061   3.394   0.699
 5251SOL    HW116652   1.052   3.492   0.683
 5251SOL    HW216653   1.145   3.377   0.751
 5252SOL     OW16654   2.783   6.644   1.202
 5252SOL    HW116655   2.789   6.618   1.299
 5252SOL    HW216656   2.769   6.742   1.195
 5253SOL     OW16657   6.879   3.907   4.761
 5253SOL    HW116658   6.899   3.813   4.790
 5253SOL    HW216659   6.814   3.905   4.686
 5254SOL     OW16660   5.656   0.713   3.735
 5254SOL    HW116661   5.688   0.643   3.799
 5254SOL    HW216662   5.566   0.687   3.700
 5255SOL     OW16663   5.106   2.215   5.217
 5255SOL    HW116664   5.045   2.265   5.279
 5255SOL    HW216665   5.145   2.136   5.265
 5256SOL     OW16666   5.067   2.246   3.774
 5256SOL    HW116667   5.105   2.202   3.855
 5256SOL    HW216668   5.095   2.195   3.693
 5257SOL     OW16669   4.645   6.963   1.397
 5257SOL    HW116670   4.661   6.993   1.491
 5257SOL    HW216671   4.559   7.000   1.364
 5258SOL     OW16672   5.963   3.014   1.970
 5258SOL    HW116673   6.033   2.967   2.024
 5258SOL    HW216674   5.930   2.953   1.898
 5259SOL     OW16675   4.991   5.993   3.019
 5259SOL    HW116676   4.983   5.896   3.040
 5259SOL    HW216677   5.039   6.005   2.931
 5260SOL     OW16678   4.437   4.252   0.564
 5260SOL    HW116679   4.413   4.240   0.661
 5260SOL    HW216680   4.384   4.327   0.525
 5261SOL     OW16681   6.444   3.818   6.105
 5261SOL    HW116682   6.495   3.883   6.048
 5261SOL    HW216683   6.346   3.831   6.092
 5262SOL     OW16684   2.572   1.473   3.429
 5262SOL    HW116685   2.489   1.455   3.376
 5262SOL    HW216686   2.577   1.409   3.506
 5263SOL     OW16687   1.942   1.497   3.430
 5263SOL    HW116688   1.952   1.517   3.333
 5263SOL    HW216689   2.029   1.511   3.477
 5264SOL     OW16690   6.511   2.159   1.923
 5264SOL    HW116691   6.564   2.183   1.841
 5264SOL    HW216692   6.413   2.158   1.900
 5265SOL     OW16693   5.955   3.683   3.875
 5265SOL    HW116694   5.960   3.783   3.876
 5265SOL    HW216695   5.958   3.649   3.970
 5266SOL     OW16696   3.393   5.547   6.795
 5266SOL    HW116697   3.426   5.619   6.735
 5266SOL    HW216698   3.345   5.478   6.740
 5267SOL     OW16699   4.948   2.709   4.500
 5267SOL    HW116700   4.902   2.623   4.479
 5267SOL    HW216701   5.028   2.692   4.557
 5268SOL     OW16702   5.859   0.880   0.541
 5268SOL    HW116703   5.852   0.828   0.627
 5268SOL    HW216704   5.825   0.825   0.465
 5269SOL     OW16705   0.937   6.364   2.783
 5269SOL    HW116706   0.885   6.348   2.699
 5269SOL    HW216707   0.985   6.280   2.810
 5270SOL     OW16708   5.086   1.185   2.003
 5270SOL    HW116709   5.015   1.153   2.065
 5270SOL    HW216710   5.076   1.283   1.987
 5271SOL     OW16711   6.248   4.235   5.051
 5271SOL    HW116712   6.299   4.296   5.111
 5271SOL    HW216713   6.312   4.177   5.000
 5272SOL     OW16714   3.470   6.366   1.614
 5272SOL    HW116715   3.465   6.282   1.561
 5272SOL    HW216716   3.436   6.350   1.706
 5273SOL     OW16717   0.471   2.982   3.513
 5273SOL    HW116718   0.434   2.970   3.421
 5273SOL    HW216719   0.418   2.927   3.578
 5274SOL     OW16720   6.076   0.137   2.755
 5274SOL    HW116721   5.988   0.131   2.803
 5274SOL    HW216722   6.121   0.223   2.777
 5275SOL     OW16723   3.909   1.829   0.386
 5275SOL    HW116724   3.844   1.865   0.319
 5275SOL    HW216725   3.860   1.776   0.455
 5276SOL     OW16726   2.048   0.199   0.692
 5276SOL    HW116727   2.000   0.188   0.779
 5276SOL    HW216728   2.115   0.125   0.682
 5277SOL     OW16729   2.551   1.452   2.532
 5277SOL    HW116730   2.587   1.407   2.450
 5277SOL    HW216731   2.463   1.495   2.511
 5278SOL     OW16732   5.221   5.945   3.630
 5278SOL    HW116733   5.196   6.026   3.684
 5278SOL    HW216734   5.306   5.964   3.580
 5279SOL     OW16735   2.324   4.960   0.226
 5279SOL    HW116736   2.335   5.024   0.303
 5279SOL    HW216737   2.274   5.005   0.153
 5280SOL     OW16738   3.184   5.827   5.292
 5280SOL    HW116739   3.251   5.894   5.260
 5280SOL    HW216740   3.140   5.784   5.213
 5281SOL     OW16741   6.569   1.683   1.924
 5281SOL    HW116742   6.488   1.673   1.983
 5281SOL    HW216743   6.556   1.631   1.840
 5282SOL     OW16744   4.041   1.724   3.343
 5282SOL    HW116745   4.135   1.733   3.311
 5282SOL    HW216746   3.982   1.787   3.293
 5283SOL     OW16747   4.568   6.250   2.414
 5283SOL    HW116748   4.497   6.281   2.352
 5283SOL    HW216749   4.577   6.151   2.407
 5284SOL     OW16750   4.607   4.455   3.201
 5284SOL    HW116751   4.699   4.417   3.195
 5284SOL    HW216752   4.552   4.423   3.124
 5285SOL     OW16753   2.678   4.639   4.318
 5285SOL    HW116754   2.592   4.592   4.339
 5285SOL    HW216755   2.671   4.681   4.227
 5286SOL     OW16756   2.021   4.411   0.891
 5286SOL    HW116757   2.088   4.483   0.874
 5286SOL    HW216758   1.957   4.406   0.815
 5287SOL     OW16759   3.371   0.688   0.327
 5287SOL    HW116760   3.384   0.744   0.245
 5287SOL    HW216761   3.300   0.620   0.309
 5288SOL     OW16762   3.028   0.319   1.618
 5288SOL    HW116763   2.975   0.265   1.553
 5288SOL    HW216764   3.034   0.270   1.705
 5289SOL     OW16765   1.742   4.930   6.655
 5289SOL    HW116766   1.840   4.923   6.638
 5289SOL    HW216767   1.695   4.853   6.611
 5290SOL     OW16768   2.736   5.897   5.794
 5290SOL    HW116769   2.699   5.988   5.774
 5290SOL    HW216770   2.739   5.884   5.893
 5291SOL     OW16771   2.384   6.043   4.989
 5291SOL    HW116772   2.311   6.081   5.046
 5291SOL    HW216773   2.398   5.947   5.013
 5292SOL     OW16774   5.681   2.624   0.106
 5292SOL    HW116775   5.673   2.687   0.183
 5292SOL    HW216776   5.592   2.581   0.089
 5293SOL     OW16777   0.647   0.967   4.967
 5293SOL    HW116778   0.606   1.041   4.913
 5293SOL    HW216779   0.635   0.986   5.064
 5294SOL     OW16780   5.355   3.482   6.195
 5294SOL    HW116781   5.397   3.424   6.265
 5294SOL    HW216782   5.271   3.439   6.163
 5295SOL     OW16783   6.345   1.181   2.741
 5295SOL    HW116784   6.345   1.232   2.655
 5295SOL    HW216785   6.380   1.088   2.724
 5296SOL     OW16786   1.752   5.779   0.044
 5296SOL    HW116787   1.696   5.858   0.020
 5296SOL    HW216788   1.693   5.701   0.066
 5297SOL     OW16789   1.533   2.355   1.404
 5297SOL    HW116790   1.532   2.262   1.366
 5297SOL    HW216791   1.462   2.410   1.360
 5298SOL     OW16792   6.272   5.806   2.366
 5298SOL    HW116793   6.311   5.755   2.443
 5298SOL    HW216794   6.227   5.889   2.400
 5299SOL     OW16795   3.093   1.834   1.167
 5299SOL    HW116796   3.049   1.871   1.248
 5299SOL    HW216797   3.166   1.771   1.194
 5300SOL     OW16798   0.347   5.297   2.450
 5300SOL    HW116799   0.381   5.372   2.507
 5300SOL    HW216800   0.372   5.209   2.493
 5301SOL     OW16801   4.331   1.274   0.208
 5301SOL    HW116802   4.299   1.353   0.156
 5301SOL    HW216803   4.395   1.304   0.279
 5302SOL     OW16804   6.374   4.535   3.134
 5302SOL    HW116805   6.427   4.603   3.185
 5302SOL    HW216806   6.405   4.443   3.158
 5303SOL     OW16807   6.766   6.432   4.065
 5303SOL    HW116808   6.865   6.421   4.076
 5303SOL    HW216809   6.745   6.450   3.969
 5304SOL     OW16810   5.795   1.911   6.269
 5304SOL    HW116811   5.867   1.890   6.335
 5304SOL    HW216812   5.790   2.010   6.256
 5305SOL     OW16813   1.107   0.475   4.143
 5305SOL    HW116814   1.058   0.390   4.124
 5305SOL    HW216815   1.154   0.468   4.231
 5306SOL     OW16816   2.044   6.510   4.932
 5306SOL    HW116817   2.015   6.591   4.881
 5306SOL    HW216818   1.984   6.433   4.910
 5307SOL     OW16819   4.392   5.976   6.422
 5307SOL    HW116820   4.370   6.033   6.342
 5307SOL    HW216821   4.403   6.034   6.502
 5308SOL     OW16822   0.118   0.946   4.126
 5308SOL    HW116823   0.136   0.897   4.041
 5308SOL    HW216824   0.021   0.940   4.148
 5309SOL     OW16825   4.041   3.835   3.244
 5309SOL    HW116826   3.991   3.916   3.214
 5309SOL    HW216827   4.120   3.821   3.184
 5310SOL     OW16828   4.968   2.667   1.750
 5310SOL    HW116829   4.986   2.569   1.756
 5310SOL    HW216830   5.025   2.707   1.679
 5311SOL     OW16831   0.343   5.843   6.778
 5311SOL    HW116832   0.313   5.939   6.772
 5311SOL    HW216833   0.324   5.796   6.692
 5312SOL     OW16834   0.583   4.619   2.313
 5312SOL    HW116835   0.509   4.628   2.380
 5312SOL    HW216836   0.554   4.558   2.239
 5313SOL     OW16837   0.618   5.483   6.835
 5313SOL    HW116838   0.629   5.523   6.744
 5313SOL    HW216839   0.678   5.530   6.899
 5314SOL     OW16840   4.435   5.153   0.249
 5314SOL    HW116841   4.488   5.080   0.208
 5314SOL    HW216842   4.460   5.163   0.346
 5315SOL     OW16843   4.586   4.501   2.081
 5315SOL    HW116844   4.682   4.505   2.108
 5315SOL    HW216845   4.567   4.415   2.034
 5316SOL     OW16846   0.633   5.313   4.894
 5316SOL    HW116847   0.589   5.311   4.805
 5316SOL    HW216848   0.624   5.224   4.938
 5317SOL     OW16849   5.520   1.645   4.070
 5317SOL    HW116850   5.605   1.610   4.031
 5317SOL    HW216851   5.535   1.669   4.166
 5318SOL     OW16852   7.000   2.053   4.344
 5318SOL    HW116853   0.053   1.981   4.336
 5318SOL    HW216854   6.908   2.013   4.343
 5319SOL     OW16855   5.355   6.510   6.281
 5319SOL    HW116856   5.345   6.412   6.265
 5319SOL    HW216857   5.385   6.555   6.197
 5320SOL     OW16858   6.457   4.963   0.309
 5320SOL    HW116859   6.418   4.895   0.246
 5320SOL    HW216860   6.425   5.054   0.282
 5321SOL     OW16861   1.006   5.243   3.456
 5321SOL    HW116862   1.066   5.276   3.529
 5321SOL    HW216863   1.061   5.198   3.386
 5322SOL     OW16864   4.010   6.433   6.683
 5322SOL    HW116865   3.927   6.386   6.714
 5322SOL    HW216866   4.039   6.394   6.596
 5323SOL     OW16867   4.627   2.803   1.425
 5323SOL    HW116868   4.581   2.877   1.377
 5323SOL    HW216869   4.653   2.834   1.517
 5324SOL     OW16870   3.739   2.467   1.684
 5324SOL    HW116871   3.805   2.430   1.618
 5324SOL    HW216872   3.716   2.397   1.751
 5325SOL     OW16873   5.482   0.339   2.786
 5325SOL    HW116874   5.434   0.279   2.722
 5325SOL    HW216875   5.476   0.433   2.754
 5326SOL     OW16876   6.261   5.178   2.137
 5326SOL    HW116877   6.264   5.204   2.040
 5326SOL    HW216878   6.213   5.091   2.147
 5327SOL     OW16879   0.622   6.573   5.647
 5327SOL    HW116880   0.536   6.625   5.653
 5327SOL    HW216881   0.606   6.488   5.598
 5328SOL     OW16882   3.579   2.334   5.734
 5328SOL    HW116883   3.609   2.273   5.807
 5328SOL    HW216884   3.589   2.288   5.646
 5329SOL     OW16885   6.608   4.117   0.885
 5329SOL    HW116886   6.685   4.178   0.905
 5329SOL    HW216887   6.612   4.087   0.790
 5330SOL     OW16888   3.646   4.106   6.713
 5330SOL    HW116889   3.734   4.152   6.717
 5330SOL    HW216890   3.619   4.076   6.804
 5331SOL     OW16891   4.649   2.399   0.701
 5331SOL    HW116892   4.671   2.421   0.606
 5331SOL    HW216893   4.648   2.300   0.714
 5332SOL     OW16894   6.239   4.831   0.165
 5332SOL    HW116895   6.157   4.874   0.202
 5332SOL    HW216896   6.264   4.876   0.079
 5333SOL     OW16897   1.835   0.968   3.538
 5333SOL    HW116898   1.778   0.915   3.475
 5333SOL    HW216899   1.866   1.052   3.493
 5334SOL     OW16900   4.840   4.988   4.345
 5334SOL    HW116901   4.866   4.960   4.253
 5334SOL    HW216902   4.767   4.929   4.378
 5335SOL     OW16903   6.500   4.264   2.570
 5335SOL    HW116904   6.534   4.172   2.556
 5335SOL    HW216905   6.433   4.264   2.645
 5336SOL     OW16906   2.237   1.549   3.994
 5336SOL    HW116907   2.323   1.553   3.943
 5336SOL    HW216908   2.201   1.641   4.008
 5337SOL     OW16909   6.014   4.804   1.324
 5337SOL    HW116910   6.092   4.865   1.311
 5337SOL    HW216911   6.037   4.735   1.393
 5338SOL     OW16912   5.437   2.709   0.388
 5338SOL    HW116913   5.380   2.646   0.335
 5338SOL    HW216914   5.499   2.656   0.445
 5339SOL     OW16915   5.559   1.779   2.073
 5339SOL    HW116916   5.582   1.759   2.169
 5339SOL    HW216917   5.562   1.877   2.058
 5340SOL     OW16918   5.500   3.703   1.590
 5340SOL    HW116919   5.542   3.723   1.678
 5340SOL    HW216920   5.492   3.604   1.577
 5341SOL     OW16921   4.223   4.695   4.261
 5341SOL    HW116922   4.148   4.690   4.327
 5341SOL    HW216923   4.281   4.774   4.283
 5342SOL     OW16924   4.547   6.429   5.719
 5342SOL    HW116925   4.623   6.425   5.654
 5342SOL    HW216926   4.563   6.504   5.784
 5343SOL     OW16927   3.602   3.366   4.464
 5343SOL    HW116928   3.669   3.394   4.395
 5343SOL    HW216929   3.518   3.420   4.453
 5344SOL     OW16930   0.486   1.616   0.089
 5344SOL    HW116931   0.449   1.707   0.103
 5344SOL    HW216932   0.430   1.567   0.023
 5345SOL     OW16933   5.008   0.953   0.063
 5345SOL    HW116934   5.101   0.951   0.101
 5345SOL    HW216935   4.947   0.900   0.123
 5346SOL     OW16936   2.445   5.006   4.232
 5346SOL    HW116937   2.392   4.961   4.304
 5346SOL    HW216938   2.513   4.941   4.196
 5347SOL     OW16939   0.096   2.804   3.320
 5347SOL    HW116940   0.130   2.749   3.243
 5347SOL    HW216941   0.024   2.865   3.288
 5348SOL     OW16942   0.166   1.679   4.947
 5348SOL    HW116943   0.068   1.673   4.930
 5348SOL    HW216944   0.195   1.600   5.002
 5349SOL     OW16945   1.610   2.775   1.840
 5349SOL    HW116946   1.559   2.724   1.910
 5349SOL    HW216947   1.627   2.716   1.761
 5350SOL     OW16948   1.836   7.007   5.697
 5350SOL    HW116949   1.873   0.012   5.606
 5350SOL    HW216950   1.843   6.909   5.716
 5351SOL     OW16951   0.213   4.727   1.936
 5351SOL    HW116952   0.149   4.741   1.861
 5351SOL    HW216953   0.221   4.811   1.989
 5352SOL     OW16954   2.318   4.317   2.771
 5352SOL    HW116955   2.385   4.269   2.715
 5352SOL    HW216956   2.364   4.387   2.826
 5353SOL     OW16957   3.591   5.265   3.556
 5353SOL    HW116958   3.588   5.229   3.462
 5353SOL    HW216959   3.563   5.193   3.619
 5354SOL     OW16960   3.157   4.357   0.213
 5354SOL    HW116961   3.249   4.386   0.186
 5354SOL    HW216962   3.102   4.340   0.131
 5355SOL     OW16963   4.605   4.813   4.972
 5355SOL    HW116964   4.638   4.899   5.012
 5355SOL    HW216965   4.515   4.827   4.930
 5356SOL     OW16966   6.483   3.402   1.914
 5356SOL    HW116967   6.400   3.452   1.890
 5356SOL    HW216968   6.492   3.322   1.853
 5357SOL     OW16969   4.162   4.810   2.100
 5357SOL    HW116970   4.222   4.889   2.112
 5357SOL    HW216971   4.211   4.739   2.048
 5358SOL     OW16972   4.300   1.908   0.246
 5358SOL    HW116973   4.257   1.830   0.293
 5358SOL    HW216974   4.390   1.881   0.212
 5359SOL     OW16975   2.305   2.340   0.106
 5359SOL    HW116976   2.260   2.286   0.034
 5359SOL    HW216977   2.235   2.382   0.164
 5360SOL     OW16978   5.281   6.086   3.042
 5360SOL    HW116979   5.366   6.101   2.992
 5360SOL    HW216980   5.250   5.992   3.030
 5361SOL     OW16981   2.965   6.557   2.908
 5361SOL    HW116982   2.925   6.495   2.975
 5361SOL    HW216983   3.062   6.570   2.927
 5362SOL     OW16984   5.831   6.943   2.444
 5362SOL    HW116985   5.849   6.882   2.367
 5362SOL    HW216986   5.892   6.920   2.519
 5363SOL     OW16987   5.186   6.682   4.747
 5363SOL    HW116988   5.183   6.662   4.649
 5363SOL    HW216989   5.265   6.635   4.787
 5364SOL     OW16990   5.370   0.891   2.156
 5364SOL    HW116991   5.326   0.902   2.067
 5364SOL    HW216992   5.422   0.806   2.157
 5365SOL     OW16993   3.127   3.771   2.561
 5365SOL    HW116994   3.146   3.747   2.465
 5365SOL    HW216995   3.108   3.688   2.613
 5366SOL     OW16996   6.591   0.507   1.672
 5366SOL    HW116997   6.614   0.422   1.625
 5366SOL    HW216998   6.508   0.494   1.727
 5367SOL     OW16999   6.355   0.182   0.680
 5367SOL    HW117000   6.404   0.098   0.702
 5367SOL    HW217001   6.270   0.185   0.732
 5368SOL     OW17002   6.631   5.940   2.181
 5368SOL    HW117003   6.564   5.938   2.106
 5368SOL    HW217004   6.632   5.851   2.227
 5369SOL     OW17005   2.773   5.726   1.669
 5369SOL    HW117006   2.685   5.679   1.662
 5369SOL    HW217007   2.759   5.825   1.660
 5370SOL     OW17008   4.301   3.382   1.755
 5370SOL    HW117009   4.333   3.458   1.698
 5370SOL    HW217010   4.217   3.344   1.715
 5371SOL     OW17011   7.013   5.110   5.196
 5371SOL    HW117012   0.022   5.058   5.278
 5371SOL    HW217013   6.990   5.046   5.122
 5372SOL     OW17014   0.976   0.466   2.357
 5372SOL    HW117015   0.958   0.483   2.261
 5372SOL    HW217016   1.019   0.376   2.368
 5373SOL     OW17017   3.686   6.455   6.349
 5373SOL    HW117018   3.705   6.536   6.404
 5373SOL    HW217019   3.663   6.482   6.256
 5374SOL     OW17020   2.379   4.780   1.066
 5374SOL    HW117021   2.284   4.803   1.083
 5374SOL    HW217022   2.434   4.864   1.064
 5375SOL     OW17023   1.064   6.672   5.403
 5375SOL    HW117024   1.101   6.582   5.426
 5375SOL    HW217025   0.965   6.664   5.386
 5376SOL     OW17026   1.256   1.981   1.846
 5376SOL    HW117027   1.180   2.046   1.843
 5376SOL    HW217028   1.273   1.946   1.754
 5377SOL     OW17029   2.416   0.954   3.245
 5377SOL    HW117030   2.359   0.877   3.275
 5377SOL    HW217031   2.447   1.005   3.325
 5378SOL     OW17032   6.111   0.141   0.822
 5378SOL    HW117033   6.034   0.118   0.763
 5378SOL    HW217034   6.086   0.220   0.879
 5379SOL     OW17035   1.122   2.771   6.196
 5379SOL    HW117036   1.102   2.725   6.110
 5379SOL    HW217037   1.189   2.844   6.180
 5380SOL     OW17038   3.387   6.946   1.217
 5380SOL    HW117039   3.460   7.006   1.184
 5380SOL    HW217040   3.333   6.995   1.285
 5381SOL     OW17041   5.888   6.142   2.311
 5381SOL    HW117042   5.872   6.234   2.346
 5381SOL    HW217043   5.978   6.138   2.268
 5382SOL     OW17044   3.783   2.132   2.398
 5382SOL    HW117045   3.690   2.103   2.377
 5382SOL    HW217046   3.790   2.231   2.390
 5383SOL     OW17047   0.943   2.924   4.704
 5383SOL    HW117048   1.000   3.004   4.725
 5383SOL    HW217049   1.002   2.847   4.678
 5384SOL     OW17050   4.557   5.326   4.803
 5384SOL    HW117051   4.641   5.366   4.839
 5384SOL    HW217052   4.482   5.392   4.811
 5385SOL     OW17053   6.374   2.520   5.959
 5385SOL    HW117054   6.414   2.611   5.951
 5385SOL    HW217055   6.325   2.513   6.046
 5386SOL     OW17056   5.920   2.765   4.105
 5386SOL    HW117057   5.934   2.690   4.041
 5386SOL    HW217058   5.822   2.775   4.124
 5387SOL     OW17059   2.683   0.123   3.100
 5387SOL    HW117060   2.705   0.182   3.023
 5387SOL    HW217061   2.765   0.110   3.156
 5388SOL     OW17062   1.186   6.517   3.054
 5388SOL    HW117063   1.097   6.513   3.009
 5388SOL    HW217064   1.255   6.477   2.993
 5389SOL     OW17065   4.449   2.537   4.320
 5389SOL    HW117066   4.458   2.451   4.370
 5389SOL    HW217067   4.380   2.526   4.248
 5390SOL     OW17068   5.669   3.779   4.061
 5390SOL    HW117069   5.662   3.681   4.045
 5390SOL    HW217070   5.737   3.797   4.131
 5391SOL     OW17071   2.735   2.542   0.010
 5391SOL    HW117072   2.775   2.589   6.947
 5391SOL    HW217073   2.802   2.539   0.084
 5392SOL     OW17074   4.779   2.948   2.600
 5392SOL    HW117075   4.690   2.917   2.567
 5392SOL    HW217076   4.808   3.029   2.550
 5393SOL     OW17077   4.305   0.179   5.032
 5393SOL    HW117078   4.301   0.175   4.932
 5393SOL    HW217079   4.212   0.178   5.069
 5394SOL     OW17080   0.848   6.112   1.488
 5394SOL    HW117081   0.837   6.093   1.391
 5394SOL    HW217082   0.935   6.158   1.504
 5395SOL     OW17083   4.837   1.174   1.105
 5395SOL    HW117084   4.906   1.102   1.102
 5395SOL    HW217085   4.827   1.208   1.198
 5396SOL     OW17086   5.319   5.844   2.263
 5396SOL    HW117087   5.271   5.766   2.225
 5396SOL    HW217088   5.403   5.813   2.308
 5397SOL     OW17089   6.725   2.001   2.439
 5397SOL    HW117090   6.650   1.989   2.504
 5397SOL    HW217091   6.692   2.052   2.359
 5398SOL     OW17092   4.305   2.383   4.143
 5398SOL    HW117093   4.264   2.374   4.052
 5398SOL    HW217094   4.258   2.323   4.207
 5399SOL     OW17095   1.682   6.595   5.637
 5399SOL    HW117096   1.695   6.513   5.693
 5399SOL    HW217097   1.744   6.591   5.558
 5400SOL     OW17098   3.437   3.291   1.161
 5400SOL    HW117099   3.471   3.267   1.070
 5400SOL    HW217100   3.362   3.356   1.152
 5401SOL     OW17101   4.803   4.729   3.482
 5401SOL    HW117102   4.767   4.635   3.487
 5401SOL    HW217103   4.730   4.794   3.499
 5402SOL     OW17104   3.144   6.425   1.046
 5402SOL    HW117105   3.216   6.407   1.113
 5402SOL    HW217106   3.065   6.464   1.092
 5403SOL     OW17107   5.479   3.086   6.431
 5403SOL    HW117108   5.391   3.084   6.384
 5403SOL    HW217109   5.471   3.038   6.518
 5404SOL     OW17110   0.390   0.694   0.848
 5404SOL    HW117111   0.320   0.740   0.903
 5404SOL    HW217112   0.348   0.659   0.764
 5405SOL     OW17113   5.141   5.080   6.998
 5405SOL    HW117114   5.232   5.122   6.997
 5405SOL    HW217115   5.079   5.137   0.039
 5406SOL     OW17116   2.075   0.558   4.681
 5406SOL    HW117117   2.083   0.502   4.763
 5406SOL    HW217118   1.998   0.621   4.690
 5407SOL     OW17119   2.816   0.950   1.094
 5407SOL    HW117120   2.823   0.895   1.177
 5407SOL    HW217121   2.776   0.895   1.021
 5408SOL     OW17122   4.063   1.795   4.489
 5408SOL    HW117123   4.142   1.792   4.427
 5408SOL    HW217124   4.003   1.870   4.461
 5409SOL     OW17125   6.256   2.156   1.833
 5409SOL    HW117126   6.295   2.100   1.760
 5409SOL    HW217127   6.177   2.207   1.798
 5410SOL     OW17128   0.126   3.029   0.842
 5410SOL    HW117129   0.197   3.094   0.867
 5410SOL    HW217130   0.088   2.986   0.925
 5411SOL     OW17131   5.533   4.207   6.900
 5411SOL    HW117132   5.458   4.205   6.967
 5411SOL    HW217133   5.595   4.130   6.918
 5412SOL     OW17134   1.975   1.286   6.236
 5412SOL    HW117135   2.022   1.217   6.291
 5412SOL    HW217136   2.031   1.310   6.157
 5413SOL     OW17137   6.518   0.100   5.690
 5413SOL    HW117138   6.456   0.097   5.611
 5413SOL    HW217139   6.470   0.141   5.768
 5414SOL     OW17140   0.539   4.754   5.516
 5414SOL    HW117141   0.583   4.711   5.595
 5414SOL    HW217142   0.514   4.684   5.450
 5415SOL     OW17143   2.953   5.706   0.093
 5415SOL    HW117144   2.857   5.731   0.079
 5415SOL    HW217145   2.961   5.606   0.097
 5416SOL     OW17146   2.967   5.162   4.971
 5416SOL    HW117147   3.000   5.096   5.039
 5416SOL    HW217148   2.873   5.188   4.994
 5417SOL     OW17149   4.803   6.404   4.026
 5417SOL    HW117150   4.815   6.368   4.119
 5417SOL    HW217151   4.708   6.433   4.013
 5418SOL     OW17152   5.544   4.402   4.886
 5418SOL    HW117153   5.458   4.434   4.926
 5418SOL    HW217154   5.526   4.325   4.825
 5419SOL     OW17155   4.308   6.662   0.302
 5419SOL    HW117156   4.293   6.750   0.257
 5419SOL    HW217157   4.385   6.615   0.259
 5420SOL     OW17158   1.358   1.548   1.766
 5420SOL    HW117159   1.266   1.511   1.760
 5420SOL    HW217160   1.384   1.588   1.679
 5421SOL     OW17161   3.267   5.162   2.381
 5421SOL    HW117162   3.245   5.239   2.321
 5421SOL    HW217163   3.244   5.076   2.336
 5422SOL     OW17164   2.192   5.780   3.970
 5422SOL    HW117165   2.285   5.768   3.934
 5422SOL    HW217166   2.186   5.738   4.060
 5423SOL     OW17167   6.324   5.571   1.988
 5423SOL    HW117168   6.386   5.645   2.012
 5423SOL    HW217169   6.290   5.527   2.071
 5424SOL     OW17170   5.155   4.355   4.754
 5424SOL    HW117171   5.104   4.269   4.760
 5424SOL    HW217172   5.211   4.366   4.836
 5425SOL     OW17173   6.474   3.001   4.733
 5425SOL    HW117174   6.426   3.088   4.735
 5425SOL    HW217175   6.465   2.960   4.642
 5426SOL     OW17176   5.089   5.189   1.946
 5426SOL    HW117177   5.021   5.234   2.004
 5426SOL    HW217178   5.079   5.090   1.954
 5427SOL     OW17179   4.703   2.633   6.856
 5427SOL    HW117180   4.715   2.541   6.818
 5427SOL    HW217181   4.787   2.685   6.843
 5428SOL     OW17182   5.523   6.115   2.909
 5428SOL    HW117183   5.600   6.060   2.879
 5428SOL    HW217184   5.556   6.198   2.955
 5429SOL     OW17185   2.995   0.345   4.192
 5429SOL    HW117186   3.016   0.288   4.271
 5429SOL    HW217187   2.917   0.404   4.212
 5430SOL     OW17188   2.300   3.489   5.866
 5430SOL    HW117189   2.339   3.507   5.776
 5430SOL    HW217190   2.280   3.575   5.912
 5431SOL     OW17191   3.541   5.029   6.177
 5431SOL    HW117192   3.520   5.005   6.082
 5431SOL    HW217193   3.457   5.054   6.225
 5432SOL     OW17194   5.708   5.907   0.878
 5432SOL    HW117195   5.768   5.858   0.815
 5432SOL    HW217196   5.634   5.949   0.827
 5433SOL     OW17197   1.418   0.121   0.932
 5433SOL    HW117198   1.337   0.067   0.910
 5433SOL    HW217199   1.459   0.087   1.017
 5434SOL     OW17200   4.929   1.071   5.029
 5434SOL    HW117201   4.909   1.168   5.046
 5434SOL    HW217202   4.919   1.020   5.115
 5435SOL     OW17203   6.333   4.003   0.379
 5435SOL    HW117204   6.324   4.098   0.346
 5435SOL    HW217205   6.416   3.995   0.435
 5436SOL     OW17206   0.734   5.817   2.762
 5436SOL    HW117207   0.834   5.822   2.758
 5436SOL    HW217208   0.701   5.872   2.838
 5437SOL     OW17209   3.244   4.888   5.874
 5437SOL    HW117210   3.233   4.789   5.880
 5437SOL    HW217211   3.189   4.923   5.798
 5438SOL     OW17212   5.048   4.156   1.806
 5438SOL    HW117213   5.113   4.185   1.877
 5438SOL    HW217214   5.025   4.234   1.749
 5439SOL     OW17215   0.793   4.093   0.477
 5439SOL    HW117216   0.892   4.092   0.486
 5439SOL    HW217217   0.753   4.033   0.547
 5440SOL     OW17218   5.426   0.002   3.224
 5440SOL    HW117219   5.451   0.042   3.312
 5440SOL    HW217220   5.329   6.997   3.223
 5441SOL     OW17221   4.861   3.281   3.826
 5441SOL    HW117222   4.943   3.236   3.788
 5441SOL    HW217223   4.783   3.261   3.767
 5442SOL     OW17224   5.191   0.833   3.757
 5442SOL    HW117225   5.121   0.764   3.738
 5442SOL    HW217226   5.171   0.916   3.704
 5443SOL     OW17227   4.937   6.771   4.864
 5443SOL    HW117228   5.029   6.736   4.843
 5443SOL    HW217229   4.931   6.867   4.837
 5444SOL     OW17230   0.466   1.765   4.068
 5444SOL    HW117231   0.433   1.855   4.039
 5444SOL    HW217232   0.558   1.773   4.106
 5445SOL     OW17233   5.133   5.206   4.988
 5445SOL    HW117234   5.216   5.226   5.040
 5445SOL    HW217235   5.079   5.289   4.978
 5446SOL     OW17236   6.877   4.769   5.142
 5446SOL    HW117237   6.883   4.679   5.098
 5446SOL    HW217238   6.893   4.758   5.241
 5447SOL     OW17239   2.204   1.903   1.484
 5447SOL    HW117240   2.225   1.864   1.395
 5447SOL    HW217241   2.219   1.834   1.555
 5448SOL     OW17242   4.492   5.704   3.900
 5448SOL    HW117243   4.461   5.788   3.944
 5448SOL    HW217244   4.497   5.631   3.967
 5449SOL     OW17245   3.091   1.303   1.808
 5449SOL    HW117246   3.136   1.257   1.885
 5449SOL    HW217247   3.066   1.396   1.835
 5450SOL     OW17248   3.552   6.006   1.721
 5450SOL    HW117249   3.631   6.062   1.699
 5450SOL    HW217250   3.559   5.973   1.815
 5451SOL     OW17251   0.985   0.171   2.511
 5451SOL    HW117252   1.058   0.107   2.535
 5451SOL    HW217253   0.897   0.123   2.513
 5452SOL     OW17254   1.307   4.924   1.274
 5452SOL    HW117255   1.346   4.836   1.305
 5452SOL    HW217256   1.310   4.989   1.349
 5453SOL     OW17257   4.923   4.091   2.432
 5453SOL    HW117258   4.978   4.142   2.498
 5453SOL    HW217259   4.826   4.109   2.448
 5454SOL     OW17260   5.549   5.770   2.397
 5454SOL    HW117261   5.601   5.773   2.482
 5454SOL    HW217262   5.607   5.733   2.324
 5455SOL     OW17263   0.885   1.443   2.584
 5455SOL    HW117264   0.897   1.367   2.647
 5455SOL    HW217265   0.828   1.414   2.507
 5456SOL     OW17266   4.965   0.525   7.010
 5456SOL    HW117267   4.996   0.521   0.090
 5456SOL    HW217268   5.037   0.489   6.950
 5457SOL     OW17269   6.175   2.115   0.111
 5457SOL    HW117270   6.260   2.153   0.148
 5457SOL    HW217271   6.133   2.056   0.179
 5458SOL     OW17272   6.130   4.693   0.428
 5458SOL    HW117273   6.183   4.608   0.421
 5458SOL    HW217274   6.137   4.744   0.343
 5459SOL     OW17275   2.096   5.218   5.827
 5459SOL    HW117276   2.016   5.195   5.772
 5459SOL    HW217277   2.175   5.165   5.796
 5460SOL     OW17278   1.976   1.458   1.106
 5460SOL    HW117279   1.965   1.538   1.047
 5460SOL    HW217280   2.029   1.484   1.187
 5461SOL     OW17281   1.135   1.563   5.393
 5461SOL    HW117282   1.233   1.569   5.372
 5461SOL    HW217283   1.111   1.636   5.457
 5462SOL     OW17284   5.561   5.900   6.823
 5462SOL    HW117285   5.642   5.959   6.830
 5462SOL    HW217286   5.480   5.956   6.805
 5463SOL     OW17287   6.531   2.044   6.281
 5463SOL    HW117288   6.486   1.993   6.206
 5463SOL    HW217289   6.615   2.085   6.247
 5464SOL     OW17290   6.422   5.525   5.412
 5464SOL    HW117291   6.347   5.577   5.371
 5464SOL    HW217292   6.504   5.583   5.416
 5465SOL     OW17293   6.159   6.892   3.246
 5465SOL    HW117294   6.219   6.902   3.326
 5465SOL    HW217295   6.081   6.834   3.270
 5466SOL     OW17296   5.719   2.864   5.236
 5466SOL    HW117297   5.652   2.797   5.268
 5466SOL    HW217298   5.701   2.953   5.279
 5467SOL     OW17299   5.707   3.595   3.667
 5467SOL    HW117300   5.741   3.528   3.733
 5467SOL    HW217301   5.707   3.686   3.709
 5468SOL     OW17302   6.747   2.829   3.076
 5468SOL    HW117303   6.652   2.843   3.107
 5468SOL    HW217304   6.809   2.874   3.140
 5469SOL     OW17305   1.856   0.135   5.998
 5469SOL    HW117306   1.842   0.054   6.054
 5469SOL    HW217307   1.887   0.108   5.907
 5470SOL     OW17308   4.323   5.339   4.065
 5470SOL    HW117309   4.290   5.351   3.971
 5470SOL    HW217310   4.262   5.276   4.114
 5471SOL     OW17311   5.743   0.762   2.813
 5471SOL    HW117312   5.792   0.849   2.805
 5471SOL    HW217313   5.760   0.706   2.733
 5472SOL     OW17314   3.047   2.718   5.718
 5472SOL    HW117315   3.111   2.793   5.703
 5472SOL    HW217316   2.961   2.737   5.670
 5473SOL     OW17317   1.376   4.635   0.716
 5473SOL    HW117318   1.428   4.686   0.648
 5473SOL    HW217319   1.377   4.685   0.803
 5474SOL     OW17320   0.923   5.857   3.505
 5474SOL    HW117321   0.921   5.788   3.432
 5474SOL    HW217322   0.991   5.927   3.483
 5475SOL     OW17323   1.673   1.673   0.878
 5475SOL    HW117324   1.653   1.713   0.788
 5475SOL    HW217325   1.591   1.630   0.914
 5476SOL     OW17326   2.203   5.275   5.449
 5476SOL    HW117327   2.156   5.211   5.388
 5476SOL    HW217328   2.302   5.265   5.438
 5477SOL     OW17329   1.547   4.322   2.733
 5477SOL    HW117330   1.571   4.359   2.644
 5477SOL    HW217331   1.617   4.346   2.800
 5478SOL     OW17332   4.334   5.563   6.131
 5478SOL    HW117333   4.413   5.561   6.070
 5478SOL    HW217334   4.272   5.488   6.108
 5479SOL     OW17335   4.441   0.933   4.250
 5479SOL    HW117336   4.353   0.968   4.280
 5479SOL    HW217337   4.479   0.993   4.180
 5480SOL     OW17338   5.939   4.934   5.110
 5480SOL    HW117339   5.932   5.004   5.180
 5480SOL    HW217340   5.885   4.854   5.136
 5481SOL     OW17341   4.741   0.618   5.047
 5481SOL    HW117342   4.649   0.579   5.039
 5481SOL    HW217343   4.758   0.680   4.970
 5482SOL     OW17344   3.418   4.090   2.157
 5482SOL    HW117345   3.391   4.002   2.117
 5482SOL    HW217346   3.366   4.106   2.241
 5483SOL     OW17347   6.414   2.572   5.551
 5483SOL    HW117348   6.445   2.646   5.610
 5483SOL    HW217349   6.400   2.608   5.458
 5484SOL     OW17350   5.986   0.149   3.361
 5484SOL    HW117351   6.014   0.122   3.453
 5484SOL    HW217352   5.938   0.073   3.317
 5485SOL     OW17353   2.888   0.270   4.490
 5485SOL    HW117354   2.906   0.174   4.512
 5485SOL    HW217355   2.974   0.319   4.482
 5486SOL     OW17356   2.215   6.689   3.894
 5486SOL    HW117357   2.185   6.610   3.949
 5486SOL    HW217358   2.283   6.741   3.946
 5487SOL     OW17359   6.030   3.868   6.712
 5487SOL    HW117360   6.101   3.800   6.733
 5487SOL    HW217361   6.066   3.960   6.726
 5488SOL     OW17362   4.615   1.165   0.600
 5488SOL    HW117363   4.668   1.167   0.685
 5488SOL    HW217364   4.533   1.111   0.614
 5489SOL     OW17365   1.717   3.968   1.702
 5489SOL    HW117366   1.755   4.024   1.776
 5489SOL    HW217367   1.753   3.875   1.708
 5490SOL     OW17368   3.836   6.870   0.660
 5490SOL    HW117369   3.749   6.878   0.610
 5490SOL    HW217370   3.900   6.815   0.607
 5491SOL     OW17371   1.255   4.408   6.556
 5491SOL    HW117372   1.230   4.486   6.613
 5491SOL    HW217373   1.173   4.372   6.512
 5492SOL     OW17374   0.878   1.324   5.929
 5492SOL    HW117375   0.834   1.301   5.843
 5492SOL    HW217376   0.836   1.272   6.003
 5493SOL     OW17377   3.230   3.254   4.742
 5493SOL    HW117378   3.284   3.169   4.741
 5493SOL    HW217379   3.211   3.280   4.836
 5494SOL     OW17380   6.324   2.492   0.246
 5494SOL    HW117381   6.399   2.432   0.219
 5494SOL    HW217382   6.281   2.531   0.165
 5495SOL     OW17383   2.970   3.030   1.687
 5495SOL    HW117384   2.948   2.961   1.756
 5495SOL    HW217385   2.931   3.004   1.599
 5496SOL     OW17386   2.717   6.501   2.194
 5496SOL    HW117387   2.689   6.482   2.288
 5496SOL    HW217388   2.814   6.482   2.183
 5497SOL     OW17389   0.619   1.933   3.179
 5497SOL    HW117390   0.584   1.915   3.271
 5497SOL    HW217391   0.621   1.848   3.127
 5498SOL     OW17392   5.457   0.564   0.492
 5498SOL    HW117393   5.514   0.521   0.422
 5498SOL    HW217394   5.437   0.658   0.465
 5499SOL     OW17395   0.803   1.064   4.011
 5499SOL    HW117396   0.833   1.066   3.915
 5499SOL    HW217397   0.713   1.107   4.018
 5500SOL     OW17398   1.731   6.189   0.008
 5500SOL    HW117399   1.646   6.140   0.029
 5500SOL    HW217400   1.807   6.125   0.007
 5501SOL     OW17401   3.093   6.895   1.021
 5501SOL    HW117402   3.012   6.951   1.034
 5501SOL    HW217403   3.107   6.836   1.101
 5502SOL     OW17404   6.094   4.231   6.140
 5502SOL    HW117405   6.066   4.310   6.195
 5502SOL    HW217406   6.048   4.149   6.175
 5503SOL     OW17407   0.501   4.522   2.983
 5503SOL    HW117408   0.408   4.555   2.998
 5503SOL    HW217409   0.514   4.436   3.031
 5504SOL     OW17410   3.065   1.191   5.733
 5504SOL    HW117411   3.136   1.122   5.749
 5504SOL    HW217412   3.035   1.229   5.821
 5505SOL     OW17413   2.592   5.532   4.982
 5505SOL    HW117414   2.589   5.599   5.056
 5505SOL    HW217415   2.646   5.568   4.906
 5506SOL     OW17416   6.484   0.263   5.891
 5506SOL    HW117417   6.515   0.176   5.930
 5506SOL    HW217418   6.388   0.278   5.917
 5507SOL     OW17419   2.463   0.234   2.668
 5507SOL    HW117420   2.523   0.290   2.726
 5507SOL    HW217421   2.368   0.260   2.685
 5508SOL     OW17422   2.931   1.181   6.907
 5508SOL    HW117423   2.878   1.265   6.922
 5508SOL    HW217424   2.984   1.161   6.989
 5509SOL     OW17425   1.214   6.527   0.131
 5509SOL    HW117426   1.136   6.577   0.167
 5509SOL    HW217427   1.245   6.460   0.198
 5510SOL     OW17428   5.137   5.922   0.666
 5510SOL    HW117429   5.201   5.848   0.688
 5510SOL    HW217430   5.180   5.985   0.601
 5511SOL     OW17431   2.485   0.139   4.149
 5511SOL    HW117432   2.575   0.141   4.194
 5511SOL    HW217433   2.424   0.205   4.192
 5512SOL     OW17434   6.737   1.972   0.906
 5512SOL    HW117435   6.729   1.927   0.996
 5512SOL    HW217436   6.651   2.017   0.884
 5513SOL     OW17437   4.361   4.218   5.892
 5513SOL    HW117438   4.299   4.269   5.951
 5513SOL    HW217439   4.435   4.179   5.947
 5514SOL     OW17440   5.182   5.731   2.486
 5514SOL    HW117441   5.216   5.770   2.401
 5514SOL    HW217442   5.180   5.631   2.478
 5515SOL     OW17443   0.033   4.126   1.147
 5515SOL    HW117444   0.108   4.060   1.160
 5515SOL    HW217445   6.973   4.103   1.209
 5516SOL     OW17446   0.986   2.789   0.706
 5516SOL    HW117447   1.030   2.862   0.758
 5516SOL    HW217448   0.889   2.783   0.733
 5517SOL     OW17449   2.766   2.297   2.527
 5517SOL    HW117450   2.715   2.364   2.474
 5517SOL    HW217451   2.738   2.302   2.623
 5518SOL     OW17452   6.532   6.199   6.126
 5518SOL    HW117453   6.559   6.181   6.221
 5518SOL    HW217454   6.443   6.244   6.125
 5519SOL     OW17455   4.862   3.865   3.012
 5519SOL    HW117456   4.904   3.789   3.061
 5519SOL    HW217457   4.864   3.846   2.913
 5520SOL     OW17458   0.542   4.892   3.099
 5520SOL    HW117459   0.545   4.918   3.195
 5520SOL    HW217460   0.609   4.946   3.048
 5521SOL     OW17461   3.839   5.666   2.650
 5521SOL    HW117462   3.898   5.708   2.719
 5521SOL    HW217463   3.745   5.661   2.685
 5522SOL     OW17464   1.780   4.456   0.732
 5522SOL    HW117465   1.785   4.556   0.740
 5522SOL    HW217466   1.762   4.417   0.823
 5523SOL     OW17467   3.034   0.187   3.042
 5523SOL    HW117468   2.989   0.131   3.112
 5523SOL    HW217469   2.966   0.222   2.978
 5524SOL     OW17470   6.541   5.201   4.673
 5524SOL    HW117471   6.575   5.136   4.741
 5524SOL    HW217472   6.486   5.271   4.719
 5525SOL     OW17473   6.705   3.780   0.492
 5525SOL    HW117474   6.749   3.720   0.559
 5525SOL    HW217475   6.734   3.754   0.400
 5526SOL     OW17476   6.183   3.593   5.313
 5526SOL    HW117477   6.191   3.692   5.318
 5526SOL    HW217478   6.274   3.552   5.318
 5527SOL     OW17479   0.770   3.853   3.592
 5527SOL    HW117480   0.728   3.762   3.591
 5527SOL    HW217481   0.765   3.893   3.500
 5528SOL     OW17482   0.744   2.093   6.554
 5528SOL    HW117483   0.772   2.065   6.646
 5528SOL    HW217484   0.765   2.190   6.540
 5529SOL     OW17485   2.357   6.803   4.569
 5529SOL    HW117486   2.361   6.883   4.508
 5529SOL    HW217487   2.435   6.804   4.630
 5530SOL     OW17488   0.158   2.656   2.401
 5530SOL    HW117489   0.227   2.677   2.332
 5530SOL    HW217490   0.202   2.647   2.490
 5531SOL     OW17491   3.613   3.730   3.151
 5531SOL    HW117492   3.551   3.685   3.088
 5531SOL    HW217493   3.591   3.828   3.156
 5532SOL     OW17494   1.207   1.556   1.231
 5532SOL    HW117495   1.258   1.481   1.273
 5532SOL    HW217496   1.117   1.562   1.273
 5533SOL     OW17497   2.772   1.254   2.470
 5533SOL    HW117498   2.852   1.315   2.472
 5533SOL    HW217499   2.733   1.248   2.562
 5534SOL     OW17500   1.365   3.235   6.263
 5534SOL    HW117501   1.354   3.179   6.345
 5534SOL    HW217502   1.459   3.270   6.259
 5535SOL     OW17503   0.485   2.631   3.573
 5535SOL    HW117504   0.425   2.676   3.639
 5535SOL    HW217505   0.432   2.601   3.494
 5536SOL     OW17506   3.585   1.379   4.190
 5536SOL    HW117507   3.617   1.435   4.266
 5536SOL    HW217508   3.489   1.400   4.171
 5537SOL     OW17509   3.071   0.627   4.467
 5537SOL    HW117510   3.064   0.528   4.478
 5537SOL    HW217511   3.146   0.662   4.524
 5538SOL     OW17512   3.272   0.251   5.129
 5538SOL    HW117513   3.197   0.310   5.098
 5538SOL    HW217514   3.315   0.208   5.050
 5539SOL     OW17515   1.131   2.675   1.109
 5539SOL    HW117516   1.087   2.751   1.061
 5539SOL    HW217517   1.062   2.617   1.153
 5540SOL     OW17518   5.448   3.801   2.351
 5540SOL    HW117519   5.540   3.766   2.334
 5540SOL    HW217520   5.383   3.754   2.290
 5541SOL     OW17521   5.228   2.397   6.353
 5541SOL    HW117522   5.210   2.316   6.408
 5541SOL    HW217523   5.298   2.376   6.285
 5542SOL     OW17524   5.895   6.457   5.328
 5542SOL    HW117525   5.852   6.541   5.360
 5542SOL    HW217526   5.924   6.402   5.406
 5543SOL     OW17527   2.169   5.420   6.312
 5543SOL    HW117528   2.109   5.486   6.358
 5543SOL    HW217529   2.211   5.361   6.380
 5544SOL     OW17530   5.117   5.675   5.841
 5544SOL    HW117531   5.077   5.610   5.777
 5544SOL    HW217532   5.120   5.766   5.799
 5545SOL     OW17533   4.977   1.190   3.121
 5545SOL    HW117534   4.935   1.270   3.163
 5545SOL    HW217535   4.920   1.160   3.044
 5546SOL     OW17536   0.790   6.986   4.437
 5546SOL    HW117537   0.717   6.965   4.502
 5546SOL    HW217538   0.751   0.000   4.350
 5547SOL     OW17539   4.057   0.946   4.805
 5547SOL    HW117540   4.016   1.015   4.746
 5547SOL    HW217541   4.098   0.990   4.885
 5548SOL     OW17542   6.133   3.084   5.214
 5548SOL    HW117543   6.043   3.087   5.258
 5548SOL    HW217544   6.136   3.006   5.151
 5549SOL     OW17545   3.852   4.503   0.640
 5549SOL    HW117546   3.765   4.506   0.591
 5549SOL    HW217547   3.920   4.455   0.585
 5550SOL     OW17548   2.206   4.579   2.277
 5550SOL    HW117549   2.272   4.568   2.202
 5550SOL    HW217550   2.252   4.565   2.364
 5551SOL     OW17551   1.469   6.705   2.922
 5551SOL    HW117552   1.456   6.714   3.020
 5551SOL    HW217553   1.527   6.625   2.904
 5552SOL     OW17554   6.830   0.680   6.658
 5552SOL    HW117555   6.883   0.685   6.573
 5552SOL    HW217556   6.758   0.611   6.648
 5553SOL     OW17557   4.600   5.801   6.360
 5553SOL    HW117558   4.683   5.842   6.397
 5553SOL    HW217559   4.520   5.853   6.392
 5554SOL     OW17560   4.172   2.172   7.012
 5554SOL    HW117561   4.112   2.135   0.068
 5554SOL    HW217562   4.146   2.135   6.923
 5555SOL     OW17563   0.827   3.913   2.903
 5555SOL    HW117564   0.756   3.850   2.934
 5555SOL    HW217565   0.791   3.970   2.829
 5556SOL     OW17566   6.318   1.962   2.982
 5556SOL    HW117567   6.292   1.945   3.077
 5556SOL    HW217568   6.311   1.877   2.930
 5557SOL     OW17569   3.616   6.375   2.895
 5557SOL    HW117570   3.687   6.307   2.874
 5557SOL    HW217571   3.660   6.461   2.923
 5558SOL     OW17572   3.305   3.868   6.109
 5558SOL    HW117573   3.373   3.884   6.181
 5558SOL    HW217574   3.241   3.945   6.107
 5559SOL     OW17575   2.071   0.409   1.318
 5559SOL    HW117576   1.998   0.436   1.381
 5559SOL    HW217577   2.055   0.316   1.286
 5560SOL     OW17578   0.484   5.606   1.621
 5560SOL    HW117579   0.392   5.578   1.649
 5560SOL    HW217580   0.529   5.529   1.576
 5561SOL     OW17581   1.566   1.274   4.290
 5561SOL    HW117582   1.585   1.371   4.305
 5561SOL    HW217583   1.585   1.223   4.374
 5562SOL     OW17584   4.107   2.545   6.461
 5562SOL    HW117585   4.099   2.558   6.560
 5562SOL    HW217586   4.016   2.530   6.422
 5563SOL     OW17587   3.496   4.867   2.510
 5563SOL    HW117588   3.512   4.964   2.496
 5563SOL    HW217589   3.557   4.834   2.583
 5564SOL     OW17590   5.079   0.031   1.008
 5564SOL    HW117591   5.014   6.975   0.981
 5564SOL    HW217592   5.036   0.121   0.999
 5565SOL     OW17593   4.404   2.184   6.216
 5565SOL    HW117594   4.415   2.103   6.273
 5565SOL    HW217595   4.394   2.265   6.274
 5566SOL     OW17596   1.383   3.785   6.628
 5566SOL    HW117597   1.332   3.743   6.703
 5566SOL    HW217598   1.391   3.720   6.552
 5567SOL     OW17599   0.030   2.872   1.029
 5567SOL    HW117600   6.972   2.940   1.023
 5567SOL    HW217601   7.011   2.790   1.074
 5568SOL     OW17602   5.157   1.665   3.761
 5568SOL    HW117603   5.063   1.697   3.752
 5568SOL    HW217604   5.167   1.613   3.845
 5569SOL     OW17605   1.906   1.888   2.674
 5569SOL    HW117606   1.978   1.943   2.715
 5569SOL    HW217607   1.818   1.935   2.685
 5570SOL     OW17608   7.005   3.688   4.901
 5570SOL    HW117609   7.002   3.589   4.882
 5570SOL    HW217610   6.945   3.709   4.978
 5571SOL     OW17611   6.206   6.052   0.259
 5571SOL    HW117612   6.262   5.971   0.273
 5571SOL    HW217613   6.249   6.111   0.190
 5572SOL     OW17614   1.329   2.877   4.805
 5572SOL    HW117615   1.386   2.857   4.726
 5572SOL    HW217616   1.310   2.792   4.855
 5573SOL     OW17617   2.003   5.394   5.069
 5573SOL    HW117618   2.099   5.412   5.089
 5573SOL    HW217619   1.991   5.298   5.044
 5574SOL     OW17620   6.961   1.874   2.454
 5574SOL    HW117621   6.964   1.893   2.355
 5574SOL    HW217622   6.877   1.911   2.493
 5575SOL     OW17623   6.946   1.034   1.031
 5575SOL    HW117624   6.987   0.943   1.029
 5575SOL    HW217625   6.850   1.028   1.006
 5576SOL     OW17626   0.877   4.627   1.498
 5576SOL    HW117627   0.835   4.542   1.531
 5576SOL    HW217628   0.871   4.696   1.570
 5577SOL     OW17629   3.250   3.142   5.566
 5577SOL    HW117630   3.171   3.084   5.585
 5577SOL    HW217631   3.233   3.235   5.600
 5578SOL     OW17632   3.494   3.625   1.248
 5578SOL    HW117633   3.397   3.602   1.235
 5578SOL    HW217634   3.545   3.604   1.164
 5579SOL     OW17635   0.721   3.182   1.121
 5579SOL    HW117636   0.761   3.273   1.116
 5579SOL    HW217637   0.621   3.190   1.116
 5580SOL     OW17638   5.404   2.563   5.662
 5580SOL    HW117639   5.494   2.542   5.624
 5580SOL    HW217640   5.408   2.558   5.762
 5581SOL     OW17641   1.488   6.949   1.810
 5581SOL    HW117642   1.469   6.962   1.713
 5581SOL    HW217643   1.478   0.021   1.858
 5582SOL     OW17644   3.102   3.611   5.276
 5582SOL    HW117645   3.087   3.614   5.178
 5582SOL    HW217646   3.197   3.585   5.295
 5583SOL     OW17647   4.885   0.533   2.949
 5583SOL    HW117648   4.865   0.599   3.022
 5583SOL    HW217649   4.799   0.493   2.917
 5584SOL     OW17650   6.086   5.463   3.574
 5584SOL    HW117651   5.992   5.474   3.605
 5584SOL    HW217652   6.143   5.431   3.650
 5585SOL     OW17653   5.196   5.094   3.685
 5585SOL    HW117654   5.272   5.149   3.651
 5585SOL    HW217655   5.110   5.136   3.658
 5586SOL     OW17656   0.508   2.640   6.168
 5586SOL    HW117657   0.470   2.569   6.109
 5586SOL    HW217658   0.595   2.608   6.207
 5587SOL     OW17659   4.322   6.618   1.422
 5587SOL    HW117660   4.321   6.616   1.522
 5587SOL    HW217661   4.278   6.536   1.386
 5588SOL     OW17662   1.965   5.413   3.193
 5588SOL    HW117663   1.928   5.482   3.130
 5588SOL    HW217664   1.892   5.385   3.256
 5589SOL     OW17665   6.697   3.218   5.515
 5589SOL    HW117666   6.789   3.233   5.479
 5589SOL    HW217667   6.654   3.306   5.536
 5590SOL     OW17668   6.997   6.632   3.633
 5590SOL    HW117669   6.923   6.661   3.694
 5590SOL    HW217670   6.957   6.585   3.554
 5591SOL     OW17671   5.321   1.447   0.558
 5591SOL    HW117672   5.293   1.463   0.463
 5591SOL    HW217673   5.251   1.392   0.604
 5592SOL     OW17674   0.438   5.119   2.163
 5592SOL    HW117675   0.435   5.217   2.145
 5592SOL    HW217676   0.524   5.081   2.129
 5593SOL     OW17677   0.871   3.563   0.339
 5593SOL    HW117678   0.838   3.655   0.317
 5593SOL    HW217679   0.945   3.569   0.405
 5594SOL     OW17680   4.631   0.825   6.341
 5594SOL    HW117681   4.623   0.726   6.348
 5594SOL    HW217682   4.544   0.868   6.365
 5595SOL     OW17683   6.883   0.932   4.703
 5595SOL    HW117684   6.954   0.979   4.651
 5595SOL    HW217685   6.866   0.843   4.661
 5596SOL     OW17686   4.590   0.714   3.232
 5596SOL    HW117687   4.689   0.717   3.233
 5596SOL    HW217688   4.557   0.736   3.140
 5597SOL     OW17689   4.985   3.013   5.095
 5597SOL    HW117690   5.071   3.017   5.144
 5597SOL    HW217691   4.909   3.026   5.158
 5598SOL     OW17692   5.800   4.147   3.490
 5598SOL    HW117693   5.875   4.211   3.504
 5598SOL    HW217694   5.837   4.056   3.473
 5599SOL     OW17695   0.771   2.308   1.763
 5599SOL    HW117696   0.763   2.241   1.837
 5599SOL    HW217697   0.787   2.399   1.802
 5600SOL     OW17698   1.543   1.203   1.246
 5600SOL    HW117699   1.577   1.112   1.221
 5600SOL    HW217700   1.611   1.249   1.303
 5601SOL     OW17701   2.187   1.024   6.663
 5601SOL    HW117702   2.244   1.062   6.736
 5601SOL    HW217703   2.175   0.926   6.678
 5602SOL     OW17704   0.496   1.946   1.345
 5602SOL    HW117705   0.566   1.903   1.288
 5602SOL    HW217706   0.533   2.028   1.388
 5603SOL     OW17707   6.109   2.481   0.413
 5603SOL    HW117708   6.061   2.403   0.372
 5603SOL    HW217709   6.201   2.487   0.375
 5604SOL     OW17710   6.416   2.251   4.210
 5604SOL    HW117711   6.447   2.302   4.291
 5604SOL    HW217712   6.316   2.248   4.208
 5605SOL     OW17713   6.902   0.921   5.170
 5605SOL    HW117714   6.980   0.874   5.129
 5605SOL    HW217715   6.817   0.885   5.131
 5606SOL     OW17716   5.207   5.936   0.074
 5606SOL    HW117717   5.282   6.001   0.086
 5606SOL    HW217718   5.125   5.985   0.043
 5607SOL     OW17719   5.950   1.378   2.874
 5607SOL    HW117720   5.994   1.346   2.958
 5607SOL    HW217721   5.879   1.444   2.897
 5608SOL     OW17722   5.643   0.332   3.736
 5608SOL    HW117723   5.559   0.377   3.767
 5608SOL    HW217724   5.665   0.361   3.643
 5609SOL     OW17725   3.243   5.963   1.387
 5609SOL    HW117726   3.300   6.033   1.430
 5609SOL    HW217727   3.239   5.882   1.446
 5610SOL     OW17728   4.474   5.545   0.917
 5610SOL    HW117729   4.423   5.600   0.983
 5610SOL    HW217730   4.522   5.471   0.965
 5611SOL     OW17731   1.020   5.908   2.772
 5611SOL    HW117732   1.037   5.999   2.735
 5611SOL    HW217733   1.019   5.841   2.698
 5612SOL     OW17734   3.919   1.881   5.804
 5612SOL    HW117735   3.975   1.900   5.885
 5612SOL    HW217736   3.923   1.959   5.741
 5613SOL     OW17737   6.733   4.882   3.642
 5613SOL    HW117738   6.786   4.857   3.723
 5613SOL    HW217739   6.781   4.956   3.593
 5614SOL     OW17740   4.775   2.500   4.421
 5614SOL    HW117741   4.722   2.417   4.437
 5614SOL    HW217742   4.715   2.573   4.390
 5615SOL     OW17743   6.714   1.297   3.421
 5615SOL    HW117744   6.678   1.284   3.329
 5615SOL    HW217745   6.650   1.257   3.487
 5616SOL     OW17746   2.853   2.282   4.099
 5616SOL    HW117747   2.948   2.286   4.131
 5616SOL    HW217748   2.851   2.276   4.000
 5617SOL     OW17749   2.750   6.126   5.430
 5617SOL    HW117750   2.845   6.122   5.398
 5617SOL    HW217751   2.733   6.049   5.492
 5618SOL     OW17752   0.442   4.318   3.899
 5618SOL    HW117753   0.418   4.236   3.950
 5618SOL    HW217754   0.365   4.346   3.842
 5619SOL     OW17755   3.673   3.754   4.806
 5619SOL    HW117756   3.636   3.661   4.806
 5619SOL    HW217757   3.740   3.763   4.880
 5620SOL     OW17758   4.442   3.734   0.536
 5620SOL    HW117759   4.383   3.752   0.616
 5620SOL    HW217760   4.517   3.674   0.564
 5621SOL     OW17761   2.449   2.713   0.481
 5621SOL    HW117762   2.400   2.653   0.544
 5621SOL    HW217763   2.530   2.750   0.527
 5622SOL     OW17764   4.702   0.235   5.846
 5622SOL    HW117765   4.655   0.237   5.934
 5622SOL    HW217766   4.774   0.305   5.845
 5623SOL     OW17767   3.625   5.673   5.090
 5623SOL    HW117768   3.639   5.724   5.175
 5623SOL    HW217769   3.620   5.736   5.013
 5624SOL     OW17770   0.779   4.553   3.344
 5624SOL    HW117771   0.691   4.558   3.392
 5624SOL    HW217772   0.821   4.464   3.360
 5625SOL     OW17773   5.529   0.595   5.086
 5625SOL    HW117774   5.612   0.620   5.137
 5625SOL    HW217775   5.500   0.503   5.112
 5626SOL     OW17776   2.135   5.880   4.475
 5626SOL    HW117777   2.040   5.861   4.453
 5626SOL    HW217778   2.143   5.900   4.573
 5627SOL     OW17779   0.327   5.306   6.059
 5627SOL    HW117780   0.307   5.255   5.975
 5627SOL    HW217781   0.340   5.403   6.037
 5628SOL     OW17782   1.355   2.270   2.311
 5628SOL    HW117783   1.442   2.224   2.328
 5628SOL    HW217784   1.282   2.222   2.360
 5629SOL     OW17785   3.852   3.712   2.251
 5629SOL    HW117786   3.937   3.669   2.282
 5629SOL    HW217787   3.835   3.794   2.305
 5630SOL     OW17788   1.800   3.532   6.509
 5630SOL    HW117789   1.827   3.555   6.415
 5630SOL    HW217790   1.700   3.536   6.517
 5631SOL     OW17791   4.650   2.285   1.385
 5631SOL    HW117792   4.575   2.283   1.451
 5631SOL    HW217793   4.623   2.339   1.306
 5632SOL     OW17794   3.123   2.242   6.003
 5632SOL    HW117795   3.198   2.186   6.037
 5632SOL    HW217796   3.144   2.273   5.910
 5633SOL     OW17797   6.249   4.242   4.636
 5633SOL    HW117798   6.242   4.143   4.647
 5633SOL    HW217799   6.236   4.266   4.539
 5634SOL     OW17800   2.120   5.070   3.963
 5634SOL    HW117801   2.200   5.058   3.904
 5634SOL    HW217802   2.150   5.084   4.058
 5635SOL     OW17803   1.879   4.875   5.508
 5635SOL    HW117804   1.953   4.832   5.456
 5635SOL    HW217805   1.918   4.926   5.585
 5636SOL     OW17806   4.831   0.033   4.752
 5636SOL    HW117807   4.754   6.991   4.779
 5636SOL    HW217808   4.804   0.093   4.678
 5637SOL     OW17809   5.148   0.482   2.815
 5637SOL    HW117810   5.225   0.540   2.843
 5637SOL    HW217811   5.063   0.519   2.855
 5638SOL     OW17812   6.327   4.139   0.670
 5638SOL    HW117813   6.271   4.118   0.750
 5638SOL    HW217814   6.384   4.060   0.648
 5639SOL     OW17815   1.160   0.850   2.593
 5639SOL    HW117816   1.220   0.911   2.542
 5639SOL    HW217817   1.091   0.812   2.531
 5640SOL     OW17818   3.732   0.462   3.618
 5640SOL    HW117819   3.643   0.502   3.640
 5640SOL    HW217820   3.784   0.526   3.561
 5641SOL     OW17821   0.926   4.996   4.929
 5641SOL    HW117822   0.859   4.922   4.923
 5641SOL    HW217823   0.988   4.991   4.852
 5642SOL     OW17824   1.855   6.608   5.109
 5642SOL    HW117825   1.767   6.561   5.107
 5642SOL    HW217826   1.920   6.559   5.051
 5643SOL     OW17827   4.425   1.194   5.422
 5643SOL    HW117828   4.454   1.240   5.338
 5643SOL    HW217829   4.429   1.095   5.409
 5644SOL     OW17830   3.034   0.380   5.182
 5644SOL    HW117831   3.049   0.459   5.122
 5644SOL    HW217832   2.942   0.345   5.168
 5645SOL     OW17833   6.160   4.831   3.639
 5645SOL    HW117834   6.218   4.838   3.558
 5645SOL    HW217835   6.136   4.923   3.670
 5646SOL     OW17836   1.445   4.826   3.524
 5646SOL    HW117837   1.366   4.765   3.526
 5646SOL    HW217838   1.496   4.817   3.609
 5647SOL     OW17839   5.049   5.366   1.029
 5647SOL    HW117840   5.121   5.434   1.012
 5647SOL    HW217841   5.056   5.333   1.123
 5648SOL     OW17842   1.705   6.914   2.953
 5648SOL    HW117843   1.692   6.851   3.030
 5648SOL    HW217844   1.798   6.950   2.955
 5649SOL     OW17845   0.769   0.417   4.149
 5649SOL    HW117846   0.699   0.485   4.130
 5649SOL    HW217847   0.842   0.459   4.203
 5650SOL     OW17848   0.582   5.837   1.080
 5650SOL    HW117849   0.668   5.808   1.038
 5650SOL    HW217850   0.517   5.761   1.080
 5651SOL     OW17851   1.590   0.630   1.503
 5651SOL    HW117852   1.601   0.547   1.558
 5651SOL    HW217853   1.666   0.692   1.521
 5652SOL     OW17854   6.428   0.235   1.465
 5652SOL    HW117855   6.334   0.254   1.492
 5652SOL    HW217856   6.429   0.194   1.374
 5653SOL     OW17857   6.092   6.356   6.039
 5653SOL    HW117858   6.035   6.386   6.116
 5653SOL    HW217859   6.188   6.374   6.061
 5654SOL     OW17860   0.559   6.399   5.441
 5654SOL    HW117861   0.634   6.340   5.412
 5654SOL    HW217862   0.472   6.360   5.408
 5655SOL     OW17863   1.111   3.645   4.304
 5655SOL    HW117864   1.109   3.720   4.370
 5655SOL    HW217865   1.032   3.651   4.243
 5656SOL     OW17866   0.055   3.813   6.667
 5656SOL    HW117867   0.083   3.717   6.670
 5656SOL    HW217868   0.128   3.870   6.707
 5657SOL     OW17869   6.009   2.665   0.015
 5657SOL    HW117870   6.007   2.685   0.112
 5657SOL    HW217871   6.025   2.567   0.001
 5658SOL     OW17872   3.260   2.992   6.742
 5658SOL    HW117873   3.232   3.087   6.726
 5658SOL    HW217874   3.351   2.990   6.782
 5659SOL     OW17875   3.174   3.373   4.979
 5659SOL    HW117876   3.191   3.335   5.070
 5659SOL    HW217877   3.091   3.430   4.982
 5660SOL     OW17878   4.319   6.837   6.529
 5660SOL    HW117879   4.276   6.829   6.619
 5660SOL    HW217880   4.373   6.754   6.511
 5661SOL     OW17881   1.790   5.561   4.979
 5661SOL    HW117882   1.845   5.490   5.023
 5661SOL    HW217883   1.694   5.547   5.003
 5662SOL     OW17884   2.693   6.496   4.052
 5662SOL    HW117885   2.724   6.456   3.965
 5662SOL    HW217886   2.599   6.470   4.070
 5663SOL     OW17887   2.300   2.113   0.429
 5663SOL    HW117888   2.353   2.191   0.398
 5663SOL    HW217889   2.362   2.039   0.456
 5664SOL     OW17890   0.260   3.292   4.451
 5664SOL    HW117891   0.277   3.330   4.360
 5664SOL    HW217892   0.272   3.193   4.449
 5665SOL     OW17893   2.554   0.795   0.204
 5665SOL    HW117894   2.493   0.862   0.247
 5665SOL    HW217895   2.520   0.771   0.113
 5666SOL     OW17896   6.433   6.874   3.425
 5666SOL    HW117897   6.420   6.967   3.389
 5666SOL    HW217898   6.529   6.862   3.451
 5667SOL     OW17899   1.517   4.961   4.561
 5667SOL    HW117900   1.568   5.045   4.579
 5667SOL    HW217901   1.420   4.983   4.548
 5668SOL     OW17902   5.267   2.916   3.203
 5668SOL    HW117903   5.367   2.911   3.198
 5668SOL    HW217904   5.229   2.824   3.210
 5669SOL     OW17905   6.542   3.696   0.857
 5669SOL    HW117906   6.473   3.626   0.874
 5669SOL    HW217907   6.560   3.745   0.943
 5670SOL     OW17908   0.899   3.710   4.135
 5670SOL    HW117909   0.858   3.672   4.053
 5670SOL    HW217910   0.940   3.799   4.115
 5671SOL     OW17911   5.811   5.957   5.417
 5671SOL    HW117912   5.852   5.892   5.353
 5671SOL    HW217913   5.863   5.957   5.502
 5672SOL     OW17914   4.476   3.647   6.637
 5672SOL    HW117915   4.470   3.713   6.712
 5672SOL    HW217916   4.385   3.608   6.620
 5673SOL     OW17917   2.121   6.803   1.136
 5673SOL    HW117918   2.218   6.783   1.149
 5673SOL    HW217919   2.092   6.772   1.045
 5674SOL     OW17920   0.546   4.263   5.021
 5674SOL    HW117921   0.626   4.262   4.961
 5674SOL    HW217922   0.467   4.295   4.970
 5675SOL     OW17923   4.363   2.895   6.058
 5675SOL    HW117924   4.388   2.804   6.091
 5675SOL    HW217925   4.446   2.946   6.036
 5676SOL     OW17926   2.832   1.495   2.653
 5676SOL    HW117927   2.754   1.540   2.610
 5676SOL    HW217928   2.916   1.518   2.603
 5677SOL     OW17929   0.475   0.966   0.802
 5677SOL    HW117930   0.437   0.985   0.711
 5677SOL    HW217931   0.481   0.867   0.814
 5678SOL     OW17932   3.915   6.937   2.722
 5678SOL    HW117933   3.922   6.942   2.822
 5678SOL    HW217934   3.826   6.900   2.697
 5679SOL     OW17935   6.302   1.457   3.604
 5679SOL    HW117936   6.210   1.467   3.640
 5679SOL    HW217937   6.365   1.513   3.657
 5680SOL     OW17938   1.641   5.533   6.193
 5680SOL    HW117939   1.710   5.476   6.148
 5680SOL    HW217940   1.553   5.486   6.192
 5681SOL     OW17941   0.678   3.437   1.982
 5681SOL    HW117942   0.757   3.477   1.936
 5681SOL    HW217943   0.617   3.397   1.914
 5682SOL     OW17944   1.943   5.415   4.695
 5682SOL    HW117945   1.940   5.514   4.709
 5682SOL    HW217946   1.860   5.385   4.648
 5683SOL     OW17947   4.183   1.051   5.757
 5683SOL    HW117948   4.116   0.978   5.764
 5683SOL    HW217949   4.243   1.034   5.678
 5684SOL     OW17950   2.309   3.769   5.974
 5684SOL    HW117951   2.397   3.735   6.006
 5684SOL    HW217952   2.270   3.830   6.042
 5685SOL     OW17953   2.209   1.301   3.692
 5685SOL    HW117954   2.159   1.218   3.669
 5685SOL    HW217955   2.268   1.284   3.771
 5686SOL     OW17956   2.956   1.580   6.250
 5686SOL    HW117957   3.026   1.561   6.181
 5686SOL    HW217958   2.894   1.650   6.217
 5687SOL     OW17959   0.259   5.439   6.493
 5687SOL    HW117960   0.224   5.367   6.433
 5687SOL    HW217961   0.352   5.416   6.521
 5688SOL     OW17962   1.355   2.485   2.469
 5688SOL    HW117963   1.414   2.422   2.419
 5688SOL    HW217964   1.385   2.579   2.451
 5689SOL     OW17965   3.084   1.474   1.395
 5689SOL    HW117966   3.091   1.376   1.377
 5689SOL    HW217967   3.128   1.524   1.320
 5690SOL     OW17968   1.595   6.103   0.334
 5690SOL    HW117969   1.658   6.026   0.350
 5690SOL    HW217970   1.519   6.072   0.278
 5691SOL     OW17971   4.116   0.380   2.301
 5691SOL    HW117972   4.043   0.312   2.305
 5691SOL    HW217973   4.169   0.367   2.218
 5692SOL     OW17974   5.467   3.763   0.725
 5692SOL    HW117975   5.462   3.663   0.716
 5692SOL    HW217976   5.516   3.786   0.810
 5693SOL     OW17977   4.363   1.689   2.506
 5693SOL    HW117978   4.305   1.757   2.462
 5693SOL    HW217979   4.386   1.618   2.439
 5694SOL     OW17980   1.034   1.228   3.010
 5694SOL    HW117981   1.002   1.248   3.102
 5694SOL    HW217982   1.080   1.308   2.972
 5695SOL     OW17983   1.636   1.986   3.974
 5695SOL    HW117984   1.709   2.052   3.957
 5695SOL    HW217985   1.627   1.925   3.895
 5696SOL     OW17986   0.779   1.009   3.747
 5696SOL    HW117987   0.840   0.932   3.732
 5696SOL    HW217988   0.736   1.035   3.660
 5697SOL     OW17989   5.826   1.910   1.989
 5697SOL    HW117990   5.737   1.871   1.963
 5697SOL    HW217991   5.814   2.007   2.010
 5698SOL     OW17992   0.932   4.538   4.069
 5698SOL    HW117993   0.875   4.551   4.150
 5698SOL    HW217994   1.013   4.597   4.076
 5699SOL     OW17995   0.933   2.911   2.955
 5699SOL    HW117996   1.024   2.948   2.976
 5699SOL    HW217997   0.881   2.901   3.040
 5700SOL     OW17998   6.319   6.927   3.704
 5700SOL    HW117999   6.374   6.971   3.633
 5700SOL    HW218000   6.315   6.829   3.686
 5701SOL     OW18001   0.597   0.247   1.295
 5701SOL    HW118002   0.610   0.296   1.381
 5701SOL    HW218003   0.595   0.149   1.312
 5702SOL     OW18004   2.778   5.417   4.327
 5702SOL    HW118005   2.821   5.368   4.403
 5702SOL    HW218006   2.773   5.357   4.247
 5703SOL     OW18007   6.402   4.612   0.495
 5703SOL    HW118008   6.395   4.524   0.542
 5703SOL    HW218009   6.467   4.670   0.544
 5704SOL     OW18010   4.711   4.166   2.953
 5704SOL    HW118011   4.787   4.148   3.016
 5704SOL    HW218012   4.712   4.097   2.880
 5705SOL     OW18013   5.051   6.359   7.006
 5705SOL    HW118014   4.971   6.385   6.953
 5705SOL    HW218015   5.035   6.378   0.088
 5706SOL     OW18016   6.905   3.137   2.349
 5706SOL    HW118017   6.876   3.228   2.379
 5706SOL    HW218018   6.995   3.116   2.386
 5707SOL     OW18019   6.633   6.783   0.568
 5707SOL    HW118020   6.596   6.692   0.547
 5707SOL    HW218021   6.688   6.815   0.491
 5708SOL     OW18022   4.913   5.747   2.435
 5708SOL    HW118023   4.892   5.655   2.402
 5708SOL    HW218024   5.010   5.752   2.459
 5709SOL     OW18025   1.228   1.351   2.480
 5709SOL    HW118026   1.260   1.444   2.498
 5709SOL    HW218027   1.144   1.355   2.426
 5710SOL     OW18028   2.962   2.730   0.748
 5710SOL    HW118029   3.043   2.672   0.755
 5710SOL    HW218030   2.881   2.672   0.738
 5711SOL     OW18031   5.364   1.381   2.707
 5711SOL    HW118032   5.271   1.349   2.686
 5711SOL    HW218033   5.362   1.438   2.788
 5712SOL     OW18034   6.088   0.281   0.221
 5712SOL    HW118035   5.988   0.287   0.222
 5712SOL    HW218036   6.120   0.240   0.306
 5713SOL     OW18037   2.877   4.094   1.458
 5713SOL    HW118038   2.917   4.168   1.513
 5713SOL    HW218039   2.827   4.032   1.518
 5714SOL     OW18040   7.015   5.507   1.096
 5714SOL    HW118041   0.074   5.517   1.162
 5714SOL    HW218042   7.014   5.585   1.035
 5715SOL     OW18043   0.813   0.568   2.556
 5715SOL    HW118044   0.886   0.519   2.509
 5715SOL    HW218045   0.756   0.616   2.489
 5716SOL     OW18046   1.368   5.046   5.891
 5716SOL    HW118047   1.467   5.058   5.878
 5716SOL    HW218048   1.335   4.973   5.832
 5717SOL     OW18049   1.846   4.982   0.678
 5717SOL    HW118050   1.917   5.045   0.709
 5717SOL    HW218051   1.784   4.961   0.753
 5718SOL     OW18052   0.481   3.434   0.338
 5718SOL    HW118053   0.468   3.526   0.301
 5718SOL    HW218054   0.408   3.374   0.306
 5719SOL     OW18055   1.680   2.791   0.033
 5719SOL    HW118056   1.675   2.691   0.045
 5719SOL    HW218057   1.619   2.835   0.099
 5720SOL     OW18058   2.636   6.166   4.867
 5720SOL    HW118059   2.560   6.118   4.909
 5720SOL    HW218060   2.722   6.122   4.893
 5721SOL     OW18061   6.190   3.768   1.040
 5721SOL    HW118062   6.248   3.837   1.083
 5721SOL    HW218063   6.105   3.759   1.092
 5722SOL     OW18064   6.789   2.044   5.007
 5722SOL    HW118065   6.694   2.021   5.030
 5722SOL    HW218066   6.796   2.069   4.911
 5723SOL     OW18067   4.379   3.235   0.214
 5723SOL    HW118068   4.338   3.324   0.232
 5723SOL    HW218069   4.420   3.199   0.298
 5724SOL     OW18070   5.657   2.757   4.158
 5724SOL    HW118071   5.559   2.774   4.169
 5724SOL    HW218072   5.688   2.689   4.224
 5725SOL     OW18073   6.233   5.360   3.778
 5725SOL    HW118074   6.262   5.434   3.839
 5725SOL    HW218075   6.314   5.313   3.743
 5726SOL     OW18076   6.470   5.451   4.376
 5726SOL    HW118077   6.489   5.445   4.278
 5726SOL    HW218078   6.540   5.508   4.420
 5727SOL     OW18079   6.144   2.258   4.223
 5727SOL    HW118080   6.070   2.260   4.156
 5727SOL    HW218081   6.107   2.271   4.315
 5728SOL     OW18082   3.979   6.119   5.639
 5728SOL    HW118083   3.927   6.056   5.698
 5728SOL    HW218084   4.058   6.154   5.690
 5729SOL     OW18085   2.492   0.450   0.155
 5729SOL    HW118086   2.412   0.398   0.184
 5729SOL    HW218087   2.568   0.432   0.219
 5730SOL     OW18088   5.229   4.609   6.055
 5730SOL    HW118089   5.222   4.642   6.149
 5730SOL    HW218090   5.137   4.591   6.020
 5731SOL     OW18091   0.313   6.870   3.017
 5731SOL    HW118092   0.397   6.827   3.051
 5731SOL    HW218093   0.238   6.850   3.080
 5732SOL     OW18094   0.748   5.519   4.006
 5732SOL    HW118095   0.823   5.577   3.975
 5732SOL    HW218096   0.718   5.460   3.931
 5733SOL     OW18097   3.048   6.487   5.450
 5733SOL    HW118098   2.994   6.441   5.379
 5733SOL    HW218099   3.102   6.560   5.408
 5734SOL     OW18100   1.271   0.572   4.975
 5734SOL    HW118101   1.204   0.596   4.905
 5734SOL    HW218102   1.246   0.617   5.061
 5735SOL     OW18103   4.022   1.745   1.298
 5735SOL    HW118104   4.102   1.704   1.343
 5735SOL    HW218105   3.939   1.715   1.344
 5736SOL     OW18106   5.990   4.161   0.184
 5736SOL    HW118107   6.058   4.095   0.153
 5736SOL    HW218108   5.959   4.137   0.276
 5737SOL     OW18109   5.645   6.183   7.014
 5737SOL    HW118110   5.658   6.249   6.940
 5737SOL    HW218111   5.704   6.104   6.999
 5738SOL     OW18112   2.017   2.477   5.979
 5738SOL    HW118113   2.059   2.481   5.889
 5738SOL    HW218114   1.920   2.502   5.972
 5739SOL     OW18115   1.875   0.882   5.874
 5739SOL    HW118116   1.829   0.888   5.962
 5739SOL    HW218117   1.811   0.849   5.805
 5740SOL     OW18118   4.289   4.451   0.435
 5740SOL    HW118119   4.281   4.514   0.512
 5740SOL    HW218120   4.265   4.498   0.351
 5741SOL     OW18121   0.878   5.446   4.915
 5741SOL    HW118122   0.784   5.411   4.903
 5741SOL    HW218123   0.942   5.369   4.914
 5742SOL     OW18124   5.770   6.459   2.772
 5742SOL    HW118125   5.671   6.458   2.787
 5742SOL    HW218126   5.800   6.552   2.756
 5743SOL     OW18127   2.291   6.324   4.675
 5743SOL    HW118128   2.207   6.284   4.713
 5743SOL    HW218129   2.271   6.367   4.587
 5744SOL     OW18130   4.430   0.198   2.254
 5744SOL    HW118131   4.390   0.197   2.163
 5744SOL    HW218132   4.524   0.163   2.250
 5745SOL     OW18133   3.593   0.750   3.998
 5745SOL    HW118134   3.631   0.826   3.945
 5745SOL    HW218135   3.662   0.679   4.009
 5746SOL     OW18136   5.345   0.100   1.537
 5746SOL    HW118137   5.329   0.147   1.450
 5746SOL    HW218138   5.404   0.157   1.595
 5747SOL     OW18139   0.334   4.962   2.377
 5747SOL    HW118140   0.378   5.011   2.302
 5747SOL    HW218141   0.363   5.001   2.464
 5748SOL     OW18142   1.183   5.261   0.770
 5748SOL    HW118143   1.195   5.200   0.848
 5748SOL    HW218144   1.196   5.210   0.685
 5749SOL     OW18145   2.350   0.398   4.869
 5749SOL    HW118146   2.332   0.304   4.841
 5749SOL    HW218147   2.276   0.431   4.927
 5750SOL     OW18148   6.144   5.212   4.683
 5750SOL    HW118149   6.067   5.167   4.638
 5750SOL    HW218150   6.160   5.169   4.772
 5751SOL     OW18151   2.515   2.634   4.494
 5751SOL    HW118152   2.440   2.678   4.445
 5751SOL    HW218153   2.545   2.553   4.443
 5752SOL     OW18154   6.573   0.555   6.613
 5752SOL    HW118155   6.544   0.606   6.532
 5752SOL    HW218156   6.498   0.553   6.679
 5753SOL     OW18157   3.041   3.505   5.567
 5753SOL    HW118158   3.129   3.472   5.600
 5753SOL    HW218159   3.049   3.533   5.471
 5754SOL     OW18160   5.977   5.146   1.302
 5754SOL    HW118161   5.949   5.233   1.261
 5754SOL    HW218162   5.897   5.100   1.341
 5755SOL     OW18163   2.839   3.309   5.597
 5755SOL    HW118164   2.898   3.388   5.582
 5755SOL    HW218165   2.762   3.335   5.655
 5756SOL     OW18166   6.330   5.818   3.325
 5756SOL    HW118167   6.327   5.720   3.345
 5756SOL    HW218168   6.384   5.833   3.242
 5757SOL     OW18169   6.707   6.719   2.517
 5757SOL    HW118170   6.665   6.786   2.455
 5757SOL    HW218171   6.766   6.767   2.583
 5758SOL     OW18172   3.333   1.484   4.088
 5758SOL    HW118173   3.313   1.582   4.092
 5758SOL    HW218174   3.368   1.461   3.997
 5759SOL     OW18175   4.544   1.626   6.421
 5759SOL    HW118176   4.460   1.648   6.472
 5759SOL    HW218177   4.526   1.550   6.358
 5760SOL     OW18178   1.501   5.191   1.688
 5760SOL    HW118179   1.494   5.150   1.597
 5760SOL    HW218180   1.543   5.125   1.751
 5761SOL     OW18181   5.361   0.388   6.055
 5761SOL    HW118182   5.284   0.342   6.010
 5761SOL    HW218183   5.430   0.412   5.987
 5762SOL     OW18184   4.753   6.858   0.234
 5762SOL    HW118185   4.819   6.791   0.201
 5762SOL    HW218186   4.787   6.899   0.319
 5763SOL     OW18187   0.204   0.331   0.213
 5763SOL    HW118188   0.129   0.269   0.236
 5763SOL    HW218189   0.243   0.368   0.298
 5764SOL     OW18190   5.506   4.563   6.160
 5764SOL    HW118191   5.431   4.618   6.124
 5764SOL    HW218192   5.477   4.521   6.246
 5765SOL     OW18193   6.759   3.894   6.164
 5765SOL    HW118194   6.851   3.922   6.191
 5765SOL    HW218195   6.694   3.920   6.235
 5766SOL     OW18196   2.747   1.578   0.634
 5766SOL    HW118197   2.650   1.564   0.618
 5766SOL    HW218198   2.800   1.509   0.584
 5767SOL     OW18199   2.748   0.011   0.429
 5767SOL    HW118200   2.796   0.087   0.387
 5767SOL    HW218201   2.790   6.940   0.401
 5768SOL     OW18202   0.429   6.858   3.307
 5768SOL    HW118203   0.412   6.952   3.338
 5768SOL    HW218204   0.408   6.795   3.382
 5769SOL     OW18205   2.437   0.084   3.739
 5769SOL    HW118206   2.473   0.021   3.808
 5769SOL    HW218207   2.512   0.122   3.685
 5770SOL     OW18208   0.127   6.605   0.516
 5770SOL    HW118209   0.047   6.557   0.553
 5770SOL    HW218210   0.208   6.547   0.528
 5771SOL     OW18211   1.064   6.078   2.307
 5771SOL    HW118212   0.982   6.066   2.251
 5771SOL    HW218213   1.143   6.094   2.247
 5772SOL     OW18214   5.814   2.511   0.715
 5772SOL    HW118215   5.838   2.473   0.805
 5772SOL    HW218216   5.892   2.563   0.679
 5773SOL     OW18217   5.334   0.938   3.968
 5773SOL    HW118218   5.270   0.888   3.910
 5773SOL    HW218219   5.357   0.883   4.048
 5774SOL     OW18220   2.304   5.444   4.209
 5774SOL    HW118221   2.270   5.528   4.251
 5774SOL    HW218222   2.229   5.398   4.161
 5775SOL     OW18223   1.650   6.821   1.059
 5775SOL    HW118224   1.626   6.727   1.082
 5775SOL    HW218225   1.650   6.877   1.142
 5776SOL     OW18226   6.943   1.194   6.040
 5776SOL    HW118227   6.993   1.277   6.015
 5776SOL    HW218228   6.860   1.220   6.089
 5777SOL     OW18229   6.008   0.651   4.419
 5777SOL    HW118230   6.082   0.671   4.482
 5777SOL    HW218231   6.035   0.575   4.359
 5778SOL     OW18232   1.943   6.999   1.263
 5778SOL    HW118233   1.997   6.925   1.224
 5778SOL    HW218234   1.848   6.969   1.275
 5779SOL     OW18235   3.969   0.959   1.415
 5779SOL    HW118236   4.064   0.988   1.400
 5779SOL    HW218237   3.934   1.000   1.499
 5780SOL     OW18238   6.303   5.191   2.494
 5780SOL    HW118239   6.221   5.152   2.451
 5780SOL    HW218240   6.372   5.209   2.424
 5781SOL     OW18241   1.518   4.411   4.980
 5781SOL    HW118242   1.602   4.362   5.002
 5781SOL    HW218243   1.473   4.367   4.902
 5782SOL     OW18244   1.590   0.951   1.099
 5782SOL    HW118245   1.676   0.997   1.122
 5782SOL    HW218246   1.573   0.878   1.165
 5783SOL     OW18247   1.816   1.066   1.122
 5783SOL    HW118248   1.889   1.110   1.070
 5783SOL    HW218249   1.855   1.008   1.192
 5784SOL     OW18250   0.424   6.415   0.182
 5784SOL    HW118251   0.339   6.382   0.140
 5784SOL    HW218252   0.483   6.337   0.204
 5785SOL     OW18253   1.964   2.174   1.304
 5785SOL    HW118254   1.922   2.246   1.248
 5785SOL    HW218255   2.063   2.190   1.310
 5786SOL     OW18256   1.288   4.143   0.639
 5786SOL    HW118257   1.333   4.054   0.641
 5786SOL    HW218258   1.350   4.213   0.675
 5787SOL     OW18259   5.012   2.386   4.392
 5787SOL    HW118260   4.938   2.453   4.396
 5787SOL    HW218261   4.979   2.302   4.350
 5788SOL     OW18262   3.164   0.300   1.283
 5788SOL    HW118263   3.181   0.205   1.311
 5788SOL    HW218264   3.219   0.362   1.338
 5789SOL     OW18265   3.779   2.304   6.336
 5789SOL    HW118266   3.693   2.278   6.292
 5789SOL    HW218267   3.786   2.404   6.336
 5790SOL     OW18268   6.772   5.983   5.272
 5790SOL    HW118269   6.785   6.076   5.238
 5790SOL    HW218270   6.839   5.964   5.344
 5791SOL     OW18271   3.325   1.477   2.578
 5791SOL    HW118272   3.288   1.402   2.524
 5791SOL    HW218273   3.424   1.484   2.562
 5792SOL     OW18274   4.842   3.811   3.388
 5792SOL    HW118275   4.821   3.714   3.397
 5792SOL    HW218276   4.889   3.827   3.301
 5793SOL     OW18277   6.261   1.280   5.867
 5793SOL    HW118278   6.287   1.191   5.829
 5793SOL    HW218279   6.323   1.304   5.942
 5794SOL     OW18280   3.389   6.685   6.595
 5794SOL    HW118281   3.404   6.716   6.689
 5794SOL    HW218282   3.322   6.610   6.594
 5795SOL     OW18283   0.649   6.248   1.574
 5795SOL    HW118284   0.673   6.345   1.571
 5795SOL    HW218285   0.705   6.197   1.509
 5796SOL     OW18286   4.680   0.349   6.826
 5796SOL    HW118287   4.698   0.446   6.809
 5796SOL    HW218288   4.582   0.334   6.832
 5797SOL     OW18289   5.570   1.052   0.114
 5797SOL    HW118290   5.533   1.035   0.022
 5797SOL    HW218291   5.668   1.033   0.113
 5798SOL     OW18292   0.789   4.083   4.738
 5798SOL    HW118293   0.735   4.029   4.672
 5798SOL    HW218294   0.814   4.025   4.816
 5799SOL     OW18295   0.641   0.040   2.720
 5799SOL    HW118296   0.726   0.056   2.770
 5799SOL    HW218297   0.627   6.956   2.709
 5800SOL     OW18298   0.974   0.238   1.571
 5800SOL    HW118299   0.943   0.203   1.659
 5800SOL    HW218300   0.974   0.338   1.573
 5801SOL     OW18301   2.555   2.574   3.806
 5801SOL    HW118302   2.531   2.623   3.722
 5801SOL    HW218303   2.550   2.636   3.884
 5802SOL     OW18304   6.147   3.610   2.526
 5802SOL    HW118305   6.096   3.695   2.516
 5802SOL    HW218306   6.179   3.601   2.620
 5803SOL     OW18307   0.763   4.674   3.799
 5803SOL    HW118308   0.717   4.680   3.888
 5803SOL    HW218309   0.756   4.580   3.764
 5804SOL     OW18310   6.690   6.469   3.800
 5804SOL    HW118311   6.760   6.405   3.767
 5804SOL    HW218312   6.600   6.427   3.789
 5805SOL     OW18313   1.446   3.338   0.725
 5805SOL    HW118314   1.457   3.245   0.760
 5805SOL    HW218315   1.360   3.376   0.758
 5806SOL     OW18316   6.872   4.246   4.558
 5806SOL    HW118317   6.792   4.192   4.532
 5806SOL    HW218318   6.902   4.219   4.650
 5807SOL     OW18319   1.498   6.243   1.296
 5807SOL    HW118320   1.530   6.247   1.201
 5807SOL    HW218321   1.501   6.149   1.328
 5808SOL     OW18322   6.413   6.892   4.809
 5808SOL    HW118323   6.337   6.945   4.772
 5808SOL    HW218324   6.499   6.940   4.790
 5809SOL     OW18325   0.133   2.271   5.710
 5809SOL    HW118326   0.225   2.309   5.708
 5809SOL    HW218327   0.117   2.228   5.799
 5810SOL     OW18328   3.972   0.406   4.780
 5810SOL    HW118329   3.908   0.427   4.707
 5810SOL    HW218330   4.052   0.466   4.772
 5811SOL     OW18331   2.464   2.191   5.651
 5811SOL    HW118332   2.414   2.174   5.565
 5811SOL    HW218333   2.462   2.289   5.671
 5812SOL     OW18334   5.786   3.417   6.520
 5812SOL    HW118335   5.869   3.451   6.477
 5812SOL    HW218336   5.768   3.324   6.487
 5813SOL     OW18337   3.063   5.841   1.223
 5813SOL    HW118338   3.132   5.901   1.265
 5813SOL    HW218339   3.020   5.785   1.293
 5814SOL     OW18340   6.920   2.068   1.936
 5814SOL    HW118341   6.899   1.985   1.884
 5814SOL    HW218342   0.002   2.088   1.930
 5815SOL     OW18343   5.771   1.886   4.160
 5815SOL    HW118344   5.766   1.986   4.152
 5815SOL    HW218345   5.710   1.856   4.233
 5816SOL     OW18346   6.888   4.815   2.051
 5816SOL    HW118347   6.900   4.905   2.092
 5816SOL    HW218348   6.953   4.751   2.093
 5817SOL     OW18349   6.139   4.272   5.388
 5817SOL    HW118350   6.228   4.291   5.346
 5817SOL    HW218351   6.147   4.279   5.487
 5818SOL     OW18352   1.112   5.857   5.434
 5818SOL    HW118353   1.084   5.808   5.517
 5818SOL    HW218354   1.095   5.954   5.445
 5819SOL     OW18355   2.952   5.094   6.627
 5819SOL    HW118356   2.934   5.001   6.598
 5819SOL    HW218357   2.963   5.153   6.547
 5820SOL     OW18358   4.715   4.831   2.255
 5820SOL    HW118359   4.796   4.772   2.247
 5820SOL    HW218360   4.642   4.781   2.300
 5821SOL     OW18361   6.559   0.798   1.518
 5821SOL    HW118362   6.608   0.855   1.583
 5821SOL    HW218363   6.607   0.711   1.507
 5822SOL     OW18364   1.185   2.479   2.750
 5822SOL    HW118365   1.124   2.469   2.829
 5822SOL    HW218366   1.243   2.398   2.742
 5823SOL     OW18367   2.511   6.378   4.444
 5823SOL    HW118368   2.458   6.326   4.510
 5823SOL    HW218369   2.544   6.317   4.372
 5824SOL     OW18370   0.680   0.097   2.437
 5824SOL    HW118371   0.683   0.091   2.537
 5824SOL    HW218372   0.674   0.193   2.409
 5825SOL     OW18373   0.422   6.247   4.911
 5825SOL    HW118374   0.384   6.275   4.823
 5825SOL    HW218375   0.365   6.175   4.950
 5826SOL     OW18376   6.946   0.026   5.594
 5826SOL    HW118377   6.975   0.007   5.500
 5826SOL    HW218378   6.910   6.957   5.634
 5827SOL     OW18379   1.106   3.746   5.060
 5827SOL    HW118380   1.036   3.695   5.010
 5827SOL    HW218381   1.062   3.813   5.121
 5828SOL     OW18382   5.104   1.001   3.556
 5828SOL    HW118383   5.123   1.077   3.495
 5828SOL    HW218384   5.010   1.006   3.588
 5829SOL     OW18385   1.384   0.341   5.099
 5829SOL    HW118386   1.334   0.417   5.059
 5829SOL    HW218387   1.465   0.321   5.043
 5830SOL     OW18388   4.093   5.694   5.392
 5830SOL    HW118389   4.169   5.629   5.381
 5830SOL    HW218390   4.044   5.674   5.477
 5831SOL     OW18391   1.042   1.779   5.553
 5831SOL    HW118392   0.945   1.801   5.543
 5831SOL    HW218393   1.087   1.851   5.606
 5832SOL     OW18394   3.679   4.523   1.279
 5832SOL    HW118395   3.666   4.616   1.311
 5832SOL    HW218396   3.605   4.498   1.217
 5833SOL     OW18397   3.761   3.457   5.433
 5833SOL    HW118398   3.785   3.375   5.485
 5833SOL    HW218399   3.722   3.430   5.345
 5834SOL     OW18400   6.770   3.318   6.610
 5834SOL    HW118401   6.829   3.259   6.556
 5834SOL    HW218402   6.678   3.320   6.568
 5835SOL     OW18403   6.249   1.677   2.612
 5835SOL    HW118404   6.165   1.726   2.637
 5835SOL    HW218405   6.262   1.680   2.513
 5836SOL     OW18406   3.282   6.893   2.160
 5836SOL    HW118407   3.191   6.868   2.194
 5836SOL    HW218408   3.350   6.878   2.231
 5837SOL     OW18409   3.913   3.689   0.323
 5837SOL    HW118410   3.962   3.674   0.409
 5837SOL    HW218411   3.820   3.652   0.331
 5838SOL     OW18412   2.835   1.584   1.156
 5838SOL    HW118413   2.841   1.605   1.058
 5838SOL    HW218414   2.895   1.507   1.178
 5839SOL     OW18415   0.695   2.743   1.539
 5839SOL    HW118416   0.686   2.834   1.500
 5839SOL    HW218417   0.771   2.695   1.495
 5840SOL     OW18418   0.060   3.898   1.576
 5840SOL    HW118419   0.038   3.912   1.672
 5840SOL    HW218420   7.001   3.848   1.531
 5841SOL     OW18421   4.702   0.706   1.712
 5841SOL    HW118422   4.735   0.626   1.663
 5841SOL    HW218423   4.759   0.723   1.792
 5842SOL     OW18424   4.096   2.065   0.699
 5842SOL    HW118425   4.038   1.997   0.743
 5842SOL    HW218426   4.040   2.127   0.645
 5843SOL     OW18427   2.150   3.570   1.265
 5843SOL    HW118428   2.242   3.605   1.253
 5843SOL    HW218429   2.125   3.515   1.185
 5844SOL     OW18430   0.786   5.989   5.056
 5844SOL    HW118431   0.735   6.075   5.054
 5844SOL    HW218432   0.823   5.970   4.965
 5845SOL     OW18433   0.349   0.092   1.588
 5845SOL    HW118434   0.326   0.064   1.680
 5845SOL    HW218435   0.396   0.181   1.591
 5846SOL     OW18436   6.434   3.702   5.575
 5846SOL    HW118437   6.436   3.783   5.633
 5846SOL    HW218438   6.396   3.726   5.485
 5847SOL     OW18439   2.779   2.707   1.679
 5847SOL    HW118440   2.876   2.697   1.701
 5847SOL    HW218441   2.732   2.751   1.756
 5848SOL     OW18442   2.228   6.038   4.121
 5848SOL    HW118443   2.200   6.049   4.216
 5848SOL    HW218444   2.230   5.940   4.099
 5849SOL     OW18445   1.915   6.272   5.536
 5849SOL    HW118446   1.937   6.361   5.495
 5849SOL    HW218447   1.831   6.280   5.590
 5850SOL     OW18448   0.946   3.192   1.882
 5850SOL    HW118449   0.939   3.292   1.871
 5850SOL    HW218450   1.036   3.169   1.918
 5851SOL     OW18451   5.213   3.886   3.766
 5851SOL    HW118452   5.173   3.971   3.732
 5851SOL    HW218453   5.282   3.853   3.702
 5852SOL     OW18454   4.273   6.200   2.994
 5852SOL    HW118455   4.358   6.202   3.045
 5852SOL    HW218456   4.286   6.151   2.908
 5853SOL     OW18457   4.437   5.261   5.260
 5853SOL    HW118458   4.367   5.281   5.192
 5853SOL    HW218459   4.401   5.196   5.327
 5854SOL     OW18460   3.862   4.421   5.234
 5854SOL    HW118461   3.787   4.466   5.282
 5854SOL    HW218462   3.947   4.469   5.253
 5855SOL     OW18463   1.920   2.477   4.058
 5855SOL    HW118464   1.822   2.467   4.072
 5855SOL    HW218465   1.970   2.437   4.135
 5856SOL     OW18466   1.162   0.033   2.351
 5856SOL    HW118467   1.156   0.126   2.315
 5856SOL    HW218468   1.175   6.984   2.276
 5857SOL     OW18469   6.952   3.298   5.452
 5857SOL    HW118470   6.960   3.323   5.355
 5857SOL    HW218471   0.026   3.266   5.485
 5858SOL     OW18472   2.481   2.189   2.434
 5858SOL    HW118473   2.559   2.246   2.409
 5858SOL    HW218474   2.488   2.101   2.386
 5859SOL     OW18475   5.795   6.366   1.708
 5859SOL    HW118476   5.774   6.446   1.652
 5859SOL    HW218477   5.721   6.350   1.773
 5860SOL     OW18478   0.769   4.585   3.040
 5860SOL    HW118479   0.781   4.582   3.140
 5860SOL    HW218480   0.674   4.564   3.018
 5861SOL     OW18481   5.624   0.567   4.834
 5861SOL    HW118482   5.716   0.607   4.838
 5861SOL    HW218483   5.577   0.582   4.921
 5862SOL     OW18484   6.100   5.769   2.147
 5862SOL    HW118485   6.011   5.805   2.173
 5862SOL    HW218486   6.163   5.778   2.224
 5863SOL     OW18487   3.154   1.218   4.590
 5863SOL    HW118488   3.248   1.182   4.590
 5863SOL    HW218489   3.143   1.283   4.664
 5864SOL     OW18490   3.875   3.743   2.724
 5864SOL    HW118491   3.892   3.839   2.703
 5864SOL    HW218492   3.941   3.711   2.792
 5865SOL     OW18493   5.647   0.606   5.527
 5865SOL    HW118494   5.548   0.589   5.525
 5865SOL    HW218495   5.664   0.704   5.522
 5866SOL     OW18496   3.187   3.164   0.443
 5866SOL    HW118497   3.161   3.238   0.505
 5866SOL    HW218498   3.260   3.109   0.484
 5867SOL     OW18499   2.449   2.147   1.788
 5867SOL    HW118500   2.517   2.216   1.814
 5867SOL    HW218501   2.448   2.137   1.689
 5868SOL     OW18502   0.897   2.187   5.828
 5868SOL    HW118503   0.833   2.123   5.870
 5868SOL    HW218504   0.962   2.220   5.898
 5869SOL     OW18505   1.634   4.328   3.694
 5869SOL    HW118506   1.731   4.345   3.715
 5869SOL    HW218507   1.609   4.382   3.613
 5870SOL     OW18508   4.010   5.323   5.532
 5870SOL    HW118509   4.023   5.321   5.631
 5870SOL    HW218510   3.913   5.336   5.511
 5871SOL     OW18511   3.926   3.913   2.455
 5871SOL    HW118512   3.858   3.983   2.474
 5871SOL    HW218513   4.003   3.953   2.405
 5872SOL     OW18514   4.036   6.189   1.550
 5872SOL    HW118515   4.089   6.123   1.496
 5872SOL    HW218516   3.975   6.240   1.489
 5873SOL     OW18517   2.760   5.871   2.171
 5873SOL    HW118518   2.781   5.868   2.074
 5873SOL    HW218519   2.823   5.811   2.221
 5874SOL     OW18520   2.347   4.142   5.390
 5874SOL    HW118521   2.430   4.190   5.419
 5874SOL    HW218522   2.369   4.079   5.316
 5875SOL     OW18523   3.652   2.083   0.070
 5875SOL    HW118524   3.675   2.150   0.141
 5875SOL    HW218525   3.680   2.119   6.996
 5876SOL     OW18526   3.968   3.468   2.063
 5876SOL    HW118527   4.036   3.416   2.013
 5876SOL    HW218528   3.886   3.412   2.075
 5877SOL     OW18529   6.025   6.147   7.001
 5877SOL    HW118530   5.991   6.239   0.005
 5877SOL    HW218531   6.083   6.150   6.919
 5878SOL     OW18532   1.273   5.947   3.883
 5878SOL    HW118533   1.315   5.973   3.797
 5878SOL    HW218534   1.213   5.868   3.868
 5879SOL     OW18535   0.320   3.716   0.783
 5879SOL    HW118536   0.233   3.720   0.734
 5879SOL    HW218537   0.371   3.635   0.754
 5880SOL     OW18538   2.841   4.923   0.927
 5880SOL    HW118539   2.786   4.848   0.890
 5880SOL    HW218540   2.896   4.963   0.854
 5881SOL     OW18541   0.245   4.835   3.104
 5881SOL    HW118542   0.324   4.863   3.158
 5881SOL    HW218543   0.166   4.826   3.164
 5882SOL     OW18544   6.344   6.304   1.183
 5882SOL    HW118545   6.442   6.319   1.176
 5882SOL    HW218546   6.298   6.390   1.203
 5883SOL     OW18547   0.859   2.077   6.808
 5883SOL    HW118548   0.811   2.012   6.867
 5883SOL    HW218549   0.954   2.087   6.839
 5884SOL     OW18550   2.643   1.194   4.135
 5884SOL    HW118551   2.643   1.293   4.149
 5884SOL    HW218552   2.635   1.175   4.037
 5885SOL     OW18553   0.075   6.889   2.059
 5885SOL    HW118554   0.129   6.870   2.141
 5885SOL    HW218555   6.995   6.861   2.075
 5886SOL     OW18556   0.481   2.036   5.173
 5886SOL    HW118557   0.497   2.040   5.074
 5886SOL    HW218558   0.435   1.949   5.195
 5887SOL     OW18559   3.859   0.913   3.639
 5887SOL    HW118560   3.862   0.887   3.735
 5887SOL    HW218561   3.776   0.876   3.597
 5888SOL     OW18562   2.590   0.903   2.758
 5888SOL    HW118563   2.598   0.865   2.666
 5888SOL    HW218564   2.614   0.834   2.826
 5889SOL     OW18565   1.535   6.509   1.415
 5889SOL    HW118566   1.510   6.419   1.381
 5889SOL    HW218567   1.599   6.500   1.491
 5890SOL     OW18568   1.027   0.115   5.552
 5890SOL    HW118569   0.933   0.129   5.524
 5890SOL    HW218570   1.034   0.028   5.602
 5891SOL     OW18571   3.427   2.921   5.627
 5891SOL    HW118572   3.375   3.005   5.613
 5891SOL    HW218573   3.412   2.859   5.550
 5892SOL     OW18574   0.826   5.804   1.543
 5892SOL    HW118575   0.775   5.877   1.498
 5892SOL    HW218576   0.924   5.822   1.536
 5893SOL     OW18577   1.262   4.090   3.955
 5893SOL    HW118578   1.312   4.163   3.908
 5893SOL    HW218579   1.315   4.005   3.951
 5894SOL     OW18580   1.085   6.111   3.134
 5894SOL    HW118581   1.099   6.012   3.132
 5894SOL    HW218582   1.029   6.135   3.213
 5895SOL     OW18583   4.844   3.096   4.046
 5895SOL    HW118584   4.937   3.113   4.079
 5895SOL    HW218585   4.834   3.136   3.955
 5896SOL     OW18586   4.278   1.596   0.564
 5896SOL    HW118587   4.207   1.528   0.581
 5896SOL    HW218588   4.235   1.687   0.555
 5897SOL     OW18589   3.829   0.272   1.725
 5897SOL    HW118590   3.758   0.253   1.657
 5897SOL    HW218591   3.900   0.329   1.686
 5898SOL     OW18592   1.984   6.809   3.392
 5898SOL    HW118593   2.050   6.825   3.464
 5898SOL    HW218594   1.929   6.728   3.414
 5899SOL     OW18595   4.532   6.357   5.978
 5899SOL    HW118596   4.522   6.267   5.937
 5899SOL    HW218597   4.520   6.428   5.908
 5900SOL     OW18598   4.538   5.471   3.502
 5900SOL    HW118599   4.563   5.549   3.443
 5900SOL    HW218600   4.616   5.445   3.558
 5901SOL     OW18601   2.834   0.222   0.263
 5901SOL    HW118602   2.863   0.307   0.217
 5901SOL    HW218603   2.818   0.152   0.194
 5902SOL     OW18604   6.906   2.387   6.966
 5902SOL    HW118605   6.965   2.376   6.886
 5902SOL    HW218606   6.893   2.299   7.011
 5903SOL     OW18607   4.258   4.047   0.520
 5903SOL    HW118608   4.307   4.132   0.542
 5903SOL    HW218609   4.161   4.058   0.543
 5904SOL     OW18610   0.956   3.456   1.859
 5904SOL    HW118611   0.985   3.525   1.793
 5904SOL    HW218612   1.027   3.444   1.928
 5905SOL     OW18613   6.564   6.408   3.163
 5905SOL    HW118614   6.473   6.388   3.200
 5905SOL    HW218615   6.558   6.426   3.065
 5906SOL     OW18616   4.868   1.587   4.588
 5906SOL    HW118617   4.805   1.584   4.665
 5906SOL    HW218618   4.951   1.636   4.614
 5907SOL     OW18619   1.908   6.037   2.105
 5907SOL    HW118620   2.004   6.060   2.122
 5907SOL    HW218621   1.892   6.033   2.006
 5908SOL     OW18622   1.000   2.339   6.049
 5908SOL    HW118623   0.996   2.424   6.102
 5908SOL    HW218624   0.926   2.278   6.077
 5909SOL     OW18625   6.598   5.220   0.964
 5909SOL    HW118626   6.684   5.263   0.934
 5909SOL    HW218627   6.586   5.133   0.917
 5910SOL     OW18628   0.792   2.745   3.431
 5910SOL    HW118629   0.845   2.819   3.471
 5910SOL    HW218630   0.695   2.760   3.449
 5911SOL     OW18631   6.315   5.695   6.779
 5911SOL    HW118632   6.283   5.657   6.865
 5911SOL    HW218633   6.390   5.759   6.796
 5912SOL     OW18634   6.423   0.483   5.458
 5912SOL    HW118635   6.369   0.433   5.390
 5912SOL    HW218636   6.411   0.581   5.444
 5913SOL     OW18637   4.517   2.754   6.477
 5913SOL    HW118638   4.564   2.790   6.558
 5913SOL    HW218639   4.499   2.829   6.413
 5914SOL     OW18640   0.762   6.077   6.690
 5914SOL    HW118641   0.789   6.136   6.766
 5914SOL    HW218642   0.689   6.015   6.720
 5915SOL     OW18643   4.398   6.206   1.102
 5915SOL    HW118644   4.483   6.249   1.133
 5915SOL    HW218645   4.382   6.123   1.156
 5916SOL     OW18646   0.333   6.198   2.674
 5916SOL    HW118647   0.285   6.144   2.605
 5916SOL    HW218648   0.363   6.285   2.634
 5917SOL     OW18649   3.337   4.003   4.858
 5917SOL    HW118650   3.412   4.064   4.883
 5917SOL    HW218651   3.281   4.046   4.787
 5918SOL     OW18652   2.045   5.189   6.102
 5918SOL    HW118653   2.109   5.138   6.159
 5918SOL    HW218654   2.065   5.169   6.006
 5919SOL     OW18655   3.201   3.524   2.379
 5919SOL    HW118656   3.285   3.501   2.330
 5919SOL    HW218657   3.150   3.593   2.328
 5920SOL     OW18658   4.926   0.563   6.205
 5920SOL    HW118659   4.898   0.655   6.179
 5920SOL    HW218660   4.859   0.525   6.270
 5921SOL     OW18661   3.987   5.155   6.338
 5921SOL    HW118662   3.961   5.059   6.322
 5921SOL    HW218663   4.025   5.164   6.430
 5922SOL     OW18664   6.113   3.954   4.437
 5922SOL    HW118665   6.155   3.958   4.528
 5922SOL    HW218666   6.091   4.046   4.406
 5923SOL     OW18667   6.876   0.990   2.337
 5923SOL    HW118668   6.860   1.067   2.275
 5923SOL    HW218669   6.793   0.933   2.341
 5924SOL     OW18670   6.061   6.909   2.632
 5924SOL    HW118671   6.143   6.872   2.590
 5924SOL    HW218672   6.079   7.001   2.668
 5925SOL     OW18673   3.540   6.204   2.079
 5925SOL    HW118674   3.454   6.156   2.091
 5925SOL    HW218675   3.555   6.265   2.158
 5926SOL     OW18676   4.426   4.765   2.252
 5926SOL    HW118677   4.380   4.842   2.207
 5926SOL    HW218678   4.416   4.684   2.195
 5927SOL     OW18679   1.244   4.403   1.989
 5927SOL    HW118680   1.158   4.366   1.954
 5927SOL    HW218681   1.260   4.369   2.082
 5928SOL     OW18682   3.847   6.539   1.624
 5928SOL    HW118683   3.778   6.600   1.585
 5928SOL    HW218684   3.815   6.505   1.712
 5929SOL     OW18685   5.816   0.534   5.713
 5929SOL    HW118686   5.745   0.539   5.642
 5929SOL    HW218687   5.848   0.627   5.733
 5930SOL     OW18688   0.792   3.367   3.110
 5930SOL    HW118689   0.852   3.446   3.098
 5930SOL    HW218690   0.825   3.291   3.055
 5931SOL     OW18691   6.289   6.208   2.794
 5931SOL    HW118692   6.238   6.122   2.793
 5931SOL    HW218693   6.239   6.275   2.849
 5932SOL     OW18694   3.861   0.024   0.284
 5932SOL    HW118695   3.927   0.089   0.322
 5932SOL    HW218696   3.771   0.068   0.279
 5933SOL     OW18697   6.963   4.821   4.257
 5933SOL    HW118698   6.912   4.787   4.178
 5933SOL    HW218699   6.904   4.820   4.338
 5934SOL     OW18700   3.891   2.927   5.188
 5934SOL    HW118701   3.884   2.895   5.094
 5934SOL    HW218702   3.947   2.863   5.241
 5935SOL     OW18703   0.502   5.189   6.247
 5935SOL    HW118704   0.531   5.157   6.157
 5935SOL    HW218705   0.402   5.200   6.247
 5936SOL     OW18706   3.082   3.492   1.670
 5936SOL    HW118707   3.091   3.397   1.698
 5936SOL    HW218708   3.172   3.534   1.663
 5937SOL     OW18709   6.196   3.250   2.052
 5937SOL    HW118710   6.196   3.200   1.966
 5937SOL    HW218711   6.230   3.191   2.125
 5938SOL     OW18712   6.623   5.989   3.900
 5938SOL    HW118713   6.721   5.974   3.884
 5938SOL    HW218714   6.596   5.942   3.984
 5939SOL     OW18715   2.855   6.005   4.162
 5939SOL    HW118716   2.917   5.929   4.147
 5939SOL    HW218717   2.862   6.070   4.086
 5940SOL     OW18718   4.049   5.251   3.656
 5940SOL    HW118719   4.116   5.179   3.671
 5940SOL    HW218720   4.081   5.314   3.584
 5941SOL     OW18721   5.654   3.003   2.430
 5941SOL    HW118722   5.741   2.979   2.473
 5941SOL    HW218723   5.664   3.090   2.381
 5942SOL     OW18724   5.734   3.787   6.779
 5942SOL    HW118725   5.698   3.840   6.856
 5942SOL    HW218726   5.829   3.814   6.762
 5943SOL     OW18727   3.440   3.537   6.127
 5943SOL    HW118728   3.536   3.560   6.112
 5943SOL    HW218729   3.384   3.581   6.056
 5944SOL     OW18730   0.624   2.755   0.458
 5944SOL    HW118731   0.622   2.684   0.529
 5944SOL    HW218732   0.711   2.804   0.463
 5945SOL     OW18733   0.125   5.262   4.895
 5945SOL    HW118734   0.205   5.281   4.951
 5945SOL    HW218735   0.102   5.165   4.902
 5946SOL     OW18736   3.475   4.368   0.203
 5946SOL    HW118737   3.496   4.352   0.299
 5946SOL    HW218738   3.437   4.460   0.192
 5947SOL     OW18739   3.086   3.513   2.724
 5947SOL    HW118740   3.009   3.454   2.748
 5947SOL    HW218741   3.166   3.457   2.702
 5948SOL     OW18742   4.207   4.821   2.615
 5948SOL    HW118743   4.295   4.778   2.594
 5948SOL    HW218744   4.150   4.821   2.532
 5949SOL     OW18745   5.426   5.120   1.104
 5949SOL    HW118746   5.467   5.036   1.138
 5949SOL    HW218747   5.438   5.193   1.171
 5950SOL     OW18748   5.481   2.099   4.868
 5950SOL    HW118749   5.420   2.146   4.931
 5950SOL    HW218750   5.519   2.164   4.803
 5951SOL     OW18751   0.971   5.384   5.344
 5951SOL    HW118752   0.894   5.365   5.405
 5951SOL    HW218753   0.974   5.317   5.271
 5952SOL     OW18754   4.739   5.877   3.532
 5952SOL    HW118755   4.703   5.886   3.625
 5952SOL    HW218756   4.819   5.936   3.522
 5953SOL     OW18757   6.968   4.332   5.148
 5953SOL    HW118758   6.978   4.240   5.109
 5953SOL    HW218759   6.946   4.324   5.245
 5954SOL     OW18760   6.598   5.121   4.930
 5954SOL    HW118761   6.542   5.127   5.013
 5954SOL    HW218762   6.646   5.033   4.929
 5955SOL     OW18763   4.851   5.222   2.116
 5955SOL    HW118764   4.802   5.187   2.196
 5955SOL    HW218765   4.834   5.320   2.107
 5956SOL     OW18766   5.745   2.571   3.764
 5956SOL    HW118767   5.818   2.510   3.794
 5956SOL    HW218768   5.661   2.519   3.752
 5957SOL     OW18769   3.034   1.548   4.268
 5957SOL    HW118770   2.987   1.627   4.310
 5957SOL    HW218771   2.995   1.463   4.304
 5958SOL     OW18772   3.950   0.511   2.764
 5958SOL    HW118773   4.035   0.458   2.755
 5958SOL    HW218774   3.878   0.467   2.711
 5959SOL     OW18775   4.734   2.640   5.536
 5959SOL    HW118776   4.733   2.740   5.543
 5959SOL    HW218777   4.756   2.600   5.625
 5960SOL     OW18778   3.723   6.457   4.326
 5960SOL    HW118779   3.738   6.358   4.338
 5960SOL    HW218780   3.766   6.488   4.242
 5961SOL     OW18781   4.551   1.769   2.696
 5961SOL    HW118782   4.502   1.694   2.650
 5961SOL    HW218783   4.493   1.807   2.768
 5962SOL     OW18784   5.484   5.666   6.085
 5962SOL    HW118785   5.571   5.710   6.106
 5962SOL    HW218786   5.409   5.727   6.112
 5963SOL     OW18787   3.206   3.657   6.627
 5963SOL    HW118788   3.237   3.632   6.536
 5963SOL    HW218789   3.242   3.747   6.652
 5964SOL     OW18790   1.798   6.299   4.641
 5964SOL    HW118791   1.821   6.369   4.708
 5964SOL    HW218792   1.701   6.278   4.646
 5965SOL     OW18793   2.338   0.958   0.294
 5965SOL    HW118794   2.362   1.010   0.376
 5965SOL    HW218795   2.264   1.005   0.245
 5966SOL     OW18796   1.289   6.361   6.700
 5966SOL    HW118797   1.258   6.455   6.686
 5966SOL    HW218798   1.240   6.300   6.638
 5967SOL     OW18799   2.518   0.338   5.998
 5967SOL    HW118800   2.612   0.357   5.970
 5967SOL    HW218801   2.455   0.376   5.930
 5968SOL     OW18802   5.606   2.251   6.954
 5968SOL    HW118803   5.547   2.328   6.978
 5968SOL    HW218804   5.571   2.209   6.870
 5969SOL     OW18805   5.829   0.968   0.145
 5969SOL    HW118806   5.921   0.965   0.185
 5969SOL    HW218807   5.770   0.904   0.193
 5970SOL     OW18808   0.193   4.846   1.466
 5970SOL    HW118809   0.227   4.921   1.410
 5970SOL    HW218810   0.136   4.785   1.411
 5971SOL     OW18811   0.128   0.583   1.088
 5971SOL    HW118812   0.180   0.503   1.117
 5971SOL    HW218813   0.046   0.555   1.039
 5972SOL     OW18814   5.036   5.938   6.602
 5972SOL    HW118815   5.033   5.884   6.518
 5972SOL    HW218816   5.054   5.877   6.680
 5973SOL     OW18817   1.687   2.667   3.034
 5973SOL    HW118818   1.772   2.649   3.084
 5973SOL    HW218819   1.708   2.684   2.938
 5974SOL     OW18820   4.942   6.698   0.118
 5974SOL    HW118821   4.955   6.601   0.141
 5974SOL    HW218822   5.030   6.745   0.118
 5975SOL     OW18823   4.188   6.433   0.853
 5975SOL    HW118824   4.286   6.414   0.860
 5975SOL    HW218825   4.170   6.525   0.889
 5976SOL     OW18826   3.906   2.726   5.528
 5976SOL    HW118827   3.969   2.709   5.453
 5976SOL    HW218828   3.814   2.695   5.502
 5977SOL     OW18829   1.086   5.773   0.292
 5977SOL    HW118830   1.114   5.866   0.316
 5977SOL    HW218831   0.987   5.765   0.301
 5978SOL     OW18832   3.356   5.793   1.574
 5978SOL    HW118833   3.434   5.852   1.598
 5978SOL    HW218834   3.382   5.697   1.588
 5979SOL     OW18835   6.683   0.546   2.164
 5979SOL    HW118836   6.763   0.553   2.104
 5979SOL    HW218837   6.687   0.460   2.215
 5980SOL     OW18838   4.217   3.975   1.338
 5980SOL    HW118839   4.310   3.946   1.356
 5980SOL    HW218840   4.196   4.057   1.391
 5981SOL     OW18841   4.919   1.551   0.010
 5981SOL    HW118842   4.943   1.465   0.056
 5981SOL    HW218843   4.984   1.622   0.038
 5982SOL     OW18844   6.323   2.126   2.494
 5982SOL    HW118845   6.343   2.115   2.591
 5982SOL    HW218846   6.346   2.041   2.445
 5983SOL     OW18847   1.283   1.287   4.291
 5983SOL    HW118848   1.380   1.269   4.272
 5983SOL    HW218849   1.244   1.209   4.339
 5984SOL     OW18850   4.688   6.878   3.412
 5984SOL    HW118851   4.775   6.867   3.460
 5984SOL    HW218852   4.631   6.797   3.428
 5985SOL     OW18853   6.394   3.201   3.835
 5985SOL    HW118854   6.471   3.261   3.815
 5985SOL    HW218855   6.417   3.139   3.910
 5986SOL     OW18856   3.600   3.764   5.180
 5986SOL    HW118857   3.575   3.837   5.243
 5986SOL    HW218858   3.521   3.739   5.124
 5987SOL     OW18859   5.211   0.035   4.078
 5987SOL    HW118860   5.176   7.005   3.996
 5987SOL    HW218861   5.309   0.021   4.084
 5988SOL     OW18862   4.539   0.294   6.275
 5988SOL    HW118863   4.461   0.258   6.328
 5988SOL    HW218864   4.513   0.380   6.231
 5989SOL     OW18865   1.661   5.761   6.074
 5989SOL    HW118866   1.677   5.674   6.121
 5989SOL    HW218867   1.662   5.745   5.975
 5990SOL     OW18868   3.531   3.443   0.044
 5990SOL    HW118869   3.553   3.513   0.112
 5990SOL    HW218870   3.452   3.472   7.005
 5991SOL     OW18871   4.387   5.958   6.848
 5991SOL    HW118872   4.400   5.913   6.936
 5991SOL    HW218873   4.352   5.892   6.781
 5992SOL     OW18874   3.633   0.003   2.026
 5992SOL    HW118875   3.638   0.101   2.005
 5992SOL    HW218876   3.674   7.001   2.116
 5993SOL     OW18877   4.241   3.984   6.014
 5993SOL    HW118878   4.340   3.988   6.002
 5993SOL    HW218879   4.218   3.911   6.078
 5994SOL     OW18880   6.416   2.201   0.169
 5994SOL    HW118881   6.508   2.167   0.151
 5994SOL    HW218882   6.390   2.178   0.263
 5995SOL     OW18883   4.887   3.493   2.084
 5995SOL    HW118884   4.908   3.540   2.169
 5995SOL    HW218885   4.891   3.394   2.099
 5996SOL     OW18886   0.725   5.928   1.310
 5996SOL    HW118887   0.648   5.935   1.374
 5996SOL    HW218888   0.691   5.915   1.217
 5997SOL     OW18889   1.331   5.875   2.905
 5997SOL    HW118890   1.252   5.813   2.899
 5997SOL    HW218891   1.339   5.927   2.820
 5998SOL     OW18892   6.340   1.459   2.004
 5998SOL    HW118893   6.269   1.391   2.020
 5998SOL    HW218894   6.371   1.452   1.909
 5999SOL     OW18895   3.084   3.078   1.256
 5999SOL    HW118896   2.990   3.050   1.276
 5999SOL    HW218897   3.130   3.104   1.341
 6000SOL     OW18898   1.033   6.529   0.611
 6000SOL    HW118899   1.133   6.519   0.609
 6000SOL    HW218900   1.009   6.625   0.596
 6001SOL     OW18901   6.790   4.909   6.866
 6001SOL    HW118902   6.873   4.863   6.898
 6001SOL    HW218903   6.724   4.841   6.834
 6002SOL     OW18904   6.081   6.923   5.713
 6002SOL    HW118905   6.062   6.963   5.623
 6002SOL    HW218906   6.177   6.895   5.717
 6003SOL     OW18907   6.044   2.160   5.187
 6003SOL    HW118908   5.967   2.222   5.177
 6003SOL    HW218909   6.015   2.078   5.236
 6004SOL     OW18910   6.241   2.985   3.723
 6004SOL    HW118911   6.299   3.064   3.745
 6004SOL    HW218912   6.244   2.920   3.799
 6005SOL     OW18913   5.972   4.814   4.793
 6005SOL    HW118914   6.053   4.767   4.757
 6005SOL    HW218915   5.998   4.904   4.828
 6006SOL     OW18916   2.326   0.783   4.841
 6006SOL    HW118917   2.355   0.747   4.752
 6006SOL    HW218918   2.358   0.877   4.852
 6007SOL     OW18919   6.743   3.271   6.062
 6007SOL    HW118920   6.740   3.367   6.035
 6007SOL    HW218921   6.720   3.213   5.984
 6008SOL     OW18922   2.759   4.858   5.895
 6008SOL    HW118923   2.756   4.887   5.800
 6008SOL    HW218924   2.744   4.937   5.955
 6009SOL     OW18925   3.717   0.190   3.442
 6009SOL    HW118926   3.743   0.280   3.475
 6009SOL    HW218927   3.727   0.123   3.516
 6010SOL     OW18928   0.702   4.418   3.782
 6010SOL    HW118929   0.786   4.405   3.835
 6010SOL    HW218930   0.624   4.412   3.843
 6011SOL     OW18931   5.441   3.475   3.033
 6011SOL    HW118932   5.456   3.531   3.115
 6011SOL    HW218933   5.371   3.517   2.975
 6012SOL     OW18934   6.010   0.415   0.809
 6012SOL    HW118935   6.084   0.467   0.767
 6012SOL    HW218936   6.006   0.435   0.907
 6013SOL     OW18937   4.854   1.115   2.903
 6013SOL    HW118938   4.756   1.095   2.901
 6013SOL    HW218939   4.904   1.038   2.865
 6014SOL     OW18940   3.395   4.128   3.331
 6014SOL    HW118941   3.334   4.203   3.359
 6014SOL    HW218942   3.442   4.092   3.412
 6015SOL     OW18943   6.180   3.984   4.697
 6015SOL    HW118944   6.214   3.959   4.788
 6015SOL    HW218945   6.081   3.998   4.701
 6016SOL     OW18946   6.001   1.518   5.809
 6016SOL    HW118947   5.908   1.552   5.799
 6016SOL    HW218948   5.999   1.418   5.812
 6017SOL     OW18949   6.141   5.200   4.164
 6017SOL    HW118950   6.096   5.119   4.202
 6017SOL    HW218951   6.177   5.257   4.238
 6018SOL     OW18952   3.482   1.180   6.057
 6018SOL    HW118953   3.390   1.189   6.093
 6018SOL    HW218954   3.487   1.099   5.999
 6019SOL     OW18955   0.980   3.461   5.202
 6019SOL    HW118956   0.926   3.435   5.282
 6019SOL    HW218957   0.919   3.470   5.123
 6020SOL     OW18958   0.910   5.297   0.053
 6020SOL    HW118959   0.834   5.269   0.112
 6020SOL    HW218960   0.963   5.369   0.097
 6021SOL     OW18961   4.257   0.726   2.862
 6021SOL    HW118962   4.281   0.745   2.767
 6021SOL    HW218963   4.167   0.765   2.881
 6022SOL     OW18964   0.172   1.920   3.405
 6022SOL    HW118965   0.257   1.871   3.421
 6022SOL    HW218966   0.143   1.966   3.489
 6023SOL     OW18967   5.228   0.726   1.583
 6023SOL    HW118968   5.138   0.703   1.620
 6023SOL    HW218969   5.256   0.816   1.615
 6024SOL     OW18970   1.122   4.643   1.108
 6024SOL    HW118971   1.135   4.563   1.167
 6024SOL    HW218972   1.054   4.704   1.149
 6025SOL     OW18973   3.149   2.124   3.368
 6025SOL    HW118974   3.166   2.030   3.398
 6025SOL    HW218975   3.230   2.180   3.388
 6026SOL     OW18976   0.026   5.880   4.671
 6026SOL    HW118977   0.114   5.848   4.637
 6026SOL    HW218978   6.991   5.803   4.711
 6027SOL     OW18979   0.356   3.529   6.434
 6027SOL    HW118980   0.368   3.617   6.387
 6027SOL    HW218981   0.391   3.456   6.375
 6028SOL     OW18982   5.819   4.577   0.998
 6028SOL    HW118983   5.719   4.578   1.003
 6028SOL    HW218984   5.853   4.491   1.037
 6029SOL     OW18985   2.962   6.817   3.760
 6029SOL    HW118986   3.061   6.820   3.752
 6029SOL    HW218987   2.921   6.884   3.697
 6030SOL     OW18988   4.752   4.509   4.225
 6030SOL    HW118989   4.833   4.524   4.282
 6030SOL    HW218990   4.671   4.509   4.283
 6031SOL     OW18991   2.733   5.686   4.261
 6031SOL    HW118992   2.746   5.602   4.314
 6031SOL    HW218993   2.725   5.663   4.164
 6032SOL     OW18994   2.321   5.065   3.030
 6032SOL    HW118995   2.325   5.068   3.130
 6032SOL    HW218996   2.249   5.127   2.998
 6033SOL     OW18997   2.117   3.155   2.803
 6033SOL    HW118998   2.130   3.133   2.707
 6033SOL    HW218999   2.059   3.086   2.846
 6034SOL     OW19000   1.190   1.296   5.817
 6034SOL    HW119001   1.125   1.288   5.742
 6034SOL    HW219002   1.184   1.215   5.876
 6035SOL     OW19003   1.452   0.868   1.950
 6035SOL    HW119004   1.537   0.842   1.994
 6035SOL    HW219005   1.442   0.819   1.863
 6036SOL     OW19006   5.335   4.942   2.223
 6036SOL    HW119007   5.340   4.843   2.236
 6036SOL    HW219008   5.424   4.983   2.242
 6037SOL     OW19009   3.772   0.152   0.636
 6037SOL    HW119010   3.704   0.214   0.597
 6037SOL    HW219011   3.842   0.133   0.567
 6038SOL     OW19012   1.668   2.535   6.423
 6038SOL    HW119013   1.758   2.500   6.395
 6038SOL    HW219014   1.680   2.607   6.491
 6039SOL     OW19015   3.748   3.089   3.104
 6039SOL    HW119016   3.831   3.145   3.097
 6039SOL    HW219017   3.753   3.013   3.040
 6040SOL     OW19018   1.615   1.771   0.648
 6040SOL    HW119019   1.653   1.826   0.573
 6040SOL    HW219020   1.553   1.702   0.611
 6041SOL     OW19021   2.678   2.162   4.524
 6041SOL    HW119022   2.595   2.113   4.550
 6041SOL    HW219023   2.710   2.216   4.601
 6042SOL     OW19024   3.550   6.776   3.035
 6042SOL    HW119025   3.477   6.837   3.004
 6042SOL    HW219026   3.511   6.702   3.090
 6043SOL     OW19027   0.524   0.227   4.830
 6043SOL    HW119028   0.571   0.180   4.755
 6043SOL    HW219029   0.591   0.253   4.899
 6044SOL     OW19030   2.392   2.525   1.833
 6044SOL    HW119031   2.468   2.515   1.769
 6044SOL    HW219032   2.316   2.571   1.788
 6045SOL     OW19033   5.581   3.458   3.434
 6045SOL    HW119034   5.648   3.385   3.420
 6045SOL    HW219035   5.602   3.507   3.519
 6046SOL     OW19036   3.478   2.448   0.982
 6046SOL    HW119037   3.538   2.383   0.933
 6046SOL    HW219038   3.416   2.397   1.042
 6047SOL     OW19039   5.446   2.463   1.646
 6047SOL    HW119040   5.437   2.558   1.617
 6047SOL    HW219041   5.502   2.413   1.581
 6048SOL     OW19042   5.024   5.180   4.715
 6048SOL    HW119043   4.968   5.145   4.790
 6048SOL    HW219044   5.044   5.105   4.652
 6049SOL     OW19045   4.567   4.320   6.427
 6049SOL    HW119046   4.502   4.297   6.500
 6049SOL    HW219047   4.558   4.416   6.403
 6050SOL     OW19048   1.880   5.327   0.012
 6050SOL    HW119049   1.824   5.252   6.994
 6050SOL    HW219050   1.830   5.379   0.081
 6051SOL     OW19051   1.949   0.006   2.970
 6051SOL    HW119052   2.045   0.012   2.943
 6051SOL    HW219053   1.943   0.005   3.070
 6052SOL     OW19054   5.208   1.667   1.669
 6052SOL    HW119055   5.233   1.664   1.765
 6052SOL    HW219056   5.123   1.719   1.658
 6053SOL     OW19057   4.302   0.794   6.181
 6053SOL    HW119058   4.293   0.835   6.272
 6053SOL    HW219059   4.214   0.799   6.133
 6054SOL     OW19060   2.425   3.669   0.106
 6054SOL    HW119061   2.490   3.593   0.108
 6054SOL    HW219062   2.339   3.637   0.065
 6055SOL     OW19063   4.780   6.158   5.559
 6055SOL    HW119064   4.800   6.138   5.655
 6055SOL    HW219065   4.831   6.094   5.501
 6056SOL     OW19066   4.909   3.352   5.180
 6056SOL    HW119067   4.834   3.417   5.169
 6056SOL    HW219068   4.905   3.284   5.106
 6057SOL     OW19069   6.395   0.733   2.456
 6057SOL    HW119070   6.304   0.773   2.457
 6057SOL    HW219071   6.407   0.678   2.374
 6058SOL     OW19072   5.303   3.996   0.656
 6058SOL    HW119073   5.353   3.910   0.661
 6058SOL    HW219074   5.316   4.047   0.742
 6059SOL     OW19075   4.655   4.629   5.896
 6059SOL    HW119076   4.705   4.549   5.930
 6059SOL    HW219077   4.647   4.697   5.969
 6060SOL     OW19078   2.176   3.308   6.457
 6060SOL    HW119079   2.149   3.300   6.553
 6060SOL    HW219080   2.182   3.404   6.431
 6061SOL     OW19081   5.154   3.886   0.052
 6061SOL    HW119082   5.186   3.901   0.146
 6061SOL    HW219083   5.200   3.806   0.014
 6062SOL     OW19084   2.401   1.351   6.180
 6062SOL    HW119085   2.400   1.416   6.256
 6062SOL    HW219086   2.495   1.332   6.154
 6063SOL     OW19087   4.398   2.464   5.602
 6063SOL    HW119088   4.493   2.435   5.595
 6063SOL    HW219089   4.386   2.518   5.686
 6064SOL     OW19090   1.433   0.830   0.755
 6064SOL    HW119091   1.402   0.863   0.666
 6064SOL    HW219092   1.512   0.884   0.785
 6065SOL     OW19093   0.606   6.264   2.454
 6065SOL    HW119094   0.626   6.293   2.360
 6065SOL    HW219095   0.523   6.209   2.455
 6066SOL     OW19096   5.237   1.055   5.917
 6066SOL    HW119097   5.273   1.003   5.994
 6066SOL    HW219098   5.198   1.141   5.951
 6067SOL     OW19099   4.390   0.287   5.273
 6067SOL    HW119100   4.344   0.269   5.186
 6067SOL    HW219101   4.435   0.204   5.305
 6068SOL     OW19102   5.160   2.960   4.405
 6068SOL    HW119103   5.178   3.051   4.442
 6068SOL    HW219104   5.066   2.934   4.425
 6069SOL     OW19105   6.078   3.388   5.110
 6069SOL    HW119106   6.070   3.288   5.118
 6069SOL    HW219107   6.045   3.430   5.194
 6070SOL     OW19108   2.769   2.707   1.398
 6070SOL    HW119109   2.751   2.711   1.496
 6070SOL    HW219110   2.700   2.651   1.353
 6071SOL     OW19111   0.548   5.761   4.885
 6071SOL    HW119112   0.639   5.766   4.926
 6071SOL    HW219113   0.520   5.853   4.855
 6072SOL     OW19114   0.652   0.628   1.454
 6072SOL    HW119115   0.671   0.534   1.484
 6072SOL    HW219116   0.685   0.692   1.523
 6073SOL     OW19117   4.803   3.319   0.741
 6073SOL    HW119118   4.791   3.314   0.840
 6073SOL    HW219119   4.790   3.227   0.701
 6074SOL     OW19120   1.619   6.027   2.080
 6074SOL    HW119121   1.620   5.990   1.987
 6074SOL    HW219122   1.712   6.055   2.106
 6075SOL     OW19123   4.599   6.719   5.646
 6075SOL    HW119124   4.574   6.781   5.721
 6075SOL    HW219125   4.516   6.679   5.607
 6076SOL     OW19126   2.650   4.849   3.187
 6076SOL    HW119127   2.631   4.932   3.241
 6076SOL    HW219128   2.682   4.875   3.096
 6077SOL     OW19129   6.345   5.390   1.600
 6077SOL    HW119130   6.253   5.430   1.601
 6077SOL    HW219131   6.371   5.365   1.693
 6078SOL     OW19132   4.773   4.781   6.995
 6078SOL    HW119133   4.794   4.699   6.941
 6078SOL    HW219134   4.834   4.855   6.968
 6079SOL     OW19135   4.884   3.465   5.878
 6079SOL    HW119136   4.848   3.501   5.792
 6079SOL    HW219137   4.881   3.365   5.876
 6080SOL     OW19138   0.105   5.767   0.818
 6080SOL    HW119139   0.101   5.862   0.790
 6080SOL    HW219140   0.015   5.725   0.806
 6081SOL     OW19141   6.970   2.367   5.507
 6081SOL    HW119142   0.026   2.392   5.441
 6081SOL    HW219143   7.012   2.323   5.586
 6082SOL     OW19144   3.216   0.171   2.717
 6082SOL    HW119145   3.276   0.115   2.661
 6082SOL    HW219146   3.270   0.238   2.768
 6083SOL     OW19147   5.912   5.995   0.222
 6083SOL    HW119148   5.965   6.068   0.179
 6083SOL    HW219149   5.911   5.915   0.163
 6084SOL     OW19150   0.867   6.671   2.183
 6084SOL    HW119151   0.944   6.637   2.237
 6084SOL    HW219152   0.818   6.741   2.236
 6085SOL     OW19153   0.386   6.658   0.003
 6085SOL    HW119154   0.414   6.576   0.054
 6085SOL    HW219155   0.368   6.634   6.923
 6086SOL     OW19156   2.677   2.086   5.511
 6086SOL    HW119157   2.677   2.125   5.419
 6086SOL    HW219158   2.594   2.114   5.559
 6087SOL     OW19159   3.427   6.125   1.506
 6087SOL    HW119160   3.456   6.079   1.590
 6087SOL    HW219161   3.509   6.153   1.455
 6088SOL     OW19162   5.164   0.450   4.438
 6088SOL    HW119163   5.240   0.515   4.437
 6088SOL    HW219164   5.191   0.367   4.389
 6089SOL     OW19165   6.207   2.466   2.590
 6089SOL    HW119166   6.268   2.435   2.517
 6089SOL    HW219167   6.214   2.565   2.600
 6090SOL     OW19168   2.163   5.175   4.604
 6090SOL    HW119169   2.239   5.122   4.566
 6090SOL    HW219170   2.170   5.270   4.572
 6091SOL     OW19171   2.663   1.766   6.737
 6091SOL    HW119172   2.652   1.693   6.669
 6091SOL    HW219173   2.574   1.792   6.773
 6092SOL     OW19174   4.510   0.967   2.581
 6092SOL    HW119175   4.435   1.002   2.525
 6092SOL    HW219176   4.512   0.867   2.576
 6093SOL     OW19177   2.374   2.678   2.273
 6093SOL    HW119178   2.329   2.590   2.257
 6093SOL    HW219179   2.374   2.731   2.188
 6094SOL     OW19180   1.424   5.631   3.357
 6094SOL    HW119181   1.470   5.685   3.286
 6094SOL    HW219182   1.425   5.682   3.443
 6095SOL     OW19183   4.721   4.880   6.664
 6095SOL    HW119184   4.635   4.887   6.613
 6095SOL    HW219185   4.727   4.956   6.728
 6096SOL     OW19186   6.632   0.155   2.350
 6096SOL    HW119187   6.609   0.252   2.358
 6096SOL    HW219188   6.693   0.142   2.272
 6097SOL     OW19189   1.903   5.492   2.325
 6097SOL    HW119190   1.960   5.410   2.319
 6097SOL    HW219191   1.940   5.562   2.265
 6098SOL     OW19192   0.259   1.732   5.871
 6098SOL    HW119193   0.227   1.810   5.817
 6098SOL    HW219194   0.355   1.746   5.895
 6099SOL     OW19195   5.223   5.946   5.278
 6099SOL    HW119196   5.225   5.909   5.371
 6099SOL    HW219197   5.308   5.996   5.259
 6100SOL     OW19198   5.712   6.131   1.543
 6100SOL    HW119199   5.640   6.072   1.578
 6100SOL    HW219200   5.722   6.211   1.603
 6101SOL     OW19201   0.122   3.115   2.888
 6101SOL    HW119202   0.091   3.027   2.854
 6101SOL    HW219203   0.063   3.144   2.964
 6102SOL     OW19204   4.067   5.884   3.226
 6102SOL    HW119205   4.160   5.852   3.207
 6102SOL    HW219206   4.068   5.943   3.307
 6103SOL     OW19207   5.557   1.595   1.593
 6103SOL    HW119208   5.558   1.676   1.651
 6103SOL    HW219209   5.464   1.558   1.588
 6104SOL     OW19210   5.781   0.037   4.787
 6104SOL    HW119211   5.743   0.128   4.799
 6104SOL    HW219212   5.707   6.987   4.771
 6105SOL     OW19213   1.954   5.575   6.408
 6105SOL    HW119214   1.898   5.653   6.381
 6105SOL    HW219215   1.897   5.493   6.413
 6106SOL     OW19216   1.603   4.920   6.142
 6106SOL    HW119217   1.565   4.898   6.232
 6106SOL    HW219218   1.702   4.914   6.145
 6107SOL     OW19219   4.734   5.538   4.893
 6107SOL    HW119220   4.655   5.551   4.952
 6107SOL    HW219221   4.796   5.616   4.900
 6108SOL     OW19222   2.256   2.445   3.054
 6108SOL    HW119223   2.323   2.473   2.986
 6108SOL    HW219224   2.226   2.525   3.106
 6109SOL     OW19225   5.809   1.406   5.322
 6109SOL    HW119226   5.826   1.455   5.237
 6109SOL    HW219227   5.878   1.432   5.390
 6110SOL     OW19228   2.390   3.668   1.234
 6110SOL    HW119229   2.442   3.621   1.163
 6110SOL    HW219230   2.433   3.652   1.323
 6111SOL     OW19231   1.227   2.998   2.237
 6111SOL    HW119232   1.141   3.008   2.186
 6111SOL    HW219233   1.295   2.955   2.179
 6112SOL     OW19234   3.427   0.423   2.530
 6112SOL    HW119235   3.454   0.327   2.521
 6112SOL    HW219236   3.475   0.464   2.607
 6113SOL     OW19237   2.480   2.070   5.913
 6113SOL    HW119238   2.502   2.120   5.829
 6113SOL    HW219239   2.477   1.972   5.895
 6114SOL     OW19240   5.081   4.427   2.344
 6114SOL    HW119241   5.168   4.476   2.335
 6114SOL    HW219242   5.081   4.371   2.426
 6115SOL     OW19243   6.279   0.350   4.246
 6115SOL    HW119244   6.358   0.394   4.288
 6115SOL    HW219245   6.202   0.414   4.244
 6116SOL     OW19246   3.520   1.734   6.106
 6116SOL    HW119247   3.566   1.790   6.174
 6116SOL    HW219248   3.586   1.706   6.035
 6117SOL     OW19249   2.361   1.747   3.493
 6117SOL    HW119250   2.438   1.717   3.550
 6117SOL    HW219251   2.396   1.777   3.404
 6118SOL     OW19252   5.579   1.391   1.114
 6118SOL    HW119253   5.631   1.432   1.039
 6118SOL    HW219254   5.508   1.332   1.076
 6119SOL     OW19255   0.849   3.830   0.569
 6119SOL    HW119256   0.942   3.819   0.602
 6119SOL    HW219257   0.847   3.819   0.470
 6120SOL     OW19258   2.322   6.680   5.432
 6120SOL    HW119259   2.378   6.641   5.505
 6120SOL    HW219260   2.255   6.743   5.471
 6121SOL     OW19261   1.262   3.578   5.308
 6121SOL    HW119262   1.178   3.547   5.263
 6121SOL    HW219263   1.251   3.569   5.407
 6122SOL     OW19264   3.996   5.362   6.942
 6122SOL    HW119265   3.919   5.422   6.923
 6122SOL    HW219266   4.075   5.390   6.888
 6123SOL     OW19267   5.206   6.736   6.077
 6123SOL    HW119268   5.297   6.697   6.061
 6123SOL    HW219269   5.176   6.714   6.170
 6124SOL     OW19270   1.253   6.966   5.925
 6124SOL    HW119271   1.269   6.944   5.829
 6124SOL    HW219272   1.340   6.990   5.969
 6125SOL     OW19273   1.659   4.066   0.381
 6125SOL    HW119274   1.714   4.125   0.323
 6125SOL    HW219275   1.704   4.055   0.469
 6126SOL     OW19276   0.348   1.004   4.414
 6126SOL    HW119277   0.419   1.072   4.397
 6126SOL    HW219278   0.263   1.050   4.440
 6127SOL     OW19279   3.457   6.592   1.093
 6127SOL    HW119280   3.434   6.638   1.008
 6127SOL    HW219281   3.479   6.660   1.163
 6128SOL     OW19282   5.845   5.387   0.397
 6128SOL    HW119283   5.830   5.298   0.438
 6128SOL    HW219284   5.868   5.376   0.300
 6129SOL     OW19285   0.546   2.988   2.892
 6129SOL    HW119286   0.633   3.006   2.846
 6129SOL    HW219287   0.499   2.913   2.845
 6130SOL     OW19288   4.618   2.651   2.431
 6130SOL    HW119289   4.581   2.654   2.338
 6130SOL    HW219290   4.711   2.686   2.431
 6131SOL     OW19291   0.375   1.642   3.457
 6131SOL    HW119292   0.358   1.558   3.508
 6131SOL    HW219293   0.380   1.719   3.520
 6132SOL     OW19294   3.812   1.712   6.976
 6132SOL    HW119295   3.765   1.737   0.046
 6132SOL    HW219296   3.911   1.719   6.989
 6133SOL     OW19297   2.106   3.693   3.264
 6133SOL    HW119298   2.165   3.753   3.318
 6133SOL    HW219299   2.066   3.744   3.188
 6134SOL     OW19300   4.258   5.789   6.664
 6134SOL    HW119301   4.251   5.696   6.628
 6134SOL    HW219302   4.185   5.846   6.625
 6135SOL     OW19303   0.190   6.129   1.061
 6135SOL    HW119304   0.184   6.227   1.043
 6135SOL    HW219305   0.274   6.109   1.110
 6136SOL     OW19306   1.343   2.923   1.783
 6136SOL    HW119307   1.287   2.851   1.823
 6136SOL    HW219308   1.440   2.903   1.799
 6137SOL     OW19309   6.822   4.082   2.353
 6137SOL    HW119310   6.839   4.040   2.264
 6137SOL    HW219311   6.909   4.098   2.399
 6138SOL     OW19312   3.639   0.282   3.173
 6138SOL    HW119313   3.701   0.234   3.111
 6138SOL    HW219314   3.680   0.287   3.264
 6139SOL     OW19315   0.748   0.233   5.758
 6139SOL    HW119316   0.728   0.167   5.830
 6139SOL    HW219317   0.823   0.292   5.788
 6140SOL     OW19318   0.975   0.568   2.108
 6140SOL    HW119319   1.018   0.510   2.039
 6140SOL    HW219320   1.008   0.661   2.099
 6141SOL     OW19321   0.634   0.027   6.023
 6141SOL    HW119322   0.593   6.962   6.067
 6141SOL    HW219323   0.705   0.065   6.083
 6142SOL     OW19324   6.995   6.054   6.334
 6142SOL    HW119325   6.917   5.999   6.303
 6142SOL    HW219326   6.975   6.151   6.320
 6143SOL     OW19327   6.668   3.903   1.040
 6143SOL    HW119328   6.612   3.903   1.123
 6143SOL    HW219329   6.648   3.986   0.988
 6144SOL     OW19330   5.646   5.078   4.203
 6144SOL    HW119331   5.554   5.087   4.165
 6144SOL    HW219332   5.640   5.043   4.296
 6145SOL     OW19333   5.747   5.208   3.981
 6145SOL    HW119334   5.741   5.298   4.025
 6145SOL    HW219335   5.718   5.138   4.046
 6146SOL     OW19336   3.099   5.447   4.025
 6146SOL    HW119337   3.081   5.500   4.107
 6146SOL    HW219338   3.171   5.491   3.972
 6147SOL     OW19339   2.364   2.664   5.232
 6147SOL    HW119340   2.419   2.733   5.277
 6147SOL    HW219341   2.302   2.707   5.166
 6148SOL     OW19342   4.213   6.626   4.842
 6148SOL    HW119343   4.188   6.566   4.918
 6148SOL    HW219344   4.229   6.718   4.877
 6149SOL     OW19345   2.660   6.998   1.591
 6149SOL    HW119346   2.672   6.901   1.613
 6149SOL    HW219347   2.580   7.008   1.532
 6150SOL     OW19348   5.929   4.457   0.185
 6150SOL    HW119349   5.994   4.385   0.161
 6150SOL    HW219350   5.855   4.459   0.118
 6151SOL     OW19351   6.519   4.669   5.978
 6151SOL    HW119352   6.488   4.594   6.036
 6151SOL    HW219353   6.441   4.711   5.932
 6152SOL     OW19354   0.759   6.213   4.391
 6152SOL    HW119355   0.735   6.123   4.353
 6152SOL    HW219356   0.856   6.230   4.375
 6153SOL     OW19357   5.605   4.866   1.137
 6153SOL    HW119358   5.600   4.771   1.105
 6153SOL    HW219359   5.684   4.876   1.198
 6154SOL     OW19360   6.274   2.522   1.950
 6154SOL    HW119361   6.303   2.438   1.996
 6154SOL    HW219362   6.178   2.514   1.923
 6155SOL     OW19363   2.373   1.375   3.257
 6155SOL    HW119364   2.311   1.305   3.293
 6155SOL    HW219365   2.401   1.349   3.164
 6156SOL     OW19366   4.818   4.391   2.283
 6156SOL    HW119367   4.804   4.300   2.246
 6156SOL    HW219368   4.907   4.395   2.329
 6157SOL     OW19369   6.778   2.420   3.276
 6157SOL    HW119370   6.875   2.443   3.269
 6157SOL    HW219371   6.767   2.336   3.330
 6158SOL     OW19372   3.860   1.874   6.742
 6158SOL    HW119373   3.936   1.810   6.743
 6158SOL    HW219374   3.797   1.853   6.817
 6159SOL     OW19375   4.153   1.837   0.517
 6159SOL    HW119376   4.149   1.893   0.600
 6159SOL    HW219377   4.076   1.859   0.458
 6160SOL     OW19378   5.460   0.442   6.839
 6160SOL    HW119379   5.494   0.535   6.819
 6160SOL    HW219380   5.535   0.377   6.829
 6161SOL     OW19381   5.684   1.564   6.614
 6161SOL    HW119382   5.673   1.481   6.669
 6161SOL    HW219383   5.749   1.625   6.658
 6162SOL     OW19384   6.214   0.110   4.145
 6162SOL    HW119385   6.215   0.209   4.154
 6162SOL    HW219386   6.298   0.071   4.184
 6163SOL     OW19387   5.532   6.100   1.316
 6163SOL    HW119388   5.590   6.073   1.239
 6163SOL    HW219389   5.589   6.109   1.399
 6164SOL     OW19390   3.177   4.048   4.185
 6164SOL    HW119391   3.241   4.106   4.233
 6164SOL    HW219392   3.118   4.000   4.250
 6165SOL     OW19393   4.051   1.419   6.396
 6165SOL    HW119394   4.100   1.502   6.370
 6165SOL    HW219395   4.081   1.389   6.487
 6166SOL     OW19396   5.277   1.476   0.285
 6166SOL    HW119397   5.372   1.504   0.279
 6166SOL    HW219398   5.262   1.394   0.231
 6167SOL     OW19399   0.937   4.497   2.835
 6167SOL    HW119400   0.871   4.512   2.909
 6167SOL    HW219401   0.949   4.399   2.821
 6168SOL     OW19402   1.390   3.387   3.329
 6168SOL    HW119403   1.422   3.452   3.398
 6168SOL    HW219404   1.362   3.437   3.247
 6169SOL     OW19405   1.212   2.019   0.572
 6169SOL    HW119406   1.263   2.021   0.658
 6169SOL    HW219407   1.119   1.985   0.589
 6170SOL     OW19408   3.016   3.875   5.845
 6170SOL    HW119409   2.975   3.909   5.760
 6170SOL    HW219410   3.111   3.905   5.850
 6171SOL     OW19411   1.819   3.755   1.179
 6171SOL    HW119412   1.877   3.770   1.259
 6171SOL    HW219413   1.738   3.815   1.184
 6172SOL     OW19414   1.556   1.105   3.848
 6172SOL    HW119415   1.584   1.010   3.829
 6172SOL    HW219416   1.521   1.110   3.941
 6173SOL     OW19417   6.594   5.328   2.730
 6173SOL    HW119418   6.635   5.307   2.641
 6173SOL    HW219419   6.640   5.408   2.770
 6174SOL     OW19420   6.151   5.431   2.841
 6174SOL    HW119421   6.207   5.349   2.831
 6174SOL    HW219422   6.054   5.407   2.835
 6175SOL     OW19423   4.827   1.112   3.406
 6175SOL    HW119424   4.899   1.116   3.337
 6175SOL    HW219425   4.747   1.162   3.375
 6176SOL     OW19426   6.350   3.018   0.213
 6176SOL    HW119427   6.252   3.013   0.232
 6176SOL    HW219428   6.394   3.082   0.276
 6177SOL     OW19429   5.251   1.659   1.402
 6177SOL    HW119430   5.225   1.656   1.498
 6177SOL    HW219431   5.228   1.749   1.364
 6178SOL     OW19432   4.822   4.949   2.985
 6178SOL    HW119433   4.849   5.038   2.947
 6178SOL    HW219434   4.724   4.950   3.004
 6179SOL     OW19435   6.370   4.669   4.494
 6179SOL    HW119436   6.338   4.609   4.568
 6179SOL    HW219437   6.315   4.752   4.493
 6180SOL     OW19438   3.842   5.556   0.236
 6180SOL    HW119439   3.809   5.462   0.245
 6180SOL    HW219440   3.845   5.580   0.139
 6181SOL     OW19441   4.434   6.590   1.084
 6181SOL    HW119442   4.440   6.508   1.027
 6181SOL    HW219443   4.341   6.628   1.077
 6182SOL     OW19444   5.963   3.278   6.168
 6182SOL    HW119445   5.883   3.254   6.223
 6182SOL    HW219446   5.974   3.378   6.167
 6183SOL     OW19447   1.892   0.463   3.056
 6183SOL    HW119448   1.970   0.408   3.085
 6183SOL    HW219449   1.855   0.425   2.971
 6184SOL     OW19450   1.339   0.047   6.419
 6184SOL    HW119451   1.314   0.089   6.506
 6184SOL    HW219452   1.341   0.118   6.348
 6185SOL     OW19453   0.426   4.328   6.479
 6185SOL    HW119454   0.494   4.257   6.461
 6185SOL    HW219455   0.472   4.416   6.490
 6186SOL     OW19456   6.088   6.665   5.279
 6186SOL    HW119457   6.047   6.586   5.233
 6186SOL    HW219458   6.035   6.686   5.362
 6187SOL     OW19459   4.246   5.064   3.761
 6187SOL    HW119460   4.257   5.028   3.853
 6187SOL    HW219461   4.241   4.988   3.696
 6188SOL     OW19462   2.322   0.513   0.613
 6188SOL    HW119463   2.323   0.487   0.710
 6188SOL    HW219464   2.308   0.611   0.605
 6189SOL     OW19465   4.767   3.979   4.357
 6189SOL    HW119466   4.828   3.909   4.320
 6189SOL    HW219467   4.716   4.021   4.282
 6190SOL     OW19468   6.768   3.804   5.870
 6190SOL    HW119469   6.799   3.730   5.930
 6190SOL    HW219470   6.695   3.855   5.916
 6191SOL     OW19471   3.870   2.767   6.848
 6191SOL    HW119472   3.957   2.729   6.880
 6191SOL    HW219473   3.808   2.693   6.825
 6192SOL     OW19474   2.940   2.833   6.454
 6192SOL    HW119475   3.034   2.856   6.427
 6192SOL    HW219476   2.896   2.783   6.379
 6193SOL     OW19477   5.558   0.983   2.518
 6193SOL    HW119478   5.609   0.898   2.532
 6193SOL    HW219479   5.472   0.964   2.470
 6194SOL     OW19480   1.120   0.317   0.832
 6194SOL    HW119481   1.124   0.412   0.860
 6194SOL    HW219482   1.090   0.311   0.736
 6195SOL     OW19483   4.077   6.487   5.069
 6195SOL    HW119484   4.086   6.392   5.098
 6195SOL    HW219485   4.038   6.542   5.143
 6196SOL     OW19486   6.045   2.041   1.306
 6196SOL    HW119487   6.048   1.993   1.394
 6196SOL    HW219488   5.951   2.038   1.271
 6197SOL     OW19489   4.328   4.663   0.233
 6197SOL    HW119490   4.261   4.723   0.276
 6197SOL    HW219491   4.421   4.694   0.256
 6198SOL     OW19492   2.939   5.685   2.334
 6198SOL    HW119493   2.937   5.591   2.300
 6198SOL    HW219494   2.914   5.686   2.431
 6199SOL     OW19495   1.120   0.602   0.731
 6199SOL    HW119496   1.197   0.626   0.790
 6199SOL    HW219497   1.049   0.673   0.737
 6200SOL     OW19498   1.765   1.245   5.335
 6200SOL    HW119499   1.835   1.311   5.361
 6200SOL    HW219500   1.724   1.272   5.247
 6201SOL     OW19501   1.431   4.127   4.647
 6201SOL    HW119502   1.431   4.033   4.681
 6201SOL    HW219503   1.509   4.141   4.587
 6202SOL     OW19504   4.142   1.509   2.175
 6202SOL    HW119505   4.102   1.595   2.143
 6202SOL    HW219506   4.102   1.432   2.125
 6203SOL     OW19507   6.326   6.780   3.087
 6203SOL    HW119508   6.263   6.844   3.131
 6203SOL    HW219509   6.390   6.830   3.029
 6204SOL     OW19510   1.365   5.313   4.573
 6204SOL    HW119511   1.286   5.372   4.555
 6204SOL    HW219512   1.340   5.244   4.641
 6205SOL     OW19513   6.505   6.405   0.163
 6205SOL    HW119514   6.604   6.419   0.154
 6205SOL    HW219515   6.469   6.465   0.234
 6206SOL     OW19516   0.034   0.694   2.280
 6206SOL    HW119517   6.996   0.658   2.204
 6206SOL    HW219518   7.002   0.773   2.319
 6207SOL     OW19519   1.444   5.239   4.308
 6207SOL    HW119520   1.537   5.202   4.311
 6207SOL    HW219521   1.417   5.269   4.400
 6208SOL     OW19522   5.730   1.623   6.215
 6208SOL    HW119523   5.715   1.722   6.226
 6208SOL    HW219524   5.828   1.605   6.213
 6209SOL     OW19525   4.436   5.716   0.012
 6209SOL    HW119526   4.454   5.619   0.024
 6209SOL    HW219527   4.519   5.763   6.997
 6210SOL     OW19528   5.310   3.931   3.334
 6210SOL    HW119529   5.398   3.966   3.303
 6210SOL    HW219530   5.320   3.894   3.426
 6211SOL     OW19531   2.911   6.153   5.736
 6211SOL    HW119532   2.817   6.141   5.705
 6211SOL    HW219533   2.952   6.232   5.690
 6212SOL     OW19534   2.009   4.783   2.840
 6212SOL    HW119535   1.935   4.784   2.908
 6212SOL    HW219536   1.985   4.844   2.765
 6213SOL     OW19537   5.660   0.237   6.811
 6213SOL    HW119538   5.738   0.268   6.757
 6213SOL    HW219539   5.668   0.139   6.828
 6214SOL     OW19540   4.484   4.935   4.328
 6214SOL    HW119541   4.391   4.969   4.337
 6214SOL    HW219542   4.516   4.898   4.415
 6215SOL     OW19543   4.205   1.560   1.414
 6215SOL    HW119544   4.238   1.523   1.501
 6215SOL    HW219545   4.237   1.503   1.339
 6216SOL     OW19546   6.057   1.806   1.907
 6216SOL    HW119547   6.039   1.714   1.943
 6216SOL    HW219548   5.978   1.865   1.923
 6217SOL     OW19549   0.644   2.834   2.301
 6217SOL    HW119550   0.661   2.927   2.267
 6217SOL    HW219551   0.678   2.826   2.395
 6218SOL     OW19552   3.772   4.965   5.262
 6218SOL    HW119553   3.857   4.916   5.242
 6218SOL    HW219554   3.791   5.063   5.268
 6219SOL     OW19555   0.668   2.117   4.374
 6219SOL    HW119556   0.658   2.216   4.378
 6219SOL    HW219557   0.765   2.093   4.371
 6220SOL     OW19558   1.474   2.736   5.020
 6220SOL    HW119559   1.500   2.640   5.034
 6220SOL    HW219560   1.414   2.765   5.094
 6221SOL     OW19561   6.116   5.838   0.016
 6221SOL    HW119562   6.167   5.755   7.005
 6221SOL    HW219563   6.157   5.917   6.986
 6222SOL     OW19564   0.657   6.229   1.050
 6222SOL    HW119565   0.627   6.322   1.029
 6222SOL    HW219566   0.579   6.176   1.085
 6223SOL     OW19567   0.461   4.811   4.002
 6223SOL    HW119568   0.449   4.712   4.012
 6223SOL    HW219569   0.421   4.857   4.082
 6224SOL     OW19570   2.479   1.644   6.072
 6224SOL    HW119571   2.527   1.688   6.149
 6224SOL    HW219572   2.450   1.553   6.100
 6225SOL     OW19573   3.337   4.078   0.309
 6225SOL    HW119574   3.310   4.142   0.382
 6225SOL    HW219575   3.318   3.984   0.338
 6226SOL     OW19576   5.887   1.523   5.084
 6226SOL    HW119577   5.860   1.611   5.046
 6226SOL    HW219578   5.894   1.456   5.010
 6227SOL     OW19579   3.898   5.716   5.598
 6227SOL    HW119580   3.838   5.643   5.632
 6227SOL    HW219581   3.851   5.804   5.602
 6228SOL     OW19582   1.256   2.520   3.293
 6228SOL    HW119583   1.189   2.445   3.297
 6228SOL    HW219584   1.209   2.607   3.308
 6229SOL     OW19585   0.168   2.325   3.021
 6229SOL    HW119586   0.265   2.340   3.040
 6229SOL    HW219587   0.155   2.313   2.923
 6230SOL     OW19588   1.402   1.299   3.738
 6230SOL    HW119589   1.454   1.365   3.683
 6230SOL    HW219590   1.458   1.219   3.757
 6231SOL     OW19591   6.011   5.170   0.983
 6231SOL    HW119592   6.073   5.094   0.963
 6231SOL    HW219593   5.917   5.136   0.986
 6232SOL     OW19594   6.567   0.907   0.753
 6232SOL    HW119595   6.553   0.900   0.654
 6232SOL    HW219596   6.482   0.882   0.800
 6233SOL     OW19597   6.407   0.537   0.466
 6233SOL    HW119598   6.390   0.632   0.493
 6233SOL    HW219599   6.344   0.512   0.392
 6234SOL     OW19600   6.229   1.445   5.643
 6234SOL    HW119601   6.141   1.444   5.596
 6234SOL    HW219602   6.218   1.413   5.737
 6235SOL     OW19603   1.254   0.172   1.868
 6235SOL    HW119604   1.233   0.258   1.820
 6235SOL    HW219605   1.326   0.188   1.935
 6236SOL     OW19606   0.501   3.926   0.766
 6236SOL    HW119607   0.466   3.835   0.790
 6236SOL    HW219608   0.595   3.935   0.797
 6237SOL     OW19609   3.569   6.367   0.025
 6237SOL    HW119610   3.630   6.301   6.995
 6237SOL    HW219611   3.611   6.458   0.022
 6238SOL     OW19612   4.313   5.016   2.978
 6238SOL    HW119613   4.366   4.990   3.058
 6238SOL    HW219614   4.362   5.087   2.927
 6239SOL     OW19615   3.069   6.672   2.335
 6239SOL    HW119616   3.093   6.730   2.413
 6239SOL    HW219617   3.013   6.724   2.271
 6240SOL     OW19618   2.876   2.944   6.005
 6240SOL    HW119619   2.804   3.000   5.964
 6240SOL    HW219620   2.911   2.989   6.087
 6241SOL     OW19621   3.673   0.253   1.962
 6241SOL    HW119622   3.709   0.314   2.033
 6241SOL    HW219623   3.713   0.277   1.874
 6242SOL     OW19624   5.635   1.405   3.239
 6242SOL    HW119625   5.569   1.333   3.261
 6242SOL    HW219626   5.675   1.440   3.323
 6243SOL     OW19627   6.169   6.976   3.921
 6243SOL    HW119628   6.242   6.956   3.856
 6243SOL    HW219629   6.201   0.026   3.989
 6244SOL     OW19630   0.836   2.564   2.672
 6244SOL    HW119631   0.924   2.563   2.623
 6244SOL    HW219632   0.852   2.542   2.768
 6245SOL     OW19633   1.580   3.813   0.188
 6245SOL    HW119634   1.551   3.881   0.256
 6245SOL    HW219635   1.574   3.721   0.228
 6246SOL     OW19636   1.658   2.288   5.633
 6246SOL    HW119637   1.651   2.270   5.535
 6246SOL    HW219638   1.601   2.222   5.683
 6247SOL     OW19639   1.521   6.202   4.686
 6247SOL    HW119640   1.461   6.268   4.731
 6247SOL    HW219641   1.508   6.111   4.726
 6248SOL     OW19642   3.265   3.156   0.166
 6248SOL    HW119643   3.361   3.125   0.164
 6248SOL    HW219644   3.232   3.156   0.260
 6249SOL     OW19645   0.321   4.126   1.038
 6249SOL    HW119646   0.391   4.196   1.023
 6249SOL    HW219647   0.358   4.052   1.094
 6250SOL     OW19648   6.747   5.904   0.189
 6250SOL    HW119649   6.748   5.935   0.284
 6250SOL    HW219650   6.820   5.950   0.138
 6251SOL     OW19651   3.609   5.271   6.962
 6251SOL    HW119652   3.626   5.197   0.012
 6251SOL    HW219653   3.594   5.356   7.012
 6252SOL     OW19654   1.333   6.876   5.681
 6252SOL    HW119655   1.238   6.846   5.669
 6252SOL    HW219656   1.383   6.806   5.731
 6253SOL     OW19657   2.172   3.849   2.914
 6253SOL    HW119658   2.214   3.908   2.845
 6253SOL    HW219659   2.090   3.805   2.876
 6254SOL     OW19660   4.866   1.777   0.456
 6254SOL    HW119661   4.810   1.856   0.435
 6254SOL    HW219662   4.817   1.693   0.430
 6255SOL     OW19663   2.884   0.042   0.980
 6255SOL    HW119664   2.858   0.023   0.886
 6255SOL    HW219665   2.855   0.134   1.005
 6256SOL     OW19666   3.549   5.107   2.407
 6256SOL    HW119667   3.486   5.181   2.383
 6256SOL    HW219668   3.560   5.046   2.328
 6257SOL     OW19669   4.685   2.330   0.067
 6257SOL    HW119670   4.591   2.301   0.046
 6257SOL    HW219671   4.717   2.281   0.148
 6258SOL     OW19672   4.006   0.249   3.947
 6258SOL    HW119673   4.104   0.232   3.944
 6258SOL    HW219674   3.968   0.240   3.855
 6259SOL     OW19675   2.441   2.326   0.877
 6259SOL    HW119676   2.386   2.262   0.823
 6259SOL    HW219677   2.500   2.274   0.939
 6260SOL     OW19678   3.148   5.773   0.673
 6260SOL    HW119679   3.102   5.786   0.761
 6260SOL    HW219680   3.080   5.753   0.603
 6261SOL     OW19681   4.168   0.522   6.317
 6261SOL    HW119682   4.197   0.548   6.225
 6261SOL    HW219683   4.070   0.503   6.317
 6262SOL     OW19684   1.836   5.938   0.420
 6262SOL    HW119685   1.843   6.035   0.395
 6262SOL    HW219686   1.898   5.885   0.362
 6263SOL     OW19687   6.626   0.323   5.115
 6263SOL    HW119688   6.556   0.257   5.143
 6263SOL    HW219689   6.673   0.356   5.197
 6264SOL     OW19690   1.466   6.623   2.475
 6264SOL    HW119691   1.414   6.613   2.560
 6264SOL    HW219692   1.538   6.691   2.487
 6265SOL     OW19693   3.150   4.411   0.485
 6265SOL    HW119694   3.181   4.506   0.498
 6265SOL    HW219695   3.134   4.394   0.388
 6266SOL     OW19696   3.865   0.761   4.809
 6266SOL    HW119697   3.901   0.726   4.723
 6266SOL    HW219698   3.922   0.837   4.840
 6267SOL     OW19699   2.511   0.784   6.519
 6267SOL    HW119700   2.420   0.768   6.556
 6267SOL    HW219701   2.541   0.705   6.465
 6268SOL     OW19702   3.327   0.197   3.685
 6268SOL    HW119703   3.389   0.135   3.733
 6268SOL    HW219704   3.234   0.185   3.719
 6269SOL     OW19705   6.746   6.106   1.582
 6269SOL    HW119706   6.831   6.084   1.631
 6269SOL    HW219707   6.746   6.059   1.494
 6270SOL     OW19708   1.623   0.340   4.955
 6270SOL    HW119709   1.602   0.437   4.946
 6270SOL    HW219710   1.696   0.328   5.022
 6271SOL     OW19711   6.195   2.242   6.549
 6271SOL    HW119712   6.168   2.265   6.643
 6271SOL    HW219713   6.268   2.174   6.551
 6272SOL     OW19714   0.453   2.313   0.088
 6272SOL    HW119715   0.499   2.388   0.040
 6272SOL    HW219716   0.455   2.330   0.186
 6273SOL     OW19717   1.821   6.729   2.569
 6273SOL    HW119718   1.744   6.789   2.590
 6273SOL    HW219719   1.835   6.664   2.645
 6274SOL     OW19720   2.751   5.906   6.062
 6274SOL    HW119721   2.782   5.821   6.105
 6274SOL    HW219722   2.830   5.961   6.034
 6275SOL     OW19723   1.663   6.338   5.452
 6275SOL    HW119724   1.574   6.383   5.453
 6275SOL    HW219725   1.655   6.247   5.413
 6276SOL     OW19726   2.179   4.225   3.002
 6276SOL    HW119727   2.118   4.167   2.948
 6276SOL    HW219728   2.232   4.284   2.941
 6277SOL     OW19729   5.512   3.333   1.913
 6277SOL    HW119730   5.459   3.313   1.830
 6277SOL    HW219731   5.488   3.268   1.985
 6278SOL     OW19732   5.318   6.440   4.181
 6278SOL    HW119733   5.245   6.494   4.140
 6278SOL    HW219734   5.284   6.349   4.204
 6279SOL     OW19735   4.172   0.076   6.730
 6279SOL    HW119736   4.246   0.057   6.666
 6279SOL    HW219737   4.104   0.135   6.686
 6280SOL     OW19738   1.145   2.503   5.405
 6280SOL    HW119739   1.191   2.434   5.461
 6280SOL    HW219740   1.095   2.459   5.331
 6281SOL     OW19741   1.191   5.176   3.286
 6281SOL    HW119742   1.193   5.231   3.202
 6281SOL    HW219743   1.280   5.132   3.299
 6282SOL     OW19744   1.191   6.586   4.782
 6282SOL    HW119745   1.178   6.631   4.870
 6282SOL    HW219746   1.221   6.653   4.714
 6283SOL     OW19747   7.006   3.094   5.844
 6283SOL    HW119748   7.004   3.027   5.770
 6283SOL    HW219749   0.079   3.142   5.843
 6284SOL     OW19750   1.922   5.693   4.762
 6284SOL    HW119751   1.873   5.668   4.845
 6284SOL    HW219752   1.946   5.790   4.766
 6285SOL     OW19753   0.284   3.135   4.975
 6285SOL    HW119754   0.291   3.234   4.966
 6285SOL    HW219755   0.266   3.094   4.886
 6286SOL     OW19756   6.530   2.140   3.089
 6286SOL    HW119757   6.450   2.088   3.059
 6286SOL    HW219758   6.513   2.238   3.074
 6287SOL     OW19759   3.574   4.937   3.836
 6287SOL    HW119760   3.639   4.895   3.773
 6287SOL    HW219761   3.488   4.954   3.788
 6288SOL     OW19762   5.010   4.774   2.467
 6288SOL    HW119763   5.076   4.849   2.471
 6288SOL    HW219764   4.996   4.748   2.372
 6289SOL     OW19765   1.922   4.619   1.789
 6289SOL    HW119766   1.882   4.527   1.793
 6289SOL    HW219767   1.923   4.651   1.695
 6290SOL     OW19768   6.673   4.253   4.823
 6290SOL    HW119769   6.678   4.313   4.903
 6290SOL    HW219770   6.634   4.303   4.746
 6291SOL     OW19771   3.928   3.051   4.658
 6291SOL    HW119772   3.839   3.088   4.633
 6291SOL    HW219773   3.979   3.028   4.575
 6292SOL     OW19774   1.682   2.363   4.120
 6292SOL    HW119775   1.662   2.265   4.112
 6292SOL    HW219776   1.601   2.411   4.151
 6293SOL     OW19777   3.555   0.421   0.044
 6293SOL    HW119778   3.641   0.473   0.042
 6293SOL    HW219779   3.479   0.484   0.031
 6294SOL     OW19780   3.931   5.014   4.830
 6294SOL    HW119781   3.919   5.040   4.734
 6294SOL    HW219782   3.844   4.979   4.866
 6295SOL     OW19783   5.803   4.635   5.669
 6295SOL    HW119784   5.805   4.536   5.679
 6295SOL    HW219785   5.755   4.675   5.747
 6296SOL     OW19786   0.153   0.128   6.204
 6296SOL    HW119787   0.192   0.065   6.271
 6296SOL    HW219788   0.221   0.196   6.178
 6297SOL     OW19789   4.766   6.535   4.443
 6297SOL    HW119790   4.670   6.542   4.413
 6297SOL    HW219791   4.769   6.526   4.542
 6298SOL     OW19792   1.182   2.779   6.664
 6298SOL    HW119793   1.201   2.773   6.762
 6298SOL    HW219794   1.107   2.844   6.648
 6299SOL     OW19795   5.200   1.642   0.086
 6299SOL    HW119796   5.219   1.593   0.171
 6299SOL    HW219797   5.283   1.690   0.056
 6300SOL     OW19798   6.115   0.228   0.498
 6300SOL    HW119799   6.194   0.246   0.557
 6300SOL    HW219800   6.053   0.306   0.501
 6301SOL     OW19801   4.024   0.453   0.623
 6301SOL    HW119802   3.931   0.481   0.648
 6301SOL    HW219803   4.078   0.535   0.603
 6302SOL     OW19804   1.996   0.457   3.447
 6302SOL    HW119805   1.911   0.492   3.406
 6302SOL    HW219806   2.036   0.527   3.506
 6303SOL     OW19807   1.619   1.519   4.350
 6303SOL    HW119808   1.683   1.526   4.426
 6303SOL    HW219809   1.569   1.605   4.341
 6304SOL     OW19810   2.312   1.571   1.340
 6304SOL    HW119811   2.297   1.536   1.433
 6304SOL    HW219812   2.290   1.500   1.274
 6305SOL     OW19813   5.667   0.106   1.831
 6305SOL    HW119814   5.635   0.022   1.788
 6305SOL    HW219815   5.611   0.183   1.800
 6306SOL     OW19816   0.323   3.783   4.627
 6306SOL    HW119817   0.339   3.715   4.555
 6306SOL    HW219818   0.293   3.869   4.585
 6307SOL     OW19819   3.921   4.141   5.498
 6307SOL    HW119820   3.966   4.114   5.583
 6307SOL    HW219821   3.987   4.139   5.423
 6308SOL     OW19822   2.087   2.436   4.353
 6308SOL    HW119823   2.175   2.411   4.394
 6308SOL    HW219824   2.027   2.356   4.352
 6309SOL     OW19825   5.410   4.951   5.193
 6309SOL    HW119826   5.396   4.863   5.149
 6309SOL    HW219827   5.466   4.939   5.275
 6310SOL     OW19828   1.626   5.848   3.247
 6310SOL    HW119829   1.679   5.927   3.214
 6310SOL    HW219830   1.671   5.808   3.326
 6311SOL     OW19831   4.519   0.562   6.206
 6311SOL    HW119832   4.469   0.649   6.205
 6311SOL    HW219833   4.558   0.546   6.296
 6312SOL     OW19834   5.975   5.689   5.494
 6312SOL    HW119835   5.925   5.697   5.580
 6312SOL    HW219836   6.065   5.732   5.503
 6313SOL     OW19837   1.563   6.701   4.370
 6313SOL    HW119838   1.566   6.672   4.274
 6313SOL    HW219839   1.476   6.674   4.410
 6314SOL     OW19840   3.815   6.102   1.716
 6314SOL    HW119841   3.790   6.169   1.785
 6314SOL    HW219842   3.891   6.138   1.661
 6315SOL     OW19843   2.148   2.575   5.727
 6315SOL    HW119844   2.236   2.621   5.717
 6315SOL    HW219845   2.077   2.644   5.741
 6316SOL     OW19846   4.605   1.248   6.919
 6316SOL    HW119847   4.513   1.220   6.893
 6316SOL    HW219848   4.661   1.260   6.837
 6317SOL     OW19849   4.623   5.837   2.845
 6317SOL    HW119850   4.680   5.914   2.816
 6317SOL    HW219851   4.646   5.756   2.791
 6318SOL     OW19852   3.842   1.755   4.885
 6318SOL    HW119853   3.802   1.684   4.943
 6318SOL    HW219854   3.896   1.713   4.812
 6319SOL     OW19855   6.778   1.609   4.146
 6319SOL    HW119856   6.716   1.533   4.130
 6319SOL    HW219857   6.731   1.696   4.129
 6320SOL     OW19858   5.860   5.810   5.177
 6320SOL    HW119859   5.774   5.759   5.171
 6320SOL    HW219860   5.917   5.787   5.099
 6321SOL     OW19861   3.244   3.359   0.845
 6321SOL    HW119862   3.162   3.338   0.899
 6321SOL    HW219863   3.267   3.456   0.857
 6322SOL     OW19864   1.661   2.323   0.135
 6322SOL    HW119865   1.725   2.251   0.163
 6322SOL    HW219866   1.577   2.280   0.101
 6323SOL     OW19867   3.621   2.606   1.398
 6323SOL    HW119868   3.602   2.683   1.459
 6323SOL    HW219869   3.644   2.525   1.452
 6324SOL     OW19870   5.304   6.898   6.390
 6324SOL    HW119871   5.388   6.849   6.413
 6324SOL    HW219872   5.239   6.836   6.346
 6325SOL     OW19873   2.661   1.790   2.474
 6325SOL    HW119874   2.718   1.858   2.519
 6325SOL    HW219875   2.598   1.749   2.540
 6326SOL     OW19876   4.790   5.186   1.835
 6326SOL    HW119877   4.785   5.158   1.931
 6326SOL    HW219878   4.765   5.109   1.777
 6327SOL     OW19879   6.804   0.286   4.612
 6327SOL    HW119880   6.807   0.206   4.551
 6327SOL    HW219881   6.897   0.305   4.645
 6328SOL     OW19882   2.853   3.141   0.660
 6328SOL    HW119883   2.891   3.143   0.752
 6328SOL    HW219884   2.898   3.068   0.607
 6329SOL     OW19885   2.446   2.281   3.641
 6329SOL    HW119886   2.370   2.307   3.701
 6329SOL    HW219887   2.518   2.350   3.647
 6330SOL     OW19888   4.840   0.878   1.240
 6330SOL    HW119889   4.804   0.915   1.326
 6330SOL    HW219890   4.852   0.779   1.249
 6331SOL     OW19891   6.430   2.046   6.517
 6331SOL    HW119892   6.475   2.043   6.427
 6331SOL    HW219893   6.479   2.110   6.576
 6332SOL     OW19894   6.049   3.382   1.645
 6332SOL    HW119895   6.018   3.454   1.707
 6332SOL    HW219896   6.148   3.374   1.649
 6333SOL     OW19897   4.870   5.572   5.344
 6333SOL    HW119898   4.956   5.592   5.297
 6333SOL    HW219899   4.868   5.475   5.369
 6334SOL     OW19900   3.223   0.506   1.513
 6334SOL    HW119901   3.161   0.449   1.565
 6334SOL    HW219902   3.176   0.540   1.431
 6335SOL     OW19903   4.293   1.120   0.496
 6335SOL    HW119904   4.317   1.039   0.443
 6335SOL    HW219905   4.293   1.200   0.436
 6336SOL     OW19906   0.761   2.399   5.717
 6336SOL    HW119907   0.789   2.318   5.769
 6336SOL    HW219908   0.842   2.440   5.674
 6337SOL     OW19909   5.117   3.842   6.269
 6337SOL    HW119910   5.134   3.750   6.302
 6337SOL    HW219911   5.105   3.841   6.170
 6338SOL     OW19912   3.897   1.862   4.240
 6338SOL    HW119913   3.947   1.780   4.215
 6338SOL    HW219914   3.798   1.844   4.235
 6339SOL     OW19915   1.309   3.819   2.770
 6339SOL    HW119916   1.299   3.873   2.854
 6339SOL    HW219917   1.223   3.817   2.720
 6340SOL     OW19918   1.736   5.084   2.834
 6340SOL    HW119919   1.775   5.175   2.846
 6340SOL    HW219920   1.638   5.086   2.853
 6341SOL     OW19921   0.895   4.239   4.522
 6341SOL    HW119922   0.873   4.171   4.592
 6341SOL    HW219923   0.981   4.284   4.545
 6342SOL     OW19924   2.202   1.344   2.283
 6342SOL    HW119925   2.225   1.376   2.374
 6342SOL    HW219926   2.207   1.420   2.218
 6343SOL     OW19927   4.452   1.959   6.388
 6343SOL    HW119928   4.353   1.945   6.383
 6343SOL    HW219929   4.498   1.893   6.330
 6344SOL     OW19930   5.881   3.139   5.390
 6344SOL    HW119931   5.902   3.219   5.446
 6344SOL    HW219932   5.782   3.130   5.381
 6345SOL     OW19933   5.150   2.711   2.367
 6345SOL    HW119934   5.220   2.640   2.377
 6345SOL    HW219935   5.101   2.699   2.281
 6346SOL     OW19936   6.760   4.678   3.471
 6346SOL    HW119937   6.845   4.626   3.468
 6346SOL    HW219938   6.767   4.749   3.541
 6347SOL     OW19939   2.275   0.486   0.899
 6347SOL    HW119940   2.256   0.437   0.984
 6347SOL    HW219941   2.193   0.533   0.868
 6348SOL     OW19942   1.124   4.017   5.353
 6348SOL    HW119943   1.172   4.093   5.310
 6348SOL    HW219944   1.049   3.986   5.295
 6349SOL     OW19945   2.913   0.362   1.249
 6349SOL    HW119946   2.872   0.346   1.160
 6349SOL    HW219947   3.006   0.324   1.250
 6350SOL     OW19948   2.054   5.064   4.236
 6350SOL    HW119949   1.959   5.032   4.244
 6350SOL    HW219950   2.115   4.995   4.275
 6351SOL     OW19951   6.397   3.620   3.493
 6351SOL    HW119952   6.349   3.535   3.518
 6351SOL    HW219953   6.493   3.612   3.518
 6352SOL     OW19954   3.702   5.609   4.538
 6352SOL    HW119955   3.622   5.550   4.542
 6352SOL    HW219956   3.706   5.654   4.449
 6353SOL     OW19957   0.041   0.305   5.757
 6353SOL    HW119958   6.967   0.260   5.767
 6353SOL    HW219959   0.031   0.402   5.777
 6354SOL     OW19960   1.764   5.700   3.435
 6354SOL    HW119961   1.742   5.639   3.511
 6354SOL    HW219962   1.801   5.785   3.470
 6355SOL     OW19963   0.893   5.313   6.559
 6355SOL    HW119964   0.903   5.298   6.657
 6355SOL    HW219965   0.796   5.322   6.537
 6356SOL     OW19966   4.067   5.439   2.232
 6356SOL    HW119967   4.094   5.344   2.241
 6356SOL    HW219968   4.148   5.498   2.241
 6357SOL     OW19969   5.249   3.703   2.196
 6357SOL    HW119970   5.203   3.778   2.149
 6357SOL    HW219971   5.186   3.625   2.203
 6358SOL     OW19972   0.612   1.616   6.563
 6358SOL    HW119973   0.693   1.601   6.506
 6358SOL    HW219974   0.584   1.712   6.556
 6359SOL     OW19975   6.267   6.694   6.124
 6359SOL    HW119976   6.168   6.690   6.128
 6359SOL    HW219977   6.297   6.789   6.121
 6360SOL     OW19978   1.022   3.974   4.054
 6360SOL    HW119979   1.002   4.001   4.148
 6360SOL    HW219980   1.103   4.022   4.022
 6361SOL     OW19981   6.300   6.866   0.853
 6361SOL    HW119982   6.323   6.777   0.891
 6361SOL    HW219983   6.285   6.931   0.927
 6362SOL     OW19984   0.742   6.456   0.807
 6362SOL    HW119985   0.725   6.381   0.870
 6362SOL    HW219986   0.793   6.528   0.854
 6363SOL     OW19987   2.061   4.724   3.443
 6363SOL    HW119988   2.109   4.811   3.444
 6363SOL    HW219989   2.118   4.655   3.399
 6364SOL     OW19990   3.222   0.989   5.787
 6364SOL    HW119991   3.317   1.017   5.773
 6364SOL    HW219992   3.219   0.908   5.846
 6365SOL     OW19993   5.337   0.380   4.075
 6365SOL    HW119994   5.348   0.415   3.982
 6365SOL    HW219995   5.264   0.430   4.121
 6366SOL     OW19996   1.246   6.206   6.080
 6366SOL    HW119997   1.215   6.285   6.026
 6366SOL    HW219998   1.169   6.167   6.129
 6367SOL     OW19999   3.983   0.573   5.042
 6367SOL    HW120000   3.946   0.501   4.983
 6367SOL    HW220001   4.029   0.531   5.121
 6368SOL     OW20002   3.271   4.987   3.384
 6368SOL    HW120003   3.180   4.971   3.347
 6368SOL    HW220004   3.340   4.949   3.322
 6369SOL     OW20005   1.643   5.139   3.719
 6369SOL    HW120006   1.623   5.198   3.641
 6369SOL    HW220007   1.731   5.164   3.758
 6370SOL     OW20008   0.341   3.130   3.053
 6370SOL    HW120009   0.269   3.156   2.988
 6370SOL    HW220010   0.408   3.072   3.006
 6371SOL     OW20011   5.082   4.091   4.156
 6371SOL    HW120012   5.036   4.106   4.244
 6371SOL    HW220013   5.032   4.139   4.084
 6372SOL     OW20014   2.381   0.447   2.037
 6372SOL    HW120015   2.285   0.465   2.020
 6372SOL    HW220016   2.424   0.411   1.954
 6373SOL     OW20017   5.048   4.364   2.991
 6373SOL    HW120018   4.989   4.366   2.910
 6373SOL    HW220019   5.105   4.282   2.988
 6374SOL     OW20020   3.043   3.892   4.357
 6374SOL    HW120021   2.945   3.877   4.345
 6374SOL    HW220022   3.067   3.883   4.454
 6375SOL     OW20023   6.381   1.723   3.689
 6375SOL    HW120024   6.481   1.716   3.681
 6375SOL    HW220025   6.345   1.776   3.612
 6376SOL     OW20026   5.662   2.769   4.735
 6376SOL    HW120027   5.563   2.765   4.722
 6376SOL    HW220028   5.690   2.701   4.803
 6377SOL     OW20029   6.105   1.597   5.223
 6377SOL    HW120030   6.165   1.534   5.173
 6377SOL    HW220031   6.017   1.602   5.178
 6378SOL     OW20032   4.709   5.202   3.714
 6378SOL    HW120033   4.731   5.291   3.674
 6378SOL    HW220034   4.669   5.215   3.805
 6379SOL     OW20035   2.015   3.975   4.183
 6379SOL    HW120036   2.010   4.039   4.259
 6379SOL    HW220037   1.938   3.991   4.121
 6380SOL     OW20038   0.623   2.202   6.065
 6380SOL    HW120039   0.579   2.118   6.034
 6380SOL    HW220040   0.650   2.191   6.161
 6381SOL     OW20041   3.811   3.300   1.819
 6381SOL    HW120042   3.766   3.235   1.758
 6381SOL    HW220043   3.775   3.289   1.912
 6382SOL     OW20044   1.352   1.665   0.769
 6382SOL    HW120045   1.311   1.689   0.857
 6382SOL    HW220046   1.288   1.686   0.695
 6383SOL     OW20047   1.385   1.824   3.195
 6383SOL    HW120048   1.432   1.782   3.273
 6383SOL    HW220049   1.311   1.764   3.164
 6384SOL     OW20050   5.747   4.061   1.497
 6384SOL    HW120051   5.752   4.021   1.588
 6384SOL    HW220052   5.824   4.027   1.442
 6385SOL     OW20053   0.072   4.584   3.695
 6385SOL    HW120054   0.115   4.494   3.682
 6385SOL    HW220055   0.063   4.603   3.793
 6386SOL     OW20056   2.547   4.206   6.074
 6386SOL    HW120057   2.594   4.294   6.076
 6386SOL    HW220058   2.448   4.220   6.077
 6387SOL     OW20059   0.671   1.529   6.811
 6387SOL    HW120060   0.646   1.579   6.729
 6387SOL    HW220061   0.633   1.436   6.807
 6388SOL     OW20062   4.077   4.818   0.997
 6388SOL    HW120063   4.022   4.745   1.037
 6388SOL    HW220064   4.024   4.868   0.929
 6389SOL     OW20065   0.707   5.630   2.496
 6389SOL    HW120066   0.796   5.659   2.532
 6389SOL    HW220067   0.716   5.609   2.399
 6390SOL     OW20068   0.521   2.068   5.466
 6390SOL    HW120069   0.550   2.039   5.375
 6390SOL    HW220070   0.598   2.063   5.529
 6391SOL     OW20071   2.583   6.848   5.982
 6391SOL    HW120072   2.576   6.778   5.911
 6391SOL    HW220073   2.506   6.839   6.045
 6392SOL     OW20074   2.398   6.653   3.046
 6392SOL    HW120075   2.436   6.745   3.042
 6392SOL    HW220076   2.348   6.633   2.962
 6393SOL     OW20077   6.840   7.014   1.761
 6393SOL    HW120078   6.765   7.007   1.827
 6393SOL    HW220079   6.867   0.094   1.750
 6394SOL     OW20080   2.053   4.719   0.667
 6394SOL    HW120081   2.019   4.691   0.577
 6394SOL    HW220082   2.122   4.791   0.656
 6395SOL     OW20083   6.684   2.507   1.328
 6395SOL    HW120084   6.766   2.560   1.351
 6395SOL    HW220085   6.616   2.520   1.400
 6396SOL     OW20086   5.301   3.050   6.190
 6396SOL    HW120087   5.248   2.965   6.190
 6396SOL    HW220088   5.239   3.128   6.181
 6397SOL     OW20089   5.481   2.385   6.668
 6397SOL    HW120090   5.522   2.401   6.758
 6397SOL    HW220091   5.386   2.418   6.668
 6398SOL     OW20092   3.416   0.273   0.828
 6398SOL    HW120093   3.363   0.189   0.817
 6398SOL    HW220094   3.377   0.327   0.902
 6399SOL     OW20095   1.261   5.670   6.397
 6399SOL    HW120096   1.234   5.576   6.374
 6399SOL    HW220097   1.355   5.686   6.369
 6400SOL     OW20098   2.214   6.363   1.998
 6400SOL    HW120099   2.146   6.405   2.058
 6400SOL    HW220100   2.295   6.338   2.051
 6401SOL     OW20101   0.126   4.824   3.571
 6401SOL    HW120102   0.109   4.733   3.610
 6401SOL    HW220103   0.105   4.894   3.639
 6402SOL     OW20104   4.072   1.546   2.461
 6402SOL    HW120105   4.095   1.641   2.481
 6402SOL    HW220106   4.090   1.527   2.364
 6403SOL     OW20107   6.585   6.515   6.346
 6403SOL    HW120108   6.648   6.503   6.270
 6403SOL    HW220109   6.627   6.573   6.416
 6404SOL     OW20110   4.357   1.454   2.345
 6404SOL    HW120111   4.292   1.462   2.268
 6404SOL    HW220112   4.311   1.410   2.422
 6405SOL     OW20113   2.645   0.219   3.572
 6405SOL    HW120114   2.671   0.264   3.486
 6405SOL    HW220115   2.603   0.286   3.633
 6406SOL     OW20116   1.107   2.271   3.251
 6406SOL    HW120117   1.162   2.188   3.256
 6406SOL    HW220118   1.022   2.259   3.302
 6407SOL     OW20119   2.616   6.154   4.336
 6407SOL    HW120120   2.542   6.096   4.370
 6407SOL    HW220121   2.691   6.096   4.303
 6408SOL     OW20122   5.521   1.764   0.483
 6408SOL    HW120123   5.467   1.711   0.548
 6408SOL    HW220124   5.533   1.857   0.517
 6409SOL     OW20125   6.845   4.261   3.251
 6409SOL    HW120126   6.808   4.177   3.210
 6409SOL    HW220127   6.770   4.316   3.287
 6410SOL     OW20128   1.730   1.535   0.351
 6410SOL    HW120129   1.659   1.602   0.329
 6410SOL    HW220130   1.782   1.514   0.268
 6411SOL     OW20131   0.592   3.003   3.146
 6411SOL    HW120132   0.504   2.975   3.184
 6411SOL    HW220133   0.588   3.000   3.046
 6412SOL     OW20134   0.368   2.287   5.209
 6412SOL    HW120135   0.411   2.322   5.292
 6412SOL    HW220136   0.407   2.198   5.186
 6413SOL     OW20137   4.272   4.621   3.859
 6413SOL    HW120138   4.328   4.638   3.940
 6413SOL    HW220139   4.320   4.558   3.798
 6414SOL     OW20140   5.708   1.020   0.818
 6414SOL    HW120141   5.744   0.933   0.784
 6414SOL    HW220142   5.683   1.010   0.914
 6415SOL     OW20143   1.905   2.716   3.329
 6415SOL    HW120144   1.888   2.664   3.412
 6415SOL    HW220145   1.837   2.789   3.320
 6416SOL     OW20146   1.136   1.342   6.610
 6416SOL    HW120147   1.080   1.375   6.534
 6416SOL    HW220148   1.228   1.381   6.604
 6417SOL     OW20149   6.548   5.129   2.296
 6417SOL    HW120150   6.524   5.158   2.204
 6417SOL    HW220151   6.516   5.036   2.312
 6418SOL     OW20152   5.132   4.486   1.906
 6418SOL    HW120153   5.215   4.514   1.859
 6418SOL    HW220154   5.151   4.405   1.962
 6419SOL     OW20155   2.436   4.564   2.462
 6419SOL    HW120156   2.522   4.587   2.416
 6419SOL    HW220157   2.420   4.628   2.537
 6420SOL     OW20158   3.357   3.965   5.317
 6420SOL    HW120159   3.279   4.000   5.368
 6420SOL    HW220160   3.340   3.975   5.219
 6421SOL     OW20161   5.448   1.142   2.812
 6421SOL    HW120162   5.492   1.074   2.753
 6421SOL    HW220163   5.449   1.231   2.767
 6422SOL     OW20164   0.379   0.587   3.289
 6422SOL    HW120165   0.291   0.541   3.299
 6422SOL    HW220166   0.435   0.570   3.370
 6423SOL     OW20167   4.792   5.234   2.664
 6423SOL    HW120168   4.735   5.168   2.616
 6423SOL    HW220169   4.758   5.247   2.757
 6424SOL     OW20170   6.938   6.122   6.024
 6424SOL    HW120171   6.846   6.145   5.991
 6424SOL    HW220172   6.974   6.045   5.972
 6425SOL     OW20173   6.309   5.869   2.767
 6425SOL    HW120174   6.315   5.776   2.804
 6425SOL    HW220175   6.218   5.885   2.729
 6426SOL     OW20176   0.899   4.783   2.721
 6426SOL    HW120177   0.934   4.703   2.770
 6426SOL    HW220178   0.799   4.781   2.721
 6427SOL     OW20179   2.992   2.647   5.999
 6427SOL    HW120180   3.045   2.657   5.915
 6427SOL    HW220181   2.913   2.708   5.997
 6428SOL     OW20182   6.411   3.125   6.912
 6428SOL    HW120183   6.320   3.102   6.949
 6428SOL    HW220184   6.471   3.046   6.921
 6429SOL     OW20185   1.655   1.824   5.855
 6429SOL    HW120186   1.604   1.885   5.915
 6429SOL    HW220187   1.720   1.771   5.910
 6430SOL     OW20188   5.666   1.162   2.020
 6430SOL    HW120189   5.587   1.104   1.998
 6430SOL    HW220190   5.716   1.183   1.935
 6431SOL     OW20191   5.223   6.186   3.745
 6431SOL    HW120192   5.267   6.120   3.805
 6431SOL    HW220193   5.179   6.258   3.800
 6432SOL     OW20194   3.704   3.810   6.298
 6432SOL    HW120195   3.708   3.903   6.261
 6432SOL    HW220196   3.680   3.814   6.395
 6433SOL     OW20197   2.981   4.361   0.676
 6433SOL    HW120198   3.058   4.392   0.619
 6433SOL    HW220199   2.993   4.395   0.769
 6434SOL     OW20200   1.364   3.890   6.957
 6434SOL    HW120201   1.380   3.840   0.027
 6434SOL    HW220202   1.332   3.827   6.887
 6435SOL     OW20203   4.205   6.139   6.873
 6435SOL    HW120204   4.260   6.206   6.924
 6435SOL    HW220205   4.262   6.060   6.850
 6436SOL     OW20206   1.961   3.578   3.479
 6436SOL    HW120207   1.976   3.604   3.384
 6436SOL    HW220208   1.882   3.517   3.485
 6437SOL     OW20209   2.442   1.048   0.821
 6437SOL    HW120210   2.501   1.050   0.741
 6437SOL    HW220211   2.356   1.002   0.799
 6438SOL     OW20212   0.537   4.045   6.472
 6438SOL    HW120213   0.487   4.058   6.558
 6438SOL    HW220214   0.478   4.067   6.395
 6439SOL     OW20215   5.508   0.996   1.838
 6439SOL    HW120216   5.508   0.896   1.844
 6439SOL    HW220217   5.448   1.025   1.764
 6440SOL     OW20218   2.386   1.779   6.812
 6440SOL    HW120219   2.335   1.696   6.836
 6440SOL    HW220220   2.392   1.838   6.892
 6441SOL     OW20221   0.849   6.010   2.178
 6441SOL    HW120222   0.779   5.977   2.242
 6441SOL    HW220223   0.826   5.978   2.086
 6442SOL     OW20224   2.475   0.466   4.637
 6442SOL    HW120225   2.408   0.471   4.711
 6442SOL    HW220226   2.560   0.424   4.671
 6443SOL     OW20227   3.873   2.401   5.718
 6443SOL    HW120228   3.894   2.467   5.791
 6443SOL    HW220229   3.774   2.386   5.715
 6444SOL     OW20230   6.733   2.468   3.800
 6444SOL    HW120231   6.701   2.390   3.853
 6444SOL    HW220232   6.655   2.522   3.769
 6445SOL     OW20233   4.793   3.080   5.288
 6445SOL    HW120234   4.850   3.064   5.368
 6445SOL    HW220235   4.793   3.177   5.266
 6446SOL     OW20236   1.456   1.060   5.943
 6446SOL    HW120237   1.494   1.014   5.862
 6446SOL    HW220238   1.413   0.991   6.002
 6447SOL     OW20239   0.619   4.866   2.648
 6447SOL    HW120240   0.657   4.908   2.565
 6447SOL    HW220241   0.575   4.779   2.624
 6448SOL     OW20242   4.713   5.615   2.668
 6448SOL    HW120243   4.668   5.619   2.578
 6448SOL    HW220244   4.801   5.570   2.659
 6449SOL     OW20245   2.937   4.964   0.660
 6449SOL    HW120246   2.883   4.946   0.578
 6449SOL    HW220247   3.026   5.001   0.634
 6450SOL     OW20248   0.174   3.594   1.359
 6450SOL    HW120249   0.246   3.559   1.298
 6450SOL    HW220250   0.187   3.555   1.451
 6451SOL     OW20251   2.045   6.902   4.904
 6451SOL    HW120252   2.141   6.900   4.933
 6451SOL    HW220253   2.041   6.904   4.804
 6452SOL     OW20254   3.209   6.865   4.650
 6452SOL    HW120255   3.130   6.855   4.710
 6452SOL    HW220256   3.293   6.852   4.703
 6453SOL     OW20257   2.404   6.729   1.079
 6453SOL    HW120258   2.439   6.646   1.122
 6453SOL    HW220259   2.468   6.759   1.008
 6454SOL     OW20260   2.512   2.150   3.864
 6454SOL    HW120261   2.590   2.089   3.850
 6454SOL    HW220262   2.486   2.191   3.777
 6455SOL     OW20263   0.184   1.979   4.098
 6455SOL    HW120264   0.179   2.075   4.127
 6455SOL    HW220265   0.180   1.920   4.178
 6456SOL     OW20266   1.695   0.471   3.462
 6456SOL    HW120267   1.621   0.436   3.519
 6456SOL    HW220268   1.676   0.448   3.366
 6457SOL     OW20269   4.913   2.095   0.770
 6457SOL    HW120270   4.975   2.145   0.709
 6457SOL    HW220271   4.896   2.150   0.852
 6458SOL     OW20272   0.991   0.240   4.035
 6458SOL    HW120273   1.020   0.278   3.947
 6458SOL    HW220274   0.891   0.240   4.041
 6459SOL     OW20275   6.066   4.995   0.396
 6459SOL    HW120276   6.081   5.051   0.478
 6459SOL    HW220277   5.993   4.929   0.413
 6460SOL     OW20278   4.765   5.515   5.678
 6460SOL    HW120279   4.754   5.607   5.715
 6460SOL    HW220280   4.678   5.485   5.639
 6461SOL     OW20281   2.513   4.970   5.288
 6461SOL    HW120282   2.596   4.919   5.268
 6461SOL    HW220283   2.536   5.048   5.348
 6462SOL     OW20284   2.433   2.684   4.767
 6462SOL    HW120285   2.503   2.747   4.802
 6462SOL    HW220286   2.466   2.643   4.682
 6463SOL     OW20287   6.906   3.705   6.880
 6463SOL    HW120288   6.939   3.746   6.795
 6463SOL    HW220289   6.933   3.608   6.883
 6464SOL     OW20290   1.492   4.724   4.217
 6464SOL    HW120291   1.517   4.630   4.195
 6464SOL    HW220292   1.396   4.727   4.247
 6465SOL     OW20293   6.672   3.016   3.472
 6465SOL    HW120294   6.687   2.962   3.555
 6465SOL    HW220295   6.628   3.102   3.496
 6466SOL     OW20296   1.155   1.667   6.571
 6466SOL    HW120297   1.210   1.643   6.491
 6466SOL    HW220298   1.169   1.764   6.593
 6467SOL     OW20299   3.150   0.233   6.522
 6467SOL    HW120300   3.097   0.281   6.592
 6467SOL    HW220301   3.222   0.180   6.566
 6468SOL     OW20302   4.182   6.689   0.943
 6468SOL    HW120303   4.198   6.771   0.887
 6468SOL    HW220304   4.141   6.715   1.030
 6469SOL     OW20305   4.465   0.598   4.975
 6469SOL    HW120306   4.504   0.658   4.905
 6469SOL    HW220307   4.383   0.641   5.014
 6470SOL     OW20308   6.326   4.688   6.716
 6470SOL    HW120309   6.369   4.649   6.635
 6470SOL    HW220310   6.299   4.615   6.778
 6471SOL     OW20311   6.459   6.212   5.191
 6471SOL    HW120312   6.387   6.257   5.137
 6471SOL    HW220313   6.492   6.276   5.261
 6472SOL     OW20314   0.602   4.849   1.230
 6472SOL    HW120315   0.562   4.890   1.312
 6472SOL    HW220316   0.687   4.802   1.253
 6473SOL     OW20317   2.903   1.110   4.189
 6473SOL    HW120318   2.971   1.176   4.158
 6473SOL    HW220319   2.811   1.145   4.167
 6474SOL     OW20320   2.611   3.999   5.917
 6474SOL    HW120321   2.555   4.012   5.835
 6474SOL    HW220322   2.616   4.085   5.968
 6475SOL     OW20323   6.220   5.310   4.425
 6475SOL    HW120324   6.307   5.358   4.419
 6475SOL    HW220325   6.217   5.257   4.510
 6476SOL     OW20326   4.554   3.109   0.965
 6476SOL    HW120327   4.471   3.144   1.008
 6476SOL    HW220328   4.539   3.014   0.937
 6477SOL     OW20329   6.215   4.971   0.996
 6477SOL    HW120330   6.275   4.992   0.920
 6477SOL    HW220331   6.196   4.873   0.998
 6478SOL     OW20332   3.743   6.269   1.928
 6478SOL    HW120333   3.680   6.236   1.999
 6478SOL    HW220334   3.708   6.353   1.889
 6479SOL     OW20335   3.824   5.809   3.834
 6479SOL    HW120336   3.735   5.847   3.858
 6479SOL    HW220337   3.831   5.802   3.734
 6480SOL     OW20338   3.272   1.965   5.392
 6480SOL    HW120339   3.196   1.997   5.449
 6480SOL    HW220340   3.316   1.888   5.436
 6481SOL     OW20341   3.680   2.045   1.748
 6481SOL    HW120342   3.694   2.128   1.802
 6481SOL    HW220343   3.624   2.067   1.668
 6482SOL     OW20344   0.044   0.603   5.734
 6482SOL    HW120345   6.960   0.608   5.719
 6482SOL    HW220346   0.091   0.644   5.656
 6483SOL     OW20347   1.177   6.172   1.211
 6483SOL    HW120348   1.211   6.102   1.148
 6483SOL    HW220349   1.077   6.165   1.218
 6484SOL     OW20350   3.439   0.404   2.036
 6484SOL    HW120351   3.519   0.413   1.978
 6484SOL    HW220352   3.396   0.315   2.020
 6485SOL     OW20353   1.727   4.643   3.353
 6485SOL    HW120354   1.810   4.628   3.298
 6485SOL    HW220355   1.744   4.714   3.420
 6486SOL     OW20356   1.930   4.623   4.485
 6486SOL    HW120357   1.995   4.589   4.553
 6486SOL    HW220358   1.893   4.710   4.516
 6487SOL     OW20359   6.710   6.468   5.096
 6487SOL    HW120360   6.754   6.479   5.007
 6487SOL    HW220361   6.611   6.469   5.084
 6488SOL     OW20362   3.486   6.083   5.597
 6488SOL    HW120363   3.454   6.150   5.530
 6488SOL    HW220364   3.439   5.996   5.583
 6489SOL     OW20365   2.486   2.744   6.488
 6489SOL    HW120366   2.500   2.681   6.412
 6489SOL    HW220367   2.563   2.808   6.492
 6490SOL     OW20368   4.073   1.647   6.026
 6490SOL    HW120369   4.156   1.600   6.052
 6490SOL    HW220370   4.095   1.741   5.998
 6491SOL     OW20371   3.972   0.990   6.886
 6491SOL    HW120372   3.884   1.019   6.922
 6491SOL    HW220373   3.970   0.995   6.786
 6492SOL     OW20374   5.679   5.284   0.195
 6492SOL    HW120375   5.745   5.269   0.121
 6492SOL    HW220376   5.665   5.199   0.245
 6493SOL     OW20377   1.345   5.603   4.884
 6493SOL    HW120378   1.326   5.700   4.874
 6493SOL    HW220379   1.331   5.557   4.796
 6494SOL     OW20380   0.222   1.378   3.392
 6494SOL    HW120381   0.124   1.362   3.403
 6494SOL    HW220382   0.243   1.391   3.295
 6495SOL     OW20383   4.982   6.107   4.242
 6495SOL    HW120384   4.935   6.193   4.262
 6495SOL    HW220385   4.926   6.053   4.178
 6496SOL     OW20386   6.912   0.602   2.059
 6496SOL    HW120387   6.999   0.556   2.041
 6496SOL    HW220388   6.896   0.672   1.990
 6497SOL     OW20389   2.539   2.780   0.856
 6497SOL    HW120390   2.581   2.840   0.924
 6497SOL    HW220391   2.470   2.723   0.901
 6498SOL     OW20392   2.184   3.822   4.000
 6498SOL    HW120393   2.280   3.834   4.024
 6498SOL    HW220394   2.128   3.882   4.057
 6499SOL     OW20395   5.341   2.248   5.038
 6499SOL    HW120396   5.253   2.214   5.074
 6499SOL    HW220397   5.336   2.347   5.027
 6500SOL     OW20398   6.985   4.256   3.499
 6500SOL    HW120399   6.964   4.283   3.405
 6500SOL    HW220400   0.046   4.310   3.534
 6501SOL     OW20401   6.358   2.684   6.376
 6501SOL    HW120402   6.457   2.684   6.387
 6501SOL    HW220403   6.332   2.618   6.306
 6502SOL     OW20404   6.317   3.379   1.619
 6502SOL    HW120405   6.369   3.303   1.659
 6502SOL    HW220406   6.363   3.411   1.536
 6503SOL     OW20407   4.506   1.291   3.703
 6503SOL    HW120408   4.470   1.202   3.677
 6503SOL    HW220409   4.605   1.285   3.714
 6504SOL     OW20410   4.912   6.072   6.110
 6504SOL    HW120411   4.825   6.103   6.149
 6504SOL    HW220412   4.917   5.972   6.116
 6505SOL     OW20413   5.338   5.491   1.450
 6505SOL    HW120414   5.354   5.469   1.546
 6505SOL    HW220415   5.316   5.588   1.441
 6506SOL     OW20416   6.252   3.518   1.852
 6506SOL    HW120417   6.153   3.511   1.862
 6506SOL    HW220418   6.279   3.486   1.761
 6507SOL     OW20419   1.905   5.449   6.144
 6507SOL    HW120420   1.955   5.368   6.173
 6507SOL    HW220421   1.968   5.512   6.098
 6508SOL     OW20422   2.360   0.515   3.209
 6508SOL    HW120423   2.368   0.561   3.120
 6508SOL    HW220424   2.292   0.443   3.203
 6509SOL     OW20425   3.112   1.871   4.841
 6509SOL    HW120426   3.062   1.948   4.879
 6509SOL    HW220427   3.142   1.810   4.915
 6510SOL     OW20428   0.301   4.467   6.876
 6510SOL    HW120429   0.298   4.549   6.819
 6510SOL    HW220430   0.277   4.388   6.821
 6511SOL     OW20431   4.669   1.144   4.732
 6511SOL    HW120432   4.704   1.137   4.825
 6511SOL    HW220433   4.745   1.164   4.669
 6512SOL     OW20434   5.005   0.031   2.208
 6512SOL    HW120435   4.928   0.002   2.151
 6512SOL    HW220436   5.032   0.125   2.183
 6513SOL     OW20437   3.080   4.952   2.858
 6513SOL    HW120438   3.053   5.048   2.870
 6513SOL    HW220439   3.115   4.939   2.765
 6514SOL     OW20440   5.227   1.205   3.924
 6514SOL    HW120441   5.241   1.117   3.971
 6514SOL    HW220442   5.142   1.202   3.873
 6515SOL     OW20443   0.487   5.156   3.994
 6515SOL    HW120444   0.508   5.250   3.968
 6515SOL    HW220445   0.511   5.095   3.919
 6516SOL     OW20446   0.485   3.318   1.817
 6516SOL    HW120447   0.465   3.289   1.723
 6516SOL    HW220448   0.420   3.275   1.879
 6517SOL     OW20449   6.590   0.860   0.485
 6517SOL    HW120450   6.537   0.825   0.408
 6517SOL    HW220451   6.630   0.949   0.460
 6518SOL     OW20452   0.202   0.033   6.999
 6518SOL    HW120453   0.213   7.002   0.073
 6518SOL    HW220454   0.120   0.090   7.001
 6519SOL     OW20455   2.877   1.795   3.639
 6519SOL    HW120456   2.952   1.742   3.678
 6519SOL    HW220457   2.890   1.803   3.540
 6520SOL     OW20458   5.708   5.202   1.908
 6520SOL    HW120459   5.766   5.140   1.960
 6520SOL    HW220460   5.615   5.200   1.944
 6521SOL     OW20461   2.004   2.715   4.406
 6521SOL    HW120462   2.089   2.760   4.380
 6521SOL    HW220463   2.016   2.616   4.404
 6522SOL     OW20464   3.728   4.504   7.002
 6522SOL    HW120465   3.661   4.445   0.031
 6522SOL    HW220466   3.808   4.515   0.047
 6523SOL     OW20467   3.544   0.354   6.596
 6523SOL    HW120468   3.622   0.349   6.658
 6523SOL    HW220469   3.467   0.398   6.643
 6524SOL     OW20470   2.965   3.631   2.013
 6524SOL    HW120471   2.936   3.669   1.926
 6524SOL    HW220472   2.907   3.553   2.037
 6525SOL     OW20473   1.187   4.083   3.562
 6525SOL    HW120474   1.115   4.153   3.562
 6525SOL    HW220475   1.148   3.996   3.594
 6526SOL     OW20476   1.865   0.122   6.428
 6526SOL    HW120477   1.905   0.213   6.421
 6526SOL    HW220478   1.772   0.124   6.392
 6527SOL     OW20479   0.940   2.415   4.690
 6527SOL    HW120480   0.860   2.427   4.631
 6527SOL    HW220481   0.915   2.435   4.785
 6528SOL     OW20482   0.272   1.158   4.060
 6528SOL    HW120483   0.310   1.157   3.967
 6528SOL    HW220484   0.217   1.075   4.074
 6529SOL     OW20485   0.272   1.536   2.432
 6529SOL    HW120486   0.360   1.547   2.479
 6529SOL    HW220487   0.207   1.603   2.466
 6530SOL     OW20488   6.848   3.724   1.528
 6530SOL    HW120489   6.799   3.657   1.472
 6530SOL    HW220490   6.857   3.689   1.621
 6531SOL     OW20491   5.409   3.767   4.558
 6531SOL    HW120492   5.349   3.687   4.560
 6531SOL    HW220493   5.430   3.792   4.464
 6532SOL     OW20494   6.282   0.415   6.408
 6532SOL    HW120495   6.247   0.507   6.393
 6532SOL    HW220496   6.253   0.383   6.498
 6533SOL     OW20497   4.737   6.024   0.936
 6533SOL    HW120498   4.700   5.968   1.010
 6533SOL    HW220499   4.778   6.107   0.975
 6534SOL     OW20500   3.383   4.283   0.955
 6534SOL    HW120501   3.354   4.205   1.011
 6534SOL    HW220502   3.457   4.254   0.894
 6535SOL     OW20503   6.246   3.734   4.325
 6535SOL    HW120504   6.202   3.811   4.371
 6535SOL    HW220505   6.314   3.769   4.260
 6536SOL     OW20506   0.489   2.274   5.756
 6536SOL    HW120507   0.505   2.181   5.788
 6536SOL    HW220508   0.577   2.323   5.752
 6537SOL     OW20509   6.024   5.426   6.795
 6537SOL    HW120510   5.942   5.474   6.766
 6537SOL    HW220511   6.027   5.335   6.754
 6538SOL     OW20512   3.181   4.080   0.102
 6538SOL    HW120513   3.235   4.078   0.186
 6538SOL    HW220514   3.236   4.044   0.026
 6539SOL     OW20515   3.312   0.261   6.305
 6539SOL    HW120516   3.251   0.263   6.384
 6539SOL    HW220517   3.404   0.235   6.334
 6540SOL     OW20518   5.439   1.408   5.330
 6540SOL    HW120519   5.440   1.309   5.313
 6540SOL    HW220520   5.359   1.449   5.285
 6541SOL     OW20521   3.675   1.616   5.106
 6541SOL    HW120522   3.682   1.526   5.150
 6541SOL    HW220523   3.659   1.685   5.176
 6542SOL     OW20524   6.606   4.432   4.125
 6542SOL    HW120525   6.605   4.371   4.204
 6542SOL    HW220526   6.593   4.526   4.156
 6543SOL     OW20527   6.227   3.438   6.317
 6543SOL    HW120528   6.223   3.377   6.396
 6543SOL    HW220529   6.291   3.401   6.249
 6544SOL     OW20530   0.463   6.442   2.922
 6544SOL    HW120531   0.509   6.357   2.898
 6544SOL    HW220532   0.522   6.495   2.983
 6545SOL     OW20533   5.150   1.898   6.509
 6545SOL    HW120534   5.197   1.826   6.459
 6545SOL    HW220535   5.056   1.906   6.476
 6546SOL     OW20536   3.563   4.149   6.344
 6546SOL    HW120537   3.616   4.135   6.261
 6546SOL    HW220538   3.605   4.222   6.399
 6547SOL     OW20539   4.772   1.322   5.778
 6547SOL    HW120540   4.737   1.233   5.807
 6547SOL    HW220541   4.865   1.333   5.813
 6548SOL     OW20542   0.824   3.828   0.234
 6548SOL    HW120543   0.916   3.811   0.200
 6548SOL    HW220544   0.762   3.842   0.157
 6549SOL     OW20545   4.529   1.266   1.038
 6549SOL    HW120546   4.455   1.266   0.970
 6549SOL    HW220547   4.605   1.210   1.005
 6550SOL     OW20548   0.585   6.689   4.001
 6550SOL    HW120549   0.674   6.670   4.040
 6550SOL    HW220550   0.520   6.709   4.074
 6551SOL     OW20551   1.665   4.650   2.263
 6551SOL    HW120552   1.601   4.649   2.185
 6551SOL    HW220553   1.628   4.707   2.336
 6552SOL     OW20554   2.172   0.284   5.411
 6552SOL    HW120555   2.092   0.290   5.471
 6552SOL    HW220556   2.226   0.203   5.435
 6553SOL     OW20557   0.750   1.414   2.967
 6553SOL    HW120558   0.790   1.481   3.030
 6553SOL    HW220559   0.822   1.367   2.918
 6554SOL     OW20560   5.753   1.101   5.627
 6554SOL    HW120561   5.715   1.061   5.710
 6554SOL    HW220562   5.748   1.201   5.633
 6555SOL     OW20563   0.181   2.064   1.906
 6555SOL    HW120564   0.255   2.004   1.873
 6555SOL    HW220565   0.199   2.158   1.878
 6556SOL     OW20566   4.650   4.615   5.177
 6556SOL    HW120567   4.623   4.698   5.129
 6556SOL    HW220568   4.736   4.630   5.225
 6557SOL     OW20569   3.519   5.582   1.296
 6557SOL    HW120570   3.575   5.577   1.378
 6557SOL    HW220571   3.511   5.678   1.267
 6558SOL     OW20572   6.769   5.135   0.251
 6558SOL    HW120573   6.706   5.185   0.193
 6558SOL    HW220574   6.731   5.127   0.343
 6559SOL     OW20575   6.941   4.365   6.713
 6559SOL    HW120576   7.007   4.439   6.721
 6559SOL    HW220577   6.867   4.379   6.778
 6560SOL     OW20578   4.360   4.267   0.810
 6560SOL    HW120579   4.437   4.242   0.868
 6560SOL    HW220580   4.276   4.224   0.844
 6561SOL     OW20581   3.676   4.013   2.270
 6561SOL    HW120582   3.663   3.931   2.213
 6561SOL    HW220583   3.606   4.080   2.248
 6562SOL     OW20584   5.321   4.226   0.044
 6562SOL    HW120585   5.301   4.324   0.039
 6562SOL    HW220586   5.251   4.174   7.011
 6563SOL     OW20587   0.142   5.771   0.100
 6563SOL    HW120588   0.119   5.727   0.013
 6563SOL    HW220589   0.068   5.832   0.128
 6564SOL     OW20590   0.230   3.993   2.613
 6564SOL    HW120591   0.325   4.016   2.593
 6564SOL    HW220592   0.213   4.006   2.711
 6565SOL     OW20593   6.602   2.304   4.008
 6565SOL    HW120594   6.605   2.210   3.974
 6565SOL    HW220595   6.524   2.314   4.070
 6566SOL     OW20596   2.749   6.170   2.566
 6566SOL    HW120597   2.838   6.207   2.596
 6566SOL    HW220598   2.761   6.077   2.533
 6567SOL     OW20599   3.992   2.425   0.848
 6567SOL    HW120600   3.997   2.464   0.756
 6567SOL    HW220601   4.083   2.397   0.878
 6568SOL     OW20602   4.581   0.084   3.520
 6568SOL    HW120603   4.619   7.012   3.489
 6568SOL    HW220604   4.491   0.098   3.478
 6569SOL     OW20605   2.701   3.945   6.758
 6569SOL    HW120606   2.615   3.893   6.751
 6569SOL    HW220607   2.767   3.892   6.811
 6570SOL     OW20608   4.255   6.667   2.566
 6570SOL    HW120609   4.166   6.693   2.528
 6570SOL    HW220610   4.242   6.596   2.635
 6571SOL     OW20611   2.635   5.591   2.301
 6571SOL    HW120612   2.606   5.646   2.222
 6571SOL    HW220613   2.679   5.507   2.268
 6572SOL     OW20614   0.141   5.849   5.667
 6572SOL    HW120615   0.089   5.817   5.589
 6572SOL    HW220616   0.171   5.943   5.652
 6573SOL     OW20617   2.184   1.581   2.127
 6573SOL    HW120618   2.137   1.646   2.067
 6573SOL    HW220619   2.282   1.598   2.124
 6574SOL     OW20620   3.011   6.287   2.735
 6574SOL    HW120621   3.074   6.343   2.790
 6574SOL    HW220622   2.989   6.203   2.784
 6575SOL     OW20623   1.115   1.087   2.087
 6575SOL    HW120624   1.175   1.110   2.010
 6575SOL    HW220625   1.164   1.030   2.152
 6576SOL     OW20626   1.829   6.487   6.447
 6576SOL    HW120627   1.730   6.475   6.453
 6576SOL    HW220628   1.855   6.507   6.352
 6577SOL     OW20629   0.892   2.236   3.424
 6577SOL    HW120630   0.793   2.235   3.434
 6577SOL    HW220631   0.934   2.190   3.502
 6578SOL     OW20632   0.921   4.216   2.816
 6578SOL    HW120633   0.846   4.164   2.775
 6578SOL    HW220634   0.917   4.207   2.916
 6579SOL     OW20635   6.991   3.416   4.879
 6579SOL    HW120636   0.012   3.337   4.829
 6579SOL    HW220637   6.896   3.432   4.851
 6580SOL     OW20638   6.673   1.521   1.281
 6580SOL    HW120639   6.602   1.490   1.218
 6580SOL    HW220640   6.763   1.495   1.247
 6581SOL     OW20641   2.978   1.482   6.738
 6581SOL    HW120642   2.940   1.406   6.686
 6581SOL    HW220643   2.985   1.563   6.679
 6582SOL     OW20644   1.655   1.041   1.540
 6582SOL    HW120645   1.698   0.950   1.538
 6582SOL    HW220646   1.559   1.033   1.515
 6583SOL     OW20647   4.227   0.725   5.007
 6583SOL    HW120648   4.148   0.663   5.008
 6583SOL    HW220649   4.218   0.789   4.931
 6584SOL     OW20650   4.687   1.817   6.688
 6584SOL    HW120651   4.784   1.789   6.684
 6584SOL    HW220652   4.675   1.903   6.639
 6585SOL     OW20653   0.019   0.257   6.978
 6585SOL    HW120654   6.978   0.316   6.920
 6585SOL    HW220655   6.986   0.241   0.049
 6586SOL     OW20656   6.292   1.870   5.743
 6586SOL    HW120657   6.335   1.779   5.746
 6586SOL    HW220658   6.358   1.938   5.775
 6587SOL     OW20659   2.532   6.339   5.132
 6587SOL    HW120660   2.499   6.385   5.050
 6587SOL    HW220661   2.592   6.263   5.106
 6588SOL     OW20662   1.640   3.955   1.227
 6588SOL    HW120663   1.649   4.054   1.214
 6588SOL    HW220664   1.562   3.936   1.286
 6589SOL     OW20665   4.900   0.234   0.299
 6589SOL    HW120666   4.926   0.152   0.350
 6589SOL    HW220667   4.808   0.264   0.326
 6590SOL     OW20668   1.110   1.540   5.782
 6590SOL    HW120669   1.027   1.531   5.728
 6590SOL    HW220670   1.148   1.449   5.801
 6591SOL     OW20671   4.941   6.108   2.476
 6591SOL    HW120672   4.907   6.201   2.462
 6591SOL    HW220673   5.036   6.102   2.445
 6592SOL     OW20674   5.691   6.293   3.955
 6592SOL    HW120675   5.788   6.309   3.938
 6592SOL    HW220676   5.662   6.346   4.034
 6593SOL     OW20677   2.906   1.377   3.949
 6593SOL    HW120678   2.933   1.384   3.853
 6593SOL    HW220679   2.820   1.426   3.963
 6594SOL     OW20680   3.554   1.150   0.006
 6594SOL    HW120681   3.580   1.054   0.019
 6594SOL    HW220682   3.571   1.176   6.925
 6595SOL     OW20683   0.989   2.466   1.204
 6595SOL    HW120684   1.058   2.404   1.168
 6595SOL    HW220685   0.898   2.432   1.180
 6596SOL     OW20686   3.122   0.065   4.121
 6596SOL    HW120687   3.165   0.154   4.107
 6596SOL    HW220688   3.183   7.008   4.089
 6597SOL     OW20689   2.041   6.233   3.209
 6597SOL    HW120690   2.068   6.149   3.256
 6597SOL    HW220691   2.088   6.238   3.120
 6598SOL     OW20692   0.585   0.194   4.434
 6598SOL    HW120693   0.575   0.289   4.407
 6598SOL    HW220694   0.647   0.187   4.513
 6599SOL     OW20695   3.972   5.819   5.190
 6599SOL    HW120696   3.908   5.891   5.218
 6599SOL    HW220697   3.990   5.759   5.268
 6600SOL     OW20698   4.803   5.410   5.986
 6600SOL    HW120699   4.818   5.399   5.888
 6600SOL    HW220700   4.753   5.331   6.021
 6601SOL     OW20701   1.070   1.773   5.901
 6601SOL    HW120702   1.088   1.686   5.856
 6601SOL    HW220703   1.090   1.848   5.838
 6602SOL     OW20704   0.305   1.726   1.748
 6602SOL    HW120705   0.364   1.800   1.780
 6602SOL    HW220706   0.230   1.712   1.814
 6603SOL     OW20707   0.363   2.321   3.982
 6603SOL    HW120708   0.357   2.295   3.886
 6603SOL    HW220709   0.452   2.363   4.000
 6604SOL     OW20710   2.534   6.449   0.696
 6604SOL    HW120711   2.480   6.470   0.615
 6604SOL    HW220712   2.487   6.481   0.778
 6605SOL     OW20713   5.651   4.405   1.710
 6605SOL    HW120714   5.596   4.485   1.684
 6605SOL    HW220715   5.672   4.352   1.628
 6606SOL     OW20716   6.589   6.903   2.365
 6606SOL    HW120717   6.618   6.998   2.360
 6606SOL    HW220718   6.517   6.887   2.297
 6607SOL     OW20719   1.610   2.331   2.099
 6607SOL    HW120720   1.537   2.346   2.165
 6607SOL    HW220721   1.680   2.272   2.139
 6608SOL     OW20722   5.175   6.056   2.358
 6608SOL    HW120723   5.242   6.111   2.409
 6608SOL    HW220724   5.223   5.987   2.304
 6609SOL     OW20725   4.977   0.832   6.062
 6609SOL    HW120726   4.890   0.800   6.025
 6609SOL    HW220727   5.052   0.799   6.004
 6610SOL     OW20728   2.844   1.290   6.555
 6610SOL    HW120729   2.828   1.284   6.456
 6610SOL    HW220730   2.812   1.206   6.599
 6611SOL     OW20731   5.953   3.127   4.053
 6611SOL    HW120732   5.906   3.191   4.113
 6611SOL    HW220733   5.933   3.033   4.081
 6612SOL     OW20734   6.529   2.056   6.941
 6612SOL    HW120735   6.572   1.978   6.987
 6612SOL    HW220736   6.441   2.075   6.985
 6613SOL     OW20737   6.224   6.282   5.030
 6613SOL    HW120738   6.244   6.225   4.951
 6613SOL    HW220739   6.131   6.319   5.023
 6614SOL     OW20740   5.391   6.174   0.102
 6614SOL    HW120741   5.346   6.262   0.086
 6614SOL    HW220742   5.485   6.178   0.068
 6615SOL     OW20743   0.374   4.856   3.466
 6615SOL    HW120744   0.283   4.879   3.501
 6615SOL    HW220745   0.392   4.759   3.481
 6616SOL     OW20746   4.471   0.867   5.955
 6616SOL    HW120747   4.503   0.961   5.944
 6616SOL    HW220748   4.430   0.856   6.045
 6617SOL     OW20749   3.667   5.208   2.971
 6617SOL    HW120750   3.726   5.283   2.999
 6617SOL    HW220751   3.721   5.125   2.958
 6618SOL     OW20752   1.668   3.689   3.261
 6618SOL    HW120753   1.573   3.698   3.232
 6618SOL    HW220754   1.672   3.672   3.359
 6619SOL     OW20755   6.621   0.481   4.600
 6619SOL    HW120756   6.548   0.432   4.648
 6619SOL    HW220757   6.692   0.417   4.573
 6620SOL     OW20758   2.033   2.764   5.375
 6620SOL    HW120759   1.945   2.756   5.328
 6620SOL    HW220760   2.104   2.788   5.308
 6621SOL     OW20761   2.044   3.773   6.387
 6621SOL    HW120762   2.016   3.779   6.483
 6621SOL    HW220763   1.979   3.716   6.337
 6622SOL     OW20764   5.587   6.312   1.885
 6622SOL    HW120765   5.542   6.365   1.814
 6622SOL    HW220766   5.534   6.229   1.904
 6623SOL     OW20767   2.209   3.576   6.960
 6623SOL    HW120768   2.138   3.534   0.002
 6623SOL    HW220769   2.171   3.655   6.912
 6624SOL     OW20770   1.915   0.180   4.589
 6624SOL    HW120771   1.827   0.179   4.542
 6624SOL    HW220772   1.900   0.187   4.688
 6625SOL     OW20773   5.433   1.961   6.305
 6625SOL    HW120774   5.348   1.907   6.308
 6625SOL    HW220775   5.494   1.931   6.379
 6626SOL     OW20776   4.052   5.104   5.357
 6626SOL    HW120777   4.067   5.170   5.283
 6626SOL    HW220778   4.039   5.153   5.443
 6627SOL     OW20779   2.376   0.953   5.996
 6627SOL    HW120780   2.292   0.981   5.951
 6627SOL    HW220781   2.394   0.856   5.977
 6628SOL     OW20782   4.719   4.225   4.569
 6628SOL    HW120783   4.723   4.135   4.524
 6628SOL    HW220784   4.644   4.278   4.530
 6629SOL     OW20785   3.677   5.737   6.814
 6629SOL    HW120786   3.604   5.669   6.825
 6629SOL    HW220787   3.750   5.699   6.757
 6630SOL     OW20788   3.598   1.386   1.402
 6630SOL    HW120789   3.631   1.309   1.347
 6630SOL    HW220790   3.546   1.352   1.479
 6631SOL     OW20791   3.324   0.036   2.475
 6631SOL    HW120792   3.326   0.086   2.389
 6631SOL    HW220793   3.416   0.033   2.514
 6632SOL     OW20794   0.339   6.085   1.662
 6632SOL    HW120795   0.397   6.141   1.721
 6632SOL    HW220796   0.275   6.032   1.717
 6633SOL     OW20797   0.615   3.781   6.006
 6633SOL    HW120798   0.658   3.692   6.021
 6633SOL    HW220799   0.524   3.781   6.049
 6634SOL     OW20800   6.442   2.414   4.420
 6634SOL    HW120801   6.360   2.468   4.399
 6634SOL    HW220802   6.509   2.472   4.466
 6635SOL     OW20803   4.162   5.023   3.293
 6635SOL    HW120804   4.245   5.076   3.273
 6635SOL    HW220805   4.141   5.030   3.391
 6636SOL     OW20806   4.159   1.294   5.502
 6636SOL    HW120807   4.253   1.283   5.471
 6636SOL    HW220808   4.156   1.292   5.602
 6637SOL     OW20809   1.605   0.255   5.962
 6637SOL    HW120810   1.562   0.185   5.905
 6637SOL    HW220811   1.689   0.218   6.002
 6638SOL     OW20812   3.416   4.164   4.253
 6638SOL    HW120813   3.472   4.242   4.282
 6638SOL    HW220814   3.452   4.128   4.167
 6639SOL     OW20815   5.551   5.236   6.460
 6639SOL    HW120816   5.590   5.317   6.415
 6639SOL    HW220817   5.534   5.165   6.391
 6640SOL     OW20818   0.917   1.578   4.930
 6640SOL    HW120819   0.821   1.595   4.907
 6640SOL    HW220820   0.974   1.653   4.896
 6641SOL     OW20821   2.467   2.331   0.349
 6641SOL    HW120822   2.521   2.413   0.328
 6641SOL    HW220823   2.394   2.321   0.282
 6642SOL     OW20824   2.859   5.082   6.887
 6642SOL    HW120825   2.915   5.120   6.961
 6642SOL    HW220826   2.900   5.105   6.799
 6643SOL     OW20827   6.821   5.429   6.751
 6643SOL    HW120828   6.779   5.341   6.774
 6643SOL    HW220829   6.920   5.417   6.741
 6644SOL     OW20830   2.952   4.773   2.212
 6644SOL    HW120831   2.940   4.700   2.145
 6644SOL    HW220832   2.897   4.852   2.186
 6645SOL     OW20833   6.990   5.179   0.499
 6645SOL    HW120834   6.970   5.091   0.456
 6645SOL    HW220835   6.977   5.252   0.433
 6646SOL     OW20836   3.638   6.974   4.552
 6646SOL    HW120837   3.737   6.975   4.565
 6646SOL    HW220838   3.597   6.910   4.616
 6647SOL     OW20839   4.598   0.854   2.271
 6647SOL    HW120840   4.516   0.896   2.309
 6647SOL    HW220841   4.676   0.875   2.329
 6648SOL     OW20842   3.474   5.894   3.093
 6648SOL    HW120843   3.527   5.934   3.018
 6648SOL    HW220844   3.431   5.810   3.063
 6649SOL     OW20845   5.286   0.946   0.181
 6649SOL    HW120846   5.300   0.868   0.121
 6649SOL    HW220847   5.364   1.009   0.174
 6650SOL     OW20848   2.831   1.548   4.635
 6650SOL    HW120849   2.916   1.600   4.641
 6650SOL    HW220850   2.756   1.611   4.615
 6651SOL     OW20851   2.138   1.992   6.603
 6651SOL    HW120852   2.102   1.949   6.686
 6651SOL    HW220853   2.238   1.981   6.600
 6652SOL     OW20854   6.705   4.416   0.520
 6652SOL    HW120855   6.631   4.416   0.588
 6652SOL    HW220856   6.676   4.363   0.440
 6653SOL     OW20857   3.529   2.854   2.071
 6653SOL    HW120858   3.482   2.823   1.989
 6653SOL    HW220859   3.533   2.780   2.137
 6654SOL     OW20860   1.847   3.237   1.614
 6654SOL    HW120861   1.935   3.220   1.568
 6654SOL    HW220862   1.774   3.190   1.564
 6655SOL     OW20863   2.699   0.139   1.826
 6655SOL    HW120864   2.665   0.097   1.741
 6655SOL    HW220865   2.643   0.220   1.847
 6656SOL     OW20866   5.985   1.587   2.052
 6656SOL    HW120867   6.017   1.531   1.976
 6656SOL    HW220868   5.941   1.529   2.120
 6657SOL     OW20869   5.763   6.090   6.143
 6657SOL    HW120870   5.801   6.095   6.051
 6657SOL    HW220871   5.719   6.002   6.157
 6658SOL     OW20872   6.084   1.321   4.938
 6658SOL    HW120873   6.038   1.258   5.001
 6658SOL    HW220874   6.102   1.274   4.852
 6659SOL     OW20875   2.085   2.182   0.584
 6659SOL    HW120876   2.162   2.148   0.530
 6659SOL    HW220877   2.047   2.107   0.639
 6660SOL     OW20878   0.547   5.577   0.214
 6660SOL    HW120879   0.463   5.546   0.170
 6660SOL    HW220880   0.527   5.604   0.309
 6661SOL     OW20881   1.208   6.182   4.355
 6661SOL    HW120882   1.197   6.085   4.333
 6661SOL    HW220883   1.268   6.224   4.288
 6662SOL     OW20884   1.219   1.146   6.913
 6662SOL    HW120885   1.204   1.082   6.837
 6662SOL    HW220886   1.159   1.225   6.901
 6663SOL     OW20887   6.846   5.109   3.520
 6663SOL    HW120888   6.774   5.176   3.507
 6663SOL    HW220889   6.928   5.137   3.470
 6664SOL     OW20890   2.341   6.878   0.388
 6664SOL    HW120891   2.385   6.955   0.341
 6664SOL    HW220892   2.273   6.836   0.328
 6665SOL     OW20893   1.185   0.102   3.196
 6665SOL    HW120894   1.249   0.103   3.272
 6665SOL    HW220895   1.235   0.090   3.110
 6666SOL     OW20896   5.481   6.883   5.824
 6666SOL    HW120897   5.492   6.958   5.759
 6666SOL    HW220898   5.493   6.917   5.917
 6667SOL     OW20899   6.931   5.150   6.508
 6667SOL    HW120900   6.911   5.217   6.436
 6667SOL    HW220901   7.009   5.094   6.482
 6668SOL     OW20902   6.383   5.873   2.052
 6668SOL    HW120903   6.350   5.958   2.010
 6668SOL    HW220904   6.344   5.864   2.144
 6669SOL     OW20905   1.871   3.038   3.795
 6669SOL    HW120906   1.772   3.031   3.808
 6669SOL    HW220907   1.910   2.946   3.787
 6670SOL     OW20908   3.638   1.650   5.535
 6670SOL    HW120909   3.735   1.628   5.545
 6670SOL    HW220910   3.619   1.739   5.577
 6671SOL     OW20911   5.637   5.536   1.173
 6671SOL    HW120912   5.574   5.565   1.101
 6671SOL    HW220913   5.607   5.448   1.210
 6672SOL     OW20914   0.450   2.324   5.469
 6672SOL    HW120915   0.467   2.228   5.444
 6672SOL    HW220916   0.454   2.334   5.568
 6673SOL     OW20917   4.830   6.279   3.613
 6673SOL    HW120918   4.870   6.209   3.554
 6673SOL    HW220919   4.737   6.252   3.638
 6674SOL     OW20920   1.057   4.696   5.870
 6674SOL    HW120921   1.059   4.652   5.781
 6674SOL    HW220922   0.977   4.756   5.877
 6675SOL     OW20923   4.260   3.916   1.717
 6675SOL    HW120924   4.327   3.956   1.654
 6675SOL    HW220925   4.230   3.985   1.783
 6676SOL     OW20926   0.240   4.416   5.550
 6676SOL    HW120927   0.229   4.419   5.450
 6676SOL    HW220928   0.337   4.405   5.572
 6677SOL     OW20929   0.519   1.872   6.546
 6677SOL    HW120930   0.591   1.942   6.547
 6677SOL    HW220931   0.433   1.914   6.516
 6678SOL     OW20932   2.279   2.717   0.254
 6678SOL    HW120933   2.309   2.794   0.197
 6678SOL    HW220934   2.337   2.711   0.335
 6679SOL     OW20935   3.070   1.658   3.779
 6679SOL    HW120936   3.049   1.561   3.764
 6679SOL    HW220937   3.078   1.676   3.877
 6680SOL     OW20938   4.805   6.799   6.348
 6680SOL    HW120939   4.797   6.888   6.391
 6680SOL    HW220940   4.782   6.805   6.251
 6681SOL     OW20941   4.605   5.572   0.657
 6681SOL    HW120942   4.554   5.500   0.611
 6681SOL    HW220943   4.571   5.584   0.750
 6682SOL     OW20944   1.436   4.149   2.910
 6682SOL    HW120945   1.500   4.191   2.846
 6682SOL    HW220946   1.462   4.054   2.927
 6683SOL     OW20947   5.360   3.246   5.525
 6683SOL    HW120948   5.425   3.322   5.525
 6683SOL    HW220949   5.376   3.189   5.605
 6684SOL     OW20950   2.783   6.251   0.959
 6684SOL    HW120951   2.819   6.159   0.943
 6684SOL    HW220952   2.834   6.293   1.034
 6685SOL     OW20953   5.863   2.566   6.271
 6685SOL    HW120954   5.842   2.509   6.191
 6685SOL    HW220955   5.933   2.522   6.327
 6686SOL     OW20956   5.107   6.329   4.510
 6686SOL    HW120957   5.177   6.304   4.444
 6686SOL    HW220958   5.073   6.247   4.556
 6687SOL     OW20959   0.337   2.790   1.075
 6687SOL    HW120960   0.334   2.720   1.146
 6687SOL    HW220961   0.250   2.792   1.026
 6688SOL     OW20962   0.004   4.355   2.271
 6688SOL    HW120963   6.969   4.339   2.356
 6688SOL    HW220964   0.103   4.352   2.290
 6689SOL     OW20965   4.238   3.477   0.226
 6689SOL    HW120966   4.221   3.469   0.128
 6689SOL    HW220967   4.293   3.559   0.243
 6690SOL     OW20968   2.578   1.520   0.917
 6690SOL    HW120969   2.671   1.548   0.892
 6690SOL    HW220970   2.581   1.428   0.956
 6691SOL     OW20971   3.066   6.633   1.591
 6691SOL    HW120972   3.017   6.547   1.577
 6691SOL    HW220973   3.011   6.709   1.556
 6692SOL     OW20974   3.740   4.017   5.347
 6692SOL    HW120975   3.816   4.062   5.394
 6692SOL    HW220976   3.764   4.001   5.251
 6693SOL     OW20977   4.295   3.548   6.120
 6693SOL    HW120978   4.303   3.466   6.176
 6693SOL    HW220979   4.356   3.540   6.041
 6694SOL     OW20980   5.200   5.388   0.462
 6694SOL    HW120981   5.219   5.387   0.560
 6694SOL    HW220982   5.104   5.412   0.447
 6695SOL     OW20983   2.916   2.230   6.177
 6695SOL    HW120984   2.849   2.169   6.135
 6695SOL    HW220985   2.991   2.246   6.113
 6696SOL     OW20986   1.254   3.060   0.231
 6696SOL    HW120987   1.253   3.086   0.135
 6696SOL    HW220988   1.232   3.140   0.287
 6697SOL     OW20989   5.073   2.587   2.816
 6697SOL    HW120990   5.072   2.686   2.825
 6697SOL    HW220991   5.020   2.559   2.736
 6698SOL     OW20992   2.686   2.564   0.751
 6698SOL    HW120993   2.611   2.507   0.716
 6698SOL    HW220994   2.650   2.654   0.776
 6699SOL     OW20995   3.143   5.173   6.273
 6699SOL    HW120996   3.184   5.084   6.252
 6699SOL    HW220997   3.215   5.242   6.278
 6700SOL     OW20998   6.678   6.257   0.939
 6700SOL    HW120999   6.642   6.307   1.018
 6700SOL    HW221000   6.776   6.243   0.950
 6701SOL     OW21001   5.973   2.685   0.893
 6701SOL    HW121002   5.939   2.714   0.803
 6701SOL    HW221003   6.049   2.622   0.881
 6702SOL     OW21004   3.091   2.577   1.350
 6702SOL    HW121005   3.027   2.501   1.339
 6702SOL    HW221006   3.097   2.602   1.446
 6703SOL     OW21007   6.001   1.677   0.070
 6703SOL    HW121008   6.058   1.595   0.073
 6703SOL    HW221009   6.046   1.751   0.120
 6704SOL     OW21010   4.487   2.297   2.535
 6704SOL    HW121011   4.551   2.331   2.467
 6704SOL    HW221012   4.489   2.197   2.535
 6705SOL     OW21013   6.806   2.671   1.583
 6705SOL    HW121014   6.710   2.645   1.589
 6705SOL    HW221015   6.816   2.748   1.521
 6706SOL     OW21016   0.752   4.157   1.068
 6706SOL    HW121017   0.776   4.063   1.092
 6706SOL    HW221018   0.831   4.202   1.026
 6707SOL     OW21019   0.170   6.147   3.806
 6707SOL    HW121020   0.121   6.203   3.872
 6707SOL    HW221021   0.119   6.145   3.720
 6708SOL     OW21022   0.932   5.338   2.598
 6708SOL    HW121023   0.923   5.307   2.503
 6708SOL    HW221024   0.859   5.403   2.619
 6709SOL     OW21025   3.322   6.462   1.846
 6709SOL    HW121026   3.258   6.534   1.823
 6709SOL    HW221027   3.275   6.391   1.900
 6710SOL     OW21028   2.918   1.249   5.970
 6710SOL    HW121029   2.849   1.183   6.000
 6710SOL    HW221030   2.872   1.333   5.942
 6711SOL     OW21031   5.338   4.584   6.760
 6711SOL    HW121032   5.315   4.631   6.675
 6711SOL    HW221033   5.398   4.507   6.741
 6712SOL     OW21034   4.923   5.272   0.196
 6712SOL    HW121035   4.901   5.332   0.273
 6712SOL    HW221036   4.924   5.177   0.227
 6713SOL     OW21037   2.257   1.908   2.177
 6713SOL    HW121038   2.180   1.960   2.141
 6713SOL    HW221039   2.332   1.908   2.111
 6714SOL     OW21040   5.589   0.666   6.378
 6714SOL    HW121041   5.688   0.663   6.391
 6714SOL    HW221042   5.558   0.577   6.344
 6715SOL     OW21043   0.476   0.392   6.743
 6715SOL    HW121044   0.432   0.478   6.719
 6715SOL    HW221045   0.407   0.321   6.754
 6716SOL     OW21046   0.454   5.438   2.227
 6716SOL    HW121047   0.400   5.399   2.302
 6716SOL    HW221048   0.395   5.458   2.149
 6717SOL     OW21049   4.559   3.169   0.443
 6717SOL    HW121050   4.539   3.218   0.527
 6717SOL    HW221051   4.647   3.201   0.406
 6718SOL     OW21052   4.359   6.563   6.174
 6718SOL    HW121053   4.347   6.493   6.244
 6718SOL    HW221054   4.417   6.528   6.101
 6719SOL     OW21055   0.441   0.108   5.827
 6719SOL    HW121056   0.490   0.059   5.899
 6719SOL    HW221057   0.505   0.134   5.755
 6720SOL     OW21058   0.799   5.556   2.817
 6720SOL    HW121059   0.763   5.648   2.809
 6720SOL    HW221060   0.865   5.552   2.892
 6721SOL     OW21061   6.390   6.797   5.090
 6721SOL    HW121062   6.306   6.835   5.127
 6721SOL    HW221063   6.401   6.826   4.995
 6722SOL     OW21064   5.966   3.563   1.834
 6722SOL    HW121065   5.969   3.642   1.894
 6722SOL    HW221066   5.888   3.505   1.858
 6723SOL     OW21067   2.263   6.591   2.803
 6723SOL    HW121068   2.301   6.572   2.713
 6723SOL    HW221069   2.166   6.568   2.804
 6724SOL     OW21070   1.483   3.266   6.023
 6724SOL    HW121071   1.542   3.345   6.035
 6724SOL    HW221072   1.401   3.276   6.080
 6725SOL     OW21073   0.923   4.358   1.327
 6725SOL    HW121074   0.875   4.371   1.413
 6725SOL    HW221075   0.856   4.346   1.253
 6726SOL     OW21076   0.824   2.206   4.830
 6726SOL    HW121077   0.916   2.236   4.807
 6726SOL    HW221078   0.759   2.244   4.764
 6727SOL     OW21079   6.417   3.365   5.763
 6727SOL    HW121080   6.442   3.426   5.839
 6727SOL    HW221081   6.432   3.412   5.676
 6728SOL     OW21082   5.257   1.591   4.290
 6728SOL    HW121083   5.188   1.519   4.287
 6728SOL    HW221084   5.228   1.668   4.234
 6729SOL     OW21085   0.113   1.067   2.383
 6729SOL    HW121086   0.183   1.003   2.352
 6729SOL    HW221087   0.026   1.020   2.393
 6730SOL     OW21088   2.192   6.578   6.355
 6730SOL    HW121089   2.166   6.642   6.427
 6730SOL    HW221090   2.286   6.546   6.372
 6731SOL     OW21091   1.362   4.764   0.981
 6731SOL    HW121092   1.450   4.750   1.025
 6731SOL    HW221093   1.290   4.719   1.033
 6732SOL     OW21094   4.387   5.083   6.716
 6732SOL    HW121095   4.338   5.152   6.662
 6732SOL    HW221096   4.473   5.121   6.750
 6733SOL     OW21097   3.787   5.298   0.286
 6733SOL    HW121098   3.711   5.238   0.259
 6733SOL    HW221099   3.838   5.255   0.360
 6734SOL     OW21100   6.690   2.874   5.133
 6734SOL    HW121101   6.759   2.906   5.069
 6734SOL    HW221102   6.600   2.878   5.091
 6735SOL     OW21103   0.327   5.364   5.133
 6735SOL    HW121104   0.375   5.296   5.188
 6735SOL    HW221105   0.393   5.427   5.091
 6736SOL     OW21106   2.183   3.211   0.416
 6736SOL    HW121107   2.167   3.116   0.388
 6736SOL    HW221108   2.098   3.263   0.410
 6737SOL     OW21109   2.052   2.701   0.899
 6737SOL    HW121110   2.000   2.786   0.888
 6737SOL    HW221111   2.084   2.670   0.809
 6738SOL     OW21112   2.099   3.570   2.183
 6738SOL    HW121113   2.051   3.656   2.167
 6738SOL    HW221114   2.149   3.544   2.100
 6739SOL     OW21115   3.694   4.808   6.154
 6739SOL    HW121116   3.736   4.821   6.064
 6739SOL    HW221117   3.647   4.892   6.181
 6740SOL     OW21118   1.762   1.597   4.579
 6740SOL    HW121119   1.853   1.556   4.577
 6740SOL    HW221120   1.742   1.628   4.672
 6741SOL     OW21121   4.705   1.108   5.943
 6741SOL    HW121122   4.790   1.055   5.945
 6741SOL    HW221123   4.682   1.136   6.036
 6742SOL     OW21124   0.057   5.390   2.747
 6742SOL    HW121125   0.078   5.295   2.723
 6742SOL    HW221126   6.997   5.423   2.689
 6743SOL     OW21127   3.825   4.427   0.311
 6743SOL    HW121128   3.900   4.395   0.370
 6743SOL    HW221129   3.855   4.507   0.259
 6744SOL     OW21130   5.359   5.542   5.382
 6744SOL    HW121131   5.276   5.598   5.385
 6744SOL    HW221132   5.363   5.494   5.294
 6745SOL     OW21133   0.745   6.267   2.199
 6745SOL    HW121134   0.781   6.174   2.188
 6745SOL    HW221135   0.770   6.322   2.120
 6746SOL     OW21136   0.888   1.002   2.998
 6746SOL    HW121137   0.942   1.086   3.001
 6746SOL    HW221138   0.889   0.965   2.905
 6747SOL     OW21139   5.393   0.114   4.957
 6747SOL    HW121140   5.433   0.129   5.048
 6747SOL    HW221141   5.302   0.074   4.968
 6748SOL     OW21142   1.377   0.718   3.038
 6748SOL    HW121143   1.288   0.742   3.000
 6748SOL    HW221144   1.437   0.798   3.035
 6749SOL     OW21145   2.947   5.766   0.467
 6749SOL    HW121146   2.861   5.797   0.426
 6749SOL    HW221147   3.021   5.776   0.401
 6750SOL     OW21148   3.731   1.529   4.637
 6750SOL    HW121149   3.704   1.503   4.730
 6750SOL    HW221150   3.828   1.551   4.636
 6751SOL     OW21151   4.024   1.605   4.205
 6751SOL    HW121152   4.095   1.619   4.274
 6751SOL    HW221153   4.059   1.629   4.115
 6752SOL     OW21154   6.392   3.316   2.436
 6752SOL    HW121155   6.445   3.308   2.520
 6752SOL    HW221156   6.453   3.305   2.357
 6753SOL     OW21157   4.916   0.606   6.609
 6753SOL    HW121158   4.955   0.518   6.581
 6753SOL    HW221159   4.976   0.648   6.677
 6754SOL     OW21160   6.409   1.810   6.093
 6754SOL    HW121161   6.488   1.767   6.050
 6754SOL    HW221162   6.398   1.775   6.186
 6755SOL     OW21163   4.654   1.648   3.381
 6755SOL    HW121164   4.725   1.597   3.430
 6755SOL    HW221165   4.697   1.721   3.328
 6756SOL     OW21166   4.781   4.304   4.825
 6756SOL    HW121167   4.738   4.388   4.857
 6756SOL    HW221168   4.724   4.262   4.754
 6757SOL     OW21169   4.941   6.220   0.621
 6757SOL    HW121170   4.907   6.313   0.637
 6757SOL    HW221171   4.876   6.169   0.564
 6758SOL     OW21172   6.148   3.714   1.433
 6758SOL    HW121173   6.199   3.773   1.495
 6758SOL    HW221174   6.205   3.637   1.404
 6759SOL     OW21175   1.020   3.425   4.513
 6759SOL    HW121176   1.096   3.491   4.515
 6759SOL    HW221177   1.027   3.367   4.432
 6760SOL     OW21178   6.556   5.037   4.431
 6760SOL    HW121179   6.553   5.075   4.523
 6760SOL    HW221180   6.467   4.994   4.410
 6761SOL     OW21181   5.618   2.267   6.483
 6761SOL    HW121182   5.561   2.318   6.548
 6761SOL    HW221183   5.592   2.293   6.390
 6762SOL     OW21184   0.136   5.483   3.094
 6762SOL    HW121185   0.198   5.485   3.015
 6762SOL    HW221186   0.044   5.458   3.064
 6763SOL     OW21187   6.607   6.030   3.638
 6763SOL    HW121188   6.597   6.016   3.737
 6763SOL    HW221189   6.691   5.986   3.607
 6764SOL     OW21190   2.563   4.878   6.390
 6764SOL    HW121191   2.656   4.841   6.393
 6764SOL    HW221192   2.507   4.823   6.330
 6765SOL     OW21193   5.267   5.478   3.237
 6765SOL    HW121194   5.218   5.528   3.309
 6765SOL    HW221195   5.286   5.385   3.268
 6766SOL     OW21196   3.059   6.414   6.759
 6766SOL    HW121197   3.147   6.397   6.715
 6766SOL    HW221198   3.046   6.513   6.770
 6767SOL     OW21199   0.472   2.161   1.052
 6767SOL    HW121200   0.390   2.106   1.039
 6767SOL    HW221201   0.544   2.130   0.989
 6768SOL     OW21202   0.881   0.264   3.769
 6768SOL    HW121203   0.853   0.316   3.689
 6768SOL    HW221204   0.824   0.290   3.847
 6769SOL     OW21205   2.851   1.120   5.267
 6769SOL    HW121206   2.906   1.117   5.184
 6769SOL    HW221207   2.902   1.078   5.342
 6770SOL     OW21208   6.807   2.190   3.422
 6770SOL    HW121209   6.865   2.119   3.384
 6770SOL    HW221210   6.853   2.232   3.501
 6771SOL     OW21211   3.954   2.088   3.582
 6771SOL    HW121212   3.956   1.997   3.623
 6771SOL    HW221213   3.868   2.101   3.534
 6772SOL     OW21214   5.388   1.458   2.080
 6772SOL    HW121215   5.366   1.362   2.061
 6772SOL    HW221216   5.475   1.463   2.129
 6773SOL     OW21217   0.135   6.654   1.158
 6773SOL    HW121218   0.118   6.556   1.152
 6773SOL    HW221219   0.048   6.703   1.162
 6774SOL     OW21220   1.883   2.353   5.354
 6774SOL    HW121221   1.925   2.418   5.418
 6774SOL    HW221222   1.785   2.372   5.347
 6775SOL     OW21223   0.773   1.688   3.408
 6775SOL    HW121224   0.830   1.762   3.443
 6775SOL    HW221225   0.688   1.725   3.372
 6776SOL     OW21226   3.937   3.916   1.981
 6776SOL    HW121227   3.846   3.950   2.007
 6776SOL    HW221228   3.971   3.968   1.903
 6777SOL     OW21229   4.456   5.056   0.813
 6777SOL    HW121230   4.422   4.965   0.839
 6777SOL    HW221231   4.554   5.049   0.794
 6778SOL     OW21232   5.946   3.312   2.170
 6778SOL    HW121233   6.022   3.290   2.108
 6778SOL    HW221234   5.983   3.339   2.259
 6779SOL     OW21235   5.081   4.211   6.243
 6779SOL    HW121236   5.057   4.236   6.337
 6779SOL    HW221237   5.129   4.123   6.243
 6780SOL     OW21238   1.957   3.872   2.606
 6780SOL    HW121239   2.036   3.840   2.554
 6780SOL    HW221240   1.945   3.814   2.687
 6781SOL     OW21241   6.546   1.133   3.530
 6781SOL    HW121242   6.577   1.040   3.510
 6781SOL    HW221243   6.448   1.132   3.549
 6782SOL     OW21244   0.960   0.811   3.594
 6782SOL    HW121245   1.017   0.844   3.670
 6782SOL    HW221246   1.018   0.787   3.517
 6783SOL     OW21247   0.852   3.898   4.958
 6783SOL    HW121248   0.878   3.907   5.054
 6783SOL    HW221249   0.788   3.821   4.948
 6784SOL     OW21250   2.782   3.914   1.646
 6784SOL    HW121251   2.693   3.934   1.687
 6784SOL    HW221252   2.818   3.829   1.686
 6785SOL     OW21253   5.817   4.801   5.448
 6785SOL    HW121254   5.900   4.857   5.458
 6785SOL    HW221255   5.814   4.733   5.520
 6786SOL     OW21256   6.928   2.416   0.417
 6786SOL    HW121257   6.968   2.441   0.329
 6786SOL    HW221258   6.997   2.429   0.489
 6787SOL     OW21259   3.304   2.375   1.215
 6787SOL    HW121260   3.291   2.464   1.258
 6787SOL    HW221261   3.266   2.304   1.274
 6788SOL     OW21262   0.484   3.682   2.485
 6788SOL    HW121263   0.471   3.665   2.388
 6788SOL    HW221264   0.444   3.607   2.538
 6789SOL     OW21265   0.093   4.746   4.703
 6789SOL    HW121266   0.061   4.662   4.659
 6789SOL    HW221267   0.031   4.821   4.681
 6790SOL     OW21268   0.229   4.930   6.029
 6790SOL    HW121269   0.261   4.935   6.123
 6790SOL    HW221270   0.170   5.009   6.011
 6791SOL     OW21271   4.734   1.879   3.245
 6791SOL    HW121272   4.764   1.877   3.150
 6791SOL    HW221273   4.649   1.931   3.253
 6792SOL     OW21274   3.743   6.627   5.443
 6792SOL    HW121275   3.755   6.702   5.377
 6792SOL    HW221276   3.669   6.650   5.507
 6793SOL     OW21277   3.050   1.981   0.083
 6793SOL    HW121278   3.071   1.886   0.062
 6793SOL    HW221279   3.093   2.041   0.015
 6794SOL     OW21280   4.846   0.910   5.730
 6794SOL    HW121281   4.827   0.817   5.760
 6794SOL    HW221282   4.945   0.924   5.728
 6795SOL     OW21283   1.461   0.387   0.887
 6795SOL    HW121284   1.447   0.437   0.972
 6795SOL    HW221285   1.443   0.290   0.903
 6796SOL     OW21286   5.348   1.191   2.043
 6796SOL    HW121287   5.248   1.185   2.049
 6796SOL    HW221288   5.379   1.140   1.964
 6797SOL     OW21289   6.655   2.826   1.327
 6797SOL    HW121290   6.689   2.816   1.234
 6797SOL    HW221291   6.591   2.903   1.331
 6798SOL     OW21292   5.383   6.723   1.753
 6798SOL    HW121293   5.331   6.752   1.672
 6798SOL    HW221294   5.371   6.791   1.826
 6799SOL     OW21295   5.503   0.835   2.881
 6799SOL    HW121296   5.482   0.826   2.978
 6799SOL    HW221297   5.595   0.800   2.863
 6800SOL     OW21298   1.773   1.988   1.225
 6800SOL    HW121299   1.841   2.060   1.239
 6800SOL    HW221300   1.803   1.905   1.272
 6801SOL     OW21301   1.550   6.406   4.508
 6801SOL    HW121302   1.580   6.383   4.415
 6801SOL    HW221303   1.531   6.322   4.558
 6802SOL     OW21304   3.589   6.176   1.018
 6802SOL    HW121305   3.511   6.138   1.067
 6802SOL    HW221306   3.561   6.256   0.966
 6803SOL     OW21307   5.107   4.433   6.904
 6803SOL    HW121308   5.093   4.347   6.855
 6803SOL    HW221309   5.182   4.484   6.862
 6804SOL     OW21310   2.986   5.164   3.130
 6804SOL    HW121311   2.953   5.205   3.215
 6804SOL    HW221312   2.959   5.068   3.126
 6805SOL     OW21313   0.663   4.806   6.076
 6805SOL    HW121314   0.577   4.785   6.030
 6805SOL    HW221315   0.718   4.722   6.082
 6806SOL     OW21316   6.966   1.212   4.285
 6806SOL    HW121317   0.039   1.246   4.318
 6806SOL    HW221318   6.950   1.244   4.191
 6807SOL     OW21319   3.655   2.908   3.603
 6807SOL    HW121320   3.701   2.918   3.692
 6807SOL    HW221321   3.692   2.974   3.538
 6808SOL     OW21322   5.202   1.101   4.846
 6808SOL    HW121323   5.119   1.084   4.899
 6808SOL    HW221324   5.268   1.150   4.904
 6809SOL     OW21325   6.614   4.197   1.194
 6809SOL    HW121326   6.665   4.190   1.109
 6809SOL    HW221327   6.530   4.249   1.179
 6810SOL     OW21328   3.619   1.065   3.487
 6810SOL    HW121329   3.644   0.970   3.469
 6810SOL    HW221330   3.542   1.068   3.551
 6811SOL     OW21331   6.695   2.542   2.080
 6811SOL    HW121332   6.639   2.556   1.998
 6811SOL    HW221333   6.746   2.456   2.071
 6812SOL     OW21334   3.360   3.490   4.437
 6812SOL    HW121335   3.282   3.428   4.445
 6812SOL    HW221336   3.331   3.576   4.394
 6813SOL     OW21337   5.086   3.584   1.925
 6813SOL    HW121338   4.992   3.572   1.956
 6813SOL    HW221339   5.094   3.672   1.877
 6814SOL     OW21340   4.293   1.470   6.032
 6814SOL    HW121341   4.238   1.387   6.036
 6814SOL    HW221342   4.386   1.448   6.003
 6815SOL     OW21343   1.541   5.267   7.007
 6815SOL    HW121344   1.460   5.325   6.999
 6815SOL    HW221345   1.599   5.279   6.927
 6816SOL     OW21346   6.639   1.598   4.472
 6816SOL    HW121347   6.689   1.681   4.448
 6816SOL    HW221348   6.642   1.534   4.395
 6817SOL     OW21349   2.924   2.090   3.540
 6817SOL    HW121350   2.825   2.100   3.530
 6817SOL    HW221351   2.967   2.094   3.449
 6818SOL     OW21352   2.387   6.338   5.887
 6818SOL    HW121353   2.387   6.285   5.972
 6818SOL    HW221354   2.405   6.277   5.810
 6819SOL     OW21355   4.862   6.222   3.083
 6819SOL    HW121356   4.906   6.133   3.071
 6819SOL    HW221357   4.842   6.262   2.994
 6820SOL     OW21358   1.741   6.217   1.505
 6820SOL    HW121359   1.656   6.236   1.552
 6820SOL    HW221360   1.798   6.299   1.504
 6821SOL     OW21361   4.662   2.315   5.665
 6821SOL    HW121362   4.761   2.300   5.670
 6821SOL    HW221363   4.628   2.344   5.754
 6822SOL     OW21364   6.938   2.511   6.518
 6822SOL    HW121365   6.852   2.515   6.468
 6822SOL    HW221366   6.979   2.602   6.524
 6823SOL     OW21367   5.467   3.369   6.421
 6823SOL    HW121368   5.524   3.427   6.480
 6823SOL    HW221369   5.456   3.279   6.463
 6824SOL     OW21370   1.423   1.878   0.119
 6824SOL    HW121371   1.509   1.897   0.072
 6824SOL    HW221372   1.362   1.827   0.059
 6825SOL     OW21373   6.451   6.055   0.487
 6825SOL    HW121374   6.462   6.018   0.579
 6825SOL    HW221375   6.420   5.983   0.425
 6826SOL     OW21376   0.503   3.314   3.175
 6826SOL    HW121377   0.448   3.236   3.144
 6826SOL    HW221378   0.597   3.302   3.144
 6827SOL     OW21379   5.093   5.098   5.556
 6827SOL    HW121380   5.126   5.100   5.461
 6827SOL    HW221381   5.105   5.006   5.594
 6828SOL     OW21382   3.227   1.558   2.836
 6828SOL    HW121383   3.268   1.520   2.754
 6828SOL    HW221384   3.242   1.657   2.839
 6829SOL     OW21385   4.724   6.897   5.277
 6829SOL    HW121386   4.805   6.931   5.230
 6829SOL    HW221387   4.750   6.866   5.369
 6830SOL     OW21388   6.090   1.571   3.133
 6830SOL    HW121389   6.057   1.527   3.216
 6830SOL    HW221390   6.130   1.501   3.073
 6831SOL     OW21391   0.965   1.299   5.634
 6831SOL    HW121392   0.995   1.280   5.540
 6831SOL    HW221393   0.866   1.291   5.639
 6832SOL     OW21394   2.646   2.840   0.139
 6832SOL    HW121395   2.549   2.838   0.115
 6832SOL    HW221396   2.701   2.847   0.056
 6833SOL     OW21397   3.770   5.669   5.978
 6833SOL    HW121398   3.716   5.706   5.902
 6833SOL    HW221399   3.810   5.745   6.029
 6834SOL     OW21400   5.186   6.981   0.764
 6834SOL    HW121401   5.170   6.883   0.781
 6834SOL    HW221402   5.164   0.018   0.846
 6835SOL     OW21403   3.745   1.529   4.375
 6835SOL    HW121404   3.717   1.624   4.362
 6835SOL    HW221405   3.745   1.507   4.473
 6836SOL     OW21406   1.963   4.364   6.853
 6836SOL    HW121407   2.038   4.430   6.860
 6836SOL    HW221408   1.876   4.412   6.846
 6837SOL     OW21409   1.217   1.295   2.753
 6837SOL    HW121410   1.243   1.313   2.658
 6837SOL    HW221411   1.173   1.375   2.792
 6838SOL     OW21412   3.085   4.322   5.272
 6838SOL    HW121413   3.012   4.256   5.292
 6838SOL    HW221414   3.050   4.391   5.208
 6839SOL     OW21415   5.210   2.174   3.542
 6839SOL    HW121416   5.284   2.139   3.484
 6839SOL    HW221417   5.147   2.227   3.485
 6840SOL     OW21418   2.512   6.717   4.912
 6840SOL    HW121419   2.552   6.710   4.820
 6840SOL    HW221420   2.450   6.640   4.927
 6841SOL     OW21421   4.201   5.098   1.891
 6841SOL    HW121422   4.287   5.069   1.848
 6841SOL    HW221423   4.125   5.048   1.851
 6842SOL     OW21424   0.988   3.028   6.961
 6842SOL    HW121425   0.910   3.081   6.928
 6842SOL    HW221426   0.955   2.953   0.005
 6843SOL     OW21427   5.045   1.202   1.691
 6843SOL    HW121428   4.958   1.158   1.712
 6843SOL    HW221429   5.090   1.230   1.776
 6844SOL     OW21430   5.191   5.609   4.357
 6844SOL    HW121431   5.186   5.655   4.446
 6844SOL    HW221432   5.210   5.677   4.286
 6845SOL     OW21433   4.710   4.176   2.151
 6845SOL    HW121434   4.739   4.081   2.162
 6845SOL    HW221435   4.638   4.181   2.082
 6846SOL     OW21436   3.891   3.251   0.973
 6846SOL    HW121437   3.981   3.273   0.935
 6846SOL    HW221438   3.844   3.187   0.912
 6847SOL     OW21439   5.124   3.921   2.115
 6847SOL    HW121440   5.154   4.017   2.109
 6847SOL    HW221441   5.110   3.886   2.022
 6848SOL     OW21442   1.191   4.941   4.118
 6848SOL    HW121443   1.290   4.936   4.105
 6848SOL    HW221444   1.157   5.028   4.083
 6849SOL     OW21445   3.534   5.956   4.278
 6849SOL    HW121446   3.542   5.856   4.275
 6849SOL    HW221447   3.480   5.983   4.357
 6850SOL     OW21448   5.902   2.560   2.783
 6850SOL    HW121449   5.868   2.611   2.704
 6850SOL    HW221450   5.987   2.601   2.816
 6851SOL     OW21451   1.526   4.628   5.278
 6851SOL    HW121452   1.485   4.673   5.358
 6851SOL    HW221453   1.590   4.690   5.234
 6852SOL     OW21454   1.446   4.415   1.006
 6852SOL    HW121455   1.405   4.451   0.922
 6852SOL    HW221456   1.392   4.337   1.038
 6853SOL     OW21457   6.904   4.828   6.596
 6853SOL    HW121458   6.835   4.882   6.644
 6853SOL    HW221459   6.863   4.788   6.514
 6854SOL     OW21460   5.699   0.939   5.867
 6854SOL    HW121461   5.673   0.850   5.904
 6854SOL    HW221462   5.617   0.991   5.843
 6855SOL     OW21463   3.192   6.764   3.200
 6855SOL    HW121464   3.221   6.673   3.170
 6855SOL    HW221465   3.157   6.816   3.122
 6856SOL     OW21466   5.260   4.730   5.340
 6856SOL    HW121467   5.270   4.747   5.438
 6856SOL    HW221468   5.286   4.635   5.320
 6857SOL     OW21469   3.149   1.018   6.513
 6857SOL    HW121470   3.221   0.972   6.460
 6857SOL    HW221471   3.060   0.998   6.473
 6858SOL     OW21472   4.024   3.220   4.842
 6858SOL    HW121473   4.069   3.305   4.816
 6858SOL    HW221474   4.021   3.159   4.763
 6859SOL     OW21475   1.647   6.516   1.166
 6859SOL    HW121476   1.583   6.456   1.119
 6859SOL    HW221477   1.646   6.496   1.264
 6860SOL     OW21478   6.072   4.915   1.866
 6860SOL    HW121479   6.086   4.817   1.862
 6860SOL    HW221480   6.160   4.962   1.856
 6861SOL     OW21481   5.648   4.251   1.178
 6861SOL    HW121482   5.640   4.162   1.134
 6861SOL    HW221483   5.564   4.303   1.166
 6862SOL     OW21484   2.674   4.730   4.599
 6862SOL    HW121485   2.692   4.637   4.566
 6862SOL    HW221486   2.744   4.792   4.562
 6863SOL     OW21487   5.983   1.184   5.195
 6863SOL    HW121488   5.918   1.250   5.233
 6863SOL    HW221489   5.932   1.109   5.153
 6864SOL     OW21490   3.738   6.184   4.330
 6864SOL    HW121491   3.674   6.109   4.312
 6864SOL    HW221492   3.817   6.149   4.380
 6865SOL     OW21493   6.470   4.881   3.586
 6865SOL    HW121494   6.461   4.830   3.501
 6865SOL    HW221495   6.564   4.871   3.621
 6866SOL     OW21496   6.330   4.414   2.163
 6866SOL    HW121497   6.266   4.357   2.112
 6866SOL    HW221498   6.363   4.489   2.106
 6867SOL     OW21499   0.994   4.768   0.905
 6867SOL    HW121500   1.074   4.778   0.846
 6867SOL    HW221501   1.018   4.711   0.984
 6868SOL     OW21502   1.540   5.643   5.261
 6868SOL    HW121503   1.629   5.685   5.278
 6868SOL    HW221504   1.468   5.704   5.292
 6869SOL     OW21505   5.650   2.518   5.558
 6869SOL    HW121506   5.650   2.420   5.540
 6869SOL    HW221507   5.662   2.569   5.473
 6870SOL     OW21508   6.458   3.690   3.029
 6870SOL    HW121509   6.405   3.605   3.031
 6870SOL    HW221510   6.449   3.732   2.938
 6871SOL     OW21511   6.439   4.964   2.033
 6871SOL    HW121512   6.377   4.903   2.082
 6871SOL    HW221513   6.395   4.996   1.949
 6872SOL     OW21514   2.511   3.671   0.856
 6872SOL    HW121515   2.414   3.646   0.852
 6872SOL    HW221516   2.562   3.616   0.790
 6873SOL     OW21517   5.981   3.292   5.664
 6873SOL    HW121518   6.019   3.340   5.584
 6873SOL    HW221519   6.053   3.242   5.710
 6874SOL     OW21520   0.921   3.515   3.822
 6874SOL    HW121521   0.973   3.595   3.794
 6874SOL    HW221522   0.830   3.543   3.854
 6875SOL     OW21523   1.894   2.184   3.937
 6875SOL    HW121524   1.946   2.189   3.852
 6875SOL    HW221525   1.874   2.277   3.968
 6876SOL     OW21526   3.673   5.247   6.680
 6876SOL    HW121527   3.653   5.251   6.778
 6876SOL    HW221528   3.588   5.254   6.628
 6877SOL     OW21529   2.707   4.188   0.038
 6877SOL    HW121530   2.663   4.200   6.964
 6877SOL    HW221531   2.639   4.158   0.105
 6878SOL     OW21532   2.322   1.589   5.347
 6878SOL    HW121533   2.341   1.658   5.417
 6878SOL    HW221534   2.224   1.584   5.330
 6879SOL     OW21535   1.030   2.303   0.313
 6879SOL    HW121536   0.991   2.362   0.384
 6879SOL    HW221537   0.957   2.274   0.250
 6880SOL     OW21538   2.160   3.475   5.038
 6880SOL    HW121539   2.180   3.513   4.948
 6880SOL    HW221540   2.170   3.376   5.035
 6881SOL     OW21541   6.718   4.354   2.082
 6881SOL    HW121542   6.789   4.394   2.140
 6881SOL    HW221543   6.681   4.272   2.127
 6882SOL     OW21544   2.123   0.369   5.752
 6882SOL    HW121545   2.219   0.389   5.772
 6882SOL    HW221546   2.064   0.414   5.819
 6883SOL     OW21547   3.856   0.889   0.796
 6883SOL    HW121548   3.903   0.977   0.794
 6883SOL    HW221549   3.831   0.862   0.703
 6884SOL     OW21550   2.255   4.246   4.377
 6884SOL    HW121551   2.334   4.306   4.363
 6884SOL    HW221552   2.277   4.177   4.446
 6885SOL     OW21553   2.797   5.409   3.989
 6885SOL    HW121554   2.882   5.459   3.975
 6885SOL    HW221555   2.816   5.327   4.043
 6886SOL     OW21556   6.811   0.643   2.496
 6886SOL    HW121557   6.875   0.699   2.549
 6886SOL    HW221558   6.842   0.548   2.497
 6887SOL     OW21559   5.370   0.266   5.484
 6887SOL    HW121560   5.406   0.181   5.446
 6887SOL    HW221561   5.278   0.249   5.520
 6888SOL     OW21562   5.745   6.570   6.166
 6888SOL    HW121563   5.802   6.491   6.191
 6888SOL    HW221564   5.802   6.641   6.125
 6889SOL     OW21565   1.054   2.770   5.704
 6889SOL    HW121566   1.014   2.830   5.772
 6889SOL    HW221567   1.048   2.675   5.734
 6890SOL     OW21568   2.279   6.035   0.642
 6890SOL    HW121569   2.340   5.967   0.602
 6890SOL    HW221570   2.314   6.062   0.732
 6891SOL     OW21571   1.944   3.938   4.660
 6891SOL    HW121572   2.022   3.909   4.716
 6891SOL    HW221573   1.949   3.894   4.570
 6892SOL     OW21574   4.059   0.675   4.227
 6892SOL    HW121575   4.146   0.669   4.180
 6892SOL    HW221576   4.022   0.582   4.240
 6893SOL     OW21577   5.761   6.729   1.815
 6893SOL    HW121578   5.852   6.769   1.810
 6893SOL    HW221579   5.698   6.783   1.759
 6894SOL     OW21580   6.061   5.748   0.280
 6894SOL    HW121581   6.054   5.812   0.357
 6894SOL    HW221582   6.097   5.796   0.200
 6895SOL     OW21583   3.036   5.140   0.107
 6895SOL    HW121584   2.961   5.098   0.157
 6895SOL    HW221585   3.121   5.089   0.125
 6896SOL     OW21586   3.528   6.939   3.742
 6896SOL    HW121587   3.460   6.901   3.804
 6896SOL    HW221588   3.595   6.992   3.794
 6897SOL     OW21589   2.923   3.744   0.139
 6897SOL    HW121590   2.929   3.760   0.237
 6897SOL    HW221591   2.917   3.831   0.091
 6898SOL     OW21592   3.575   1.761   1.934
 6898SOL    HW121593   3.567   1.738   1.837
 6898SOL    HW221594   3.643   1.833   1.946
 6899SOL     OW21595   4.836   6.640   6.875
 6899SOL    HW121596   4.877   6.662   6.963
 6899SOL    HW221597   4.742   6.675   6.872
 6900SOL     OW21598   6.240   0.280   6.035
 6900SOL    HW121599   6.295   0.268   6.118
 6900SOL    HW221600   6.146   0.252   6.054
 6901SOL     OW21601   0.389   0.301   6.443
 6901SOL    HW121602   0.415   0.337   6.354
 6901SOL    HW221603   0.439   0.217   6.462
 6902SOL     OW21604   0.162   6.302   0.788
 6902SOL    HW121605   0.120   6.215   0.763
 6902SOL    HW221606   0.260   6.298   0.772
 6903SOL     OW21607   3.330   3.612   6.380
 6903SOL    HW121608   3.319   3.547   6.304
 6903SOL    HW221609   3.379   3.693   6.348
 6904SOL     OW21610   6.982   1.293   3.478
 6904SOL    HW121611   6.998   1.267   3.573
 6904SOL    HW221612   6.886   1.319   3.467
 6905SOL     OW21613   6.654   6.515   6.729
 6905SOL    HW121614   6.583   6.575   6.765
 6905SOL    HW221615   6.631   6.420   6.751
 6906SOL     OW21616   4.240   1.222   3.870
 6906SOL    HW121617   4.281   1.264   3.951
 6906SOL    HW221618   4.164   1.163   3.897
 6907SOL     OW21619   4.509   2.022   1.095
 6907SOL    HW121620   4.501   2.105   1.039
 6907SOL    HW221621   4.437   1.958   1.069
 6908SOL     OW21622   1.024   0.190   5.266
 6908SOL    HW121623   1.009   0.120   5.336
 6908SOL    HW221624   1.095   0.253   5.298
 6909SOL     OW21625   5.034   4.784   1.292
 6909SOL    HW121626   5.012   4.687   1.294
 6909SOL    HW221627   5.052   4.812   1.198
 6910SOL     OW21628   6.664   2.409   2.594
 6910SOL    HW121629   6.608   2.484   2.561
 6910SOL    HW221630   6.677   2.342   2.521
 6911SOL     OW21631   3.862   0.841   3.117
 6911SOL    HW121632   3.906   0.918   3.071
 6911SOL    HW221633   3.772   0.870   3.151
 6912SOL     OW21634   5.023   4.929   1.735
 6912SOL    HW121635   5.060   4.911   1.826
 6912SOL    HW221636   5.030   5.026   1.714
 6913SOL     OW21637   5.237   4.274   5.526
 6913SOL    HW121638   5.282   4.208   5.586
 6913SOL    HW221639   5.140   4.251   5.518
 6914SOL     OW21640   6.035   5.143   6.792
 6914SOL    HW121641   6.031   5.131   6.693
 6914SOL    HW221642   5.970   5.081   6.836
 6915SOL     OW21643   0.040   4.819   1.717
 6915SOL    HW121644   0.088   4.861   1.641
 6915SOL    HW221645   7.007   4.737   1.685
 6916SOL     OW21646   6.365   3.772   6.977
 6916SOL    HW121647   6.311   3.719   0.027
 6916SOL    HW221648   6.377   3.865   7.010
 6917SOL     OW21649   3.952   5.130   0.078
 6917SOL    HW121650   3.981   5.192   0.005
 6917SOL    HW221651   3.902   5.181   0.148
 6918SOL     OW21652   0.307   4.317   4.466
 6918SOL    HW121653   0.405   4.302   4.479
 6918SOL    HW221654   0.278   4.399   4.515
 6919SOL     OW21655   1.244   5.769   2.431
 6919SOL    HW121656   1.310   5.748   2.359
 6919SOL    HW221657   1.216   5.865   2.423
 6920SOL     OW21658   4.841   5.058   5.465
 6920SOL    HW121659   4.937   5.065   5.493
 6920SOL    HW221660   4.782   5.051   5.545
 6921SOL     OW21661   5.107   5.908   3.270
 6921SOL    HW121662   5.041   5.940   3.202
 6921SOL    HW221663   5.174   5.980   3.288
 6922SOL     OW21664   1.590   5.571   0.057
 6922SOL    HW121665   1.637   5.485   0.074
 6922SOL    HW221666   1.544   5.568   6.983
 6923SOL     OW21667   5.679   6.662   3.459
 6923SOL    HW121668   5.707   6.571   3.490
 6923SOL    HW221669   5.721   6.731   3.517
 6924SOL     OW21670   0.979   4.321   6.852
 6924SOL    HW121671   1.075   4.295   6.850
 6924SOL    HW221672   0.970   4.411   6.894
 6925SOL     OW21673   4.131   6.005   4.048
 6925SOL    HW121674   4.076   5.934   4.090
 6925SOL    HW221675   4.079   6.091   4.045
 6926SOL     OW21676   3.435   3.149   2.803
 6926SOL    HW121677   3.444   3.051   2.821
 6926SOL    HW221678   3.519   3.196   2.828
 6927SOL     OW21679   6.224   3.020   6.573
 6927SOL    HW121680   6.205   2.952   6.644
 6927SOL    HW221681   6.241   2.974   6.486
 6928SOL     OW21682   5.729   6.824   0.825
 6928SOL    HW121683   5.719   6.923   0.841
 6928SOL    HW221684   5.774   6.809   0.737
 6929SOL     OW21685   4.924   5.374   0.439
 6929SOL    HW121686   4.886   5.429   0.513
 6929SOL    HW221687   4.951   5.284   0.475
 6930SOL     OW21688   0.271   6.762   1.605
 6930SOL    HW121689   0.181   6.725   1.580
 6930SOL    HW221690   0.268   6.797   1.698
 6931SOL     OW21691   1.057   0.778   1.826
 6931SOL    HW121692   1.031   0.870   1.795
 6931SOL    HW221693   0.974   0.724   1.844
 6932SOL     OW21694   3.863   0.989   0.202
 6932SOL    HW121695   3.943   1.042   0.231
 6932SOL    HW221696   3.794   0.991   0.275
 6933SOL     OW21697   3.372   6.361   4.778
 6933SOL    HW121698   3.311   6.436   4.804
 6933SOL    HW221699   3.384   6.361   4.679
 6934SOL     OW21700   4.981   4.141   5.867
 6934SOL    HW121701   4.993   4.116   5.771
 6934SOL    HW221702   5.070   4.165   5.906
 6935SOL     OW21703   4.012   6.769   3.193
 6935SOL    HW121704   3.936   6.807   3.246
 6935SOL    HW221705   4.083   6.735   3.255
 6936SOL     OW21706   6.728   2.268   2.369
 6936SOL    HW121707   6.817   2.242   2.332
 6936SOL    HW221708   6.667   2.293   2.294
 6937SOL     OW21709   6.250   6.784   0.041
 6937SOL    HW121710   6.193   6.782   0.123
 6937SOL    HW221711   6.192   6.778   6.975
 6938SOL     OW21712   4.987   3.872   5.437
 6938SOL    HW121713   5.038   3.807   5.494
 6938SOL    HW221714   4.911   3.824   5.392
 6939SOL     OW21715   0.339   4.941   2.859
 6939SOL    HW121716   0.422   4.936   2.916
 6939SOL    HW221717   0.259   4.925   2.916
 6940SOL     OW21718   4.961   0.984   0.530
 6940SOL    HW121719   4.907   1.059   0.492
 6940SOL    HW221720   5.053   0.987   0.490
 6941SOL     OW21721   4.082   3.204   2.615
 6941SOL    HW121722   3.988   3.169   2.614
 6941SOL    HW221723   4.146   3.128   2.600
 6942SOL     OW21724   6.668   2.892   1.063
 6942SOL    HW121725   6.720   2.975   1.046
 6942SOL    HW221726   6.679   2.830   0.985
 6943SOL     OW21727   5.062   6.100   6.892
 6943SOL    HW121728   5.055   6.196   6.919
 6943SOL    HW221729   4.971   6.067   6.865
 6944SOL     OW21730   1.476   4.401   5.568
 6944SOL    HW121731   1.527   4.390   5.653
 6944SOL    HW221732   1.536   4.384   5.490
 6945SOL     OW21733   6.116   2.823   6.833
 6945SOL    HW121734   6.084   2.762   6.906
 6945SOL    HW221735   6.160   2.768   6.762
 6946SOL     OW21736   6.120   5.485   2.480
 6946SOL    HW121737   6.040   5.533   2.444
 6946SOL    HW221738   6.090   5.408   2.536
 6947SOL     OW21739   3.714   6.931   4.958
 6947SOL    HW121740   3.625   6.954   4.997
 6947SOL    HW221741   3.772   7.013   4.956
 6948SOL     OW21742   5.945   0.454   0.469
 6948SOL    HW121743   5.851   0.446   0.502
 6948SOL    HW221744   5.970   0.551   0.463
 6949SOL     OW21745   5.466   6.573   3.930
 6949SOL    HW121746   5.411   6.641   3.881
 6949SOL    HW221747   5.411   6.531   4.002
 6950SOL     OW21748   2.483   6.896   3.050
 6950SOL    HW121749   2.468   6.929   2.957
 6950SOL    HW221750   2.550   6.956   3.096
 6951SOL     OW21751   6.297   6.162   5.781
 6951SOL    HW121752   6.264   6.137   5.691
 6951SOL    HW221753   6.249   6.109   5.851
 6952SOL     OW21754   0.294   5.632   3.349
 6952SOL    HW121755   0.204   5.674   3.341
 6952SOL    HW221756   0.285   5.533   3.350
 6953SOL     OW21757   4.877   0.083   6.386
 6953SOL    HW121758   4.970   0.093   6.350
 6953SOL    HW221759   4.878   0.097   6.485
 6954SOL     OW21760   0.681   3.727   4.328
 6954SOL    HW121761   0.750   3.717   4.256
 6954SOL    HW221762   0.726   3.727   4.417
 6955SOL     OW21763   6.843   0.315   2.207
 6955SOL    HW121764   6.842   0.238   2.143
 6955SOL    HW221765   6.929   0.365   2.197
 6956SOL     OW21766   4.130   6.393   3.137
 6956SOL    HW121767   4.083   6.453   3.072
 6956SOL    HW221768   4.172   6.317   3.087
 6957SOL     OW21769   6.618   4.963   1.771
 6957SOL    HW121770   6.519   4.971   1.768
 6957SOL    HW221771   6.660   5.043   1.728
 6958SOL     OW21772   2.981   3.852   5.367
 6958SOL    HW121773   2.911   3.856   5.296
 6958SOL    HW221774   3.037   3.770   5.355
 6959SOL     OW21775   2.126   1.201   4.820
 6959SOL    HW121776   2.087   1.293   4.832
 6959SOL    HW221777   2.075   1.136   4.875
 6960SOL     OW21778   0.694   5.192   0.459
 6960SOL    HW121779   0.769   5.133   0.488
 6960SOL    HW221780   0.608   5.158   0.497
 6961SOL     OW21781   0.120   2.549   4.052
 6961SOL    HW121782   0.064   2.478   4.095
 6961SOL    HW221783   0.197   2.571   4.112
 6962SOL     OW21784   5.135   5.320   2.383
 6962SOL    HW121785   5.151   5.222   2.370
 6962SOL    HW221786   5.180   5.350   2.467
 6963SOL     OW21787   0.555   5.590   0.511
 6963SOL    HW121788   0.490   5.520   0.541
 6963SOL    HW221789   0.555   5.666   0.575
 6964SOL     OW21790   5.334   4.849   4.284
 6964SOL    HW121791   5.388   4.773   4.319
 6964SOL    HW221792   5.252   4.860   4.339
 6965SOL     OW21793   0.755   3.531   6.046
 6965SOL    HW121794   0.842   3.526   6.095
 6965SOL    HW221795   0.743   3.450   5.990
 6966SOL     OW21796   6.080   2.801   2.794
 6966SOL    HW121797   6.085   2.795   2.894
 6966SOL    HW221798   6.173   2.796   2.756
 6967SOL     OW21799   1.346   1.678   5.736
 6967SOL    HW121800   1.270   1.625   5.773
 6967SOL    HW221801   1.390   1.729   5.809
 6968SOL     OW21802   3.642   6.328   2.357
 6968SOL    HW121803   3.692   6.269   2.420
 6968SOL    HW221804   3.557   6.359   2.400
 6969SOL     OW21805   3.577   2.113   1.517
 6969SOL    HW121806   3.491   2.097   1.469
 6969SOL    HW221807   3.630   2.182   1.468
 6970SOL     OW21808   4.368   3.707   0.276
 6970SOL    HW121809   4.456   3.712   0.230
 6970SOL    HW221810   4.381   3.725   0.374
 6971SOL     OW21811   6.483   3.901   2.338
 6971SOL    HW121812   6.546   3.945   2.402
 6971SOL    HW221813   6.455   3.812   2.376
 6972SOL     OW21814   6.007   5.123   3.927
 6972SOL    HW121815   6.068   5.155   3.999
 6972SOL    HW221816   5.915   5.161   3.942
 6973SOL     OW21817   1.225   3.987   4.883
 6973SOL    HW121818   1.318   3.984   4.847
 6973SOL    HW221819   1.166   3.928   4.827
 6974SOL     OW21820   3.356   2.863   3.063
 6974SOL    HW121821   3.284   2.929   3.086
 6974SOL    HW221822   3.413   2.846   3.143
 6975SOL     OW21823   3.075   6.864   5.850
 6975SOL    HW121824   3.145   6.887   5.919
 6975SOL    HW221825   2.990   6.912   5.872
 6976SOL     OW21826   3.985   4.579   6.137
 6976SOL    HW121827   3.949   4.486   6.130
 6976SOL    HW221828   4.055   4.583   6.209
 6977SOL     OW21829   5.269   2.333   1.811
 6977SOL    HW121830   5.267   2.433   1.816
 6977SOL    HW221831   5.275   2.305   1.715
 6978SOL     OW21832   6.325   1.978   1.355
 6978SOL    HW121833   6.289   1.983   1.262
 6978SOL    HW221834   6.349   1.883   1.376
 6979SOL     OW21835   0.950   5.043   1.212
 6979SOL    HW121836   0.988   5.123   1.164
 6979SOL    HW221837   1.023   4.997   1.262
 6980SOL     OW21838   1.748   0.060   4.017
 6980SOL    HW121839   1.764   0.156   3.995
 6980SOL    HW221840   1.831   0.020   4.055
 6981SOL     OW21841   2.370   2.825   6.777
 6981SOL    HW121842   2.326   2.737   6.792
 6981SOL    HW221843   2.415   2.825   6.687
 6982SOL     OW21844   1.338   1.685   3.925
 6982SOL    HW121845   1.268   1.750   3.955
 6982SOL    HW221846   1.338   1.605   3.984
 6983SOL     OW21847   6.032   2.502   3.176
 6983SOL    HW121848   6.076   2.427   3.225
 6983SOL    HW221849   5.932   2.491   3.180
 6984SOL     OW21850   2.348   2.284   4.853
 6984SOL    HW121851   2.382   2.238   4.935
 6984SOL    HW221852   2.267   2.339   4.877
 6985SOL     OW21853   3.825   5.217   2.364
 6985SOL    HW121854   3.869   5.191   2.277
 6985SOL    HW221855   3.846   5.313   2.383
 6986SOL     OW21856   1.589   6.300   6.288
 6986SOL    HW121857   1.662   6.337   6.232
 6986SOL    HW221858   1.560   6.368   6.356
 6987SOL     OW21859   1.145   1.910   6.245
 6987SOL    HW121860   1.129   1.875   6.337
 6987SOL    HW221861   1.219   1.978   6.247
 6988SOL     OW21862   6.070   0.854   5.411
 6988SOL    HW121863   6.047   0.938   5.460
 6988SOL    HW221864   6.097   0.783   5.476
 6989SOL     OW21865   0.766   3.165   3.958
 6989SOL    HW121866   0.690   3.224   3.933
 6989SOL    HW221867   0.775   3.091   3.891
 6990SOL     OW21868   5.123   1.741   0.511
 6990SOL    HW121869   5.023   1.751   0.514
 6990SOL    HW221870   5.150   1.709   0.421
 6991SOL     OW21871   2.435   4.372   3.613
 6991SOL    HW121872   2.386   4.429   3.679
 6991SOL    HW221873   2.515   4.331   3.658
 6992SOL     OW21874   6.384   6.237   4.568
 6992SOL    HW121875   6.375   6.156   4.509
 6992SOL    HW221876   6.454   6.220   4.637
 6993SOL     OW21877   6.568   0.415   2.399
 6993SOL    HW121878   6.559   0.504   2.354
 6993SOL    HW221879   6.485   0.396   2.452
 6994SOL     OW21880   0.918   3.108   4.907
 6994SOL    HW121881   0.861   3.048   4.851
 6994SOL    HW221882   0.990   3.055   4.951
 6995SOL     OW21883   6.216   5.654   5.299
 6995SOL    HW121884   6.227   5.695   5.208
 6995SOL    HW221885   6.167   5.717   5.359
 6996SOL     OW21886   2.022   1.018   4.998
 6996SOL    HW121887   2.038   0.927   5.036
 6996SOL    HW221888   2.035   1.086   5.069
 6997SOL     OW21889   5.362   6.204   5.311
 6997SOL    HW121890   5.278   6.258   5.309
 6997SOL    HW221891   5.384   6.172   5.218
 6998SOL     OW21892   1.767   2.165   1.722
 6998SOL    HW121893   1.786   2.151   1.819
 6998SOL    HW221894   1.827   2.106   1.668
 6999SOL     OW21895   2.403   2.254   6.695
 6999SOL    HW121896   2.397   2.345   6.655
 6999SOL    HW221897   2.458   2.195   6.635
 7000SOL     OW21898   0.002   6.015   2.662
 7000SOL    HW121899   0.086   5.970   2.692
 7000SOL    HW221900   6.955   5.948   2.622
 7001SOL     OW21901   2.646   3.090   5.533
 7001SOL    HW121902   2.696   3.155   5.590
 7001SOL    HW221903   2.630   3.130   5.443
 7002SOL     OW21904   2.189   4.594   2.822
 7002SOL    HW121905   2.158   4.529   2.752
 7002SOL    HW221906   2.124   4.670   2.827
 7003SOL     OW21907   3.790   6.164   0.221
 7003SOL    HW121908   3.865   6.196   0.163
 7003SOL    HW221909   3.777   6.227   0.298
 7004SOL     OW21910   2.087   4.959   1.675
 7004SOL    HW121911   2.069   5.055   1.655
 7004SOL    HW221912   2.185   4.944   1.683
 7005SOL     OW21913   0.399   6.250   6.164
 7005SOL    HW121914   0.488   6.286   6.137
 7005SOL    HW221915   0.410   6.188   6.242
 7006SOL     OW21916   5.936   5.111   4.578
 7006SOL    HW121917   5.896   5.028   4.538
 7006SOL    HW221918   5.877   5.189   4.558
 7007SOL     OW21919   4.775   6.935   3.141
 7007SOL    HW121920   4.724   6.912   3.224
 7007SOL    HW221921   4.818   0.009   3.153
 7008SOL     OW21922   2.002   5.442   4.366
 7008SOL    HW121923   1.978   5.352   4.402
 7008SOL    HW221924   2.092   5.469   4.400
 7009SOL     OW21925   5.803   5.425   2.414
 7009SOL    HW121926   5.852   5.392   2.495
 7009SOL    HW221927   5.768   5.347   2.362
 7010SOL     OW21928   4.152   3.705   5.798
 7010SOL    HW121929   4.244   3.675   5.825
 7010SOL    HW221930   4.158   3.759   5.714
 7011SOL     OW21931   1.936   0.622   6.495
 7011SOL    HW121932   1.965   0.645   6.588
 7011SOL    HW221933   1.945   0.702   6.437
 7012SOL     OW21934   2.325   1.115   2.366
 7012SOL    HW121935   2.282   1.202   2.343
 7012SOL    HW221936   2.347   1.114   2.463
 7013SOL     OW21937   0.048   6.445   1.003
 7013SOL    HW121938   0.101   6.422   0.921
 7013SOL    HW221939   6.988   6.380   1.014
 7014SOL     OW21940   4.952   3.159   1.184
 7014SOL    HW121941   4.992   3.076   1.146
 7014SOL    HW221942   4.889   3.136   1.258
 7015SOL     OW21943   5.674   4.693   2.260
 7015SOL    HW121944   5.577   4.691   2.239
 7015SOL    HW221945   5.727   4.696   2.175
 7016SOL     OW21946   3.735   4.887   2.349
 7016SOL    HW121947   3.790   4.900   2.266
 7016SOL    HW221948   3.645   4.852   2.325
 7017SOL     OW21949   2.069   0.165   2.149
 7017SOL    HW121950   2.061   0.239   2.083
 7017SOL    HW221951   2.160   0.168   2.191
 7018SOL     OW21952   6.646   4.303   5.181
 7018SOL    HW121953   6.690   4.304   5.270
 7018SOL    HW221954   6.687   4.374   5.123
 7019SOL     OW21955   2.889   4.517   6.607
 7019SOL    HW121956   2.933   4.443   6.657
 7019SOL    HW221957   2.796   4.488   6.581
 7020SOL     OW21958   6.171   6.902   6.412
 7020SOL    HW121959   6.240   6.923   6.344
 7020SOL    HW221960   6.213   6.896   6.503
 7021SOL     OW21961   2.105   1.151   5.256
 7021SOL    HW121962   2.204   1.166   5.258
 7021SOL    HW221963   2.059   1.238   5.238
 7022SOL     OW21964   4.333   4.845   0.914
 7022SOL    HW121965   4.353   4.757   0.871
 7022SOL    HW221966   4.238   4.844   0.947
 7023SOL     OW21967   0.594   1.923   3.454
 7023SOL    HW121968   0.541   1.873   3.523
 7023SOL    HW221969   0.581   2.021   3.467
 7024SOL     OW21970   1.384   5.165   5.553
 7024SOL    HW121971   1.293   5.204   5.537
 7024SOL    HW221972   1.418   5.194   5.642
 7025SOL     OW21973   3.202   0.922   0.039
 7025SOL    HW121974   3.194   0.993   0.109
 7025SOL    HW221975   3.119   0.921   6.998
 7026SOL     OW21976   2.738   1.457   2.080
 7026SOL    HW121977   2.768   1.466   2.175
 7026SOL    HW221978   2.718   1.548   2.043
 7027SOL     OW21979   2.670   5.078   2.872
 7027SOL    HW121980   2.691   5.104   2.778
 7027SOL    HW221981   2.635   5.158   2.921
 7028SOL     OW21982   6.111   6.945   4.395
 7028SOL    HW121983   6.189   6.978   4.341
 7028SOL    HW221984   6.129   6.852   4.426
 7029SOL     OW21985   4.103   6.535   6.909
 7029SOL    HW121986   4.165   6.612   6.894
 7029SOL    HW221987   4.085   6.489   6.822
 7030SOL     OW21988   6.174   2.557   5.711
 7030SOL    HW121989   6.189   2.490   5.784
 7030SOL    HW221990   6.247   2.549   5.644
 7031SOL     OW21991   2.442   5.725   3.833
 7031SOL    HW121992   2.468   5.723   3.736
 7031SOL    HW221993   2.510   5.675   3.886
 7032SOL     OW21994   3.445   6.717   3.953
 7032SOL    HW121995   3.467   6.620   3.967
 7032SOL    HW221996   3.381   6.747   4.025
 7033SOL     OW21997   6.900   1.668   3.406
 7033SOL    HW121998   6.891   1.620   3.318
 7033SOL    HW221999   6.942   1.607   3.473
 7034SOL     OW22000   6.170   0.369   2.813
 7034SOL    HW122001   6.232   0.447   2.812
 7034SOL    HW222002   6.099   0.383   2.883
 7035SOL     OW22003   1.477   6.763   2.158
 7035SOL    HW122004   1.566   6.801   2.134
 7035SOL    HW222005   1.486   6.708   2.241
 7036SOL     OW22006   6.990   0.478   1.775
 7036SOL    HW122007   0.025   0.447   1.856
 7036SOL    HW222008   6.929   0.553   1.799
 7037SOL     OW22009   0.883   0.286   6.164
 7037SOL    HW122010   0.952   0.214   6.151
 7037SOL    HW222011   0.888   0.319   6.259
 7038SOL     OW22012   1.624   3.712   4.042
 7038SOL    HW122013   1.719   3.707   4.073
 7038SOL    HW222014   1.579   3.624   4.056
 7039SOL     OW22015   2.946   5.552   0.960
 7039SOL    HW122016   2.859   5.510   0.985
 7039SOL    HW222017   2.931   5.649   0.939
 7040SOL     OW22018   5.383   1.969   5.248
 7040SOL    HW122019   5.319   1.951   5.174
 7040SOL    HW222020   5.458   1.902   5.244
 7041SOL     OW22021   0.822   1.835   2.922
 7041SOL    HW122022   0.824   1.773   2.843
 7041SOL    HW222023   0.752   1.904   2.908
 7042SOL     OW22024   5.380   5.409   6.594
 7042SOL    HW122025   5.426   5.481   6.645
 7042SOL    HW222026   5.448   5.356   6.543
 7043SOL     OW22027   2.460   2.650   3.556
 7043SOL    HW122028   2.363   2.673   3.559
 7043SOL    HW222029   2.478   2.589   3.479
 7044SOL     OW22030   4.749   4.610   2.974
 7044SOL    HW122031   4.849   4.608   2.967
 7044SOL    HW222032   4.719   4.546   3.045
 7045SOL     OW22033   5.170   5.645   2.182
 7045SOL    HW122034   5.155   5.628   2.085
 7045SOL    HW222035   5.103   5.593   2.236
 7046SOL     OW22036   3.662   2.034   3.546
 7046SOL    HW122037   3.681   2.049   3.643
 7046SOL    HW222038   3.574   2.074   3.522
 7047SOL     OW22039   1.043   2.327   2.971
 7047SOL    HW122040   0.971   2.258   2.959
 7047SOL    HW222041   1.087   2.313   3.060
 7048SOL     OW22042   0.102   5.364   1.940
 7048SOL    HW122043   0.007   5.336   1.924
 7048SOL    HW222044   0.105   5.461   1.963
 7049SOL     OW22045   2.302   1.487   0.878
 7049SOL    HW122046   2.255   1.575   0.874
 7049SOL    HW222047   2.400   1.501   0.890
 7050SOL     OW22048   3.913   4.019   3.072
 7050SOL    HW122049   3.833   4.007   3.013
 7050SOL    HW222050   3.966   4.098   3.042
 7051SOL     OW22051   0.259   0.897   0.972
 7051SOL    HW122052   0.317   0.946   0.906
 7051SOL    HW222053   0.263   0.944   1.060
 7052SOL     OW22054   6.223   2.834   3.975
 7052SOL    HW122055   6.271   2.747   3.968
 7052SOL    HW222056   6.128   2.822   3.944
 7053SOL     OW22057   1.032   3.359   4.855
 7053SOL    HW122058   1.081   3.339   4.940
 7053SOL    HW222059   0.945   3.310   4.854
 7054SOL     OW22060   1.076   5.869   1.519
 7054SOL    HW122061   1.111   5.792   1.465
 7054SOL    HW222062   1.119   5.954   1.489
 7055SOL     OW22063   3.708   6.361   5.333
 7055SOL    HW122064   3.672   6.430   5.396
 7055SOL    HW222065   3.802   6.339   5.357
 7056SOL     OW22066   5.702   5.811   2.643
 7056SOL    HW122067   5.746   5.900   2.639
 7056SOL    HW222068   5.700   5.779   2.738
 7057SOL     OW22069   1.469   4.977   3.839
 7057SOL    HW122070   1.467   4.975   3.939
 7057SOL    HW222071   1.552   5.022   3.807
 7058SOL     OW22072   6.011   5.344   6.163
 7058SOL    HW122073   6.030   5.294   6.248
 7058SOL    HW222074   6.091   5.342   6.104
 7059SOL     OW22075   6.997   0.659   3.116
 7059SOL    HW122076   6.939   0.718   3.171
 7059SOL    HW222077   0.048   0.613   3.175
 7060SOL     OW22078   3.457   6.848   1.667
 7060SOL    HW122079   3.424   6.836   1.761
 7060SOL    HW222080   3.555   6.868   1.669
 7061SOL     OW22081   0.270   2.623   3.823
 7061SOL    HW122082   0.237   2.582   3.907
 7061SOL    HW222083   0.331   2.699   3.844
 7062SOL     OW22084   5.346   1.298   6.248
 7062SOL    HW122085   5.406   1.235   6.298
 7062SOL    HW222086   5.385   1.390   6.250
 7063SOL     OW22087   0.260   0.316   1.098
 7063SOL    HW122088   0.358   0.304   1.082
 7063SOL    HW222089   0.238   0.288   1.191
 7064SOL     OW22090   4.108   2.220   2.257
 7064SOL    HW122091   4.055   2.267   2.186
 7064SOL    HW222092   4.083   2.123   2.258
 7065SOL     OW22093   4.179   3.475   6.917
 7065SOL    HW122094   4.158   3.567   6.884
 7065SOL    HW222095   4.096   3.420   6.917
 7066SOL     OW22096   4.460   0.163   0.767
 7066SOL    HW122097   4.376   0.217   0.764
 7066SOL    HW222098   4.450   0.089   0.833
 7067SOL     OW22099   1.624   1.944   5.311
 7067SOL    HW122100   1.595   2.034   5.280
 7067SOL    HW222101   1.602   1.933   5.408
 7068SOL     OW22102   0.785   4.196   4.112
 7068SOL    HW122103   0.865   4.156   4.157
 7068SOL    HW222104   0.721   4.229   4.182
 7069SOL     OW22105   5.966   2.511   3.986
 7069SOL    HW122106   6.065   2.507   3.997
 7069SOL    HW222107   5.922   2.467   4.064
 7070SOL     OW22108   6.946   6.564   4.882
 7070SOL    HW122109   6.952   6.465   4.895
 7070SOL    HW222110   7.000   6.590   4.801
 7071SOL     OW22111   1.176   6.444   5.950
 7071SOL    HW122112   1.186   6.538   5.984
 7071SOL    HW222113   1.210   6.439   5.856
 7072SOL     OW22114   0.296   6.062   5.932
 7072SOL    HW122115   0.362   6.077   5.858
 7072SOL    HW222116   0.323   6.116   6.012
 7073SOL     OW22117   5.716   0.279   4.545
 7073SOL    HW122118   5.790   0.306   4.606
 7073SOL    HW222119   5.635   0.333   4.565
 7074SOL     OW22120   4.015   2.734   1.667
 7074SOL    HW122121   3.967   2.803   1.721
 7074SOL    HW222122   3.953   2.698   1.597
 7075SOL     OW22123   1.072   5.696   5.668
 7075SOL    HW122124   1.153   5.638   5.658
 7075SOL    HW222125   0.990   5.639   5.666
 7076SOL     OW22126   4.005   2.384   0.123
 7076SOL    HW122127   4.032   2.364   0.217
 7076SOL    HW222128   4.068   2.339   0.060
 7077SOL     OW22129   2.166   4.317   5.248
 7077SOL    HW122130   2.202   4.274   5.331
 7077SOL    HW222131   2.097   4.257   5.207
 7078SOL     OW22132   6.011   0.560   1.285
 7078SOL    HW122133   6.039   0.653   1.259
 7078SOL    HW222134   6.056   0.494   1.224
 7079SOL     OW22135   6.536   6.632   5.301
 7079SOL    HW122136   6.636   6.630   5.298
 7079SOL    HW222137   6.501   6.661   5.212
 7080SOL     OW22138   3.555   2.088   4.172
 7080SOL    HW122139   3.474   2.127   4.128
 7080SOL    HW222140   3.549   2.101   4.271
 7081SOL     OW22141   3.103   0.664   6.547
 7081SOL    HW122142   3.097   0.564   6.552
 7081SOL    HW222143   3.032   0.705   6.604
 7082SOL     OW22144   5.998   4.833   6.845
 7082SOL    HW122145   5.903   4.853   6.867
 7082SOL    HW222146   6.003   4.781   6.760
 7083SOL     OW22147   3.342   0.561   6.995
 7083SOL    HW122148   3.324   0.552   6.898
 7083SOL    HW222149   3.367   0.656   0.001
 7084SOL     OW22150   0.317   6.846   5.879
 7084SOL    HW122151   0.276   6.931   5.845
 7084SOL    HW222152   0.322   6.849   5.979
 7085SOL     OW22153   1.954   1.869   2.382
 7085SOL    HW122154   1.940   1.888   2.479
 7085SOL    HW222155   2.030   1.805   2.371
 7086SOL     OW22156   4.731   0.500   5.501
 7086SOL    HW122157   4.827   0.472   5.490
 7086SOL    HW222158   4.683   0.486   5.414
 7087SOL     OW22159   6.073   4.566   3.691
 7087SOL    HW122160   6.086   4.664   3.706
 7087SOL    HW222161   6.012   4.530   3.761
 7088SOL     OW22162   5.313   2.572   2.979
 7088SOL    HW122163   5.241   2.531   2.923
 7088SOL    HW222164   5.272   2.617   3.059
 7089SOL     OW22165   3.600   1.937   5.561
 7089SOL    HW122166   3.544   1.996   5.620
 7089SOL    HW222167   3.641   1.992   5.489
 7090SOL     OW22168   2.184   1.449   6.620
 7090SOL    HW122169   2.112   1.388   6.589
 7090SOL    HW222170   2.151   1.506   6.695
 7091SOL     OW22171   6.954   2.099   0.034
 7091SOL    HW122172   0.025   2.144   0.011
 7091SOL    HW222173   6.890   2.108   6.973
 7092SOL     OW22174   4.416   2.640   6.170
 7092SOL    HW122175   4.500   2.595   6.140
 7092SOL    HW222176   4.391   2.608   6.261
 7093SOL     OW22177   2.870   3.601   3.161
 7093SOL    HW122178   2.926   3.617   3.080
 7093SOL    HW222179   2.790   3.546   3.136
 7094SOL     OW22180   0.626   5.424   6.128
 7094SOL    HW122181   0.603   5.341   6.179
 7094SOL    HW222182   0.542   5.472   6.105
 7095SOL     OW22183   3.797   3.094   6.199
 7095SOL    HW122184   3.715   3.038   6.187
 7095SOL    HW222185   3.863   3.045   6.255
 7096SOL     OW22186   6.355   0.329   3.958
 7096SOL    HW122187   6.349   0.387   4.039
 7096SOL    HW222188   6.263   0.308   3.925
 7097SOL     OW22189   5.980   1.082   1.392
 7097SOL    HW122190   6.043   1.107   1.465
 7097SOL    HW222191   5.927   1.162   1.364
 7098SOL     OW22192   0.795   0.715   3.887
 7098SOL    HW122193   0.803   0.754   3.978
 7098SOL    HW222194   0.699   0.720   3.857
 7099SOL     OW22195   3.095   0.698   5.183
 7099SOL    HW122196   3.053   0.659   5.101
 7099SOL    HW222197   3.024   0.715   5.251
 7100SOL     OW22198   5.774   3.027   1.126
 7100SOL    HW122199   5.711   3.099   1.156
 7100SOL    HW222200   5.811   2.980   1.207
 7101SOL     OW22201   1.928   0.159   4.878
 7101SOL    HW122202   1.832   0.131   4.884
 7101SOL    HW222203   1.973   0.141   4.965
 7102SOL     OW22204   4.707   0.780   0.621
 7102SOL    HW122205   4.794   0.823   0.595
 7102SOL    HW222206   4.711   0.682   0.604
 7103SOL     OW22207   4.349   5.118   1.081
 7103SOL    HW122208   4.253   5.101   1.060
 7103SOL    HW222209   4.399   5.139   0.997
 7104SOL     OW22210   1.305   3.660   4.825
 7104SOL    HW122211   1.236   3.688   4.892
 7104SOL    HW222212   1.353   3.579   4.859
 7105SOL     OW22213   3.025   2.568   5.408
 7105SOL    HW122214   2.959   2.555   5.482
 7105SOL    HW222215   3.014   2.494   5.341
 7106SOL     OW22216   2.878   3.524   2.423
 7106SOL    HW122217   2.783   3.527   2.392
 7106SOL    HW222218   2.928   3.601   2.382
 7107SOL     OW22219   3.770   0.802   0.542
 7107SOL    HW122220   3.708   0.731   0.509
 7107SOL    HW222221   3.864   0.778   0.517
 7108SOL     OW22222   3.984   6.351   2.638
 7108SOL    HW122223   4.064   6.368   2.696
 7108SOL    HW222224   4.013   6.339   2.543
 7109SOL     OW22225   3.777   6.855   6.142
 7109SOL    HW122226   3.828   6.841   6.227
 7109SOL    HW222227   3.735   6.769   6.114
 7110SOL     OW22228   3.864   6.396   3.865
 7110SOL    HW122229   3.899   6.465   3.801
 7110SOL    HW222230   3.872   6.305   3.823
 7111SOL     OW22231   2.386   2.132   4.655
 7111SOL    HW122232   2.359   2.203   4.719
 7111SOL    HW222233   2.363   2.042   4.694
 7112SOL     OW22234   2.493   5.909   4.119
 7112SOL    HW122235   2.561   5.981   4.126
 7112SOL    HW222236   2.505   5.860   4.032
 7113SOL     OW22237   3.087   3.870   4.621
 7113SOL    HW122238   3.116   3.964   4.640
 7113SOL    HW222239   3.155   3.806   4.659
 7114SOL     OW22240   3.802   6.571   1.279
 7114SOL    HW122241   3.726   6.614   1.327
 7114SOL    HW222242   3.769   6.533   1.192
 7115SOL     OW22243   5.239   3.202   2.263
 7115SOL    HW122244   5.192   3.119   2.290
 7115SOL    HW222245   5.318   3.179   2.205
 7116SOL     OW22246   5.122   4.145   3.375
 7116SOL    HW122247   5.069   4.150   3.291
 7116SOL    HW222248   5.179   4.062   3.374
 7117SOL     OW22249   0.038   6.321   4.538
 7117SOL    HW122250   0.007   6.363   4.453
 7117SOL    HW222251   0.127   6.359   4.563
 7118SOL     OW22252   2.690   4.062   0.658
 7118SOL    HW122253   2.644   4.146   0.628
 7118SOL    HW222254   2.694   4.061   0.758
 7119SOL     OW22255   5.135   1.584   3.209
 7119SOL    HW122256   5.168   1.504   3.159
 7119SOL    HW222257   5.124   1.661   3.145
 7120SOL     OW22258   4.137   1.840   2.455
 7120SOL    HW122259   4.139   1.896   2.539
 7120SOL    HW222260   4.089   1.890   2.383
 7121SOL     OW22261   2.705   0.142   2.192
 7121SOL    HW122262   2.670   0.111   2.280
 7121SOL    HW222263   2.707   0.242   2.190
 7122SOL     OW22264   0.135   0.794   5.540
 7122SOL    HW122265   0.060   0.833   5.486
 7122SOL    HW222266   0.141   0.843   5.627
 7123SOL     OW22267   2.278   4.839   2.120
 7123SOL    HW122268   2.182   4.816   2.136
 7123SOL    HW222269   2.316   4.882   2.202
 7124SOL     OW22270   0.243   2.801   0.791
 7124SOL    HW122271   0.182   2.868   0.834
 7124SOL    HW222272   0.334   2.808   0.831
 7125SOL     OW22273   6.413   6.611   0.944
 7125SOL    HW122274   6.506   6.640   0.921
 7125SOL    HW222275   6.397   6.519   0.910
 7126SOL     OW22276   3.326   4.662   0.488
 7126SOL    HW122277   3.415   4.630   0.520
 7126SOL    HW222278   3.289   4.730   0.552
 7127SOL     OW22279   2.411   5.966   4.475
 7127SOL    HW122280   2.428   6.013   4.562
 7127SOL    HW222281   2.313   5.950   4.464
 7128SOL     OW22282   2.691   5.718   0.418
 7128SOL    HW122283   2.740   5.646   0.468
 7128SOL    HW222284   2.667   5.686   0.327
 7129SOL     OW22285   3.200   0.398   0.576
 7129SOL    HW122286   3.210   0.498   0.581
 7129SOL    HW222287   3.262   0.362   0.507
 7130SOL     OW22288   3.558   4.505   5.303
 7130SOL    HW122289   3.486   4.463   5.247
 7130SOL    HW222290   3.540   4.489   5.399
 7131SOL     OW22291   2.600   1.509   0.314
 7131SOL    HW122292   2.546   1.559   0.246
 7131SOL    HW222293   2.580   1.545   0.405
 7132SOL     OW22294   3.262   3.821   0.372
 7132SOL    HW122295   3.260   3.780   0.463
 7132SOL    HW222296   3.251   3.749   0.303
 7133SOL     OW22297   4.624   5.886   4.204
 7133SOL    HW122298   4.625   5.786   4.193
 7133SOL    HW222299   4.596   5.908   4.297
 7134SOL     OW22300   5.860   6.234   1.969
 7134SOL    HW122301   5.914   6.277   1.896
 7134SOL    HW222302   5.909   6.243   2.055
 7135SOL     OW22303   1.673   2.307   2.797
 7135SOL    HW122304   1.648   2.402   2.778
 7135SOL    HW222305   1.772   2.302   2.814
 7136SOL     OW22306   1.743   2.579   0.717
 7136SOL    HW122307   1.668   2.519   0.690
 7136SOL    HW222308   1.826   2.524   0.730
 7137SOL     OW22309   4.338   0.469   6.794
 7137SOL    HW122310   4.379   0.534   6.859
 7137SOL    HW222311   4.239   0.468   6.807
 7138SOL     OW22312   1.624   2.986   0.594
 7138SOL    HW122313   1.586   2.935   0.517
 7138SOL    HW222314   1.724   2.985   0.589
 7139SOL     OW22315   5.055   4.265   2.596
 7139SOL    HW122316   5.142   4.253   2.644
 7139SOL    HW222317   4.987   4.302   2.659
 7140SOL     OW22318   5.789   3.618   4.621
 7140SOL    HW122319   5.888   3.602   4.621
 7140SOL    HW222320   5.763   3.658   4.533
 7141SOL     OW22321   3.157   5.899   1.738
 7141SOL    HW122322   3.246   5.922   1.699
 7141SOL    HW222323   3.164   5.812   1.788
 7142SOL     OW22324   4.319   0.319   3.588
 7142SOL    HW122325   4.334   0.391   3.520
 7142SOL    HW222326   4.225   0.327   3.623
 7143SOL     OW22327   1.552   2.824   6.129
 7143SOL    HW122328   1.588   2.910   6.166
 7143SOL    HW222329   1.593   2.807   6.040
 7144SOL     OW22330   1.676   1.442   3.732
 7144SOL    HW122331   1.648   1.449   3.827
 7144SOL    HW222332   1.756   1.383   3.724
 7145SOL     OW22333   4.436   6.591   6.518
 7145SOL    HW122334   4.403   6.511   6.467
 7145SOL    HW222335   4.536   6.588   6.522
 7146SOL     OW22336   2.489   0.671   6.989
 7146SOL    HW122337   2.509   0.595   0.036
 7146SOL    HW222338   2.394   0.664   6.958
 7147SOL     OW22339   6.591   6.531   3.423
 7147SOL    HW122340   6.511   6.586   3.447
 7147SOL    HW222341   6.580   6.496   3.329
 7148SOL     OW22342   0.099   6.816   0.809
 7148SOL    HW122343   0.106   6.726   0.766
 7148SOL    HW222344   0.150   6.883   0.755
 7149SOL     OW22345   6.633   6.689   2.892
 7149SOL    HW122346   6.569   6.615   2.875
 7149SOL    HW222347   6.719   6.652   2.925
 7150SOL     OW22348   4.008   1.734   2.062
 7150SOL    HW122349   3.929   1.765   2.114
 7150SOL    HW222350   4.006   1.775   1.971
 7151SOL     OW22351   1.805   6.521   0.914
 7151SOL    HW122352   1.746   6.514   0.833
 7151SOL    HW222353   1.748   6.538   0.994
 7152SOL     OW22354   0.688   1.697   4.809
 7152SOL    HW122355   0.645   1.631   4.748
 7152SOL    HW222356   0.651   1.788   4.792
 7153SOL     OW22357   2.817   5.642   3.055
 7153SOL    HW122358   2.782   5.723   3.008
 7153SOL    HW222359   2.776   5.635   3.146
 7154SOL     OW22360   3.872   0.456   4.466
 7154SOL    HW122361   3.925   0.443   4.381
 7154SOL    HW222362   3.814   0.376   4.481
 7155SOL     OW22363   2.374   5.079   1.651
 7155SOL    HW122364   2.356   5.048   1.744
 7155SOL    HW222365   2.458   5.036   1.617
 7156SOL     OW22366   0.255   4.021   4.490
 7156SOL    HW122367   0.165   3.992   4.456
 7156SOL    HW222368   0.256   4.121   4.498
 7157SOL     OW22369   6.476   4.397   0.695
 7157SOL    HW122370   6.421   4.477   0.717
 7157SOL    HW222371   6.417   4.318   0.678
 7158SOL     OW22372   1.080   0.409   2.642
 7158SOL    HW122373   1.000   0.434   2.697
 7158SOL    HW222374   1.058   0.328   2.587
 7159SOL     OW22375   0.668   3.717   2.948
 7159SOL    HW122376   0.571   3.738   2.936
 7159SOL    HW222377   0.706   3.683   2.862
 7160SOL     OW22378   5.783   0.869   3.542
 7160SOL    HW122379   5.742   0.827   3.622
 7160SOL    HW222380   5.725   0.944   3.510
 7161SOL     OW22381   3.210   4.108   4.666
 7161SOL    HW122382   3.169   4.198   4.683
 7161SOL    HW222383   3.295   4.119   4.615
 7162SOL     OW22384   2.392   5.780   5.730
 7162SOL    HW122385   2.444   5.862   5.753
 7162SOL    HW222386   2.339   5.751   5.810
 7163SOL     OW22387   2.680   6.654   2.666
 7163SOL    HW122388   2.721   6.644   2.757
 7163SOL    HW222389   2.612   6.727   2.668
 7164SOL     OW22390   1.944   1.052   4.074
 7164SOL    HW122391   2.042   1.067   4.062
 7164SOL    HW222392   1.899   1.140   4.092
 7165SOL     OW22393   6.845   1.221   1.367
 7165SOL    HW122394   6.757   1.191   1.333
 7165SOL    HW222395   6.873   1.305   1.320
 7166SOL     OW22396   5.505   3.101   6.762
 7166SOL    HW122397   5.563   3.021   6.742
 7166SOL    HW222398   5.409   3.074   6.758
 7167SOL     OW22399   5.160   3.663   4.797
 7167SOL    HW122400   5.115   3.574   4.793
 7167SOL    HW222401   5.242   3.657   4.854
 7168SOL     OW22402   1.545   2.628   3.863
 7168SOL    HW122403   1.456   2.613   3.818
 7168SOL    HW222404   1.530   2.673   3.951
 7169SOL     OW22405   0.277   3.415   4.937
 7169SOL    HW122406   0.302   3.442   4.844
 7169SOL    HW222407   0.178   3.415   4.946
 7170SOL     OW22408   4.265   6.638   3.663
 7170SOL    HW122409   4.303   6.558   3.617
 7170SOL    HW222410   4.338   6.702   3.685
 7171SOL     OW22411   5.656   4.610   6.636
 7171SOL    HW122412   5.687   4.588   6.544
 7171SOL    HW222413   5.609   4.531   6.675
 7172SOL     OW22414   1.373   0.701   5.484
 7172SOL    HW122415   1.293   0.642   5.499
 7172SOL    HW222416   1.411   0.729   5.572
 7173SOL     OW22417   0.508   5.080   5.492
 7173SOL    HW122418   0.495   5.155   5.426
 7173SOL    HW222419   0.549   5.002   5.445
 7174SOL     OW22420   0.952   4.779   6.876
 7174SOL    HW122421   0.913   4.766   6.784
 7174SOL    HW222422   0.955   4.876   6.898
 7175SOL     OW22423   5.661   3.589   6.971
 7175SOL    HW122424   5.695   3.645   6.896
 7175SOL    HW222425   5.614   3.646   0.023
 7176SOL     OW22426   1.318   6.147   3.322
 7176SOL    HW122427   1.261   6.226   3.298
 7176SOL    HW222428   1.322   6.085   3.244
 7177SOL     OW22429   2.282   6.683   4.249
 7177SOL    HW122430   2.350   6.744   4.207
 7177SOL    HW222431   2.190   6.716   4.228
 7178SOL     OW22432   2.391   3.506   5.604
 7178SOL    HW122433   2.465   3.571   5.618
 7178SOL    HW222434   2.402   3.460   5.515
 7179SOL     OW22435   1.790   3.665   4.745
 7179SOL    HW122436   1.837   3.750   4.722
 7179SOL    HW222437   1.801   3.647   4.843
 7180SOL     OW22438   1.499   4.624   6.337
 7180SOL    HW122439   1.562   4.621   6.260
 7180SOL    HW222440   1.405   4.613   6.304
 7181SOL     OW22441   1.995   5.660   0.555
 7181SOL    HW122442   1.962   5.669   0.461
 7181SOL    HW222443   2.009   5.751   0.594
 7182SOL     OW22444   2.075   2.959   5.624
 7182SOL    HW122445   2.072   3.057   5.643
 7182SOL    HW222446   2.136   2.941   5.546
 7183SOL     OW22447   1.416   5.960   0.583
 7183SOL    HW122448   1.363   5.899   0.642
 7183SOL    HW222449   1.512   5.958   0.611
 7184SOL     OW22450   0.733   0.040   3.052
 7184SOL    HW122451   0.814   0.016   3.105
 7184SOL    HW222452   0.712   0.137   3.065
 7185SOL     OW22453   5.399   0.931   5.437
 7185SOL    HW122454   5.399   0.990   5.356
 7185SOL    HW222455   5.493   0.920   5.470
 7186SOL     OW22456   6.764   6.957   6.881
 7186SOL    HW122457   6.741   0.028   6.835
 7186SOL    HW222458   6.680   6.905   6.898
 7187SOL     OW22459   2.821   4.384   0.387
 7187SOL    HW122460   2.742   4.323   0.393
 7187SOL    HW222461   2.904   4.331   0.374
 7188SOL     OW22462   6.256   6.887   0.430
 7188SOL    HW122463   6.279   6.973   0.475
 7188SOL    HW222464   6.338   6.846   0.390
 7189SOL     OW22465   6.320   0.881   6.224
 7189SOL    HW122466   6.275   0.970   6.219
 7189SOL    HW222467   6.418   0.893   6.240
 7190SOL     OW22468   6.990   3.976   3.013
 7190SOL    HW122469   6.979   3.907   2.942
 7190SOL    HW222470   6.904   3.987   3.063
 7191SOL     OW22471   0.437   4.076   3.270
 7191SOL    HW122472   0.491   4.003   3.227
 7191SOL    HW222473   0.481   4.105   3.355
 7192SOL     OW22474   3.250   4.717   5.446
 7192SOL    HW122475   3.297   4.804   5.458
 7192SOL    HW222476   3.262   4.661   5.528
 7193SOL     OW22477   2.312   2.018   2.612
 7193SOL    HW122478   2.379   2.086   2.580
 7193SOL    HW222479   2.312   2.016   2.712
 7194SOL     OW22480   2.817   1.922   1.131
 7194SOL    HW122481   2.858   1.857   1.195
 7194SOL    HW222482   2.882   1.940   1.057
 7195SOL     OW22483   0.165   5.308   6.284
 7195SOL    HW122484   0.066   5.307   6.267
 7195SOL    HW222485   0.214   5.311   6.197
 7196SOL     OW22486   3.231   4.267   1.646
 7196SOL    HW122487   3.264   4.222   1.728
 7196SOL    HW222488   3.272   4.358   1.640
 7197SOL     OW22489   6.737   2.196   6.157
 7197SOL    HW122490   6.813   2.254   6.186
 7197SOL    HW222491   6.734   2.191   6.057
 7198SOL     OW22492   0.516   0.923   6.288
 7198SOL    HW122493   0.467   0.894   6.206
 7198SOL    HW222494   0.497   1.019   6.306
 7199SOL     OW22495   1.952   0.787   2.280
 7199SOL    HW122496   2.002   0.873   2.282
 7199SOL    HW222497   2.011   0.714   2.316
 7200SOL     OW22498   2.769   1.980   6.950
 7200SOL    HW122499   2.865   2.004   6.965
 7200SOL    HW222500   2.761   1.924   6.868
 7201SOL     OW22501   1.213   5.363   4.179
 7201SOL    HW122502   1.196   5.446   4.232
 7201SOL    HW222503   1.288   5.312   4.221
 7202SOL     OW22504   4.362   0.177   6.041
 7202SOL    HW122505   4.316   0.160   5.953
 7202SOL    HW222506   4.407   0.266   6.038
 7203SOL     OW22507   0.250   2.208   1.273
 7203SOL    HW122508   0.246   2.202   1.373
 7203SOL    HW222509   0.326   2.152   1.240
 7204SOL     OW22510   6.667   0.031   5.276
 7204SOL    HW122511   6.573   0.062   5.259
 7204SOL    HW222512   6.695   6.984   5.203
 7205SOL     OW22513   1.712   5.551   3.142
 7205SOL    HW122514   1.765   5.607   3.204
 7205SOL    HW222515   1.641   5.502   3.193
 7206SOL     OW22516   1.926   0.404   1.067
 7206SOL    HW122517   1.954   0.313   1.037
 7206SOL    HW222518   1.999   0.446   1.120
 7207SOL     OW22519   4.047   6.672   1.739
 7207SOL    HW122520   4.034   6.771   1.733
 7207SOL    HW222521   3.968   6.625   1.698
 7208SOL     OW22522   4.265   6.329   3.530
 7208SOL    HW122523   4.289   6.291   3.620
 7208SOL    HW222524   4.335   6.303   3.464
 7209SOL     OW22525   3.369   3.229   1.900
 7209SOL    HW122526   3.447   3.171   1.923
 7209SOL    HW222527   3.345   3.286   1.978
 7210SOL     OW22528   4.565   6.997   3.902
 7210SOL    HW122529   4.582   0.066   3.851
 7210SOL    HW222530   4.501   6.939   3.850
 7211SOL     OW22531   2.542   5.558   4.029
 7211SOL    HW122532   2.472   5.551   4.100
 7211SOL    HW222533   2.593   5.472   4.024
 7212SOL     OW22534   0.676   6.320   3.692
 7212SOL    HW122535   0.628   6.394   3.740
 7212SOL    HW222536   0.623   6.235   3.702
 7213SOL     OW22537   6.041   0.240   6.263
 7213SOL    HW122538   5.974   0.179   6.305
 7213SOL    HW222539   6.132   0.219   6.298
 7214SOL     OW22540   1.218   5.824   4.786
 7214SOL    HW122541   1.222   5.915   4.745
 7214SOL    HW222542   1.123   5.793   4.791
 7215SOL     OW22543   0.523   3.107   4.196
 7215SOL    HW122544   0.479   3.154   4.119
 7215SOL    HW222545   0.548   3.174   4.265
 7216SOL     OW22546   2.318   6.251   0.109
 7216SOL    HW122547   2.258   6.171   0.120
 7216SOL    HW222548   2.300   6.315   0.184
 7217SOL     OW22549   1.976   4.482   2.377
 7217SOL    HW122550   2.064   4.516   2.342
 7217SOL    HW222551   1.975   4.382   2.372
 7218SOL     OW22552   4.778   2.537   5.297
 7218SOL    HW122553   4.791   2.593   5.379
 7218SOL    HW222554   4.852   2.556   5.232
 7219SOL     OW22555   4.800   6.288   4.304
 7219SOL    HW122556   4.815   6.375   4.352
 7219SOL    HW222557   4.702   6.276   4.286
 7220SOL     OW22558   0.476   5.525   4.275
 7220SOL    HW122559   0.395   5.548   4.329
 7220SOL    HW222560   0.556   5.521   4.336
 7221SOL     OW22561   5.295   4.979   4.734
 7221SOL    HW122562   5.292   5.066   4.784
 7221SOL    HW222563   5.389   4.945   4.732
 7222SOL     OW22564   5.986   0.617   2.354
 7222SOL    HW122565   6.018   0.700   2.309
 7222SOL    HW222566   6.050   0.592   2.427
 7223SOL     OW22567   2.981   1.903   1.398
 7223SOL    HW122568   3.034   1.894   1.482
 7223SOL    HW222569   2.888   1.935   1.419
 7224SOL     OW22570   5.513   2.495   4.169
 7224SOL    HW122571   5.499   2.537   4.079
 7224SOL    HW222572   5.425   2.484   4.215
 7225SOL     OW22573   1.285   5.938   6.013
 7225SOL    HW122574   1.282   6.031   6.048
 7225SOL    HW222575   1.229   5.879   6.071
 7226SOL     OW22576   0.896   0.814   0.635
 7226SOL    HW122577   0.816   0.799   0.578
 7226SOL    HW222578   0.872   0.801   0.731
 7227SOL     OW22579   0.678   2.090   0.880
 7227SOL    HW122580   0.773   2.084   0.912
 7227SOL    HW222581   0.674   2.061   0.784
 7228SOL     OW22582   0.344   1.146   1.749
 7228SOL    HW122583   0.292   1.092   1.683
 7228SOL    HW222584   0.282   1.208   1.798
 7229SOL     OW22585   0.772   0.616   4.966
 7229SOL    HW122586   0.688   0.644   4.919
 7229SOL    HW222587   0.807   0.532   4.924
 7230SOL     OW22588   4.940   5.744   4.981
 7230SOL    HW122589   4.925   5.742   5.080
 7230SOL    HW222590   5.031   5.782   4.962
 7231SOL     OW22591   4.676   6.366   0.085
 7231SOL    HW122592   4.755   6.349   0.145
 7231SOL    HW222593   4.609   6.293   0.097
 7232SOL     OW22594   4.431   5.295   3.339
 7232SOL    HW122595   4.464   5.363   3.405
 7232SOL    HW222596   4.399   5.214   3.388
 7233SOL     OW22597   0.211   2.438   4.377
 7233SOL    HW122598   0.123   2.467   4.340
 7233SOL    HW222599   0.260   2.517   4.413
 7234SOL     OW22600   5.737   2.712   2.977
 7234SOL    HW122601   5.818   2.661   2.947
 7234SOL    HW222602   5.759   2.761   3.062
 7235SOL     OW22603   6.419   4.229   3.241
 7235SOL    HW122604   6.444   4.145   3.192
 7235SOL    HW222605   6.467   4.231   3.329
 7236SOL     OW22606   3.304   1.496   3.097
 7236SOL    HW122607   3.266   1.515   3.006
 7236SOL    HW222608   3.236   1.445   3.151
 7237SOL     OW22609   6.330   6.794   5.403
 7237SOL    HW122610   6.399   6.733   5.364
 7237SOL    HW222611   6.243   6.782   5.355
 7238SOL     OW22612   2.285   2.183   1.227
 7238SOL    HW122613   2.320   2.090   1.243
 7238SOL    HW222614   2.283   2.202   1.129
 7239SOL     OW22615   2.829   1.105   3.627
 7239SOL    HW122616   2.808   1.095   3.529
 7239SOL    HW222617   2.906   1.046   3.651
 7240SOL     OW22618   2.517   3.641   6.486
 7240SOL    HW122619   2.500   3.652   6.584
 7240SOL    HW222620   2.614   3.655   6.468
 7241SOL     OW22621   3.209   0.007   0.091
 7241SOL    HW122622   3.201   6.931   0.131
 7241SOL    HW222623   3.299   0.046   0.113
 7242SOL     OW22624   6.819   5.438   0.081
 7242SOL    HW122625   6.896   5.438   0.018
 7242SOL    HW222626   6.735   5.418   0.031
 7243SOL     OW22627   0.624   4.272   6.122
 7243SOL    HW122628   0.681   4.291   6.202
 7243SOL    HW222629   0.676   4.217   6.057
 7244SOL     OW22630   5.069   1.062   1.322
 7244SOL    HW122631   5.148   1.015   1.362
 7244SOL    HW222632   4.986   1.008   1.338
 7245SOL     OW22633   0.841   1.913   5.202
 7245SOL    HW122634   0.842   1.947   5.296
 7245SOL    HW222635   0.914   1.845   5.191
 7246SOL     OW22636   5.855   6.769   4.585
 7246SOL    HW122637   5.787   6.709   4.542
 7246SOL    HW222638   5.831   6.864   4.567
 7247SOL     OW22639   3.047   6.617   3.420
 7247SOL    HW122640   2.978   6.580   3.357
 7247SOL    HW222641   3.101   6.686   3.371
 7248SOL     OW22642   3.538   1.281   2.811
 7248SOL    HW122643   3.504   1.236   2.728
 7248SOL    HW222644   3.531   1.380   2.800
 7249SOL     OW22645   5.889   5.055   1.732
 7249SOL    HW122646   5.954   5.003   1.787
 7249SOL    HW222647   5.887   5.150   1.764
 7250SOL     OW22648   3.624   5.296   5.879
 7250SOL    HW122649   3.650   5.211   5.833
 7250SOL    HW222650   3.663   5.299   5.971
 7251SOL     OW22651   6.999   6.454   5.427
 7251SOL    HW122652   7.003   6.358   5.397
 7251SOL    HW222653   6.984   6.513   5.347
 7252SOL     OW22654   3.467   3.150   3.441
 7252SOL    HW122655   3.513   3.236   3.418
 7252SOL    HW222656   3.496   3.078   3.378
 7253SOL     OW22657   1.883   6.799   0.378
 7253SOL    HW122658   1.973   6.757   0.383
 7253SOL    HW222659   1.891   6.899   0.384
 7254SOL     OW22660   4.673   5.299   5.172
 7254SOL    HW122661   4.683   5.229   5.102
 7254SOL    HW222662   4.580   5.297   5.209
 7255SOL     OW22663   3.187   3.883   1.416
 7255SOL    HW122664   3.129   3.874   1.335
 7255SOL    HW222665   3.228   3.794   1.438
 7256SOL     OW22666   5.405   5.052   4.090
 7256SOL    HW122667   5.371   4.980   4.150
 7256SOL    HW222668   5.354   5.136   4.106
 7257SOL     OW22669   5.184   3.027   3.462
 7257SOL    HW122670   5.216   3.021   3.367
 7257SOL    HW222671   5.172   2.935   3.499
 7258SOL     OW22672   4.217   1.379   3.421
 7258SOL    HW122673   4.257   1.470   3.435
 7258SOL    HW222674   4.174   1.348   3.505
 7259SOL     OW22675   3.638   4.084   1.495
 7259SOL    HW122676   3.699   4.008   1.517
 7259SOL    HW222677   3.543   4.056   1.508
 7260SOL     OW22678   3.296   1.839   3.155
 7260SOL    HW122679   3.251   1.754   3.128
 7260SOL    HW222680   3.332   1.830   3.248
 7261SOL     OW22681   2.837   2.975   0.984
 7261SOL    HW122682   2.849   2.897   1.046
 7261SOL    HW222683   2.915   2.980   0.921
 7262SOL     OW22684   5.715   2.154   4.088
 7262SOL    HW122685   5.631   2.168   4.034
 7262SOL    HW222686   5.748   2.242   4.121
 7263SOL     OW22687   0.496   5.619   1.944
 7263SOL    HW122688   0.482   5.647   1.849
 7263SOL    HW222689   0.447   5.533   1.961
 7264SOL     OW22690   6.477   1.525   0.038
 7264SOL    HW122691   6.550   1.526   6.984
 7264SOL    HW222692   6.402   1.584   0.008
 7265SOL     OW22693   5.300   4.856   5.960
 7265SOL    HW122694   5.242   4.873   5.880
 7265SOL    HW222695   5.267   4.775   6.009
 7266SOL     OW22696   4.247   0.339   0.756
 7266SOL    HW122697   4.164   0.339   0.701
 7266SOL    HW222698   4.234   0.395   0.838
 7267SOL     OW22699   6.872   4.891   5.425
 7267SOL    HW122700   6.921   4.964   5.471
 7267SOL    HW222701   6.806   4.931   5.360
 7268SOL     OW22702   4.536   4.842   3.489
 7268SOL    HW122703   4.494   4.758   3.454
 7268SOL    HW222704   4.522   4.846   3.588
 7269SOL     OW22705   6.828   6.194   1.329
 7269SOL    HW122706   6.912   6.144   1.309
 7269SOL    HW222707   6.833   6.233   1.421
 7270SOL     OW22708   1.320   2.345   3.514
 7270SOL    HW122709   1.372   2.271   3.471
 7270SOL    HW222710   1.304   2.418   3.448
 7271SOL     OW22711   0.459   4.585   3.544
 7271SOL    HW122712   0.373   4.608   3.590
 7271SOL    HW222713   0.531   4.646   3.574
 7272SOL     OW22714   6.251   3.959   2.124
 7272SOL    HW122715   6.195   3.982   2.204
 7272SOL    HW222716   6.348   3.970   2.148
 7273SOL     OW22717   5.897   4.443   1.866
 7273SOL    HW122718   5.980   4.392   1.843
 7273SOL    HW222719   5.828   4.427   1.795
 7274SOL     OW22720   0.226   6.666   6.188
 7274SOL    HW122721   0.131   6.683   6.213
 7274SOL    HW222722   0.260   6.585   6.236
 7275SOL     OW22723   6.710   0.614   1.351
 7275SOL    HW122724   6.718   0.690   1.287
 7275SOL    HW222725   6.635   0.554   1.323
 7276SOL     OW22726   3.445   1.393   3.828
 7276SOL    HW122727   3.428   1.475   3.773
 7276SOL    HW222728   3.543   1.383   3.844
 7277SOL     OW22729   5.485   1.023   5.016
 7277SOL    HW122730   5.500   1.017   4.917
 7277SOL    HW222731   5.406   0.968   5.041
 7278SOL     OW22732   3.626   2.115   3.048
 7278SOL    HW122733   3.722   2.142   3.041
 7278SOL    HW222734   3.620   2.020   3.080
 7279SOL     OW22735   4.198   3.554   6.610
 7279SOL    HW122736   4.158   3.563   6.701
 7279SOL    HW222737   4.124   3.547   6.542
 7280SOL     OW22738   5.814   2.278   5.155
 7280SOL    HW122739   5.740   2.311   5.096
 7280SOL    HW222740   5.817   2.333   5.239
 7281SOL     OW22741   3.290   0.006   0.877
 7281SOL    HW122742   3.216   6.975   0.925
 7281SOL    HW222743   3.371   6.962   0.875
 7282SOL     OW22744   6.655   5.886   1.377
 7282SOL    HW122745   6.733   5.826   1.360
 7282SOL    HW222746   6.649   5.954   1.303
 7283SOL     OW22747   2.785   6.754   2.072
 7283SOL    HW122748   2.852   6.816   2.113
 7283SOL    HW222749   2.778   6.672   2.129
 7284SOL     OW22750   6.719   2.870   4.069
 7284SOL    HW122751   6.750   2.921   4.149
 7284SOL    HW222752   6.791   2.808   4.039
 7285SOL     OW22753   5.008   3.542   1.614
 7285SOL    HW122754   4.952   3.476   1.564
 7285SOL    HW222755   4.997   3.526   1.713
 7286SOL     OW22756   0.926   1.098   0.568
 7286SOL    HW122757   1.021   1.128   0.562
 7286SOL    HW222758   0.923   0.999   0.583
 7287SOL     OW22759   6.409   2.874   4.448
 7287SOL    HW122760   6.360   2.945   4.398
 7287SOL    HW222761   6.465   2.820   4.384
 7288SOL     OW22762   1.469   2.861   2.119
 7288SOL    HW122763   1.528   2.920   2.063
 7288SOL    HW222764   1.443   2.780   2.066
 7289SOL     OW22765   5.699   3.687   2.242
 7289SOL    HW122766   5.617   3.678   2.185
 7289SOL    HW222767   5.709   3.606   2.299
 7290SOL     OW22768   3.339   0.825   5.183
 7290SOL    HW122769   3.265   0.771   5.223
 7290SOL    HW222770   3.425   0.803   5.229
 7291SOL     OW22771   4.195   6.887   0.671
 7291SOL    HW122772   4.207   6.972   0.619
 7291SOL    HW222773   4.138   6.824   0.619
 7292SOL     OW22774   1.630   6.797   3.198
 7292SOL    HW122775   1.597   6.717   3.248
 7292SOL    HW222776   1.622   6.878   3.256
 7293SOL     OW22777   1.555   1.478   6.302
 7293SOL    HW122778   1.554   1.394   6.247
 7293SOL    HW222779   1.647   1.494   6.337
 7294SOL     OW22780   3.157   4.820   1.437
 7294SOL    HW122781   3.230   4.874   1.396
 7294SOL    HW222782   3.076   4.822   1.378
 7295SOL     OW22783   6.476   4.188   1.447
 7295SOL    HW122784   6.546   4.163   1.379
 7295SOL    HW222785   6.408   4.247   1.404
 7296SOL     OW22786   3.854   4.963   2.961
 7296SOL    HW122787   3.933   4.947   2.902
 7296SOL    HW222788   3.846   4.888   3.027
 7297SOL     OW22789   3.417   6.377   2.512
 7297SOL    HW122790   3.402   6.303   2.577
 7297SOL    HW222791   3.330   6.401   2.468
 7298SOL     OW22792   5.283   5.524   6.907
 7298SOL    HW122793   5.380   5.548   6.908
 7298SOL    HW222794   5.266   5.449   6.970
 7299SOL     OW22795   1.214   1.621   0.512
 7299SOL    HW122796   1.238   1.690   0.444
 7299SOL    HW222797   1.157   1.551   0.469
 7300SOL     OW22798   1.015   4.843   2.080
 7300SOL    HW122799   1.026   4.779   2.003
 7300SOL    HW222800   1.100   4.845   2.133
 7301SOL     OW22801   6.787   0.207   5.722
 7301SOL    HW122802   6.838   0.138   5.671
 7301SOL    HW222803   6.691   0.179   5.731
 7302SOL     OW22804   6.676   1.706   5.090
 7302SOL    HW122805   6.748   1.695   5.022
 7302SOL    HW222806   6.588   1.674   5.053
 7303SOL     OW22807   3.270   1.131   6.732
 7303SOL    HW122808   3.221   1.102   6.650
 7303SOL    HW222809   3.278   1.053   6.795
 7304SOL     OW22810   2.042   5.097   1.926
 7304SOL    HW122811   2.042   5.020   1.861
 7304SOL    HW222812   1.977   5.166   1.896
 7305SOL     OW22813   5.353   2.646   1.282
 7305SOL    HW122814   5.378   2.556   1.245
 7305SOL    HW222815   5.430   2.709   1.272
 7306SOL     OW22816   3.880   1.467   1.948
 7306SOL    HW122817   3.864   1.521   2.031
 7306SOL    HW222818   3.850   1.521   1.868
 7307SOL     OW22819   3.887   6.509   2.308
 7307SOL    HW122820   3.800   6.459   2.311
 7307SOL    HW222821   3.883   6.579   2.236
 7308SOL     OW22822   6.887   1.554   3.143
 7308SOL    HW122823   6.878   1.619   3.067
 7308SOL    HW222824   6.803   1.502   3.153
 7309SOL     OW22825   2.305   6.295   2.649
 7309SOL    HW122826   2.244   6.244   2.588
 7309SOL    HW222827   2.329   6.238   2.727
 7310SOL     OW22828   1.387   3.436   6.679
 7310SOL    HW122829   1.423   3.448   6.586
 7310SOL    HW222830   1.462   3.415   6.741
 7311SOL     OW22831   1.016   0.328   0.567
 7311SOL    HW122832   1.032   0.395   0.495
 7311SOL    HW222833   1.042   0.237   0.534
 7312SOL     OW22834   0.693   1.289   5.159
 7312SOL    HW122835   0.726   1.378   5.190
 7312SOL    HW222836   0.698   1.285   5.059
 7313SOL     OW22837   2.762   1.181   0.801
 7313SOL    HW122838   2.851   1.136   0.801
 7313SOL    HW222839   2.747   1.227   0.889
 7314SOL     OW22840   0.470   3.700   6.756
 7314SOL    HW122841   0.469   3.640   6.835
 7314SOL    HW222842   0.545   3.675   6.695
 7315SOL     OW22843   6.329   5.217   2.779
 7315SOL    HW122844   6.419   5.261   2.781
 7315SOL    HW222845   6.309   5.189   2.685
 7316SOL     OW22846   3.322   1.872   5.988
 7316SOL    HW122847   3.407   1.834   6.026
 7316SOL    HW222848   3.302   1.829   5.900
 7317SOL     OW22849   3.668   1.290   1.859
 7317SOL    HW122850   3.600   1.336   1.916
 7317SOL    HW222851   3.758   1.331   1.876
 7318SOL     OW22852   3.759   6.666   2.096
 7318SOL    HW122853   3.664   6.657   2.066
 7318SOL    HW222854   3.817   6.608   2.039
 7319SOL     OW22855   6.544   2.974   6.170
 7319SOL    HW122856   6.466   2.932   6.123
 7319SOL    HW222857   6.511   3.046   6.231
 7320SOL     OW22858   0.131   3.971   0.867
 7320SOL    HW122859   0.210   4.012   0.912
 7320SOL    HW222860   0.078   3.917   0.933
 7321SOL     OW22861   1.299   6.505   6.312
 7321SOL    HW122862   1.329   6.488   6.218
 7321SOL    HW222863   1.253   6.594   6.316
 7322SOL     OW22864   0.764   2.722   3.147
 7322SOL    HW122865   0.687   2.782   3.125
 7322SOL    HW222866   0.785   2.728   3.244
 7323SOL     OW22867   2.662   1.578   1.379
 7323SOL    HW122868   2.631   1.486   1.356
 7323SOL    HW222869   2.721   1.613   1.307
 7324SOL     OW22870   6.438   4.514   2.423
 7324SOL    HW122871   6.420   4.477   2.332
 7324SOL    HW222872   6.460   4.440   2.486
 7325SOL     OW22873   2.861   0.607   5.796
 7325SOL    HW122874   2.829   0.585   5.889
 7325SOL    HW222875   2.950   0.566   5.782
 7326SOL     OW22876   4.094   0.142   6.200
 7326SOL    HW122877   4.184   0.114   6.167
 7326SOL    HW222878   4.024   0.111   6.136
 7327SOL     OW22879   5.667   4.140   3.775
 7327SOL    HW122880   5.665   4.152   3.875
 7327SOL    HW222881   5.680   4.230   3.732
 7328SOL     OW22882   4.125   5.606   5.740
 7328SOL    HW122883   4.043   5.625   5.685
 7328SOL    HW222884   4.143   5.507   5.738
 7329SOL     OW22885   0.878   2.738   0.046
 7329SOL    HW122886   0.927   2.694   6.985
 7329SOL    HW222887   0.856   2.669   0.115
 7330SOL     OW22888   3.312   3.065   0.829
 7330SOL    HW122889   3.321   3.028   0.921
 7330SOL    HW222890   3.315   3.165   0.832
 7331SOL     OW22891   4.649   6.930   1.780
 7331SOL    HW122892   4.686   6.986   1.854
 7331SOL    HW222893   4.723   6.876   1.739
 7332SOL     OW22894   3.949   4.378   6.861
 7332SOL    HW122895   3.880   4.423   6.918
 7332SOL    HW222896   4.040   4.393   6.901
 7333SOL     OW22897   5.979   3.317   3.029
 7333SOL    HW122898   5.998   3.341   3.124
 7333SOL    HW222899   5.971   3.218   3.021
 7334SOL     OW22900   2.950   6.065   5.985
 7334SOL    HW122901   2.935   6.106   5.895
 7334SOL    HW222902   2.920   6.129   6.057
 7335SOL     OW22903   0.437   3.508   2.967
 7335SOL    HW122904   0.410   3.590   3.019
 7335SOL    HW222905   0.473   3.439   3.030
 7336SOL     OW22906   2.494   6.501   1.222
 7336SOL    HW122907   2.499   6.466   1.315
 7336SOL    HW222908   2.586   6.522   1.189
 7337SOL     OW22909   3.274   2.685   1.174
 7337SOL    HW122910   3.277   2.654   1.079
 7337SOL    HW222911   3.191   2.651   1.218
 7338SOL     OW22912   6.043   2.266   1.672
 7338SOL    HW122913   5.947   2.284   1.694
 7338SOL    HW222914   6.056   2.271   1.573
 7339SOL     OW22915   0.352   6.484   5.885
 7339SOL    HW122916   0.416   6.407   5.873
 7339SOL    HW222917   0.360   6.520   5.978
 7340SOL     OW22918   3.941   0.936   6.625
 7340SOL    HW122919   3.965   0.839   6.627
 7340SOL    HW222920   3.842   0.945   6.634
 7341SOL     OW22921   1.635   5.268   4.590
 7341SOL    HW122922   1.644   5.238   4.684
 7341SOL    HW222923   1.542   5.301   4.573
 7342SOL     OW22924   6.494   6.803   0.278
 7342SOL    HW122925   6.594   6.815   0.280
 7342SOL    HW222926   6.473   6.706   0.292
 7343SOL     OW22927   5.550   4.076   1.877
 7343SOL    HW122928   5.641   4.035   1.869
 7343SOL    HW222929   5.484   4.020   1.827
 7344SOL     OW22930   1.770   0.157   6.708
 7344SOL    HW122931   1.706   0.224   6.745
 7344SOL    HW222932   1.748   0.139   6.612
 7345SOL     OW22933   4.133   5.011   5.923
 7345SOL    HW122934   4.083   4.927   5.940
 7345SOL    HW222935   4.182   5.038   6.006
 7346SOL     OW22936   4.230   4.140   1.008
 7346SOL    HW122937   4.325   4.113   1.017
 7346SOL    HW222938   4.209   4.213   1.073
 7347SOL     OW22939   6.960   2.674   2.044
 7347SOL    HW122940   6.945   2.637   2.136
 7347SOL    HW222941   6.879   2.725   2.015
 7348SOL     OW22942   1.910   4.130   3.597
 7348SOL    HW122943   1.843   4.087   3.657
 7348SOL    HW222944   1.869   4.212   3.556
 7349SOL     OW22945   3.578   1.657   1.352
 7349SOL    HW122946   3.572   1.560   1.375
 7349SOL    HW222947   3.567   1.669   1.253
 7350SOL     OW22948   0.425   2.837   3.831
 7350SOL    HW122949   0.413   2.935   3.851
 7350SOL    HW222950   0.518   2.809   3.855
 7351SOL     OW22951   4.260   4.463   6.574
 7351SOL    HW122952   4.163   4.467   6.549
 7351SOL    HW222953   4.285   4.547   6.622
 7352SOL     OW22954   1.524   1.812   3.777
 7352SOL    HW122955   1.603   1.773   3.730
 7352SOL    HW222956   1.489   1.745   3.843
 7353SOL     OW22957   0.568   1.765   5.459
 7353SOL    HW122958   0.549   1.712   5.542
 7353SOL    HW222959   0.511   1.731   5.384
 7354SOL     OW22960   0.123   0.611   6.367
 7354SOL    HW122961   0.075   0.525   6.350
 7354SOL    HW222962   0.180   0.603   6.449
 7355SOL     OW22963   1.485   6.174   0.862
 7355SOL    HW122964   1.582   6.182   0.841
 7355SOL    HW222965   1.460   6.077   0.868
 7356SOL     OW22966   4.989   2.655   6.555
 7356SOL    HW122967   4.984   2.709   6.639
 7356SOL    HW222968   4.980   2.558   6.578
 7357SOL     OW22969   4.774   1.024   1.481
 7357SOL    HW122970   4.791   1.121   1.462
 7357SOL    HW222971   4.709   1.016   1.557
 7358SOL     OW22972   2.848   1.997   2.525
 7358SOL    HW122973   2.791   2.072   2.557
 7358SOL    HW222974   2.872   2.012   2.429
 7359SOL     OW22975   3.549   2.821   0.877
 7359SOL    HW122976   3.548   2.759   0.956
 7359SOL    HW222977   3.459   2.862   0.866
 7360SOL     OW22978   2.338   2.165   5.390
 7360SOL    HW122979   2.266   2.115   5.439
 7360SOL    HW222980   2.362   2.115   5.307
 7361SOL     OW22981   4.761   6.391   2.100
 7361SOL    HW122982   4.846   6.340   2.111
 7361SOL    HW222983   4.719   6.367   2.013
 7362SOL     OW22984   0.568   6.739   4.723
 7362SOL    HW122985   0.527   6.662   4.773
 7362SOL    HW222986   0.554   6.823   4.775
 7363SOL     OW22987   4.631   1.988   0.416
 7363SOL    HW122988   4.573   1.926   0.469
 7363SOL    HW222989   4.574   2.040   0.352
 7364SOL     OW22990   4.294   6.586   1.698
 7364SOL    HW122991   4.342   6.671   1.717
 7364SOL    HW222992   4.196   6.602   1.696
 7365SOL     OW22993   2.107   6.189   2.497
 7365SOL    HW122994   2.066   6.241   2.423
 7365SOL    HW222995   2.036   6.141   2.548
 7366SOL     OW22996   1.199   5.581   0.039
 7366SOL    HW122997   1.273   5.636   7.015
 7366SOL    HW222998   1.171   5.620   0.126
 7367SOL     OW22999   4.888   3.869   1.119
 7367SOL    HW123000   4.955   3.892   1.190
 7367SOL    HW223001   4.909   3.778   1.083
 7368SOL     OW23002   3.402   2.920   3.720
 7368SOL    HW123003   3.363   2.911   3.629
 7368SOL    HW223004   3.502   2.915   3.715
 7369SOL     OW23005   5.187   3.523   0.645
 7369SOL    HW123006   5.140   3.603   0.608
 7369SOL    HW223007   5.283   3.546   0.661
 7370SOL     OW23008   2.186   0.403   6.199
 7370SOL    HW123009   2.250   0.480   6.194
 7370SOL    HW223010   2.104   0.432   6.248
 7371SOL     OW23011   3.101   5.596   4.262
 7371SOL    HW123012   3.082   5.583   4.359
 7371SOL    HW223013   3.148   5.683   4.249
 7372SOL     OW23014   3.149   0.455   5.433
 7372SOL    HW123015   3.228   0.501   5.394
 7372SOL    HW223016   3.092   0.418   5.359
 7373SOL     OW23017   4.677   1.467   3.906
 7373SOL    HW123018   4.652   1.444   4.000
 7373SOL    HW223019   4.597   1.453   3.847
 7374SOL     OW23020   2.542   2.582   5.504
 7374SOL    HW123021   2.482   2.587   5.583
 7374SOL    HW223022   2.539   2.669   5.454
 7375SOL     OW23023   1.638   2.049   3.659
 7375SOL    HW123024   1.587   2.129   3.691
 7375SOL    HW223025   1.584   1.966   3.674
 7376SOL     OW23026   3.234   2.355   0.172
 7376SOL    HW123027   3.256   2.453   0.176
 7376SOL    HW223028   3.264   2.318   0.083
 7377SOL     OW23029   4.736   5.693   1.968
 7377SOL    HW123030   4.681   5.723   1.889
 7377SOL    HW223031   4.833   5.706   1.947
 7378SOL     OW23032   0.147   1.803   4.312
 7378SOL    HW123033   0.109   1.713   4.289
 7378SOL    HW223034   0.197   1.796   4.399
 7379SOL     OW23035   3.836   1.701   2.693
 7379SOL    HW123036   3.908   1.639   2.662
 7379SOL    HW223037   3.823   1.690   2.791
 7380SOL     OW23038   0.244   3.176   5.870
 7380SOL    HW123039   0.290   3.172   5.958
 7380SOL    HW223040   0.262   3.092   5.818
 7381SOL     OW23041   4.901   3.142   2.461
 7381SOL    HW123042   4.982   3.086   2.449
 7381SOL    HW223043   4.907   3.192   2.547
 7382SOL     OW23044   0.048   5.642   4.818
 7382SOL    HW123045   0.087   5.685   4.898
 7382SOL    HW223046   0.055   5.542   4.827
 7383SOL     OW23047   6.891   6.851   2.646
 7383SOL    HW123048   6.943   6.801   2.715
 7383SOL    HW223049   6.933   6.838   2.556
 7384SOL     OW23050   5.180   0.922   1.941
 7384SOL    HW123051   5.122   0.845   1.969
 7384SOL    HW223052   5.145   1.007   1.981
 7385SOL     OW23053   3.642   5.998   2.291
 7385SOL    HW123054   3.741   6.004   2.274
 7385SOL    HW223055   3.612   6.077   2.344
 7386SOL     OW23056   0.482   2.829   5.539
 7386SOL    HW123057   0.546   2.885   5.592
 7386SOL    HW223058   0.527   2.798   5.455
 7387SOL     OW23059   4.554   6.612   4.993
 7387SOL    HW123060   4.644   6.634   5.031
 7387SOL    HW223061   4.483   6.636   5.060
 7388SOL     OW23062   0.027   5.815   3.679
 7388SOL    HW123063   0.042   5.847   3.586
 7388SOL    HW223064   0.111   5.773   3.713
 7389SOL     OW23065   1.239   4.735   6.617
 7389SOL    HW123066   1.297   4.742   6.698
 7389SOL    HW223067   1.143   4.746   6.644
 7390SOL     OW23068   1.332   1.944   6.774
 7390SOL    HW123069   1.428   1.942   6.747
 7390SOL    HW223070   1.313   2.031   6.820
 7391SOL     OW23071   4.542   4.041   5.264
 7391SOL    HW123072   4.449   4.058   5.295
 7391SOL    HW223073   4.580   3.964   5.314
 7392SOL     OW23074   2.480   6.185   6.418
 7392SOL    HW123075   2.518   6.255   6.358
 7392SOL    HW223076   2.539   6.175   6.498
 7393SOL     OW23077   5.908   5.802   1.424
 7393SOL    HW123078   5.854   5.790   1.507
 7393SOL    HW223079   5.922   5.899   1.407
 7394SOL     OW23080   2.994   3.111   6.200
 7394SOL    HW123081   3.007   3.121   6.299
 7394SOL    HW223082   3.079   3.132   6.153
 7395SOL     OW23083   0.852   0.888   6.739
 7395SOL    HW123084   0.780   0.819   6.739
 7395SOL    HW223085   0.912   0.874   6.660
 7396SOL     OW23086   1.170   0.929   6.739
 7396SOL    HW123087   1.215   0.867   6.803
 7396SOL    HW223088   1.113   0.877   6.676
 7397SOL     OW23089   6.042   5.515   4.372
 7397SOL    HW123090   6.103   5.437   4.385
 7397SOL    HW223091   6.074   5.569   4.294
 7398SOL     OW23092   3.282   4.994   4.267
 7398SOL    HW123093   3.243   4.933   4.336
 7398SOL    HW223094   3.268   4.955   4.176
 7399SOL     OW23095   0.574   3.619   5.442
 7399SOL    HW123096   0.575   3.700   5.501
 7399SOL    HW223097   0.511   3.551   5.479
 7400SOL     OW23098   3.395   3.893   7.008
 7400SOL    HW123099   3.492   3.872   0.004
 7400SOL    HW223100   3.340   3.820   0.035
 7401SOL     OW23101   0.762   1.361   3.529
 7401SOL    HW123102   0.690   1.297   3.500
 7401SOL    HW223103   0.851   1.316   3.524
 7402SOL     OW23104   2.105   6.148   4.352
 7402SOL    HW123105   2.148   6.238   4.348
 7402SOL    HW223106   2.083   6.126   4.446
 7403SOL     OW23107   2.011   3.126   3.214
 7403SOL    HW123108   1.912   3.129   3.227
 7403SOL    HW223109   2.044   3.217   3.189
 7404SOL     OW23110   2.349   6.450   1.525
 7404SOL    HW123111   2.279   6.390   1.487
 7404SOL    HW223112   2.330   6.467   1.622
 7405SOL     OW23113   1.247   4.996   4.507
 7405SOL    HW123114   1.246   4.906   4.464
 7405SOL    HW223115   1.213   5.064   4.442
 7406SOL     OW23116   1.745   3.948   2.354
 7406SOL    HW123117   1.667   3.992   2.311
 7406SOL    HW223118   1.759   3.987   2.445
 7407SOL     OW23119   0.474   6.555   4.901
 7407SOL    HW123120   0.457   6.586   4.994
 7407SOL    HW223121   0.542   6.482   4.902
 7408SOL     OW23122   0.948   4.358   5.044
 7408SOL    HW123123   1.004   4.291   4.995
 7408SOL    HW223124   1.005   4.434   5.074
 7409SOL     OW23125   0.568   0.805   4.432
 7409SOL    HW123126   0.509   0.872   4.478
 7409SOL    HW223127   0.525   0.777   4.346
 7410SOL     OW23128   6.874   4.992   0.907
 7410SOL    HW123129   6.797   5.003   0.844
 7410SOL    HW223130   6.935   4.921   0.873
 7411SOL     OW23131   2.854   6.974   4.166
 7411SOL    HW123132   2.939   0.011   4.176
 7411SOL    HW223133   2.863   6.911   4.089
 7412SOL     OW23134   4.186   1.450   0.995
 7412SOL    HW123135   4.272   1.465   0.947
 7412SOL    HW223136   4.204   1.404   1.082
 7413SOL     OW23137   0.030   4.639   3.972
 7413SOL    HW123138   0.102   4.599   4.028
 7413SOL    HW223139   6.962   4.584   3.980
 7414SOL     OW23140   0.113   0.157   3.047
 7414SOL    HW123141   0.191   0.219   3.042
 7414SOL    HW223142   0.056   0.169   2.965
 7415SOL     OW23143   0.636   3.878   3.184
 7415SOL    HW123144   0.695   3.868   3.105
 7415SOL    HW223145   0.606   3.788   3.215
 7416SOL     OW23146   3.279   0.546   3.972
 7416SOL    HW123147   3.280   0.588   4.063
 7416SOL    HW223148   3.238   0.610   3.907
 7417SOL     OW23149   1.254   0.114   6.679
 7417SOL    HW123150   1.330   0.169   6.714
 7417SOL    HW223151   1.236   0.039   6.742
 7418SOL     OW23152   4.081   5.049   1.147
 7418SOL    HW123153   4.122   5.037   1.237
 7418SOL    HW223154   4.083   4.963   1.097
 7419SOL     OW23155   6.525   2.232   4.688
 7419SOL    HW123156   6.560   2.293   4.760
 7419SOL    HW223157   6.592   2.228   4.614
 7420SOL     OW23158   6.279   6.302   2.507
 7420SOL    HW123159   6.195   6.325   2.556
 7420SOL    HW223160   6.347   6.270   2.573
 7421SOL     OW23161   3.292   2.988   2.120
 7421SOL    HW123162   3.292   3.068   2.179
 7421SOL    HW223163   3.385   2.954   2.109
 7422SOL     OW23164   0.387   3.511   2.668
 7422SOL    HW123165   0.328   3.431   2.675
 7422SOL    HW223166   0.415   3.541   2.760
 7423SOL     OW23167   0.070   3.542   6.557
 7423SOL    HW123168   0.026   3.530   6.468
 7423SOL    HW223169   0.168   3.527   6.548
 7424SOL     OW23170   6.388   1.434   4.323
 7424SOL    HW123171   6.294   1.438   4.357
 7424SOL    HW223172   6.413   1.521   4.282
 7425SOL     OW23173   4.460   4.893   6.537
 7425SOL    HW123174   4.443   4.982   6.579
 7425SOL    HW223175   4.379   4.864   6.486
 7426SOL     OW23176   1.158   1.716   6.904
 7426SOL    HW123177   1.136   1.770   6.986
 7426SOL    HW223178   1.152   1.775   6.823
 7427SOL     OW23179   2.910   6.070   4.778
 7427SOL    HW123180   2.933   6.122   4.695
 7427SOL    HW223181   2.977   5.997   4.790
 7428SOL     OW23182   3.385   1.029   5.397
 7428SOL    HW123183   3.348   0.998   5.310
 7428SOL    HW223184   3.327   1.102   5.434
 7429SOL     OW23185   5.998   0.488   3.411
 7429SOL    HW123186   6.048   0.493   3.497
 7429SOL    HW223187   5.962   0.396   3.398
 7430SOL     OW23188   0.134   4.683   6.190
 7430SOL    HW123189   0.207   4.623   6.222
 7430SOL    HW223190   0.173   4.756   6.134
 7431SOL     OW23191   0.490   4.002   2.101
 7431SOL    HW123192   0.501   3.949   2.016
 7431SOL    HW223193   0.396   3.992   2.134
 7432SOL     OW23194   0.683   0.119   3.603
 7432SOL    HW123195   0.736   0.168   3.673
 7432SOL    HW223196   0.724   0.029   3.587
 7433SOL     OW23197   6.911   5.402   0.346
 7433SOL    HW123198   6.916   5.448   0.257
 7433SOL    HW223199   6.864   5.314   0.336
 7434SOL     OW23200   4.192   1.047   6.592
 7434SOL    HW123201   4.165   1.135   6.553
 7434SOL    HW223202   4.111   0.998   6.623
 7435SOL     OW23203   3.380   6.150   6.528
 7435SOL    HW123204   3.421   6.059   6.531
 7435SOL    HW223205   3.445   6.217   6.564
 7436SOL     OW23206   6.498   3.023   6.636
 7436SOL    HW123207   6.408   3.049   6.672
 7436SOL    HW223208   6.545   2.966   6.703
 7437SOL     OW23209   6.858   5.823   6.618
 7437SOL    HW123210   6.862   5.733   6.574
 7437SOL    HW223211   6.798   5.883   6.565
 7438SOL     OW23212   0.531   5.043   0.679
 7438SOL    HW123213   0.575   4.978   0.741
 7438SOL    HW223214   0.547   5.136   0.712
 7439SOL     OW23215   2.010   6.436   4.526
 7439SOL    HW123216   2.027   6.516   4.583
 7439SOL    HW223217   1.918   6.400   4.546
 7440SOL     OW23218   0.717   3.022   4.554
 7440SOL    HW123219   0.814   2.996   4.551
 7440SOL    HW223220   0.695   3.059   4.644
 7441SOL     OW23221   5.630   6.612   4.544
 7441SOL    HW123222   5.545   6.663   4.555
 7441SOL    HW223223   5.610   6.519   4.513
 7442SOL     OW23224   1.102   1.082   5.992
 7442SOL    HW123225   1.160   1.017   6.040
 7442SOL    HW223226   1.033   1.032   5.939
 7443SOL     OW23227   0.492   1.491   1.148
 7443SOL    HW123228   0.496   1.462   1.244
 7443SOL    HW223229   0.490   1.411   1.089
 7444SOL     OW23230   6.920   3.071   5.063
 7444SOL    HW123231   6.965   3.159   5.073
 7444SOL    HW223232   6.953   3.008   5.134
 7445SOL     OW23233   4.254   1.077   1.341
 7445SOL    HW123234   4.220   1.127   1.421
 7445SOL    HW223235   4.347   1.045   1.359
 7446SOL     OW23236   5.455   4.156   0.270
 7446SOL    HW123237   5.551   4.144   0.245
 7446SOL    HW223238   5.403   4.185   0.190
 7447SOL     OW23239   1.954   3.557   6.745
 7447SOL    HW123240   2.052   3.569   6.729
 7447SOL    HW223241   1.906   3.548   6.658
 7448SOL     OW23242   4.862   6.113   5.833
 7448SOL    HW123243   4.768   6.114   5.865
 7448SOL    HW223244   4.924   6.122   5.911
 7449SOL     OW23245   5.308   2.945   2.081
 7449SOL    HW123246   5.209   2.956   2.087
 7449SOL    HW223247   5.331   2.848   2.083
 7450SOL     OW23248   4.955   2.249   4.664
 7450SOL    HW123249   4.914   2.318   4.724
 7450SOL    HW223250   4.961   2.285   4.571
 7451SOL     OW23251   1.802   0.068   3.587
 7451SOL    HW123252   1.853   0.082   3.503
 7451SOL    HW223253   1.803   0.152   3.642
 7452SOL     OW23254   0.765   6.998   4.998
 7452SOL    HW123255   0.795   6.982   5.092
 7452SOL    HW223256   0.839   6.974   4.935
 7453SOL     OW23257   5.409   6.037   5.791
 7453SOL    HW123258   5.443   6.019   5.699
 7453SOL    HW223259   5.472   5.997   5.858
 7454SOL     OW23260   0.980   3.020   2.119
 7454SOL    HW123261   0.996   2.940   2.061
 7454SOL    HW223262   0.901   3.070   2.085
 7455SOL     OW23263   0.005   1.146   1.849
 7455SOL    HW123264   0.063   1.228   1.850
 7455SOL    HW223265   6.996   1.124   1.755
 7456SOL     OW23266   1.116   1.909   4.594
 7456SOL    HW123267   1.119   1.842   4.519
 7456SOL    HW223268   1.028   1.904   4.641
 7457SOL     OW23269   4.066   0.810   6.040
 7457SOL    HW123270   4.097   0.718   6.018
 7457SOL    HW223271   4.073   0.868   5.959
 7458SOL     OW23272   1.414   0.412   6.501
 7458SOL    HW123273   1.499   0.438   6.545
 7458SOL    HW223274   1.412   0.313   6.488
 7459SOL     OW23275   4.883   7.013   0.461
 7459SOL    HW123276   4.824   0.037   0.532
 7459SOL    HW223277   4.910   6.920   0.488
 7460SOL     OW23278   2.076   4.161   0.968
 7460SOL    HW123279   2.048   4.248   0.925
 7460SOL    HW223280   2.101   4.096   0.897
 7461SOL     OW23281   5.045   1.298   5.894
 7461SOL    HW123282   5.036   1.397   5.906
 7461SOL    HW223283   5.034   1.253   5.982
 7462SOL     OW23284   2.156   3.006   2.166
 7462SOL    HW123285   2.093   3.002   2.088
 7462SOL    HW223286   2.238   2.953   2.145
 7463SOL     OW23287   3.759   4.259   1.314
 7463SOL    HW123288   3.695   4.213   1.375
 7463SOL    HW223289   3.740   4.357   1.314
 7464SOL     OW23290   3.068   6.840   6.278
 7464SOL    HW123291   3.039   6.917   6.334
 7464SOL    HW223292   3.073   6.757   6.335
 7465SOL     OW23293   1.684   0.582   0.493
 7465SOL    HW123294   1.599   0.599   0.544
 7465SOL    HW223295   1.762   0.592   0.554
 7466SOL     OW23296   0.639   0.560   6.997
 7466SOL    HW123297   0.573   0.485   7.001
 7466SOL    HW223298   0.726   0.530   0.020
 7467SOL     OW23299   6.631   1.515   0.841
 7467SOL    HW123300   6.623   1.432   0.785
 7467SOL    HW223301   6.572   1.586   0.803
 7468SOL     OW23302   5.378   2.557   2.370
 7468SOL    HW123303   5.398   2.650   2.398
 7468SOL    HW223304   5.459   2.500   2.380
 7469SOL     OW23305   0.299   0.286   0.747
 7469SOL    HW123306   0.399   0.293   0.741
 7469SOL    HW223307   0.275   0.224   0.821
 7470SOL     OW23308   0.239   3.169   3.646
 7470SOL    HW123309   0.324   3.202   3.607
 7470SOL    HW223310   0.215   3.081   3.605
 7471SOL     OW23311   6.020   6.947   4.893
 7471SOL    HW123312   6.076   6.964   4.812
 7471SOL    HW223313   5.927   6.979   4.876
 7472SOL     OW23314   5.751   6.805   4.149
 7472SOL    HW123315   5.774   6.726   4.205
 7472SOL    HW223316   5.805   6.884   4.178
 7473SOL     OW23317   0.624   4.301   3.114
 7473SOL    HW123318   0.566   4.257   3.182
 7473SOL    HW223319   0.720   4.280   3.134
 7474SOL     OW23320   2.294   0.930   5.233
 7474SOL    HW123321   2.364   0.859   5.223
 7474SOL    HW223322   2.203   0.888   5.225
 7475SOL     OW23323   3.589   1.566   2.520
 7475SOL    HW123324   3.670   1.509   2.504
 7475SOL    HW223325   3.577   1.630   2.444
 7476SOL     OW23326   3.506   6.413   4.173
 7476SOL    HW123327   3.590   6.422   4.227
 7476SOL    HW223328   3.528   6.422   4.076
 7477SOL     OW23329   5.588   1.876   3.926
 7477SOL    HW123330   5.545   1.803   3.980
 7477SOL    HW223331   5.678   1.895   3.963
 7478SOL     OW23332   4.105   4.396   5.915
 7478SOL    HW123333   4.114   4.465   5.844
 7478SOL    HW223334   4.037   4.328   5.888
 7479SOL     OW23335   4.310   2.821   0.719
 7479SOL    HW123336   4.221   2.814   0.763
 7479SOL    HW223337   4.309   2.895   0.652
 7480SOL     OW23338   6.226   4.698   1.750
 7480SOL    HW123339   6.291   4.749   1.695
 7480SOL    HW223340   6.276   4.641   1.816
 7481SOL     OW23341   5.824   5.504   1.443
 7481SOL    HW123342   5.862   5.415   1.418
 7481SOL    HW223343   5.820   5.512   1.543
 7482SOL     OW23344   4.823   1.810   2.722
 7482SOL    HW123345   4.863   1.867   2.650
 7482SOL    HW223346   4.725   1.797   2.704
 7483SOL     OW23347   4.698   2.252   5.058
 7483SOL    HW123348   4.739   2.199   5.133
 7483SOL    HW223349   4.605   2.278   5.083
 7484SOL     OW23350   0.238   0.216   2.653
 7484SOL    HW123351   0.263   0.139   2.711
 7484SOL    HW223352   0.245   0.301   2.705
 7485SOL     OW23353   3.368   6.036   5.241
 7485SOL    HW123354   3.391   6.125   5.282
 7485SOL    HW223355   3.449   6.000   5.194
 7486SOL     OW23356   2.465   0.700   5.969
 7486SOL    HW123357   2.497   0.737   5.881
 7486SOL    HW223358   2.542   0.661   6.018
 7487SOL     OW23359   2.340   6.739   2.339
 7487SOL    HW123360   2.361   6.657   2.392
 7487SOL    HW223361   2.317   6.814   2.401
 7488SOL     OW23362   2.057   6.826   5.194
 7488SOL    HW123363   2.081   6.859   5.102
 7488SOL    HW223364   1.981   6.762   5.187
 7489SOL     OW23365   5.492   2.212   5.268
 7489SOL    HW123366   5.489   2.112   5.277
 7489SOL    HW223367   5.440   2.240   5.187
 7490SOL     OW23368   0.973   1.556   1.356
 7490SOL    HW123369   0.933   1.473   1.317
 7490SOL    HW223370   0.990   1.541   1.454
 7491SOL     OW23371   0.216   4.284   6.664
 7491SOL    HW123372   0.134   4.327   6.626
 7491SOL    HW223373   0.284   4.273   6.591
 7492SOL     OW23374   2.815   1.202   4.641
 7492SOL    HW123375   2.864   1.258   4.706
 7492SOL    HW223376   2.879   1.143   4.592
 7493SOL     OW23377   6.330   4.385   6.369
 7493SOL    HW123378   6.367   4.315   6.430
 7493SOL    HW223379   6.231   4.392   6.382
 7494SOL     OW23380   5.989   1.106   2.493
 7494SOL    HW123381   6.025   1.197   2.475
 7494SOL    HW223382   5.902   1.094   2.445
 7495SOL     OW23383   2.580   1.270   1.046
 7495SOL    HW123384   2.549   1.203   0.980
 7495SOL    HW223385   2.642   1.226   1.112
 7496SOL     OW23386   0.995   3.232   6.070
 7496SOL    HW123387   1.043   3.283   6.142
 7496SOL    HW223388   0.927   3.172   6.111
 7497SOL     OW23389   2.196   5.174   1.131
 7497SOL    HW123390   2.231   5.146   1.221
 7497SOL    HW223391   2.244   5.256   1.101
 7498SOL     OW23392   1.768   0.693   4.719
 7498SOL    HW123393   1.694   0.626   4.731
 7498SOL    HW223394   1.798   0.726   4.808
 7499SOL     OW23395   6.028   1.405   3.341
 7499SOL    HW123396   5.989   1.389   3.432
 7499SOL    HW223397   5.982   1.345   3.275
 7500SOL     OW23398   3.778   6.394   3.509
 7500SOL    HW123399   3.724   6.320   3.551
 7500SOL    HW223400   3.874   6.365   3.505
 7501SOL     OW23401   6.359   4.175   4.298
 7501SOL    HW123402   6.404   4.108   4.240
 7501SOL    HW223403   6.427   4.240   4.333
 7502SOL     OW23404   1.066   0.920   5.308
 7502SOL    HW123405   0.969   0.939   5.294
 7502SOL    HW223406   1.090   0.938   5.404
 7503SOL     OW23407   1.851   1.473   0.101
 7503SOL    HW123408   1.804   1.385   0.098
 7503SOL    HW223409   1.808   1.536   0.036
 7504SOL     OW23410   3.038   0.328   3.882
 7504SOL    HW123411   3.119   0.363   3.930
 7504SOL    HW223412   3.015   0.390   3.807
 7505SOL     OW23413   2.065   0.685   5.508
 7505SOL    HW123414   2.019   0.605   5.470
 7505SOL    HW223415   2.055   0.763   5.445
 7506SOL     OW23416   4.005   0.345   3.056
 7506SOL    HW123417   4.052   0.433   3.066
 7506SOL    HW223418   4.068   0.278   3.018
 7507SOL     OW23419   0.026   0.812   1.188
 7507SOL    HW123420   0.066   0.734   1.139
 7507SOL    HW223421   0.097   0.881   1.204
 7508SOL     OW23422   6.000   0.153   2.075
 7508SOL    HW123423   5.905   0.183   2.067
 7508SOL    HW223424   6.043   0.152   1.985
 7509SOL     OW23425   5.672   3.774   0.930
 7509SOL    HW123426   5.755   3.817   0.897
 7509SOL    HW223427   5.695   3.694   0.986
 7510SOL     OW23428   2.855   4.188   5.378
 7510SOL    HW123429   2.783   4.120   5.362
 7510SOL    HW223430   2.814   4.276   5.400
 7511SOL     OW23431   1.187   0.206   3.459
 7511SOL    HW123432   1.109   0.148   3.483
 7511SOL    HW223433   1.211   0.264   3.536
 7512SOL     OW23434   3.328   4.394   1.337
 7512SOL    HW123435   3.392   4.438   1.399
 7512SOL    HW223436   3.347   4.424   1.243
 7513SOL     OW23437   1.782   1.762   1.702
 7513SOL    HW123438   1.733   1.747   1.788
 7513SOL    HW223439   1.750   1.846   1.660
 7514SOL     OW23440   2.671   5.484   2.626
 7514SOL    HW123441   2.699   5.546   2.552
 7514SOL    HW223442   2.585   5.517   2.665
 7515SOL     OW23443   1.430   6.234   2.144
 7515SOL    HW123444   1.464   6.279   2.227
 7515SOL    HW223445   1.493   6.162   2.117
 7516SOL     OW23446   0.180   5.980   4.252
 7516SOL    HW123447   0.206   5.968   4.156
 7516SOL    HW223448   0.092   5.935   4.268
 7517SOL     OW23449   6.717   3.170   1.521
 7517SOL    HW123450   6.739   3.158   1.424
 7517SOL    HW223451   6.802   3.164   1.575
 7518SOL     OW23452   3.918   5.631   3.447
 7518SOL    HW123453   3.863   5.713   3.462
 7518SOL    HW223454   3.905   5.567   3.523
 7519SOL     OW23455   0.333   6.682   3.484
 7519SOL    HW123456   0.287   6.728   3.559
 7519SOL    HW223457   0.265   6.634   3.427
 7520SOL     OW23458   3.405   6.908   1.929
 7520SOL    HW123459   3.349   6.908   2.012
 7520SOL    HW223460   3.497   6.941   1.952
 7521SOL     OW23461   4.340   4.634   6.039
 7521SOL    HW123462   4.256   4.671   5.999
 7521SOL    HW223463   4.317   4.560   6.101
 7522SOL     OW23464   2.681   0.452   6.738
 7522SOL    HW123465   2.600   0.399   6.764
 7522SOL    HW223466   2.670   0.486   6.644
 7523SOL     OW23467   5.559   0.495   5.885
 7523SOL    HW123468   5.590   0.480   5.792
 7523SOL    HW223469   5.534   0.591   5.897
 7524SOL     OW23470   1.100   1.953   6.594
 7524SOL    HW123471   1.179   1.983   6.648
 7524SOL    HW223472   1.022   2.010   6.616
 7525SOL     OW23473   2.506   6.723   0.099
 7525SOL    HW123474   2.416   6.736   0.058
 7525SOL    HW223475   2.539   6.631   0.078
 7526SOL     OW23476   3.600   3.039   2.570
 7526SOL    HW123477   3.561   2.947   2.574
 7526SOL    HW223478   3.536   3.104   2.611
 7527SOL     OW23479   3.994   5.578   3.188
 7527SOL    HW123480   4.074   5.636   3.171
 7527SOL    HW223481   3.948   5.610   3.271
 7528SOL     OW23482   3.690   1.878   6.525
 7528SOL    HW123483   3.695   1.978   6.531
 7528SOL    HW223484   3.745   1.837   6.598
 7529SOL     OW23485   5.576   0.643   4.370
 7529SOL    HW123486   5.555   0.551   4.402
 7529SOL    HW223487   5.517   0.709   4.416
 7530SOL     OW23488   6.282   4.062   2.469
 7530SOL    HW123489   6.200   4.013   2.439
 7530SOL    HW223490   6.347   4.068   2.393
 7531SOL     OW23491   4.862   2.498   4.071
 7531SOL    HW123492   4.838   2.579   4.017
 7531SOL    HW223493   4.807   2.496   4.154
 7532SOL     OW23494   5.605   5.747   1.359
 7532SOL    HW123495   5.575   5.714   1.449
 7532SOL    HW223496   5.567   5.689   1.287
 7533SOL     OW23497   2.489   0.733   3.029
 7533SOL    HW123498   2.398   0.759   2.998
 7533SOL    HW223499   2.541   0.815   3.054
 7534SOL     OW23500   3.462   6.661   5.413
 7534SOL    HW123501   3.532   6.722   5.376
 7534SOL    HW223502   3.447   6.585   5.350
 7535SOL     OW23503   2.739   0.866   5.767
 7535SOL    HW123504   2.794   0.783   5.761
 7535SOL    HW223505   2.695   0.884   5.679
 7536SOL     OW23506   5.576   4.924   4.760
 7536SOL    HW123507   5.625   4.990   4.817
 7536SOL    HW223508   5.624   4.836   4.761
 7537SOL     OW23509   2.683   5.322   4.613
 7537SOL    HW123510   2.655   5.258   4.684
 7537SOL    HW223511   2.602   5.366   4.574
 7538SOL     OW23512   3.403   2.767   1.837
 7538SOL    HW123513   3.341   2.821   1.779
 7538SOL    HW223514   3.481   2.737   1.783
 7539SOL     OW23515   2.344   2.524   4.097
 7539SOL    HW123516   2.299   2.459   4.158
 7539SOL    HW223517   2.443   2.511   4.101
 7540SOL     OW23518   2.551   0.461   5.613
 7540SOL    HW123519   2.504   0.471   5.526
 7540SOL    HW223520   2.649   0.480   5.600
 7541SOL     OW23521   6.776   3.548   4.431
 7541SOL    HW123522   6.773   3.448   4.432
 7541SOL    HW223523   6.820   3.581   4.514
 7542SOL     OW23524   0.619   5.863   6.715
 7542SOL    HW123525   0.633   5.796   6.643
 7542SOL    HW223526   0.530   5.848   6.758
 7543SOL     OW23527   4.265   2.221   0.844
 7543SOL    HW123528   4.200   2.150   0.817
 7543SOL    HW223529   4.245   2.250   0.938
 7544SOL     OW23530   0.287   2.215   3.746
 7544SOL    HW123531   0.194   2.230   3.778
 7544SOL    HW223532   0.299   2.254   3.655
 7545SOL     OW23533   5.856   6.744   3.037
 7545SOL    HW123534   5.783   6.785   2.982
 7545SOL    HW223535   5.921   6.698   2.977
 7546SOL     OW23536   4.353   0.926   1.835
 7546SOL    HW123537   4.361   0.896   1.930
 7546SOL    HW223538   4.292   1.005   1.830
 7547SOL     OW23539   4.880   0.223   0.786
 7547SOL    HW123540   4.958   0.270   0.743
 7547SOL    HW223541   4.840   0.283   0.856
 7548SOL     OW23542   2.877   2.261   0.465
 7548SOL    HW123543   2.791   2.236   0.420
 7548SOL    HW223544   2.952   2.253   0.400
 7549SOL     OW23545   5.439   1.847   1.526
 7549SOL    HW123546   5.486   1.862   1.439
 7549SOL    HW223547   5.389   1.761   1.522
 7550SOL     OW23548   2.400   4.579   1.768
 7550SOL    HW123549   2.447   4.493   1.785
 7550SOL    HW223550   2.330   4.593   1.838
 7551SOL     OW23551   4.719   3.732   6.817
 7551SOL    HW123552   4.781   3.715   6.894
 7551SOL    HW223553   4.625   3.715   6.847
 7552SOL     OW23554   1.985   5.459   3.908
 7552SOL    HW123555   2.084   5.472   3.902
 7552SOL    HW223556   1.962   5.412   3.992
 7553SOL     OW23557   4.353   5.098   5.446
 7553SOL    HW123558   4.262   5.071   5.479
 7553SOL    HW223559   4.400   5.151   5.516
 7554SOL     OW23560   5.141   0.358   0.698
 7554SOL    HW123561   5.189   0.341   0.784
 7554SOL    HW223562   5.154   0.281   0.636
 7555SOL     OW23563   1.827   5.061   5.046
 7555SOL    HW123564   1.903   5.009   5.007
 7555SOL    HW223565   1.805   5.024   5.137
 7556SOL     OW23566   0.525   2.606   5.724
 7556SOL    HW123567   0.521   2.685   5.664
 7556SOL    HW223568   0.608   2.554   5.707
 7557SOL     OW23569   5.181   2.810   6.191
 7557SOL    HW123570   5.108   2.830   6.256
 7557SOL    HW223571   5.166   2.721   6.149
 7558SOL     OW23572   2.548   2.460   3.281
 7558SOL    HW123573   2.451   2.442   3.299
 7558SOL    HW223574   2.556   2.528   3.208
 7559SOL     OW23575   6.208   5.745   0.672
 7559SOL    HW123576   6.186   5.754   0.769
 7559SOL    HW223577   6.208   5.835   0.629
 7560SOL     OW23578   5.460   5.977   0.266
 7560SOL    HW123579   5.412   5.971   0.353
 7560SOL    HW223580   5.421   6.050   0.210
 7561SOL     OW23581   0.793   3.326   0.694
 7561SOL    HW123582   0.755   3.342   0.602
 7561SOL    HW223583   0.892   3.332   0.690
 7562SOL     OW23584   5.505   6.624   4.848
 7562SOL    HW123585   5.487   6.535   4.806
 7562SOL    HW223586   5.475   6.622   4.944
 7563SOL     OW23587   2.663   6.528   0.990
 7563SOL    HW123588   2.711   6.457   0.938
 7563SOL    HW223589   2.730   6.584   1.038
 7564SOL     OW23590   5.426   1.568   2.469
 7564SOL    HW123591   5.359   1.639   2.449
 7564SOL    HW223592   5.410   1.531   2.560
 7565SOL     OW23593   5.055   4.632   0.100
 7565SOL    HW123594   5.051   4.535   0.076
 7565SOL    HW223595   4.997   4.684   0.037
 7566SOL     OW23596   0.399   5.201   3.225
 7566SOL    HW123597   0.319   5.149   3.195
 7566SOL    HW223598   0.463   5.141   3.272
 7567SOL     OW23599   2.062   2.459   4.993
 7567SOL    HW123600   2.100   2.544   4.956
 7567SOL    HW223601   2.096   2.444   5.086
 7568SOL     OW23602   5.893   6.402   3.252
 7568SOL    HW123603   5.811   6.425   3.200
 7568SOL    HW223604   5.916   6.478   3.314
 7569SOL     OW23605   4.182   4.879   6.502
 7569SOL    HW123606   4.128   4.804   6.540
 7569SOL    HW223607   4.144   4.966   6.534
 7570SOL     OW23608   5.581   4.641   5.294
 7570SOL    HW123609   5.582   4.715   5.361
 7570SOL    HW223610   5.519   4.569   5.325
 7571SOL     OW23611   5.152   5.038   2.390
 7571SOL    HW123612   5.185   5.046   2.484
 7571SOL    HW223613   5.228   5.014   2.330
 7572SOL     OW23614   4.873   0.429   3.337
 7572SOL    HW123615   4.781   0.391   3.327
 7572SOL    HW223616   4.904   0.416   3.431
 7573SOL     OW23617   5.912   6.436   4.511
 7573SOL    HW123618   6.012   6.435   4.509
 7573SOL    HW223619   5.880   6.392   4.595
 7574SOL     OW23620   6.621   0.976   4.811
 7574SOL    HW123621   6.574   1.036   4.747
 7574SOL    HW223622   6.717   0.968   4.784
 7575SOL     OW23623   4.271   6.789   5.949
 7575SOL    HW123624   4.195   6.815   5.889
 7575SOL    HW223625   4.244   6.803   6.044
 7576SOL     OW23626   6.243   5.597   0.017
 7576SOL    HW123627   6.149   5.567   0.029
 7576SOL    HW223628   6.298   5.567   0.096
 7577SOL     OW23629   6.976   6.757   5.653
 7577SOL    HW123630   6.895   6.710   5.618
 7577SOL    HW223631   0.010   6.801   5.578
 7578SOL     OW23632   2.367   6.161   3.144
 7578SOL    HW123633   2.367   6.116   3.233
 7578SOL    HW223634   2.320   6.249   3.151
 7579SOL     OW23635   5.165   2.069   2.370
 7579SOL    HW123636   5.111   2.052   2.287
 7579SOL    HW223637   5.186   2.166   2.377
 7580SOL     OW23638   0.939   4.059   4.293
 7580SOL    HW123639   0.947   3.970   4.338
 7580SOL    HW223640   0.935   4.131   4.363
 7581SOL     OW23641   5.276   0.262   1.323
 7581SOL    HW123642   5.263   0.213   1.237
 7581SOL    HW223643   5.233   0.352   1.317
 7582SOL     OW23644   3.151   1.053   0.265
 7582SOL    HW123645   3.112   0.978   0.318
 7582SOL    HW223646   3.079   1.116   0.237
 7583SOL     OW23647   6.164   2.737   1.550
 7583SOL    HW123648   6.119   2.652   1.521
 7583SOL    HW223649   6.164   2.743   1.650
 7584SOL     OW23650   2.792   6.615   0.602
 7584SOL    HW123651   2.876   6.662   0.631
 7584SOL    HW223652   2.801   6.517   0.620
 7585SOL     OW23653   1.612   3.310   6.332
 7585SOL    HW123654   1.560   3.388   6.368
 7585SOL    HW223655   1.668   3.340   6.254
 7586SOL     OW23656   3.659   0.780   3.488
 7586SOL    HW123657   3.606   0.756   3.570
 7586SOL    HW223658   3.608   0.753   3.406
 7587SOL     OW23659   3.252   1.460   6.721
 7587SOL    HW123660   3.161   1.439   6.758
 7587SOL    HW223661   3.255   1.436   6.624
 7588SOL     OW23662   1.213   3.660   2.484
 7588SOL    HW123663   1.219   3.561   2.477
 7588SOL    HW223664   1.300   3.701   2.459
 7589SOL     OW23665   6.587   6.893   1.035
 7589SOL    HW123666   6.578   6.857   1.128
 7589SOL    HW223667   6.613   6.818   0.974
 7590SOL     OW23668   3.034   2.139   6.850
 7590SOL    HW123669   3.015   2.234   6.873
 7590SOL    HW223670   2.972   2.109   6.777
 7591SOL     OW23671   6.738   4.750   0.460
 7591SOL    HW123672   6.706   4.747   0.365
 7591SOL    HW223673   6.679   4.811   0.513
 7592SOL     OW23674   6.887   4.412   6.408
 7592SOL    HW123675   6.882   4.508   6.383
 7592SOL    HW223676   6.884   4.403   6.507
 7593SOL     OW23677   5.353   2.562   0.915
 7593SOL    HW123678   5.396   2.642   0.873
 7593SOL    HW223679   5.417   2.519   0.978
 7594SOL     OW23680   0.160   4.762   2.417
 7594SOL    HW123681   0.071   4.807   2.417
 7594SOL    HW223682   0.232   4.831   2.410
 7595SOL     OW23683   6.740   2.280   5.859
 7595SOL    HW123684   6.811   2.347   5.839
 7595SOL    HW223685   6.650   2.319   5.838
 7596SOL     OW23686   4.123   5.407   3.015
 7596SOL    HW123687   4.104   5.310   3.002
 7596SOL    HW223688   4.045   5.451   3.058
 7597SOL     OW23689   2.486   5.969   2.183
 7597SOL    HW123690   2.572   5.933   2.219
 7597SOL    HW223691   2.465   6.056   2.228
 7598SOL     OW23692   0.075   1.597   2.853
 7598SOL    HW123693   0.023   1.651   2.920
 7598SOL    HW223694   0.168   1.582   2.887
 7599SOL     OW23695   5.533   1.701   3.375
 7599SOL    HW123696   5.433   1.711   3.385
 7599SOL    HW223697   5.565   1.760   3.300
 7600SOL     OW23698   1.744   1.296   2.358
 7600SOL    HW123699   1.794   1.235   2.419
 7600SOL    HW223700   1.684   1.242   2.299
 7601SOL     OW23701   1.852   5.749   2.539
 7601SOL    HW123702   1.871   5.748   2.441
 7601SOL    HW223703   1.872   5.660   2.579
 7602SOL     OW23704   1.495   4.374   6.449
 7602SOL    HW123705   1.520   4.468   6.423
 7602SOL    HW223706   1.411   4.376   6.502
 7603SOL     OW23707   1.022   5.436   5.882
 7603SOL    HW123708   1.073   5.367   5.830
 7603SOL    HW223709   0.929   5.442   5.846
 7604SOL     OW23710   1.996   4.165   4.374
 7604SOL    HW123711   1.935   4.173   4.453
 7604SOL    HW223712   2.083   4.211   4.394
 7605SOL     OW23713   0.642   6.560   0.586
 7605SOL    HW123714   0.677   6.506   0.662
 7605SOL    HW223715   0.668   6.656   0.598
 7606SOL     OW23716   6.949   3.101   3.866
 7606SOL    HW123717   6.882   3.027   3.863
 7606SOL    HW223718   6.987   3.115   3.775
 7607SOL     OW23719   4.720   5.833   0.552
 7607SOL    HW123720   4.767   5.874   0.631
 7607SOL    HW223721   4.642   5.779   0.583
 7608SOL     OW23722   3.099   4.021   2.614
 7608SOL    HW123723   3.086   4.046   2.711
 7608SOL    HW223724   3.088   3.923   2.603
 7609SOL     OW23725   0.184   3.946   3.865
 7609SOL    HW123726   0.244   4.011   3.912
 7609SOL    HW223727   0.088   3.972   3.881
 7610SOL     OW23728   6.055   0.149   6.633
 7610SOL    HW123729   6.013   0.092   6.704
 7610SOL    HW223730   5.996   0.152   6.553
 7611SOL     OW23731   0.868   1.896   0.095
 7611SOL    HW123732   0.801   1.962   0.062
 7611SOL    HW223733   0.821   1.827   0.151
 7612SOL     OW23734   5.247   3.196   4.555
 7612SOL    HW123735   5.225   3.245   4.639
 7612SOL    HW223736   5.332   3.231   4.516
 7613SOL     OW23737   5.787   2.946   1.579
 7613SOL    HW123738   5.829   3.026   1.621
 7613SOL    HW223739   5.706   2.974   1.527
 7614SOL     OW23740   5.318   3.240   1.496
 7614SOL    HW123741   5.260   3.165   1.465
 7614SOL    HW223742   5.410   3.205   1.516
 7615SOL     OW23743   4.518   3.876   6.189
 7615SOL    HW123744   4.561   3.863   6.278
 7615SOL    HW223745   4.419   3.881   6.200
 7616SOL     OW23746   6.984   4.515   4.566
 7616SOL    HW123747   0.018   4.540   4.483
 7616SOL    HW223748   6.907   4.455   4.542
 7617SOL     OW23749   2.994   5.252   2.868
 7617SOL    HW123750   3.001   5.225   2.964
 7617SOL    HW223751   2.948   5.341   2.862
 7618SOL     OW23752   0.748   2.338   6.831
 7618SOL    HW123753   0.766   2.364   6.736
 7618SOL    HW223754   0.788   2.248   6.849
 7619SOL     OW23755   5.586   3.510   5.585
 7619SOL    HW123756   5.503   3.497   5.639
 7619SOL    HW223757   5.608   3.608   5.580
 7620SOL     OW23758   3.338   5.295   0.140
 7620SOL    HW123759   3.383   5.384   0.143
 7620SOL    HW223760   3.278   5.290   0.060
 7621SOL     OW23761   0.301   1.784   0.424
 7621SOL    HW123762   0.243   1.831   0.492
 7621SOL    HW223763   0.339   1.702   0.466
 7622SOL     OW23764   5.016   5.567   1.650
 7622SOL    HW123765   4.986   5.614   1.567
 7622SOL    HW223766   5.001   5.469   1.641
 7623SOL     OW23767   4.736   4.593   6.752
 7623SOL    HW123768   4.638   4.592   6.731
 7623SOL    HW223769   4.776   4.679   6.720
 7624SOL     OW23770   6.980   2.396   4.778
 7624SOL    HW123771   6.968   2.485   4.732
 7624SOL    HW223772   6.942   2.401   4.871
 7625SOL     OW23773   4.620   0.420   1.371
 7625SOL    HW123774   4.540   0.462   1.416
 7625SOL    HW223775   4.589   0.360   1.297
 7626SOL     OW23776   6.692   6.463   4.329
 7626SOL    HW123777   6.692   6.367   4.357
 7626SOL    HW223778   6.710   6.470   4.231
 7627SOL     OW23779   5.229   3.161   6.534
 7627SOL    HW123780   5.161   3.130   6.467
 7627SOL    HW223781   5.230   3.098   6.611
 7628SOL     OW23782   3.534   0.669   2.137
 7628SOL    HW123783   3.476   0.588   2.141
 7628SOL    HW223784   3.561   0.686   2.042
 7629SOL     OW23785   6.925   0.205   2.855
 7629SOL    HW123786   6.874   0.242   2.933
 7629SOL    HW223787   6.863   0.152   2.797
 7630SOL     OW23788   6.096   0.030   1.522
 7630SOL    HW123789   6.047   0.095   1.464
 7630SOL    HW223790   6.195   0.047   1.515
 7631SOL     OW23791   0.536   1.098   5.533
 7631SOL    HW123792   0.452   1.141   5.565
 7631SOL    HW223793   0.516   1.007   5.496
 7632SOL     OW23794   3.658   2.713   1.771
 7632SOL    HW123795   3.742   2.760   1.799
 7632SOL    HW223796   3.681   2.626   1.729
 7633SOL     OW23797   4.552   2.589   0.459
 7633SOL    HW123798   4.484   2.578   0.531
 7633SOL    HW223799   4.528   2.533   0.381
 7634SOL     OW23800   0.725   1.699   2.320
 7634SOL    HW123801   0.793   1.733   2.386
 7634SOL    HW223802   0.643   1.755   2.326
 7635SOL     OW23803   2.695   6.083   5.169
 7635SOL    HW123804   2.779   6.112   5.123
 7635SOL    HW223805   2.692   6.122   5.261
 7636SOL     OW23806   1.818   2.185   3.491
 7636SOL    HW123807   1.781   2.226   3.408
 7636SOL    HW223808   1.745   2.141   3.543
 7637SOL     OW23809   2.596   6.427   2.928
 7637SOL    HW123810   2.546   6.506   2.963
 7637SOL    HW223811   2.665   6.458   2.862
 7638SOL     OW23812   4.030   5.840   1.684
 7638SOL    HW123813   3.954   5.852   1.621
 7638SOL    HW223814   4.049   5.927   1.730
 7639SOL     OW23815   1.643   2.157   0.688
 7639SOL    HW123816   1.571   2.093   0.713
 7639SOL    HW223817   1.706   2.169   0.765
 7640SOL     OW23818   3.370   1.884   0.302
 7640SOL    HW123819   3.444   1.844   0.247
 7640SOL    HW223820   3.284   1.838   0.281
 7641SOL     OW23821   0.999   4.132   1.781
 7641SOL    HW123822   0.915   4.139   1.728
 7641SOL    HW223823   1.076   4.116   1.720
 7642SOL     OW23824   2.437   1.601   2.102
 7642SOL    HW123825   2.456   1.537   2.176
 7642SOL    HW223826   2.521   1.648   2.075
 7643SOL     OW23827   4.725   2.862   4.156
 7643SOL    HW123828   4.741   2.802   4.078
 7643SOL    HW223829   4.741   2.957   4.130
 7644SOL     OW23830   5.850   2.489   2.084
 7644SOL    HW123831   5.883   2.505   2.177
 7644SOL    HW223832   5.924   2.506   2.019
 7645SOL     OW23833   4.321   4.073   5.391
 7645SOL    HW123834   4.252   4.129   5.346
 7645SOL    HW223835   4.277   3.997   5.438
 7646SOL     OW23836   2.194   2.423   2.608
 7646SOL    HW123837   2.195   2.398   2.511
 7646SOL    HW223838   2.221   2.344   2.663
 7647SOL     OW23839   0.213   3.481   2.358
 7647SOL    HW123840   0.220   3.455   2.262
 7647SOL    HW223841   0.258   3.411   2.414
 7648SOL     OW23842   3.367   1.353   3.528
 7648SOL    HW123843   3.331   1.275   3.475
 7648SOL    HW223844   3.461   1.334   3.555
 7649SOL     OW23845   0.924   1.172   2.716
 7649SOL    HW123846   1.005   1.175   2.774
 7649SOL    HW223847   0.888   1.079   2.714
 7650SOL     OW23848   5.194   2.715   1.475
 7650SOL    HW123849   5.261   2.697   1.547
 7650SOL    HW223850   5.234   2.691   1.386
 7651SOL     OW23851   2.317   6.646   5.168
 7651SOL    HW123852   2.311   6.738   5.129
 7651SOL    HW223853   2.327   6.651   5.267
 7652SOL     OW23854   6.653   4.095   4.501
 7652SOL    HW123855   6.701   4.043   4.431
 7652SOL    HW223856   6.570   4.046   4.527
 7653SOL     OW23857   2.977   1.256   0.203
 7653SOL    HW123858   2.882   1.270   0.175
 7653SOL    HW223859   3.024   1.344   0.205
 7654SOL     OW23860   5.313   3.304   3.896
 7654SOL    HW123861   5.288   3.366   3.821
 7654SOL    HW223862   5.267   3.333   3.980
 7655SOL     OW23863   3.363   0.463   3.658
 7655SOL    HW123864   3.345   0.466   3.560
 7655SOL    HW223865   3.343   0.371   3.693
 7656SOL     OW23866   1.871   4.973   6.171
 7656SOL    HW123867   1.918   5.050   6.128
 7656SOL    HW223868   1.932   4.931   6.239
 7657SOL     OW23869   2.779   2.352   3.395
 7657SOL    HW123870   2.696   2.376   3.344
 7657SOL    HW223871   2.760   2.356   3.493
 7658SOL     OW23872   3.509   6.967   5.757
 7658SOL    HW123873   3.498   6.879   5.802
 7658SOL    HW223874   3.540   0.020   5.823
 7659SOL     OW23875   5.800   5.582   6.760
 7659SOL    HW123876   5.710   5.549   6.732
 7659SOL    HW223877   5.792   5.626   6.850
 7660SOL     OW23878   0.026   6.315   4.001
 7660SOL    HW123879   0.089   6.291   4.075
 7660SOL    HW223880   0.067   6.387   3.945
 7661SOL     OW23881   5.105   2.600   4.707
 7661SOL    HW123882   5.150   2.530   4.652
 7661SOL    HW223883   5.166   2.630   4.781
 7662SOL     OW23884   0.763   2.435   2.425
 7662SOL    HW123885   0.665   2.439   2.442
 7662SOL    HW223886   0.813   2.460   2.509
 7663SOL     OW23887   0.414   6.856   6.150
 7663SOL    HW123888   0.347   6.904   6.206
 7663SOL    HW223889   0.396   6.757   6.155
 7664SOL     OW23890   3.760   0.377   2.612
 7664SOL    HW123891   3.739   0.322   2.531
 7664SOL    HW223892   3.677   0.422   2.644
 7665SOL     OW23893   4.562   7.014   5.033
 7665SOL    HW123894   4.476   0.045   5.050
 7665SOL    HW223895   4.580   6.948   5.107
 7666SOL     OW23896   0.939   6.572   1.803
 7666SOL    HW123897   0.935   6.668   1.831
 7666SOL    HW223898   1.034   6.541   1.810
 7667SOL     OW23899   4.535   6.288   1.889
 7667SOL    HW123900   4.578   6.372   1.855
 7667SOL    HW223901   4.450   6.311   1.936
 7668SOL     OW23902   3.255   4.129   1.179
 7668SOL    HW123903   3.165   4.093   1.203
 7668SOL    HW223904   3.284   4.196   1.247
 7669SOL     OW23905   5.562   1.788   5.985
 7669SOL    HW123906   5.542   1.870   5.932
 7669SOL    HW223907   5.496   1.780   6.060
 7670SOL     OW23908   0.614   4.640   6.338
 7670SOL    HW123909   0.582   4.631   6.244
 7670SOL    HW223910   0.690   4.706   6.341
 7671SOL     OW23911   4.294   0.502   4.168
 7671SOL    HW123912   4.269   0.445   4.245
 7671SOL    HW223913   4.382   0.547   4.187
 7672SOL     OW23914   5.991   6.687   3.377
 7672SOL    HW123915   5.915   6.751   3.369
 7672SOL    HW223916   6.003   6.660   3.472
 7673SOL     OW23917   1.791   5.068   6.897
 7673SOL    HW123918   1.835   5.040   6.982
 7673SOL    HW223919   1.787   4.991   6.833
 7674SOL     OW23920   6.112   2.331   3.502
 7674SOL    HW123921   6.116   2.425   3.535
 7674SOL    HW223922   6.205   2.296   3.489
 7675SOL     OW23923   5.081   6.751   2.842
 7675SOL    HW123924   5.024   6.707   2.773
 7675SOL    HW223925   5.114   6.839   2.808
 7676SOL     OW23926   1.498   1.987   0.460
 7676SOL    HW123927   1.447   2.073   0.473
 7676SOL    HW223928   1.595   2.008   0.447
 7677SOL     OW23929   0.174   3.928   2.076
 7677SOL    HW123930   0.156   3.862   2.149
 7677SOL    HW223931   0.150   4.020   2.108
 7678SOL     OW23932   2.433   1.719   4.916
 7678SOL    HW123933   2.491   1.659   4.860
 7678SOL    HW223934   2.485   1.750   4.995
 7679SOL     OW23935   2.278   5.915   6.182
 7679SOL    HW123936   2.193   5.922   6.129
 7679SOL    HW223937   2.259   5.876   6.272
 7680SOL     OW23938   1.548   1.718   0.308
 7680SOL    HW123939   1.468   1.690   0.255
 7680SOL    HW223940   1.537   1.813   0.338
 7681SOL     OW23941   2.916   6.689   0.089
 7681SOL    HW123942   2.952   6.595   0.090
 7681SOL    HW223943   2.892   6.715   0.183
 7682SOL     OW23944   3.249   0.587   1.963
 7682SOL    HW123945   3.310   0.528   2.016
 7682SOL    HW223946   3.157   0.583   2.001
 7683SOL     OW23947   6.720   2.043   3.642
 7683SOL    HW123948   6.710   1.969   3.576
 7683SOL    HW223949   6.740   2.129   3.593
 7684SOL     OW23950   4.193   2.177   1.185
 7684SOL    HW123951   4.147   2.091   1.162
 7684SOL    HW223952   4.241   2.168   1.272
 7685SOL     OW23953   3.170   3.236   6.682
 7685SOL    HW123954   3.254   3.279   6.715
 7685SOL    HW223955   3.092   3.296   6.702
 7686SOL     OW23956   5.472   0.032   2.947
 7686SOL    HW123957   5.462   0.017   3.045
 7686SOL    HW223958   5.438   0.123   2.923
 7687SOL     OW23959   5.734   5.264   5.210
 7687SOL    HW123960   5.831   5.261   5.231
 7687SOL    HW223961   5.682   5.281   5.294
 7688SOL     OW23962   0.379   6.681   5.628
 7688SOL    HW123963   0.329   6.766   5.612
 7688SOL    HW223964   0.353   6.644   5.717
 7689SOL     OW23965   5.083   6.358   2.773
 7689SOL    HW123966   5.125   6.414   2.844
 7689SOL    HW223967   5.148   6.291   2.739
 7690SOL     OW23968   6.214   5.010   1.280
 7690SOL    HW123969   6.257   5.020   1.190
 7690SOL    HW223970   6.120   5.044   1.276
 7691SOL     OW23971   5.434   3.040   3.883
 7691SOL    HW123972   5.401   3.135   3.879
 7691SOL    HW223973   5.363   2.983   3.924
 7692SOL     OW23974   1.187   6.471   1.899
 7692SOL    HW123975   1.263   6.537   1.901
 7692SOL    HW223976   1.184   6.421   1.986
 7693SOL     OW23977   3.683   0.218   1.477
 7693SOL    HW123978   3.603   0.189   1.425
 7693SOL    HW223979   3.764   0.171   1.442
 7694SOL     OW23980   0.004   4.295   3.920
 7694SOL    HW123981   6.941   4.344   3.957
 7694SOL    HW223982   6.998   4.197   3.916
 7695SOL     OW23983   4.214   6.257   0.237
 7695SOL    HW123984   4.201   6.237   0.334
 7695SOL    HW223985   4.176   6.348   0.217
 7696SOL     OW23986   6.995   1.526   4.525
 7696SOL    HW123987   0.075   1.516   4.555
 7696SOL    HW223988   6.947   1.439   4.537
 7697SOL     OW23989   2.928   6.995   1.726
 7697SOL    HW123990   3.003   6.947   1.679
 7697SOL    HW223991   2.847   6.995   1.667
 7698SOL     OW23992   6.654   1.872   4.091
 7698SOL    HW123993   6.608   1.913   4.012
 7698SOL    HW223994   6.751   1.899   4.090
 7699SOL     OW23995   3.438   5.954   0.517
 7699SOL    HW123996   3.393   5.876   0.474
 7699SOL    HW223997   3.491   6.004   0.449
 7700SOL     OW23998   4.772   6.555   4.705
 7700SOL    HW123999   4.789   6.638   4.759
 7700SOL    HW224000   4.809   6.476   4.754
 7701SOL     OW24001   6.892   1.709   6.937
 7701SOL    HW124002   6.923   1.802   6.915
 7701SOL    HW224003   6.971   1.653   6.962
 7702SOL     OW24004   2.695   6.595   6.047
 7702SOL    HW124005   2.626   6.537   6.091
 7702SOL    HW224006   2.703   6.681   6.097
 7703SOL     OW24007   6.338   0.713   5.096
 7703SOL    HW124008   6.319   0.627   5.048
 7703SOL    HW224009   6.362   0.694   5.191
 7704SOL     OW24010   5.429   4.810   5.585
 7704SOL    HW124011   5.489   4.867   5.529
 7704SOL    HW224012   5.477   4.725   5.608
 7705SOL     OW24013   3.821   4.816   5.898
 7705SOL    HW124014   3.766   4.762   5.834
 7705SOL    HW224015   3.898   4.761   5.930
 7706SOL     OW24016   4.790   2.393   4.847
 7706SOL    HW124017   4.720   2.453   4.808
 7706SOL    HW224018   4.756   2.350   4.930
 7707SOL     OW24019   1.047   5.415   6.307
 7707SOL    HW124020   1.146   5.420   6.322
 7707SOL    HW224021   1.002   5.383   6.391
 7708SOL     OW24022   5.695   6.662   5.362
 7708SOL    HW124023   5.699   6.688   5.265
 7708SOL    HW224024   5.610   6.612   5.379
 7709SOL     OW24025   6.003   4.418   1.499
 7709SOL    HW124026   5.918   4.401   1.450
 7709SOL    HW224027   6.002   4.510   1.538
 7710SOL     OW24028   4.226   0.525   0.963
 7710SOL    HW124029   4.149   0.584   0.942
 7710SOL    HW224030   4.305   0.581   0.989
 7711SOL     OW24031   6.085   5.961   5.273
 7711SOL    HW124032   6.017   5.893   5.246
 7711SOL    HW224033   6.070   6.045   5.222
 7712SOL     OW24034   5.560   5.070   2.288
 7712SOL    HW124035   5.653   5.094   2.259
 7712SOL    HW224036   5.551   5.088   2.386
 7713SOL     OW24037   1.260   5.104   0.552
 7713SOL    HW124038   1.312   5.029   0.591
 7713SOL    HW224039   1.275   5.108   0.453
 7714SOL     OW24040   6.747   4.650   5.504
 7714SOL    HW124041   6.822   4.593   5.539
 7714SOL    HW224042   6.780   4.743   5.491
 7715SOL     OW24043   4.594   2.031   6.938
 7715SOL    HW124044   4.581   2.130   6.928
 7715SOL    HW224045   4.637   1.995   6.854
 7716SOL     OW24046   6.305   4.553   4.009
 7716SOL    HW124047   6.312   4.609   3.926
 7716SOL    HW224048   6.369   4.477   4.003
 7717SOL     OW24049   1.740   1.064   4.917
 7717SOL    HW124050   1.764   1.094   4.824
 7717SOL    HW224051   1.789   0.979   4.938
 7718SOL     OW24052   2.013   2.016   3.233
 7718SOL    HW124053   2.002   2.111   3.262
 7718SOL    HW224054   1.977   1.955   3.304
 7719SOL     OW24055   6.926   3.230   4.355
 7719SOL    HW124056   0.006   3.238   4.384
 7719SOL    HW224057   6.867   3.234   4.436
 7720SOL     OW24058   0.312   0.107   0.396
 7720SOL    HW124059   0.266   0.061   0.320
 7720SOL    HW224060   0.411   0.107   0.379
 7721SOL     OW24061   1.045   5.079   2.329
 7721SOL    HW124062   0.958   5.061   2.284
 7721SOL    HW224063   1.029   5.106   2.424
 7722SOL     OW24064   0.430   5.784   2.867
 7722SOL    HW124065   0.401   5.689   2.859
 7722SOL    HW224066   0.366   5.843   2.817
 7723SOL     OW24067   6.627   4.043   6.853
 7723SOL    HW124068   6.611   4.038   6.754
 7723SOL    HW224069   6.663   3.955   6.884
 7724SOL     OW24070   2.453   4.328   1.814
 7724SOL    HW124071   2.508   4.312   1.732
 7724SOL    HW224072   2.388   4.252   1.826
 7725SOL     OW24073   5.184   3.296   3.389
 7725SOL    HW124074   5.225   3.294   3.298
 7725SOL    HW224075   5.191   3.206   3.431
 7726SOL     OW24076   1.206   6.329   4.846
 7726SOL    HW124077   1.121   6.305   4.799
 7726SOL    HW224078   1.220   6.428   4.841
 7727SOL     OW24079   0.260   0.777   2.742
 7727SOL    HW124080   0.320   0.736   2.810
 7727SOL    HW224081   0.183   0.822   2.787
 7728SOL     OW24082   0.886   5.482   3.516
 7728SOL    HW124083   0.924   5.397   3.479
 7728SOL    HW224084   0.960   5.539   3.553
 7729SOL     OW24085   5.914   2.772   0.616
 7729SOL    HW124086   5.960   2.856   0.590
 7729SOL    HW224087   5.842   2.750   0.548
 7730SOL     OW24088   5.776   5.981   1.909
 7730SOL    HW124089   5.849   5.958   1.844
 7730SOL    HW224090   5.791   6.073   1.945
 7731SOL     OW24091   6.695   0.987   0.972
 7731SOL    HW124092   6.640   1.060   1.013
 7731SOL    HW224093   6.665   0.972   0.878
 7732SOL     OW24094   4.506   6.409   0.888
 7732SOL    HW124095   4.594   6.456   0.882
 7732SOL    HW224096   4.516   6.313   0.863
 7733SOL     OW24097   4.055   0.111   2.546
 7733SOL    HW124098   4.019   0.052   2.618
 7733SOL    HW224099   4.101   0.189   2.587
 7734SOL     OW24100   2.407   4.815   3.354
 7734SOL    HW124101   2.375   4.884   3.290
 7734SOL    HW224102   2.499   4.785   3.326
 7735SOL     OW24103   4.648   5.953   6.059
 7735SOL    HW124104   4.694   5.882   6.111
 7735SOL    HW224105   4.577   5.913   6.001
 7736SOL     OW24106   3.979   3.945   6.929
 7736SOL    HW124107   3.945   3.997   6.851
 7736SOL    HW224108   3.931   3.974   7.012
 7737SOL     OW24109   4.041   0.680   2.314
 7737SOL    HW124110   3.943   0.662   2.314
 7737SOL    HW224111   4.091   0.593   2.319
 7738SOL     OW24112   2.068   5.550   6.675
 7738SOL    HW124113   2.021   5.618   6.731
 7738SOL    HW224114   2.030   5.552   6.583
 7739SOL     OW24115   0.806   2.042   1.901
 7739SOL    HW124116   0.838   2.006   1.988
 7739SOL    HW224117   0.885   2.077   1.849
 7740SOL     OW24118   1.759   0.865   3.185
 7740SOL    HW124119   1.715   0.849   3.273
 7740SOL    HW224120   1.690   0.888   3.117
 7741SOL     OW24121   0.934   5.735   4.777
 7741SOL    HW124122   0.900   5.649   4.737
 7741SOL    HW224123   0.861   5.779   4.828
 7742SOL     OW24124   5.785   2.348   3.192
 7742SOL    HW124125   5.830   2.291   3.262
 7742SOL    HW224126   5.688   2.359   3.216
 7743SOL     OW24127   4.646   1.509   6.957
 7743SOL    HW124128   4.740   1.522   6.989
 7743SOL    HW224129   4.625   1.412   6.953
 7744SOL     OW24130   1.207   6.156   3.560
 7744SOL    HW124131   1.118   6.201   3.567
 7744SOL    HW224132   1.229   6.140   3.464
 7745SOL     OW24133   2.974   1.064   5.502
 7745SOL    HW124134   3.005   0.972   5.530
 7745SOL    HW224135   3.005   1.131   5.570
 7746SOL     OW24136   2.412   6.622   0.447
 7746SOL    HW124137   2.396   6.719   0.428
 7746SOL    HW224138   2.339   6.567   0.405
 7747SOL     OW24139   4.430   5.666   1.705
 7747SOL    HW124140   4.462   5.581   1.664
 7747SOL    HW224141   4.504   5.733   1.707
 7748SOL     OW24142   3.643   3.027   5.219
 7748SOL    HW124143   3.742   3.013   5.215
 7748SOL    HW224144   3.617   3.096   5.152
 7749SOL     OW24145   2.797   2.832   5.382
 7749SOL    HW124146   2.834   2.747   5.343
 7749SOL    HW224147   2.860   2.908   5.362
 7750SOL     OW24148   6.672   6.471   1.608
 7750SOL    HW124149   6.614   6.391   1.619
 7750SOL    HW224150   6.708   6.500   1.696
 7751SOL     OW24151   1.566   1.974   2.268
 7751SOL    HW124152   1.523   1.977   2.178
 7751SOL    HW224153   1.610   2.062   2.287
 7752SOL     OW24154   4.984   7.011   5.625
 7752SOL    HW124155   5.031   6.948   5.687
 7752SOL    HW224156   4.931   6.958   5.558
 7753SOL     OW24157   2.528   1.246   4.636
 7753SOL    HW124158   2.614   1.206   4.606
 7753SOL    HW224159   2.497   1.199   4.719
 7754SOL     OW24160   3.630   6.175   1.345
 7754SOL    HW124161   3.696   6.246   1.368
 7754SOL    HW224162   3.571   6.207   1.271
 7755SOL     OW24163   1.592   2.333   6.092
 7755SOL    HW124164   1.606   2.243   6.134
 7755SOL    HW224165   1.549   2.395   6.158
 7756SOL     OW24166   3.134   6.657   1.854
 7756SOL    HW124167   3.079   6.733   1.888
 7756SOL    HW224168   3.107   6.636   1.759
 7757SOL     OW24169   6.446   4.793   1.622
 7757SOL    HW124170   6.496   4.709   1.599
 7757SOL    HW224171   6.445   4.854   1.543
 7758SOL     OW24172   1.516   6.659   6.084
 7758SOL    HW124173   1.575   6.730   6.122
 7758SOL    HW224174   1.557   6.570   6.100
 7759SOL     OW24175   2.567   1.482   5.278
 7759SOL    HW124176   2.472   1.511   5.285
 7759SOL    HW224177   2.575   1.387   5.307
 7760SOL     OW24178   5.169   2.371   2.393
 7760SOL    HW124179   5.243   2.433   2.368
 7760SOL    HW224180   5.085   2.399   2.346
 7761SOL     OW24181   6.973   6.310   4.918
 7761SOL    HW124182   0.024   6.247   4.877
 7761SOL    HW224183   6.905   6.258   4.971
 7762SOL     OW24184   2.170   0.093   3.666
 7762SOL    HW124185   2.269   0.095   3.684
 7762SOL    HW224186   2.145   0.004   3.630
 7763SOL     OW24187   2.400   6.881   6.561
 7763SOL    HW124188   2.355   6.954   6.612
 7763SOL    HW224189   2.417   6.912   6.467
 7764SOL     OW24190   3.281   3.869   5.813
 7764SOL    HW124191   3.312   3.874   5.908
 7764SOL    HW224192   3.357   3.891   5.752
 7765SOL     OW24193   6.192   2.811   5.095
 7765SOL    HW124194   6.160   2.813   5.000
 7765SOL    HW224195   6.120   2.776   5.154
 7766SOL     OW24196   6.904   3.754   1.000
 7766SOL    HW124197   6.845   3.834   0.987
 7766SOL    HW224198   6.943   3.756   1.092
 7767SOL     OW24199   4.598   6.427   2.664
 7767SOL    HW124200   4.616   6.375   2.580
 7767SOL    HW224201   4.508   6.400   2.700
 7768SOL     OW24202   4.696   4.725   4.032
 7768SOL    HW124203   4.733   4.730   3.940
 7768SOL    HW224204   4.751   4.662   4.087
 7769SOL     OW24205   4.256   1.615   5.242
 7769SOL    HW124206   4.244   1.714   5.254
 7769SOL    HW224207   4.172   1.575   5.206
 7770SOL     OW24208   0.094   3.268   4.684
 7770SOL    HW124209   0.143   3.301   4.604
 7770SOL    HW224210   0.147   3.195   4.729
 7771SOL     OW24211   2.609   1.371   5.583
 7771SOL    HW124212   2.533   1.355   5.645
 7771SOL    HW224213   2.660   1.452   5.613
 7772SOL     OW24214   5.591   6.589   0.593
 7772SOL    HW124215   5.626   6.553   0.506
 7772SOL    HW224216   5.578   6.688   0.586
 7773SOL     OW24217   2.020   5.899   5.758
 7773SOL    HW124218   1.936   5.922   5.807
 7773SOL    HW224219   2.079   5.844   5.817
 7774SOL     OW24220   4.643   2.809   4.617
 7774SOL    HW124221   4.650   2.753   4.535
 7774SOL    HW224222   4.590   2.892   4.597
 7775SOL     OW24223   4.035   6.466   0.183
 7775SOL    HW124224   4.043   6.556   0.226
 7775SOL    HW224225   4.012   6.477   0.086
 7776SOL     OW24226   0.877   6.537   6.730
 7776SOL    HW124227   0.923   6.555   6.643
 7776SOL    HW224228   0.871   6.622   6.782
 7777SOL     OW24229   6.298   5.520   4.982
 7777SOL    HW124230   6.333   5.492   4.893
 7777SOL    HW224231   6.346   5.603   5.012
 7778SOL     OW24232   5.620   4.098   2.136
 7778SOL    HW124233   5.606   4.057   2.045
 7778SOL    HW224234   5.673   4.183   2.127
 7779SOL     OW24235   2.716   1.149   2.825
 7779SOL    HW124236   2.678   1.063   2.790
 7779SOL    HW224237   2.649   1.222   2.813
 7780SOL     OW24238   0.925   5.150   5.697
 7780SOL    HW124239   0.886   5.175   5.786
 7780SOL    HW224240   0.876   5.071   5.660
 7781SOL     OW24241   0.622   3.523   0.972
 7781SOL    HW124242   0.572   3.452   1.022
 7781SOL    HW224243   0.719   3.499   0.970
 7782SOL     OW24244   5.359   5.681   3.859
 7782SOL    HW124245   5.319   5.769   3.833
 7782SOL    HW224246   5.430   5.656   3.793
 7783SOL     OW24247   0.302   0.310   5.829
 7783SOL    HW124248   0.355   0.226   5.836
 7783SOL    HW224249   0.208   0.288   5.802
 7784SOL     OW24250   3.045   2.633   1.770
 7784SOL    HW124251   3.025   2.550   1.822
 7784SOL    HW224252   3.117   2.614   1.703
 7785SOL     OW24253   1.784   6.292   3.824
 7785SOL    HW124254   1.875   6.265   3.792
 7785SOL    HW224255   1.792   6.362   3.895
 7786SOL     OW24256   4.320   0.612   6.554
 7786SOL    HW124257   4.259   0.588   6.478
 7786SOL    HW224258   4.348   0.528   6.601
 7787SOL     OW24259   1.718   3.007   0.241
 7787SOL    HW124260   1.804   3.022   0.191
 7787SOL    HW224261   1.732   2.936   0.310
 7788SOL     OW24262   0.848   5.554   1.978
 7788SOL    HW124263   0.788   5.590   1.907
 7788SOL    HW224264   0.927   5.615   1.989
 7789SOL     OW24265   3.119   6.838   6.601
 7789SOL    HW124266   3.094   6.763   6.661
 7789SOL    HW224267   3.046   6.853   6.534
 7790SOL     OW24268   5.971   4.960   2.696
 7790SOL    HW124269   5.943   4.969   2.792
 7790SOL    HW224270   5.989   4.864   2.675
 7791SOL     OW24271   2.166   5.376   2.463
 7791SOL    HW124272   2.227   5.370   2.542
 7791SOL    HW224273   2.093   5.307   2.473
 7792SOL     OW24274   1.194   6.824   3.633
 7792SOL    HW124275   1.289   6.828   3.604
 7792SOL    HW224276   1.141   6.770   3.568
 7793SOL     OW24277   4.617   0.829   0.304
 7793SOL    HW124278   4.600   0.730   0.301
 7793SOL    HW224279   4.589   0.865   0.393
 7794SOL     OW24280   0.273   4.457   1.950
 7794SOL    HW124281   0.190   4.414   1.915
 7794SOL    HW224282   0.260   4.556   1.958
 7795SOL     OW24283   3.303   5.506   5.346
 7795SOL    HW124284   3.386   5.461   5.313
 7795SOL    HW224285   3.234   5.507   5.274
 7796SOL     OW24286   3.261   2.473   5.554
 7796SOL    HW124287   3.283   2.405   5.483
 7796SOL    HW224288   3.176   2.519   5.531
 7797SOL     OW24289   0.675   5.615   1.372
 7797SOL    HW124290   0.692   5.680   1.446
 7797SOL    HW224291   0.712   5.652   1.287
 7798SOL     OW24292   1.645   1.312   2.690
 7798SOL    HW124293   1.742   1.294   2.705
 7798SOL    HW224294   1.631   1.410   2.674
 7799SOL     OW24295   2.045   5.732   3.208
 7799SOL    HW124296   2.072   5.650   3.259
 7799SOL    HW224297   2.061   5.813   3.264
 7800SOL     OW24298   0.187   5.947   3.041
 7800SOL    HW124299   0.232   6.033   3.018
 7800SOL    HW224300   0.202   5.926   3.137
 7801SOL     OW24301   1.654   1.249   3.018
 7801SOL    HW124302   1.745   1.289   3.005
 7801SOL    HW224303   1.647   1.166   2.963
 7802SOL     OW24304   6.959   3.287   0.034
 7802SOL    HW124305   6.876   3.308   0.087
 7802SOL    HW224306   6.938   3.293   6.952
 7803SOL     OW24307   4.523   1.793   0.095
 7803SOL    HW124308   4.536   1.854   0.017
 7803SOL    HW224309   4.603   1.734   0.105
 7804SOL     OW24310   4.096   2.209   5.122
 7804SOL    HW124311   4.153   2.274   5.072
 7804SOL    HW224312   4.092   2.236   5.218
 7805SOL     OW24313   4.950   3.792   2.701
 7805SOL    HW124314   5.046   3.797   2.674
 7805SOL    HW224315   4.914   3.701   2.679
 7806SOL     OW24316   6.458   1.508   6.398
 7806SOL    HW124317   6.384   1.483   6.336
 7806SOL    HW224318   6.449   1.605   6.424
 7807SOL     OW24319   0.886   3.965   5.231
 7807SOL    HW124320   0.854   3.903   5.303
 7807SOL    HW224321   0.822   4.041   5.221
 7808SOL     OW24322   5.214   3.630   2.918
 7808SOL    HW124323   5.209   3.686   3.001
 7808SOL    HW224324   5.239   3.688   2.841
 7809SOL     OW24325   5.610   5.040   4.481
 7809SOL    HW124326   5.568   5.109   4.539
 7809SOL    HW224327   5.612   4.953   4.529
 7810SOL     OW24328   3.126   6.396   5.136
 7810SOL    HW124329   3.034   6.433   5.153
 7810SOL    HW224330   3.119   6.321   5.071
 7811SOL     OW24331   1.248   5.590   2.637
 7811SOL    HW124332   1.212   5.673   2.595
 7811SOL    HW224333   1.226   5.511   2.580
 7812SOL     OW24334   2.234   3.105   5.391
 7812SOL    HW124335   2.164   3.038   5.366
 7812SOL    HW224336   2.315   3.089   5.334
 7813SOL     OW24337   4.465   2.633   1.283
 7813SOL    HW124338   4.544   2.677   1.327
 7813SOL    HW224339   4.497   2.556   1.228
 7814SOL     OW24340   6.967   3.779   2.827
 7814SOL    HW124341   6.911   3.705   2.865
 7814SOL    HW224342   0.027   3.740   2.774
 7815SOL     OW24343   5.708   1.932   4.991
 7815SOL    HW124344   5.632   1.989   4.958
 7815SOL    HW224345   5.736   1.963   5.081
 7816SOL     OW24346   0.748   2.684   5.950
 7816SOL    HW124347   0.802   2.641   6.023
 7816SOL    HW224348   0.668   2.627   5.930
 7817SOL     OW24349   4.533   3.791   5.408
 7817SOL    HW124350   4.453   3.782   5.348
 7817SOL    HW224351   4.502   3.799   5.503
 7818SOL     OW24352   4.555   1.071   2.825
 7818SOL    HW124353   4.521   1.028   2.741
 7818SOL    HW224354   4.519   1.164   2.831
 7819SOL     OW24355   6.940   3.627   3.724
 7819SOL    HW124356   0.004   3.576   3.692
 7819SOL    HW224357   6.861   3.567   3.729
 7820SOL     OW24358   1.684   0.771   5.685
 7820SOL    HW124359   1.604   0.828   5.703
 7820SOL    HW224360   1.714   0.784   5.590
 7821SOL     OW24361   5.583   5.510   0.737
 7821SOL    HW124362   5.514   5.439   0.722
 7821SOL    HW224363   5.594   5.564   0.653
 7822SOL     OW24364   1.313   1.677   6.326
 7822SOL    HW124365   1.293   1.721   6.239
 7822SOL    HW224366   1.390   1.614   6.315
 7823SOL     OW24367   1.939   4.160   6.353
 7823SOL    HW124368   1.953   4.133   6.257
 7823SOL    HW224369   2.027   4.188   6.392
 7824SOL     OW24370   6.107   0.593   4.747
 7824SOL    HW124371   6.034   0.645   4.789
 7824SOL    HW224372   6.178   0.655   4.714
 7825SOL     OW24373   2.043   3.181   1.424
 7825SOL    HW124374   2.114   3.248   1.403
 7825SOL    HW224375   1.962   3.198   1.368
 7826SOL     OW24376   5.061   1.901   6.162
 7826SOL    HW124377   5.002   1.924   6.240
 7826SOL    HW224378   5.093   1.807   6.171
 7827SOL     OW24379   2.992   5.137   1.423
 7827SOL    HW124380   2.948   5.196   1.356
 7827SOL    HW224381   3.091   5.152   1.421
 7828SOL     OW24382   0.259   5.201   0.511
 7828SOL    HW124383   0.319   5.121   0.513
 7828SOL    HW224384   0.164   5.171   0.525
 7829SOL     OW24385   2.038   3.250   1.099
 7829SOL    HW124386   2.135   3.226   1.105
 7829SOL    HW224387   2.025   3.312   1.021
 7830SOL     OW24388   5.723   3.804   6.343
 7830SOL    HW124389   5.815   3.822   6.377
 7830SOL    HW224390   5.670   3.757   6.413
 7831SOL     OW24391   1.298   5.146   0.272
 7831SOL    HW124392   1.397   5.155   0.282
 7831SOL    HW224393   1.277   5.089   0.193
 7832SOL     OW24394   3.448   0.942   4.539
 7832SOL    HW124395   3.418   0.868   4.479
 7832SOL    HW224396   3.548   0.941   4.545
 7833SOL     OW24397   0.147   0.609   0.403
 7833SOL    HW124398   0.221   0.677   0.410
 7833SOL    HW224399   0.179   0.522   0.440
 7834SOL     OW24400   0.721   1.421   2.372
 7834SOL    HW124401   0.740   1.517   2.349
 7834SOL    HW224402   0.746   1.363   2.296
 7835SOL     OW24403   2.218   2.443   5.270
 7835SOL    HW124404   2.161   2.429   5.351
 7835SOL    HW224405   2.271   2.527   5.281
 7836SOL     OW24406   3.511   1.472   6.268
 7836SOL    HW124407   3.460   1.548   6.228
 7836SOL    HW224408   3.547   1.414   6.195
 7837SOL     OW24409   6.631   6.390   1.184
 7837SOL    HW124410   6.662   6.343   1.267
 7837SOL    HW224411   6.654   6.487   1.190
 7838SOL     OW24412   4.393   6.347   6.351
 7838SOL    HW124413   4.324   6.306   6.411
 7838SOL    HW224414   4.438   6.275   6.298
 7839SOL     OW24415   6.391   4.342   5.261
 7839SOL    HW124416   6.401   4.430   5.307
 7839SOL    HW224417   6.467   4.329   5.197
 7840SOL     OW24418   4.881   3.900   3.643
 7840SOL    HW124419   4.880   4.000   3.637
 7840SOL    HW224420   4.864   3.861   3.552
 7841SOL     OW24421   5.870   1.473   6.442
 7841SOL    HW124422   5.860   1.375   6.462
 7841SOL    HW224423   5.790   1.522   6.476
 7842SOL     OW24424   1.286   1.088   3.549
 7842SOL    HW124425   1.287   1.178   3.593
 7842SOL    HW224426   1.287   1.100   3.449
 7843SOL     OW24427   5.659   4.737   1.820
 7843SOL    HW124428   5.603   4.681   1.758
 7843SOL    HW224429   5.600   4.801   1.869
 7844SOL     OW24430   4.446   0.642   3.907
 7844SOL    HW124431   4.481   0.657   3.999
 7844SOL    HW224432   4.460   0.546   3.882
 7845SOL     OW24433   0.618   1.256   3.972
 7845SOL    HW124434   0.561   1.238   3.892
 7845SOL    HW224435   0.593   1.344   4.012
 7846SOL     OW24436   1.966   0.293   1.608
 7846SOL    HW124437   1.928   0.375   1.565
 7846SOL    HW224438   1.891   0.231   1.633
 7847SOL     OW24439   6.994   2.021   1.516
 7847SOL    HW124440   0.076   2.008   1.494
 7847SOL    HW224441   6.955   1.935   1.547
 7848SOL     OW24442   3.211   4.471   0.856
 7848SOL    HW124443   3.237   4.544   0.919
 7848SOL    HW224444   3.277   4.396   0.863
 7849SOL     OW24445   5.185   3.681   4.240
 7849SOL    HW124446   5.102   3.735   4.251
 7849SOL    HW224447   5.250   3.730   4.182
 7850SOL     OW24448   0.643   1.081   3.519
 7850SOL    HW124449   0.543   1.069   3.524
 7850SOL    HW224450   0.677   1.044   3.432
 7851SOL     OW24451   7.011   6.895   0.467
 7851SOL    HW124452   0.057   6.960   0.513
 7851SOL    HW224453   7.013   6.807   0.516
 7852SOL     OW24454   3.285   6.908   6.072
 7852SOL    HW124455   3.361   6.958   6.112
 7852SOL    HW224456   3.230   6.867   6.145
 7853SOL     OW24457   3.946   1.586   1.695
 7853SOL    HW124458   3.863   1.629   1.661
 7853SOL    HW224459   4.018   1.654   1.704
 7854SOL     OW24460   3.668   5.067   0.823
 7854SOL    HW124461   3.571   5.056   0.844
 7854SOL    HW224462   3.717   5.089   0.907
 7855SOL     OW24463   4.094   5.328   5.812
 7855SOL    HW124464   4.166   5.306   5.877
 7855SOL    HW224465   4.011   5.356   5.862
 7856SOL     OW24466   6.142   5.097   3.693
 7856SOL    HW124467   6.222   5.157   3.703
 7856SOL    HW224468   6.081   5.111   3.771
 7857SOL     OW24469   6.741   2.623   5.633
 7857SOL    HW124470   6.709   2.549   5.574
 7857SOL    HW224471   6.837   2.608   5.657
 7858SOL     OW24472   5.003   5.320   3.910
 7858SOL    HW124473   5.094   5.315   3.951
 7858SOL    HW224474   4.957   5.232   3.922
 7859SOL     OW24475   6.769   4.253   5.763
 7859SOL    HW124476   6.831   4.213   5.695
 7859SOL    HW224477   6.791   4.349   5.776
 7860SOL     OW24478   4.113   5.981   2.683
 7860SOL    HW124479   4.065   5.992   2.596
 7860SOL    HW224480   4.130   5.883   2.699
 7861SOL     OW24481   4.269   5.599   2.320
 7861SOL    HW124482   4.274   5.598   2.420
 7861SOL    HW224483   4.209   5.673   2.291
 7862SOL     OW24484   3.013   4.628   1.652
 7862SOL    HW124485   2.969   4.576   1.725
 7862SOL    HW224486   3.009   4.577   1.566
 7863SOL     OW24487   6.912   5.984   3.872
 7863SOL    HW124488   6.954   5.955   3.786
 7863SOL    HW224489   6.968   5.953   3.949
 7864SOL     OW24490   6.903   6.207   5.730
 7864SOL    HW124491   6.997   6.236   5.746
 7864SOL    HW224492   6.845   6.237   5.807
 7865SOL     OW24493   4.864   6.669   3.946
 7865SOL    HW124494   4.869   6.571   3.966
 7865SOL    HW224495   4.809   6.715   4.016
 7866SOL     OW24496   2.587   2.138   1.045
 7866SOL    HW124497   2.592   2.058   1.104
 7866SOL    HW224498   2.634   2.119   0.959
 7867SOL     OW24499   5.497   5.158   2.549
 7867SOL    HW124500   5.572   5.099   2.578
 7867SOL    HW224501   5.425   5.158   2.619
 7868SOL     OW24502   5.670   6.851   2.900
 7868SOL    HW124503   5.645   6.797   2.819
 7868SOL    HW224504   5.601   6.921   2.915
 7869SOL     OW24505   6.544   3.525   0.635
 7869SOL    HW124506   6.570   3.593   0.703
 7869SOL    HW224507   6.496   3.570   0.560
 7870SOL     OW24508   5.329   5.991   3.911
 7870SOL    HW124509   5.287   5.945   3.990
 7870SOL    HW224510   5.427   6.000   3.925
 7871SOL     OW24511   6.203   3.624   2.801
 7871SOL    HW124512   6.240   3.576   2.880
 7871SOL    HW224513   6.113   3.661   2.823
 7872SOL     OW24514   0.893   4.390   2.106
 7872SOL    HW124515   0.803   4.383   2.147
 7872SOL    HW224516   0.951   4.449   2.162
 7873SOL     OW24517   5.534   0.130   5.188
 7873SOL    HW124518   5.619   0.078   5.183
 7873SOL    HW224519   5.465   0.078   5.239
 7874SOL     OW24520   6.089   1.415   6.864
 7874SOL    HW124521   6.068   1.456   6.952
 7874SOL    HW224522   6.004   1.388   6.818
 7875SOL     OW24523   3.701   3.589   6.859
 7875SOL    HW124524   3.610   3.627   6.873
 7875SOL    HW224525   3.752   3.590   6.945
 7876SOL     OW24526   0.087   6.824   5.072
 7876SOL    HW124527   0.165   6.878   5.103
 7876SOL    HW224528   0.081   6.829   4.972
 7877SOL     OW24529   0.604   3.118   2.529
 7877SOL    HW124530   0.611   3.066   2.614
 7877SOL    HW224531   0.681   3.095   2.469
 7878SOL     OW24532   4.780   4.952   3.828
 7878SOL    HW124533   4.752   5.037   3.783
 7878SOL    HW224534   4.786   4.967   3.926
 7879SOL     OW24535   4.390   6.233   3.338
 7879SOL    HW124536   4.436   6.271   3.258
 7879SOL    HW224537   4.428   6.143   3.358
 7880SOL     OW24538   0.178   5.595   1.495
 7880SOL    HW124539   0.079   5.600   1.501
 7880SOL    HW224540   0.206   5.588   1.399
 7881SOL     OW24541   6.272   3.217   4.694
 7881SOL    HW124542   6.193   3.239   4.751
 7881SOL    HW224543   6.335   3.294   4.692
 7882SOL     OW24544   2.160   2.701   3.469
 7882SOL    HW124545   2.211   2.740   3.392
 7882SOL    HW224546   2.099   2.629   3.435
 7883SOL     OW24547   2.009   0.174   0.978
 7883SOL    HW124548   2.072   0.129   1.040
 7883SOL    HW224549   1.924   0.121   0.972
 7884SOL     OW24550   1.646   4.074   3.806
 7884SOL    HW124551   1.654   4.168   3.773
 7884SOL    HW224552   1.576   4.026   3.753
 7885SOL     OW24553   6.033   6.041   2.843
 7885SOL    HW124554   5.959   6.103   2.870
 7885SOL    HW224555   6.030   5.958   2.900
 7886SOL     OW24556   4.716   3.855   1.403
 7886SOL    HW124557   4.778   3.932   1.394
 7886SOL    HW224558   4.721   3.818   1.495
 7887SOL     OW24559   3.650   2.685   5.433
 7887SOL    HW124560   3.590   2.686   5.513
 7887SOL    HW224561   3.597   2.708   5.352
 7888SOL     OW24562   0.056   0.379   4.704
 7888SOL    HW124563   0.155   0.372   4.720
 7888SOL    HW224564   0.022   0.463   4.747
 7889SOL     OW24565   0.629   5.255   6.492
 7889SOL    HW124566   0.563   5.256   6.567
 7889SOL    HW224567   0.583   5.229   6.407
 7890SOL     OW24568   0.524   3.295   3.926
 7890SOL    HW124569   0.530   3.336   3.834
 7890SOL    HW224570   0.514   3.368   3.994
 7891SOL     OW24571   1.166   3.903   4.468
 7891SOL    HW124572   1.210   3.989   4.444
 7891SOL    HW224573   1.138   3.905   4.564
 7892SOL     OW24574   0.919   2.116   4.389
 7892SOL    HW124575   0.975   2.040   4.422
 7892SOL    HW224576   0.971   2.171   4.325
 7893SOL     OW24577   5.616   6.052   2.428
 7893SOL    HW124578   5.570   5.972   2.391
 7893SOL    HW224579   5.714   6.046   2.411
 7894SOL     OW24580   3.489   1.077   0.782
 7894SOL    HW124581   3.544   0.994   0.786
 7894SOL    HW224582   3.392   1.053   0.769
 7895SOL     OW24583   3.899   6.245   4.775
 7895SOL    HW124584   3.953   6.189   4.837
 7895SOL    HW224585   3.801   6.226   4.788
 7896SOL     OW24586   5.702   3.458   1.600
 7896SOL    HW124587   5.720   3.516   1.521
 7896SOL    HW224588   5.738   3.502   1.682
 7897SOL     OW24589   2.937   3.040   0.289
 7897SOL    HW124590   2.865   2.978   0.319
 7897SOL    HW224591   3.016   3.031   0.349
 7898SOL     OW24592   4.128   0.006   4.379
 7898SOL    HW124593   4.195   6.960   4.419
 7898SOL    HW224594   4.071   6.971   4.314
 7899SOL     OW24595   5.613   6.579   1.987
 7899SOL    HW124596   5.632   6.481   1.978
 7899SOL    HW224597   5.659   6.628   1.913
 7900SOL     OW24598   0.547   4.292   0.947
 7900SOL    HW124599   0.521   4.353   1.022
 7900SOL    HW224600   0.619   4.230   0.977
 7901SOL     OW24601   5.119   0.945   5.732
 7901SOL    HW124602   5.145   1.001   5.653
 7901SOL    HW224603   5.163   0.980   5.814
 7902SOL     OW24604   6.741   5.710   3.414
 7902SOL    HW124605   6.740   5.690   3.316
 7902SOL    HW224606   6.799   5.644   3.461
 7903SOL     OW24607   4.581   2.215   3.112
 7903SOL    HW124608   4.557   2.195   3.018
 7903SOL    HW224609   4.509   2.183   3.173
 7904SOL     OW24610   5.359   0.632   3.385
 7904SOL    HW124611   5.315   0.703   3.330
 7904SOL    HW224612   5.454   0.622   3.358
 7905SOL     OW24613   6.016   1.812   0.922
 7905SOL    HW124614   6.035   1.731   0.979
 7905SOL    HW224615   6.010   1.784   0.826
 7906SOL     OW24616   1.263   5.581   0.397
 7906SOL    HW124617   1.198   5.657   0.395
 7906SOL    HW224618   1.352   5.612   0.364
 7907SOL     OW24619   6.557   1.276   2.898
 7907SOL    HW124620   6.512   1.251   2.812
 7907SOL    HW224621   6.653   1.297   2.880
 7908SOL     OW24622   1.294   1.463   6.051
 7908SOL    HW124623   1.203   1.425   6.068
 7908SOL    HW224624   1.347   1.399   5.995
 7909SOL     OW24625   4.720   4.141   3.616
 7909SOL    HW124626   4.728   4.145   3.516
 7909SOL    HW224627   4.648   4.075   3.640
 7910SOL     OW24628   1.718   3.633   0.973
 7910SOL    HW124629   1.636   3.589   1.009
 7910SOL    HW224630   1.774   3.666   1.049
 7911SOL     OW24631   0.816   3.820   1.655
 7911SOL    HW124632   0.770   3.860   1.734
 7911SOL    HW224633   0.762   3.839   1.573
 7912SOL     OW24634   5.347   4.244   0.517
 7912SOL    HW124635   5.278   4.286   0.577
 7912SOL    HW224636   5.363   4.149   0.546
 7913SOL     OW24637   1.545   4.634   1.151
 7913SOL    HW124638   1.496   4.555   1.113
 7913SOL    HW224639   1.495   4.668   1.230
 7914SOL     OW24640   0.371   4.582   0.670
 7914SOL    HW124641   0.292   4.549   0.721
 7914SOL    HW224642   0.434   4.506   0.653
 7915SOL     OW24643   4.557   2.164   2.850
 7915SOL    HW124644   4.512   2.090   2.800
 7915SOL    HW224645   4.656   2.160   2.833
 7916SOL     OW24646   0.621   6.892   5.238
 7916SOL    HW124647   0.656   6.902   5.331
 7916SOL    HW224648   0.653   6.805   5.200
 7917SOL     OW24649   4.315   2.931   5.345
 7917SOL    HW124650   4.380   2.872   5.393
 7917SOL    HW224651   4.365   3.005   5.299
 7918SOL     OW24652   0.114   0.825   5.048
 7918SOL    HW124653   0.129   0.729   5.069
 7918SOL    HW224654   0.142   0.844   4.954
 7919SOL     OW24655   0.992   4.414   1.836
 7919SOL    HW124656   1.055   4.345   1.798
 7919SOL    HW224657   0.933   4.370   1.904
 7920SOL     OW24658   5.605   0.516   1.894
 7920SOL    HW124659   5.702   0.504   1.876
 7920SOL    HW224660   5.567   0.582   1.830
 7921SOL     OW24661   5.284   0.209   1.889
 7921SOL    HW124662   5.275   0.114   1.861
 7921SOL    HW224663   5.296   0.214   1.988
 7922SOL     OW24664   0.641   5.848   0.212
 7922SOL    HW124665   0.555   5.878   0.172
 7922SOL    HW224666   0.634   5.752   0.240
 7923SOL     OW24667   3.189   1.494   6.123
 7923SOL    HW124668   3.175   1.475   6.026
 7923SOL    HW224669   3.226   1.587   6.133
 7924SOL     OW24670   4.559   0.188   1.182
 7924SOL    HW124671   4.460   0.174   1.181
 7924SOL    HW224672   4.585   0.247   1.105
 7925SOL     OW24673   1.094   0.074   1.175
 7925SOL    HW124674   1.030   0.149   1.158
 7925SOL    HW224675   1.145   0.092   1.260
 7926SOL     OW24676   5.039   1.855   0.004
 7926SOL    HW124677   5.070   1.885   6.929
 7926SOL    HW224678   5.099   1.783   0.038
 7927SOL     OW24679   5.065   6.686   1.883
 7927SOL    HW124680   5.024   6.654   1.797
 7927SOL    HW224681   5.000   6.746   1.929
 7928SOL     OW24682   0.045   1.702   3.991
 7928SOL    HW124683   0.009   1.689   4.084
 7928SOL    HW224684   6.984   1.718   3.928
 7929SOL     OW24685   3.684   4.087   5.836
 7929SOL    HW124686   3.663   4.129   5.747
 7929SOL    HW224687   3.750   4.013   5.824
 7930SOL     OW24688   3.772   5.286   6.433
 7930SOL    HW124689   3.749   5.267   6.529
 7930SOL    HW224690   3.827   5.210   6.397
 7931SOL     OW24691   4.130   3.113   0.625
 7931SOL    HW124692   4.187   3.187   0.662
 7931SOL    HW224693   4.189   3.038   0.596
 7932SOL     OW24694   0.978   5.120   0.474
 7932SOL    HW124695   0.991   5.085   0.567
 7932SOL    HW224696   1.055   5.180   0.450
 7933SOL     OW24697   6.494   0.016   6.000
 7933SOL    HW124698   6.586   0.045   6.025
 7933SOL    HW224699   6.497   6.937   5.966
 7934SOL     OW24700   1.502   4.931   6.991
 7934SOL    HW124701   1.579   4.993   6.975
 7934SOL    HW224702   1.417   4.980   6.975
 7935SOL     OW24703   5.610   5.622   2.127
 7935SOL    HW124704   5.530   5.570   2.099
 7935SOL    HW224705   5.608   5.712   2.082
 7936SOL     OW24706   3.223   5.251   3.331
 7936SOL    HW124707   3.243   5.275   3.236
 7936SOL    HW224708   3.267   5.164   3.353
 7937SOL     OW24709   1.432   5.804   4.203
 7937SOL    HW124710   1.468   5.828   4.293
 7937SOL    HW224711   1.505   5.813   4.135
 7938SOL     OW24712   5.539   5.967   5.500
 7938SOL    HW124713   5.505   6.056   5.471
 7938SOL    HW224714   5.639   5.964   5.490
 7939SOL     OW24715   1.310   1.740   6.046
 7939SOL    HW124716   1.325   1.643   6.063
 7939SOL    HW224717   1.215   1.755   6.018
 7940SOL     OW24718   3.255   1.992   2.922
 7940SOL    HW124719   3.254   1.925   2.997
 7940SOL    HW224720   3.344   1.990   2.877
 7941SOL     OW24721   5.231   6.562   2.961
 7941SOL    HW124722   5.213   6.575   3.058
 7941SOL    HW224723   5.197   6.641   2.910
 7942SOL     OW24724   1.349   3.088   3.160
 7942SOL    HW124725   1.379   2.994   3.143
 7942SOL    HW224726   1.415   3.152   3.119
 7943SOL     OW24727   0.737   4.274   5.686
 7943SOL    HW124728   0.692   4.201   5.738
 7943SOL    HW224729   0.819   4.239   5.643
 7944SOL     OW24730   0.762   2.816   1.813
 7944SOL    HW124731   0.746   2.788   1.719
 7944SOL    HW224732   0.748   2.914   1.821
 7945SOL     OW24733   6.393   5.536   2.584
 7945SOL    HW124734   6.306   5.514   2.540
 7945SOL    HW224735   6.466   5.481   2.544
 7946SOL     OW24736   3.546   0.176   5.914
 7946SOL    HW124737   3.541   0.153   6.011
 7946SOL    HW224738   3.610   0.252   5.902
 7947SOL     OW24739   2.378   1.786   5.546
 7947SOL    HW124740   2.389   1.799   5.644
 7947SOL    HW224741   2.425   1.859   5.497
 7948SOL     OW24742   0.843   5.606   1.127
 7948SOL    HW124743   0.892   5.682   1.170
 7948SOL    HW224744   0.902   5.525   1.126
 7949SOL     OW24745   4.534   4.105   6.054
 7949SOL    HW124746   4.620   4.156   6.058
 7949SOL    HW224747   4.544   4.017   6.101
 7950SOL     OW24748   4.522   5.893   4.461
 7950SOL    HW124749   4.462   5.881   4.540
 7950SOL    HW224750   4.616   5.910   4.492
 7951SOL     OW24751   2.064   4.969   2.324
 7951SOL    HW124752   2.069   5.047   2.261
 7951SOL    HW224753   2.152   4.959   2.371
 7952SOL     OW24754   0.211   3.639   0.361
 7952SOL    HW124755   0.195   3.736   0.380
 7952SOL    HW224756   0.197   3.622   0.264
 7953SOL     OW24757   4.744   2.151   1.951
 7953SOL    HW124758   4.704   2.231   1.908
 7953SOL    HW224759   4.768   2.083   1.882
 7954SOL     OW24760   3.711   4.402   6.113
 7954SOL    HW124761   3.631   4.352   6.079
 7954SOL    HW224762   3.717   4.391   6.212
 7955SOL     OW24763   2.215   1.538   6.957
 7955SOL    HW124764   2.267   1.465   6.911
 7955SOL    HW224765   2.123   1.543   6.918
 7956SOL     OW24766   5.274   0.986   1.689
 7956SOL    HW124767   5.195   1.040   1.662
 7956SOL    HW224768   5.255   0.939   1.775
 7957SOL     OW24769   2.010   1.272   0.235
 7957SOL    HW124770   1.986   1.343   0.168
 7957SOL    HW224771   2.104   1.286   0.265
 7958SOL     OW24772   5.413   4.059   5.941
 7958SOL    HW124773   5.361   4.138   5.972
 7958SOL    HW224774   5.458   4.016   6.019
 7959SOL     OW24775   5.339   0.108   6.853
 7959SOL    HW124776   5.243   0.134   6.868
 7959SOL    HW224777   5.393   0.189   6.834
 7960SOL     OW24778   1.476   1.305   5.829
 7960SOL    HW124779   1.448   1.213   5.855
 7960SOL    HW224780   1.398   1.354   5.791
 7961SOL     OW24781   6.599   0.136   1.000
 7961SOL    HW124782   6.673   0.160   0.937
 7961SOL    HW224783   6.589   0.037   1.003
 7962SOL     OW24784   0.503   1.646   5.681
 7962SOL    HW124785   0.531   1.552   5.659
 7962SOL    HW224786   0.503   1.658   5.781
 7963SOL     OW24787   6.293   5.739   4.377
 7963SOL    HW124788   6.334   5.826   4.404
 7963SOL    HW224789   6.333   5.665   4.430
 7964SOL     OW24790   6.033   3.096   2.465
 7964SOL    HW124791   6.101   3.088   2.392
 7964SOL    HW224792   6.007   3.005   2.496
 7965SOL     OW24793   4.024   2.195   6.265
 7965SOL    HW124794   3.929   2.219   6.285
 7965SOL    HW224795   4.048   2.226   6.173
 7966SOL     OW24796   3.397   2.916   5.918
 7966SOL    HW124797   3.437   2.908   5.827
 7966SOL    HW224798   3.299   2.937   5.910
 7967SOL     OW24799   2.067   5.515   1.985
 7967SOL    HW124800   2.100   5.609   1.977
 7967SOL    HW224801   2.125   5.464   2.048
 7968SOL     OW24802   6.266   2.169   4.599
 7968SOL    HW124803   6.356   2.169   4.642
 7968SOL    HW224804   6.264   2.101   4.526
 7969SOL     OW24805   5.826   6.283   0.881
 7969SOL    HW124806   5.820   6.359   0.816
 7969SOL    HW224807   5.879   6.311   0.961
 7970SOL     OW24808   6.405   3.644   2.424
 7970SOL    HW124809   6.324   3.618   2.476
 7970SOL    HW224810   6.403   3.600   2.334
 7971SOL     OW24811   3.111   1.549   0.991
 7971SOL    HW124812   3.125   1.568   1.088
 7971SOL    HW224813   3.188   1.582   0.938
 7972SOL     OW24814   3.290   3.245   1.415
 7972SOL    HW124815   3.282   3.344   1.407
 7972SOL    HW224816   3.338   3.209   1.335
 7973SOL     OW24817   4.973   4.423   4.429
 7973SOL    HW124818   5.040   4.438   4.356
 7973SOL    HW224819   5.005   4.467   4.513
 7974SOL     OW24820   6.077   0.979   6.101
 7974SOL    HW124821   6.126   1.064   6.120
 7974SOL    HW224822   5.989   0.980   6.147
 7975SOL     OW24823   5.685   0.115   1.119
 7975SOL    HW124824   5.666   0.097   1.022
 7975SOL    HW224825   5.609   0.167   1.159
 7976SOL     OW24826   1.138   0.180   6.023
 7976SOL    HW124827   1.166   0.105   5.964
 7976SOL    HW224828   1.136   0.265   5.971
 7977SOL     OW24829   4.234   6.099   2.397
 7977SOL    HW124830   4.328   6.123   2.373
 7977SOL    HW224831   4.172   6.171   2.365
 7978SOL     OW24832   0.006   2.657   6.130
 7978SOL    HW124833   6.982   2.749   6.141
 7978SOL    HW224834   0.104   2.660   6.146
 7979SOL     OW24835   2.312   5.109   5.757
 7979SOL    HW124836   2.400   5.128   5.800
 7979SOL    HW224837   2.326   5.085   5.661
 7980SOL     OW24838   3.018   5.442   6.548
 7980SOL    HW124839   2.958   5.478   6.619
 7980SOL    HW224840   2.967   5.434   6.463
 7981SOL     OW24841   0.690   4.670   1.956
 7981SOL    HW124842   0.778   4.666   1.909
 7981SOL    HW224843   0.671   4.581   1.998
 7982SOL     OW24844   1.637   1.885   6.387
 7982SOL    HW124845   1.550   1.838   6.374
 7982SOL    HW224846   1.712   1.820   6.380
 7983SOL     OW24847   6.526   2.373   0.872
 7983SOL    HW124848   6.626   2.380   0.872
 7983SOL    HW224849   6.487   2.449   0.923
 7984SOL     OW24850   0.173   1.320   0.474
 7984SOL    HW124851   0.122   1.360   0.551
 7984SOL    HW224852   0.270   1.322   0.495
 7985SOL     OW24853   2.615   1.791   4.668
 7985SOL    HW124854   2.545   1.720   4.684
 7985SOL    HW224855   2.586   1.849   4.592
 7986SOL     OW24856   2.930   0.719   6.319
 7986SOL    HW124857   2.938   0.818   6.324
 7986SOL    HW224858   3.004   0.677   6.371
 7987SOL     OW24859   2.062   2.938   0.397
 7987SOL    HW124860   2.039   2.860   0.456
 7987SOL    HW224861   2.073   2.906   0.303
 7988SOL     OW24862   1.419   0.969   2.627
 7988SOL    HW124863   1.409   1.021   2.542
 7988SOL    HW224864   1.437   1.032   2.703
 7989SOL     OW24865   2.455   3.354   0.070
 7989SOL    HW124866   2.515   3.335   7.007
 7989SOL    HW224867   2.389   3.280   0.079
 7990SOL     OW24868   2.468   5.167   4.751
 7990SOL    HW124869   2.437   5.248   4.802
 7990SOL    HW224870   2.437   5.174   4.656
 7991SOL     OW24871   6.007   1.869   3.831
 7991SOL    HW124872   6.073   1.829   3.768
 7991SOL    HW224873   5.930   1.905   3.780
 7992SOL     OW24874   1.339   0.486   0.467
 7992SOL    HW124875   1.388   0.407   0.430
 7992SOL    HW224876   1.360   0.495   0.564
 7993SOL     OW24877   0.316   6.945   1.363
 7993SOL    HW124878   0.292   6.956   1.459
 7993SOL    HW224879   0.415   6.960   1.351
 7994SOL     OW24880   4.251   0.557   3.460
 7994SOL    HW124881   4.163   0.510   3.450
 7994SOL    HW224882   4.247   0.617   3.541
 7995SOL     OW24883   5.991   5.377   3.264
 7995SOL    HW124884   5.999   5.379   3.363
 7995SOL    HW224885   5.926   5.307   3.236
 7996SOL     OW24886   3.892   6.055   4.542
 7996SOL    HW124887   3.910   6.134   4.600
 7996SOL    HW224888   3.881   5.973   4.598
 7997SOL     OW24889   6.847   1.691   0.236
 7997SOL    HW124890   6.909   1.768   0.248
 7997SOL    HW224891   6.900   1.606   0.235
 7998SOL     OW24892   3.683   6.982   6.969
 7998SOL    HW124893   3.779   6.970   6.945
 7998SOL    HW224894   3.676   0.015   0.042
 7999SOL     OW24895   0.746   1.154   6.105
 7999SOL    HW124896   0.771   1.083   6.170
 7999SOL    HW224897   0.695   1.113   6.029
 8000SOL     OW24898   5.496   6.112   6.501
 8000SOL    HW124899   5.439   6.092   6.581
 8000SOL    HW224900   5.443   6.161   6.433
 8001SOL     OW24901   4.165   6.058   1.816
 8001SOL    HW124902   4.192   6.152   1.798
 8001SOL    HW224903   4.232   6.014   1.876
 8002SOL     OW24904   0.491   0.650   6.374
 8002SOL    HW124905   0.505   0.748   6.365
 8002SOL    HW224906   0.436   0.617   6.296
 8003SOL     OW24907   2.183   5.446   1.753
 8003SOL    HW124908   2.178   5.532   1.702
 8003SOL    HW224909   2.137   5.455   1.841
 8004SOL     OW24910   1.465   3.935   3.639
 8004SOL    HW124911   1.377   3.963   3.678
 8004SOL    HW224912   1.479   3.983   3.552
 8005SOL     OW24913   2.439   0.367   3.436
 8005SOL    HW124914   2.458   0.274   3.407
 8005SOL    HW224915   2.436   0.427   3.356
 8006SOL     OW24916   2.172   5.913   5.400
 8006SOL    HW124917   2.094   5.966   5.367
 8006SOL    HW224918   2.164   5.902   5.499
 8007SOL     OW24919   6.152   1.843   6.364
 8007SOL    HW124920   6.093   1.892   6.429
 8007SOL    HW224921   6.165   1.749   6.396
 8008SOL     OW24922   3.742   6.064   6.599
 8008SOL    HW124923   3.715   6.089   6.692
 8008SOL    HW224924   3.669   6.012   6.556
 8009SOL     OW24925   4.707   0.507   0.502
 8009SOL    HW124926   4.649   0.511   0.420
 8009SOL    HW224927   4.800   0.534   0.478
 8010SOL     OW24928   2.387   2.303   5.132
 8010SOL    HW124929   2.474   2.348   5.153
 8010SOL    HW224930   2.313   2.347   5.184
 8011SOL     OW24931   3.795   2.012   1.059
 8011SOL    HW124932   3.719   1.969   1.107
 8011SOL    HW224933   3.800   2.109   1.084
 8012SOL     OW24934   1.426   2.863   0.155
 8012SOL    HW124935   1.384   2.938   0.206
 8012SOL    HW224936   1.391   2.861   0.062
 8013SOL     OW24937   1.231   4.654   3.556
 8013SOL    HW124938   1.230   4.554   3.552
 8013SOL    HW224939   1.142   4.689   3.528
 8014SOL     OW24940   1.674   0.190   4.441
 8014SOL    HW124941   1.670   0.098   4.402
 8014SOL    HW224942   1.601   0.201   4.509
 8015SOL     OW24943   1.866   0.409   6.123
 8015SOL    HW124944   1.927   0.480   6.087
 8015SOL    HW224945   1.860   0.334   6.057
 8016SOL     OW24946   4.130   1.327   5.132
 8016SOL    HW124947   4.057   1.394   5.118
 8016SOL    HW224948   4.201   1.340   5.062
 8017SOL     OW24949   6.456   0.229   6.819
 8017SOL    HW124950   6.540   0.176   6.802
 8017SOL    HW224951   6.463   0.317   6.773
 8018SOL     OW24952   3.187   2.616   0.447
 8018SOL    HW124953   3.087   2.616   0.444
 8018SOL    HW224954   3.223   2.692   0.393
 8019SOL     OW24955   2.139   4.517   1.343
 8019SOL    HW124956   2.122   4.599   1.289
 8019SOL    HW224957   2.201   4.457   1.292
 8020SOL     OW24958   6.436   6.870   6.614
 8020SOL    HW124959   6.455   6.867   6.712
 8020SOL    HW224960   6.394   6.957   6.590
 8021SOL     OW24961   1.750   3.272   1.865
 8021SOL    HW124962   1.778   3.256   1.770
 8021SOL    HW224963   1.665   3.325   1.866
 8022SOL     OW24964   6.129   0.715   1.817
 8022SOL    HW124965   6.044   0.741   1.862
 8022SOL    HW224966   6.153   0.784   1.748
 8023SOL     OW24967   5.873   4.470   2.328
 8023SOL    HW124968   5.797   4.534   2.322
 8023SOL    HW224969   5.895   4.454   2.425
 8024SOL     OW24970   1.344   5.308   6.600
 8024SOL    HW124971   1.308   5.298   6.692
 8024SOL    HW224972   1.437   5.270   6.597
 8025SOL     OW24973   1.778   5.820   1.045
 8025SOL    HW124974   1.840   5.891   1.010
 8025SOL    HW224975   1.688   5.832   1.004
 8026SOL     OW24976   6.874   4.256   0.981
 8026SOL    HW124977   6.910   4.257   0.888
 8026SOL    HW224978   6.938   4.206   1.040
 8027SOL     OW24979   3.363   0.137   5.569
 8027SOL    HW124980   3.410   0.066   5.620
 8027SOL    HW224981   3.265   0.135   5.591
 8028SOL     OW24982   3.678   4.965   4.953
 8028SOL    HW124983   3.586   4.958   4.913
 8028SOL    HW224984   3.674   4.937   5.049
 8029SOL     OW24985   5.436   2.683   2.097
 8029SOL    HW124986   5.419   2.613   2.166
 8029SOL    HW224987   5.516   2.737   2.122
 8030SOL     OW24988   5.905   5.758   0.766
 8030SOL    HW124989   5.989   5.799   0.800
 8030SOL    HW224990   5.923   5.712   0.679
 8031SOL     OW24991   0.019   6.401   3.005
 8031SOL    HW124992   0.036   6.332   3.076
 8031SOL    HW224993   0.103   6.454   2.990
 8032SOL     OW24994   5.354   4.027   1.669
 8032SOL    HW124995   5.369   4.106   1.609
 8032SOL    HW224996   5.333   3.947   1.613
 8033SOL     OW24997   4.590   2.861   6.718
 8033SOL    HW124998   4.601   2.951   6.761
 8033SOL    HW224999   4.600   2.789   6.787
 8034SOL     OW25000   4.697   6.825   6.071
 8034SOL    HW125001   4.626   6.881   6.112
 8034SOL    HW225002   4.767   6.885   6.031
 8035SOL     OW25003   4.878   1.858   1.931
 8035SOL    HW125004   4.790   1.864   1.885
 8035SOL    HW225005   4.865   1.863   2.030
 8036SOL     OW25006   6.571   3.663   3.796
 8036SOL    HW125007   6.541   3.631   3.886
 8036SOL    HW225008   6.535   3.755   3.779
 8037SOL     OW25009   1.899   3.265   6.913
 8037SOL    HW125010   1.962   3.318   6.856
 8037SOL    HW225011   1.846   3.203   6.856
 8038SOL     OW25012   4.190   6.926   2.925
 8038SOL    HW125013   4.242   6.922   2.840
 8038SOL    HW225014   4.140   6.840   2.937
 8039SOL     OW25015   6.893   1.755   4.595
 8039SOL    HW125016   6.845   1.795   4.517
 8039SOL    HW225017   6.924   1.663   4.572
 8040SOL     OW25018   1.446   6.028   6.526
 8040SOL    HW125019   1.441   5.929   6.530
 8040SOL    HW225020   1.406   6.060   6.439
 8041SOL     OW25021   3.081   0.846   2.449
 8041SOL    HW125022   3.141   0.816   2.524
 8041SOL    HW225023   3.135   0.897   2.382
 8042SOL     OW25024   4.163   3.859   5.520
 8042SOL    HW125025   4.179   3.761   5.512
 8042SOL    HW225026   4.091   3.887   5.456
 8043SOL     OW25027   3.362   5.195   0.618
 8043SOL    HW125028   3.460   5.206   0.602
 8043SOL    HW225029   3.312   5.272   0.578
 8044SOL     OW25030   3.766   3.650   0.712
 8044SOL    HW125031   3.860   3.632   0.683
 8044SOL    HW225032   3.743   3.745   0.692
 8045SOL     OW25033   6.068   2.165   2.385
 8045SOL    HW125034   6.161   2.190   2.414
 8045SOL    HW225035   6.072   2.121   2.295
 8046SOL     OW25036   0.796   3.894   2.480
 8046SOL    HW125037   0.731   3.858   2.413
 8046SOL    HW225038   0.883   3.915   2.434
 8047SOL     OW25039   3.305   6.083   6.272
 8047SOL    HW125040   3.246   6.004   6.291
 8047SOL    HW225041   3.326   6.130   6.358
 8048SOL     OW25042   3.370   2.177   0.364
 8048SOL    HW125043   3.366   2.082   0.330
 8048SOL    HW225044   3.309   2.234   0.309
 8049SOL     OW25045   0.966   0.067   0.507
 8049SOL    HW125046   0.897   0.091   0.576
 8049SOL    HW225047   0.927   0.077   0.416
 8050SOL     OW25048   1.825   3.273   3.968
 8050SOL    HW125049   1.795   3.199   3.907
 8050SOL    HW225050   1.838   3.356   3.916
 8051SOL     OW25051   4.896   6.357   4.857
 8051SOL    HW125052   4.980   6.399   4.891
 8051SOL    HW225053   4.882   6.269   4.903
 8052SOL     OW25054   2.894   1.613   1.540
 8052SOL    HW125055   2.979   1.577   1.502
 8052SOL    HW225056   2.819   1.596   1.476
 8053SOL     OW25057   3.271   2.818   5.002
 8053SOL    HW125058   3.359   2.810   5.048
 8053SOL    HW225059   3.226   2.728   5.000
 8054SOL     OW25060   6.875   4.049   5.032
 8054SOL    HW125061   6.780   4.069   5.005
 8054SOL    HW225062   6.925   4.013   4.953
 8055SOL     OW25063   6.561   0.417   5.684
 8055SOL    HW125064   6.537   0.340   5.743
 8055SOL    HW225065   6.505   0.415   5.601
 8056SOL     OW25066   3.007   0.631   4.944
 8056SOL    HW125067   2.976   0.544   4.904
 8056SOL    HW225068   3.019   0.698   4.871
 8057SOL     OW25069   2.778   2.331   2.798
 8057SOL    HW125070   2.768   2.264   2.871
 8057SOL    HW225071   2.875   2.348   2.780
 8058SOL     OW25072   3.176   6.973   3.002
 8058SOL    HW125073   3.267   6.968   2.961
 8058SOL    HW225074   3.137   0.049   2.987
 8059SOL     OW25075   2.401   1.164   5.210
 8059SOL    HW125076   2.359   1.075   5.195
 8059SOL    HW225077   2.476   1.155   5.275
 8060SOL     OW25078   0.276   2.216   6.088
 8060SOL    HW125079   0.238   2.236   6.179
 8060SOL    HW225080   0.325   2.296   6.054
 8061SOL     OW25081   0.440   0.148   2.206
 8061SOL    HW125082   0.526   0.112   2.170
 8061SOL    HW225083   0.449   0.163   2.305
 8062SOL     OW25084   3.895   5.159   3.881
 8062SOL    HW125085   3.952   5.197   3.808
 8062SOL    HW225086   3.933   5.185   3.970
 8063SOL     OW25087   2.505   1.074   3.459
 8063SOL    HW125088   2.424   1.129   3.479
 8063SOL    HW225089   2.502   0.989   3.511
 8064SOL     OW25090   5.813   2.298   0.459
 8064SOL    HW125091   5.759   2.272   0.379
 8064SOL    HW225092   5.784   2.388   0.492
 8065SOL     OW25093   2.830   6.376   4.271
 8065SOL    HW125094   2.786   6.416   4.191
 8065SOL    HW225095   2.760   6.339   4.332
 8066SOL     OW25096   6.659   6.931   5.518
 8066SOL    HW125097   6.622   6.993   5.587
 8066SOL    HW225098   6.659   6.976   5.429
 8067SOL     OW25099   5.179   2.881   2.745
 8067SOL    HW125100   5.257   2.837   2.790
 8067SOL    HW225101   5.210   2.962   2.696
 8068SOL     OW25102   0.076   4.477   1.342
 8068SOL    HW125103   0.020   4.559   1.331
 8068SOL    HW225104   0.119   4.453   1.255
 8069SOL     OW25105   1.866   4.958   1.141
 8069SOL    HW125106   1.910   4.926   1.057
 8069SOL    HW225107   1.771   4.982   1.122
 8070SOL     OW25108   3.928   3.060   0.460
 8070SOL    HW125109   3.917   3.141   0.403
 8070SOL    HW225110   4.004   3.073   0.523
 8071SOL     OW25111   2.901   6.878   5.358
 8071SOL    HW125112   2.906   6.804   5.424
 8071SOL    HW225113   2.982   6.877   5.300
 8072SOL     OW25114   3.520   1.662   1.073
 8072SOL    HW125115   3.571   1.577   1.057
 8072SOL    HW225116   3.461   1.680   0.994
 8073SOL     OW25117   3.599   6.043   5.085
 8073SOL    HW125118   3.574   6.138   5.068
 8073SOL    HW225119   3.679   6.040   5.145
 8074SOL     OW25120   3.003   1.957   0.480
 8074SOL    HW125121   2.912   1.996   0.496
 8074SOL    HW225122   3.073   2.022   0.511
 8075SOL     OW25123   6.502   6.962   0.722
 8075SOL    HW125124   6.562   6.898   0.674
 8075SOL    HW225125   6.430   6.912   0.769
 8076SOL     OW25126   6.133   6.959   5.130
 8076SOL    HW125127   6.098   6.878   5.178
 8076SOL    HW225128   6.084   6.970   5.043
 8077SOL     OW25129   3.131   5.695   2.736
 8077SOL    HW125130   3.137   5.596   2.724
 8077SOL    HW225131   3.146   5.717   2.833
 8078SOL     OW25132   0.728   1.902   1.154
 8078SOL    HW125133   0.739   1.989   1.107
 8078SOL    HW225134   0.734   1.827   1.088
 8079SOL     OW25135   6.660   1.421   3.145
 8079SOL    HW125136   6.628   1.403   3.052
 8079SOL    HW225137   6.582   1.443   3.203
 8080SOL     OW25138   1.238   1.836   2.643
 8080SOL    HW125139   1.280   1.767   2.702
 8080SOL    HW225140   1.181   1.897   2.698
 8081SOL     OW25141   6.167   5.589   5.969
 8081SOL    HW125142   6.216   5.520   6.023
 8081SOL    HW225143   6.221   5.611   5.888
 8082SOL     OW25144   3.317   0.733   2.581
 8082SOL    HW125145   3.328   0.767   2.488
 8082SOL    HW225146   3.372   0.650   2.593
 8083SOL     OW25147   5.066   2.830   3.640
 8083SOL    HW125148   4.968   2.826   3.621
 8083SOL    HW225149   5.083   2.803   3.735
 8084SOL     OW25150   3.295   0.024   6.643
 8084SOL    HW125151   3.238   6.962   6.615
 8084SOL    HW225152   3.378   7.005   6.687
 8085SOL     OW25153   5.939   5.655   2.369
 8085SOL    HW125154   5.894   5.734   2.326
 8085SOL    HW225155   5.873   5.582   2.381
 8086SOL     OW25156   6.743   0.851   2.003
 8086SOL    HW125157   6.725   0.813   2.093
 8086SOL    HW225158   6.838   0.883   1.999
 8087SOL     OW25159   1.837   0.044   0.139
 8087SOL    HW125160   1.749   0.000   0.122
 8087SOL    HW225161   1.856   0.044   0.237
 8088SOL     OW25162   5.924   0.653   0.999
 8088SOL    HW125163   5.831   0.645   1.033
 8088SOL    HW225164   5.981   0.698   1.067
 8089SOL     OW25165   5.323   2.879   6.966
 8089SOL    HW125166   5.401   2.911   0.005
 8089SOL    HW225167   5.330   2.780   6.953
 8090SOL     OW25168   4.070   1.243   6.014
 8090SOL    HW125169   3.986   1.294   5.998
 8090SOL    HW225170   4.080   1.172   5.944
 8091SOL     OW25171   1.625   3.812   5.083
 8091SOL    HW125172   1.541   3.847   5.124
 8091SOL    HW225173   1.622   3.713   5.079
 8092SOL     OW25174   5.210   1.933   5.043
 8092SOL    HW125175   5.153   2.000   4.996
 8092SOL    HW225176   5.269   1.887   4.976
 8093SOL     OW25177   2.686   5.287   3.521
 8093SOL    HW125178   2.672   5.265   3.618
 8093SOL    HW225179   2.781   5.314   3.506
 8094SOL     OW25180   0.240   3.047   4.734
 8094SOL    HW125181   0.194   2.966   4.770
 8094SOL    HW225182   0.257   3.035   4.636
 8095SOL     OW25183   0.563   4.588   5.094
 8095SOL    HW125184   0.561   4.494   5.129
 8095SOL    HW225185   0.578   4.651   5.171
 8096SOL     OW25186   2.200   0.693   2.352
 8096SOL    HW125187   2.241   0.602   2.342
 8096SOL    HW225188   2.201   0.719   2.449
 8097SOL     OW25189   4.302   6.863   5.305
 8097SOL    HW125190   4.382   6.918   5.331
 8097SOL    HW225191   4.242   6.852   5.384
 8098SOL     OW25192   2.023   6.524   3.730
 8098SOL    HW125193   1.951   6.543   3.664
 8098SOL    HW225194   1.984   6.520   3.822
 8099SOL     OW25195   4.390   6.349   4.007
 8099SOL    HW125196   4.312   6.286   4.012
 8099SOL    HW225197   4.454   6.328   4.081
 8100SOL     OW25198   6.856   0.676   0.002
 8100SOL    HW125199   6.956   0.671   7.014
 8100SOL    HW225200   6.826   0.684   0.097
 8101SOL     OW25201   1.658   5.777   1.358
 8101SOL    HW125202   1.662   5.689   1.309
 8101SOL    HW225203   1.573   5.824   1.334
 8102SOL     OW25204   0.552   3.396   3.665
 8102SOL    HW125205   0.486   3.370   3.595
 8102SOL    HW225206   0.604   3.475   3.633
 8103SOL     OW25207   3.173   0.046   1.366
 8103SOL    HW125208   3.083   0.029   1.325
 8103SOL    HW225209   3.195   6.987   1.429
 8104SOL     OW25210   1.675   0.626   6.154
 8104SOL    HW125211   1.647   0.565   6.080
 8104SOL    HW225212   1.594   0.664   6.198
 8105SOL     OW25213   6.996   3.242   3.096
 8105SOL    HW125214   0.041   3.304   3.146
 8105SOL    HW225215   6.927   3.296   3.046
 8106SOL     OW25216   3.243   5.644   3.671
 8106SOL    HW125217   3.298   5.682   3.596
 8106SOL    HW225218   3.148   5.638   3.643
 8107SOL     OW25219   0.942   5.409   3.796
 8107SOL    HW125220   0.868   5.372   3.740
 8107SOL    HW225221   1.030   5.385   3.755
 8108SOL     OW25222   6.642   2.806   6.547
 8108SOL    HW125223   6.591   2.889   6.524
 8108SOL    HW225224   6.730   2.808   6.499
 8109SOL     OW25225   6.888   3.635   6.103
 8109SOL    HW125226   6.824   3.704   6.137
 8109SOL    HW225227   6.865   3.546   6.143
 8110SOL     OW25228   3.874   5.499   2.429
 8110SOL    HW125229   3.959   5.503   2.376
 8110SOL    HW225230   3.870   5.577   2.491
 8111SOL     OW25231   5.144   1.247   4.635
 8111SOL    HW125232   5.167   1.189   4.557
 8111SOL    HW225233   5.135   1.191   4.717
 8112SOL     OW25234   2.135   3.116   4.357
 8112SOL    HW125235   2.123   3.057   4.277
 8112SOL    HW225236   2.178   3.064   4.431
 8113SOL     OW25237   0.962   3.861   1.264
 8113SOL    HW125238   1.026   3.794   1.227
 8113SOL    HW225239   0.869   3.825   1.259
 8114SOL     OW25240   1.725   3.631   2.459
 8114SOL    HW125241   1.660   3.676   2.520
 8114SOL    HW225242   1.806   3.690   2.449
 8115SOL     OW25243   3.726   6.688   6.496
 8115SOL    HW125244   3.642   6.734   6.523
 8115SOL    HW225245   3.801   6.717   6.556
 8116SOL     OW25246   4.202   4.846   0.443
 8116SOL    HW125247   4.265   4.897   0.501
 8116SOL    HW225248   4.122   4.819   0.497
 8117SOL     OW25249   1.522   0.152   3.502
 8117SOL    HW125250   1.445   0.142   3.565
 8117SOL    HW225251   1.608   0.156   3.554
 8118SOL     OW25252   4.833   4.147   6.100
 8118SOL    HW125253   4.904   4.167   6.168
 8118SOL    HW225254   4.875   4.134   6.010
 8119SOL     OW25255   5.170   5.594   6.582
 8119SOL    HW125256   5.235   5.519   6.576
 8119SOL    HW225257   5.218   5.682   6.580
 8120SOL     OW25258   3.439   4.507   1.106
 8120SOL    HW125259   3.411   4.437   1.040
 8120SOL    HW225260   3.400   4.595   1.078
 8121SOL     OW25261   0.625   4.769   1.697
 8121SOL    HW125262   0.551   4.837   1.699
 8121SOL    HW225263   0.643   4.736   1.790
 8122SOL     OW25264   0.207   4.396   2.932
 8122SOL    HW125265   0.227   4.328   3.002
 8122SOL    HW225266   0.158   4.473   2.973
 8123SOL     OW25267   6.723   1.839   6.467
 8123SOL    HW125268   6.716   1.855   6.565
 8123SOL    HW225269   6.755   1.922   6.421
 8124SOL     OW25270   4.966   5.912   2.213
 8124SOL    HW125271   5.050   5.952   2.250
 8124SOL    HW225272   4.913   5.871   2.287
 8125SOL     OW25273   1.828   1.775   3.434
 8125SOL    HW125274   1.787   1.772   3.525
 8125SOL    HW225275   1.887   1.696   3.421
 8126SOL     OW25276   5.308   4.701   3.223
 8126SOL    HW125277   5.382   4.637   3.240
 8126SOL    HW225278   5.260   4.675   3.139
 8127SOL     OW25279   2.689   3.478   6.205
 8127SOL    HW125280   2.745   3.434   6.134
 8127SOL    HW225281   2.618   3.415   6.236
 8128SOL     OW25282   2.933   2.220   2.328
 8128SOL    HW125283   2.900   2.276   2.252
 8128SOL    HW225284   2.883   2.242   2.411
 8129SOL     OW25285   3.657   1.440   5.870
 8129SOL    HW125286   3.667   1.403   5.962
 8129SOL    HW225287   3.679   1.537   5.871
 8130SOL     OW25288   0.669   4.331   6.634
 8130SOL    HW125289   0.655   4.370   6.725
 8130SOL    HW225290   0.694   4.234   6.642
 8131SOL     OW25291   2.393   2.104   1.532
 8131SOL    HW125292   2.348   2.018   1.511
 8131SOL    HW225293   2.352   2.177   1.478
 8132SOL     OW25294   5.194   6.858   5.093
 8132SOL    HW125295   5.293   6.870   5.092
 8132SOL    HW225296   5.153   6.912   5.019
 8133SOL     OW25297   3.320   5.143   2.648
 8133SOL    HW125298   3.290   5.049   2.663
 8133SOL    HW225299   3.311   5.167   2.551
 8134SOL     OW25300   6.904   2.025   6.379
 8134SOL    HW125301   6.991   2.011   6.331
 8134SOL    HW225302   6.910   2.108   6.435
 8135SOL     OW25303   2.899   0.068   1.309
 8135SOL    HW125304   2.858   0.156   1.334
 8135SOL    HW225305   2.849   0.028   1.232
 8136SOL     OW25306   4.633   5.744   3.123
 8136SOL    HW125307   4.613   5.784   3.034
 8136SOL    HW225308   4.731   5.722   3.128
 8137SOL     OW25309   3.133   1.456   5.301
 8137SOL    HW125310   3.162   1.450   5.396
 8137SOL    HW225311   3.213   1.444   5.241
 8138SOL     OW25312   5.308   1.203   0.740
 8138SOL    HW125313   5.217   1.162   0.747
 8138SOL    HW225314   5.343   1.219   0.832
 8139SOL     OW25315   0.171   0.753   1.802
 8139SOL    HW125316   0.183   0.757   1.703
 8139SOL    HW225317   0.248   0.704   1.843
 8140SOL     OW25318   5.789   0.728   6.066
 8140SOL    HW125319   5.833   0.640   6.050
 8140SOL    HW225320   5.690   0.716   6.069
 8141SOL     OW25321   4.262   5.172   4.555
 8141SOL    HW125322   4.166   5.195   4.572
 8141SOL    HW225323   4.311   5.253   4.523
 8142SOL     OW25324   0.197   5.156   6.825
 8142SOL    HW125325   0.186   5.072   6.772
 8142SOL    HW225326   0.160   5.143   6.917
 8143SOL     OW25327   5.883   3.928   0.777
 8143SOL    HW125328   5.873   3.849   0.717
 8143SOL    HW225329   5.853   4.010   0.730
 8144SOL     OW25330   5.963   6.413   6.260
 8144SOL    HW125331   5.976   6.322   6.299
 8144SOL    HW225332   5.999   6.482   6.323
 8145SOL     OW25333   5.706   6.034   1.123
 8145SOL    HW125334   5.694   5.968   1.049
 8145SOL    HW225335   5.736   6.121   1.086
 8146SOL     OW25336   3.701   0.992   4.674
 8146SOL    HW125337   3.733   0.907   4.716
 8146SOL    HW225338   3.766   1.066   4.695
 8147SOL     OW25339   6.055   1.977   1.639
 8147SOL    HW125340   6.042   2.071   1.671
 8147SOL    HW225341   6.073   1.918   1.718
 8148SOL     OW25342   5.423   4.431   1.247
 8148SOL    HW125343   5.442   4.490   1.325
 8148SOL    HW225344   5.360   4.359   1.274
 8149SOL     OW25345   2.523   6.031   1.904
 8149SOL    HW125346   2.519   6.021   2.003
 8149SOL    HW225347   2.446   6.087   1.874
 8150SOL     OW25348   0.366   4.721   0.420
 8150SOL    HW125349   0.390   4.656   0.493
 8150SOL    HW225350   0.323   4.672   0.345
 8151SOL     OW25351   6.358   1.997   1.649
 8151SOL    HW125352   6.444   1.972   1.605
 8151SOL    HW225353   6.288   2.013   1.579
 8152SOL     OW25354   0.518   1.576   2.608
 8152SOL    HW125355   0.470   1.555   2.693
 8152SOL    HW225356   0.605   1.621   2.629
 8153SOL     OW25357   3.170   0.489   3.085
 8153SOL    HW125358   3.203   0.407   3.130
 8153SOL    HW225359   3.238   0.562   3.092
 8154SOL     OW25360   2.992   5.699   3.587
 8154SOL    HW125361   2.916   5.663   3.641
 8154SOL    HW225362   2.987   5.798   3.584
 8155SOL     OW25363   2.520   3.958   1.720
 8155SOL    HW125364   2.488   3.966   1.625
 8155SOL    HW225365   2.442   3.971   1.782
 8156SOL     OW25366   5.087   6.687   6.325
 8156SOL    HW125367   5.013   6.629   6.291
 8156SOL    HW225368   5.069   6.709   6.421
 8157SOL     OW25369   5.982   4.988   6.544
 8157SOL    HW125370   6.072   4.949   6.525
 8157SOL    HW225371   5.911   4.921   6.521
 8158SOL     OW25372   6.938   5.027   1.816
 8158SOL    HW125373   6.969   4.938   1.781
 8158SOL    HW225374   6.859   5.014   1.875
 8159SOL     OW25375   2.960   6.093   2.900
 8159SOL    HW125376   2.900   6.091   2.979
 8159SOL    HW225377   2.971   6.000   2.864
 8160SOL     OW25378   4.575   1.305   2.585
 8160SOL    HW125379   4.479   1.274   2.591
 8160SOL    HW225380   4.586   1.387   2.640
 8161SOL     OW25381   4.771   1.293   6.702
 8161SOL    HW125382   4.795   1.387   6.726
 8161SOL    HW225383   4.846   1.251   6.652
 8162SOL     OW25384   6.305   6.466   5.811
 8162SOL    HW125385   6.247   6.398   5.766
 8162SOL    HW225386   6.374   6.420   5.866
 8163SOL     OW25387   2.719   3.573   5.378
 8163SOL    HW125388   2.724   3.499   5.311
 8163SOL    HW225389   2.738   3.536   5.469
 8164SOL     OW25390   5.810   3.068   0.668
 8164SOL    HW125391   5.747   3.071   0.745
 8164SOL    HW225392   5.894   3.117   0.692
 8165SOL     OW25393   1.098   5.044   6.496
 8165SOL    HW125394   1.016   5.100   6.512
 8165SOL    HW225395   1.136   5.015   6.583
 8166SOL     OW25396   2.337   0.914   2.183
 8166SOL    HW125397   2.346   0.987   2.250
 8166SOL    HW225398   2.318   0.828   2.230
 8167SOL     OW25399   6.064   1.070   4.190
 8167SOL    HW125400   6.159   1.039   4.197
 8167SOL    HW225401   6.017   1.018   4.119
 8168SOL     OW25402   3.372   1.609   3.669
 8168SOL    HW125403   3.366   1.526   3.614
 8168SOL    HW225404   3.280   1.641   3.691
 8169SOL     OW25405   5.306   3.049   1.252
 8169SOL    HW125406   5.247   3.030   1.331
 8169SOL    HW225407   5.269   3.126   1.201
 8170SOL     OW25408   1.352   6.015   2.677
 8170SOL    HW125409   1.322   6.104   2.644
 8170SOL    HW225410   1.435   5.988   2.630
 8171SOL     OW25411   1.205   1.434   0.287
 8171SOL    HW125412   1.121   1.431   0.233
 8171SOL    HW225413   1.258   1.351   0.271
 8172SOL     OW25414   0.913   1.079   1.912
 8172SOL    HW125415   0.970   1.076   1.994
 8172SOL    HW225416   0.828   1.128   1.932
 8173SOL     OW25417   3.754   1.664   0.582
 8173SOL    HW125418   3.819   1.655   0.658
 8173SOL    HW225419   3.691   1.739   0.601
 8174SOL     OW25420   5.251   2.004   0.549
 8174SOL    HW125421   5.239   1.906   0.532
 8174SOL    HW225422   5.164   2.051   0.534
 8175SOL     OW25423   7.012   2.607   5.678
 8175SOL    HW125424   0.095   2.620   5.661
 8175SOL    HW225425   6.998   2.586   5.775
 8176SOL     OW25426   2.389   5.265   2.624
 8176SOL    HW125427   2.316   5.200   2.646
 8176SOL    HW225428   2.426   5.245   2.534
 8177SOL     OW25429   2.192   6.407   4.313
 8177SOL    HW125430   2.113   6.425   4.372
 8177SOL    HW225431   2.245   6.491   4.302
 8178SOL     OW25432   2.053   6.699   6.823
 8178SOL    HW125433   2.001   6.779   6.852
 8178SOL    HW225434   2.020   6.618   6.872
 8179SOL     OW25435   3.687   2.500   6.826
 8179SOL    HW125436   3.702   2.439   6.749
 8179SOL    HW225437   3.610   2.561   6.807
 8180SOL     OW25438   6.535   0.133   4.502
 8180SOL    HW125439   6.469   0.098   4.436
 8180SOL    HW225440   6.627   0.124   4.465
 8181SOL     OW25441   2.137   1.675   2.385
 8181SOL    HW125442   2.158   1.635   2.295
 8181SOL    HW225443   2.098   1.604   2.444
 8182SOL     OW25444   3.836   1.300   0.047
 8182SOL    HW125445   3.770   1.341   6.999
 8182SOL    HW225446   3.798   1.216   0.085
 8183SOL     OW25447   0.621   2.376   4.734
 8183SOL    HW125448   0.623   2.444   4.808
 8183SOL    HW225449   0.530   2.375   4.693
 8184SOL     OW25450   5.309   1.626   6.020
 8184SOL    HW125451   5.368   1.648   5.943
 8184SOL    HW225452   5.214   1.619   5.989
 8185SOL     OW25453   3.435   0.244   0.378
 8185SOL    HW125454   3.403   0.300   0.301
 8185SOL    HW225455   3.388   0.156   0.377
 8186SOL     OW25456   3.087   5.857   6.251
 8186SOL    HW125457   3.039   5.944   6.265
 8186SOL    HW225458   3.020   5.782   6.250
 8187SOL     OW25459   1.557   2.510   5.161
 8187SOL    HW125460   1.646   2.473   5.133
 8187SOL    HW225461   1.487   2.479   5.096
 8188SOL     OW25462   5.507   1.823   2.646
 8188SOL    HW125463   5.540   1.737   2.684
 8188SOL    HW225464   5.529   1.828   2.549
 8189SOL     OW25465   5.214   4.246   1.993
 8189SOL    HW125466   5.308   4.267   1.966
 8189SOL    HW225467   5.213   4.215   2.088
 8190SOL     OW25468   4.906   5.663   4.479
 8190SOL    HW125469   4.941   5.636   4.389
 8190SOL    HW225470   4.852   5.589   4.517
 8191SOL     OW25471   2.691   5.203   3.784
 8191SOL    HW125472   2.605   5.151   3.784
 8191SOL    HW225473   2.698   5.254   3.870
 8192SOL     OW25474   3.170   5.862   6.981
 8192SOL    HW125475   3.267   5.859   7.005
 8192SOL    HW225476   3.127   5.774   7.004
 8193SOL     OW25477   6.598   0.192   4.045
 8193SOL    HW125478   6.675   0.254   4.059
 8193SOL    HW225479   6.516   0.246   4.024
 8194SOL     OW25480   6.215   2.747   0.400
 8194SOL    HW125481   6.142   2.679   0.414
 8194SOL    HW225482   6.296   2.702   0.363
 8195SOL     OW25483   0.603   0.541   0.936
 8195SOL    HW125484   0.523   0.599   0.918
 8195SOL    HW225485   0.652   0.525   0.851
 8196SOL     OW25486   3.535   0.397   5.538
 8196SOL    HW125487   3.488   0.312   5.560
 8196SOL    HW225488   3.500   0.433   5.452
 8197SOL     OW25489   4.902   1.650   6.195
 8197SOL    HW125490   4.813   1.675   6.157
 8197SOL    HW225491   4.892   1.633   6.293
 8198SOL     OW25492   2.826   7.008   2.413
 8198SOL    HW125493   2.781   6.946   2.477
 8198SOL    HW225494   2.890   0.051   2.462
 8199SOL     OW25495   6.908   4.047   0.740
 8199SOL    HW125496   6.993   4.010   0.778
 8199SOL    HW225497   6.920   4.066   0.643
 8200SOL     OW25498   4.674   4.165   1.205
 8200SOL    HW125499   4.767   4.197   1.188
 8200SOL    HW225500   4.645   4.194   1.296
 8201SOL     OW25501   5.405   0.793   4.520
 8201SOL    HW125502   5.405   0.888   4.488
 8201SOL    HW225503   5.417   0.791   4.620
 8202SOL     OW25504   0.969   5.647   3.915
 8202SOL    HW125505   0.995   5.722   3.855
 8202SOL    HW225506   0.977   5.560   3.865
 8203SOL     OW25507   4.791   3.456   0.400
 8203SOL    HW125508   4.840   3.370   0.412
 8203SOL    HW225509   4.745   3.455   0.311
 8204SOL     OW25510   3.549   5.330   1.204
 8204SOL    HW125511   3.620   5.331   1.134
 8204SOL    HW225512   3.511   5.421   1.214
 8205SOL     OW25513   6.398   4.856   2.330
 8205SOL    HW125514   6.353   4.825   2.414
 8205SOL    HW225515   6.478   4.799   2.313
 8206SOL     OW25516   3.003   2.117   5.441
 8206SOL    HW125517   2.932   2.149   5.504
 8206SOL    HW225518   3.001   2.174   5.358
 8207SOL     OW25519   3.564   4.775   5.252
 8207SOL    HW125520   3.654   4.817   5.263
 8207SOL    HW225521   3.564   4.684   5.292
 8208SOL     OW25522   2.778   6.487   1.445
 8208SOL    HW125523   2.754   6.548   1.520
 8208SOL    HW225524   2.869   6.449   1.461
 8209SOL     OW25525   0.760   1.538   5.271
 8209SOL    HW125526   0.700   1.594   5.214
 8209SOL    HW225527   0.852   1.577   5.271
 8210SOL     OW25528   3.315   0.272   0.134
 8210SOL    HW125529   3.216   0.280   0.131
 8210SOL    HW225530   3.356   0.332   0.066
 8211SOL     OW25531   3.544   4.121   4.021
 8211SOL    HW125532   3.492   4.144   3.939
 8211SOL    HW225533   3.614   4.054   3.998
 8212SOL     OW25534   3.393   0.688   0.790
 8212SOL    HW125535   3.323   0.670   0.859
 8212SOL    HW225536   3.483   0.693   0.835
 8213SOL     OW25537   4.902   5.220   3.480
 8213SOL    HW125538   4.824   5.178   3.525
 8213SOL    HW225539   4.875   5.307   3.440
 8214SOL     OW25540   2.037   6.237   3.765
 8214SOL    HW125541   2.014   6.147   3.803
 8214SOL    HW225542   2.137   6.245   3.757
 8215SOL     OW25543   4.118   5.104   0.658
 8215SOL    HW125544   4.081   5.121   0.567
 8215SOL    HW225545   4.190   5.171   0.678
 8216SOL     OW25546   5.204   6.894   3.119
 8216SOL    HW125547   5.176   6.895   3.023
 8216SOL    HW225548   5.212   6.800   3.151
 8217SOL     OW25549   2.322   4.275   2.126
 8217SOL    HW125550   2.300   4.178   2.125
 8217SOL    HW225551   2.397   4.293   2.062
 8218SOL     OW25552   1.539   0.214   4.678
 8218SOL    HW125553   1.473   0.148   4.713
 8218SOL    HW225554   1.577   0.267   4.754
 8219SOL     OW25555   2.830   4.604   1.159
 8219SOL    HW125556   2.798   4.589   1.252
 8219SOL    HW225557   2.752   4.617   1.098
 8220SOL     OW25558   3.492   4.178   5.031
 8220SOL    HW125559   3.425   4.215   5.095
 8220SOL    HW225560   3.579   4.165   5.077
 8221SOL     OW25561   6.181   4.211   3.377
 8221SOL    HW125562   6.274   4.232   3.345
 8221SOL    HW225563   6.163   4.113   3.365
 8222SOL     OW25564   5.531   2.049   0.580
 8222SOL    HW125565   5.435   2.070   0.567
 8222SOL    HW225566   5.574   2.122   0.632
 8223SOL     OW25567   0.271   5.191   5.807
 8223SOL    HW125568   0.272   5.246   5.723
 8223SOL    HW225569   0.313   5.102   5.789
 8224SOL     OW25570   4.538   2.034   1.367
 8224SOL    HW125571   4.618   2.090   1.388
 8224SOL    HW225572   4.524   2.030   1.268
 8225SOL     OW25573   4.120   7.011   1.131
 8225SOL    HW125574   4.047   6.983   1.070
 8225SOL    HW225575   4.131   6.944   1.204
 8226SOL     OW25576   3.561   0.316   0.595
 8226SOL    HW125577   3.501   0.286   0.520
 8226SOL    HW225578   3.510   0.316   0.681
 8227SOL     OW25579   6.631   1.284   2.614
 8227SOL    HW125580   6.711   1.321   2.568
 8227SOL    HW225581   6.582   1.223   2.552
 8228SOL     OW25582   0.309   1.227   5.664
 8228SOL    HW125583   0.295   1.291   5.740
 8228SOL    HW225584   0.287   1.272   5.578
 8229SOL     OW25585   4.650   4.469   1.206
 8229SOL    HW125586   4.597   4.421   1.136
 8229SOL    HW225587   4.616   4.442   1.297
 8230SOL     OW25588   3.772   6.789   5.786
 8230SOL    HW125589   3.741   6.820   5.876
 8230SOL    HW225590   3.715   6.714   5.754
 8231SOL     OW25591   3.284   1.700   2.287
 8231SOL    HW125592   3.203   1.707   2.230
 8231SOL    HW225593   3.269   1.750   2.373
 8232SOL     OW25594   5.205   1.436   2.308
 8232SOL    HW125595   5.217   1.504   2.236
 8232SOL    HW225596   5.273   1.451   2.380
 8233SOL     OW25597   0.902   0.471   5.757
 8233SOL    HW125598   0.866   0.500   5.846
 8233SOL    HW225599   0.866   0.531   5.685
 8234SOL     OW25600   3.265   2.860   0.290
 8234SOL    HW125601   3.293   2.836   0.197
 8234SOL    HW225602   3.166   2.865   0.296
 8235SOL     OW25603   0.419   4.435   0.123
 8235SOL    HW125604   0.343   4.478   0.173
 8235SOL    HW225605   0.397   4.434   0.026
 8236SOL     OW25606   0.273   5.787   5.913
 8236SOL    HW125607   0.227   5.782   5.825
 8236SOL    HW225608   0.258   5.877   5.954
 8237SOL     OW25609   4.299   5.284   6.006
 8237SOL    HW125610   4.398   5.275   5.992
 8237SOL    HW225611   4.272   5.225   6.083
 8238SOL     OW25612   0.990   5.631   6.644
 8238SOL    HW125613   1.019   5.698   6.712
 8238SOL    HW225614   1.026   5.541   6.670
 8239SOL     OW25615   0.240   1.112   4.855
 8239SOL    HW125616   0.170   1.173   4.819
 8239SOL    HW225617   0.211   1.077   4.945
 8240SOL     OW25618   2.884   3.327   2.618
 8240SOL    HW125619   2.962   3.281   2.576
 8240SOL    HW225620   2.865   3.412   2.570
 8241SOL     OW25621   1.270   3.639   6.849
 8241SOL    HW125622   1.223   3.599   6.929
 8241SOL    HW225623   1.312   3.565   6.796
 8242SOL     OW25624   1.202   3.627   4.577
 8242SOL    HW125625   1.240   3.625   4.669
 8242SOL    HW225626   1.233   3.709   4.530
 8243SOL     OW25627   0.777   4.337   6.325
 8243SOL    HW125628   0.748   4.353   6.419
 8243SOL    HW225629   0.849   4.402   6.301
 8244SOL     OW25630   1.202   0.351   3.680
 8244SOL    HW125631   1.236   0.276   3.737
 8244SOL    HW225632   1.124   0.394   3.724
 8245SOL     OW25633   4.285   2.065   3.470
 8245SOL    HW125634   4.248   2.114   3.549
 8245SOL    HW225635   4.347   1.993   3.501
 8246SOL     OW25636   1.248   4.274   6.148
 8246SOL    HW125637   1.300   4.316   6.223
 8246SOL    HW225638   1.246   4.337   6.070
 8247SOL     OW25639   3.170   5.197   3.826
 8247SOL    HW125640   3.087   5.194   3.770
 8247SOL    HW225641   3.175   5.285   3.874
 8248SOL     OW25642   1.033   5.735   4.178
 8248SOL    HW125643   1.012   5.687   4.093
 8248SOL    HW225644   0.948   5.772   4.217
 8249SOL     OW25645   2.566   1.731   5.156
 8249SOL    HW125646   2.547   1.644   5.201
 8249SOL    HW225647   2.663   1.736   5.133
 8250SOL     OW25648   3.185   1.874   0.754
 8250SOL    HW125649   3.091   1.866   0.786
 8250SOL    HW225650   3.191   1.943   0.683
 8251SOL     OW25651   6.176   1.925   4.116
 8251SOL    HW125652   6.105   1.860   4.089
 8251SOL    HW225653   6.141   2.018   4.108
 8252SOL     OW25654   2.801   2.294   6.707
 8252SOL    HW125655   2.828   2.337   6.793
 8252SOL    HW225656   2.817   2.357   6.632
 8253SOL     OW25657   3.976   5.622   6.491
 8253SOL    HW125658   4.070   5.604   6.461
 8253SOL    HW225659   3.913   5.600   6.417
 8254SOL     OW25660   5.797   4.832   5.990
 8254SOL    HW125661   5.799   4.745   6.039
 8254SOL    HW225662   5.702   4.863   5.980
 8255SOL     OW25663   0.739   6.915   5.751
 8255SOL    HW125664   0.827   6.874   5.773
 8255SOL    HW225665   0.690   6.936   5.836
 8256SOL     OW25666   0.060   7.013   3.252
 8256SOL    HW125667   6.979   6.996   3.277
 8256SOL    HW225668   0.065   0.024   3.156
 8257SOL     OW25669   5.672   4.156   4.214
 8257SOL    HW125670   5.595   4.106   4.251
 8257SOL    HW225671   5.758   4.119   4.251
 8258SOL     OW25672   5.736   2.510   1.204
 8258SOL    HW125673   5.788   2.430   1.175
 8258SOL    HW225674   5.775   2.592   1.161
 8259SOL     OW25675   3.871   1.959   5.094
 8259SOL    HW125676   3.840   1.870   5.061
 8259SOL    HW225677   3.811   2.030   5.058
 8260SOL     OW25678   2.018   6.363   0.791
 8260SOL    HW125679   1.937   6.404   0.833
 8260SOL    HW225680   2.066   6.308   0.860
 8261SOL     OW25681   5.488   6.729   3.260
 8261SOL    HW125682   5.468   6.827   3.265
 8261SOL    HW225683   5.563   6.707   3.322
 8262SOL     OW25684   0.449   4.990   0.421
 8262SOL    HW125685   0.428   4.892   0.419
 8262SOL    HW225686   0.504   5.010   0.503
 8263SOL     OW25687   6.950   2.792   6.724
 8263SOL    HW125688   6.915   2.740   6.802
 8263SOL    HW225689   6.954   2.889   6.748
 8264SOL     OW25690   1.431   6.747   1.343
 8264SOL    HW125691   1.346   6.739   1.290
 8264SOL    HW225692   1.475   6.657   1.347
 8265SOL     OW25693   3.907   0.134   1.352
 8265SOL    HW125694   3.966   0.195   1.404
 8265SOL    HW225695   3.946   0.119   1.261
 8266SOL     OW25696   2.701   0.217   4.721
 8266SOL    HW125697   2.696   0.118   4.718
 8266SOL    HW225698   2.755   0.250   4.644
 8267SOL     OW25699   1.379   5.086   2.102
 8267SOL    HW125700   1.342   4.994   2.105
 8267SOL    HW225701   1.349   5.137   2.183
 8268SOL     OW25702   2.131   3.789   6.810
 8268SOL    HW125703   2.069   3.836   6.747
 8268SOL    HW225704   2.164   3.853   6.879
 8269SOL     OW25705   4.750   2.873   2.901
 8269SOL    HW125706   4.757   2.865   2.802
 8269SOL    HW225707   4.775   2.966   2.928
 8270SOL     OW25708   2.417   6.482   5.591
 8270SOL    HW125709   2.471   6.444   5.516
 8270SOL    HW225710   2.356   6.411   5.627
 8271SOL     OW25711   6.122   6.689   4.493
 8271SOL    HW125712   6.024   6.693   4.512
 8271SOL    HW225713   6.137   6.635   4.410
 8272SOL     OW25714   0.695   0.436   2.169
 8272SOL    HW125715   0.743   0.513   2.126
 8272SOL    HW225716   0.607   0.468   2.205
 8273SOL     OW25717   3.206   6.787   0.237
 8273SOL    HW125718   3.133   6.730   0.198
 8273SOL    HW225719   3.292   6.736   0.236
 8274SOL     OW25720   3.958   4.439   6.597
 8274SOL    HW125721   3.872   4.403   6.561
 8274SOL    HW225722   3.954   4.443   6.697
 8275SOL     OW25723   5.911   0.370   4.716
 8275SOL    HW125724   6.003   0.333   4.708
 8275SOL    HW225725   5.915   0.465   4.745
 8276SOL     OW25726   6.717   2.655   5.952
 8276SOL    HW125727   6.808   2.613   5.953
 8276SOL    HW225728   6.659   2.604   5.888
 8277SOL     OW25729   2.468   5.459   5.307
 8277SOL    HW125730   2.557   5.498   5.282
 8277SOL    HW225731   2.417   5.526   5.361
 8278SOL     OW25732   3.142   1.368   6.469
 8278SOL    HW125733   3.173   1.277   6.441
 8278SOL    HW225734   3.042   1.369   6.476
 8279SOL     OW25735   5.339   4.992   6.632
 8279SOL    HW125736   5.336   5.039   6.720
 8279SOL    HW225737   5.435   4.979   6.604
 8280SOL     OW25738   4.414   2.561   6.961
 8280SOL    HW125739   4.413   2.461   6.949
 8280SOL    HW225740   4.503   2.597   6.934
 8281SOL     OW25741   1.993   4.337   0.490
 8281SOL    HW125742   1.954   4.275   0.558
 8281SOL    HW225743   2.088   4.357   0.513
 8282SOL     OW25744   3.242   2.227   0.981
 8282SOL    HW125745   3.215   2.294   1.050
 8282SOL    HW225746   3.191   2.243   0.896
 8283SOL     OW25747   0.120   5.346   3.606
 8283SOL    HW125748   0.172   5.270   3.645
 8283SOL    HW225749   0.143   5.356   3.509
 8284SOL     OW25750   1.762   2.736   2.450
 8284SOL    HW125751   1.811   2.806   2.502
 8284SOL    HW225752   1.781   2.747   2.353
 8285SOL     OW25753   3.308   3.604   5.832
 8285SOL    HW125754   3.408   3.606   5.835
 8285SOL    HW225755   3.273   3.698   5.820
 8286SOL     OW25756   5.600   1.271   4.695
 8286SOL    HW125757   5.696   1.294   4.714
 8286SOL    HW225758   5.551   1.260   4.781
 8287SOL     OW25759   1.659   6.972   4.326
 8287SOL    HW125760   1.612   6.892   4.364
 8287SOL    HW225761   1.613   7.001   4.241
 8288SOL     OW25762   1.992   2.511   2.283
 8288SOL    HW125763   1.969   2.527   2.379
 8288SOL    HW225764   2.031   2.419   2.273
 8289SOL     OW25765   6.036   0.623   6.009
 8289SOL    HW125766   6.131   0.616   6.041
 8289SOL    HW225767   6.012   0.719   5.999
 8290SOL     OW25768   4.022   3.349   1.673
 8290SOL    HW125769   4.026   3.288   1.594
 8290SOL    HW225770   3.950   3.319   1.735
 8291SOL     OW25771   5.706   6.683   6.430
 8291SOL    HW125772   5.693   6.601   6.374
 8291SOL    HW225773   5.786   6.734   6.397
 8292SOL     OW25774   2.346   5.295   5.990
 8292SOL    HW125775   2.266   5.261   5.941
 8292SOL    HW225776   2.342   5.395   5.995
 8293SOL     OW25777   1.949   4.741   1.540
 8293SOL    HW125778   1.976   4.826   1.586
 8293SOL    HW225779   2.030   4.699   1.498
 8294SOL     OW25780   6.575   3.473   5.520
 8294SOL    HW125781   6.673   3.486   5.510
 8294SOL    HW225782   6.532   3.559   5.549
 8295SOL     OW25783   4.812   4.008   2.748
 8295SOL    HW125784   4.769   4.046   2.666
 8295SOL    HW225785   4.872   3.933   2.722
 8296SOL     OW25786   3.852   5.510   6.737
 8296SOL    HW125787   3.895   5.547   6.654
 8296SOL    HW225788   3.802   5.426   6.714
 8297SOL     OW25789   6.129   3.876   1.729
 8297SOL    HW125790   6.062   3.870   1.803
 8297SOL    HW225791   6.221   3.867   1.766
 8298SOL     OW25792   0.782   0.961   6.339
 8298SOL    HW125793   0.801   1.022   6.416
 8298SOL    HW225794   0.689   0.926   6.347
 8299SOL     OW25795   7.000   3.756   1.263
 8299SOL    HW125796   6.921   3.758   1.325
 8299SOL    HW225797   0.063   3.715   1.310
 8300SOL     OW25798   6.218   6.130   4.767
 8300SOL    HW125799   6.131   6.178   4.760
 8300SOL    HW225800   6.288   6.182   4.717
 8301SOL     OW25801   4.387   0.101   6.562
 8301SOL    HW125802   4.391   0.149   6.474
 8301SOL    HW225803   4.378   0.003   6.546
 8302SOL     OW25804   3.134   6.843   5.134
 8302SOL    HW125805   3.083   6.815   5.053
 8302SOL    HW225806   3.210   6.901   5.107
 8303SOL     OW25807   0.204   0.498   2.702
 8303SOL    HW125808   0.272   0.571   2.699
 8303SOL    HW225809   0.112   0.537   2.709
 8304SOL     OW25810   6.051   4.198   3.028
 8304SOL    HW125811   6.096   4.282   3.060
 8304SOL    HW225812   5.978   4.173   3.091
 8305SOL     OW25813   4.634   5.252   3.967
 8305SOL    HW125814   4.602   5.345   3.985
 8305SOL    HW225815   4.630   5.198   4.052
 8306SOL     OW25816   6.574   1.106   2.384
 8306SOL    HW125817   6.653   1.164   2.363
 8306SOL    HW225818   6.602   1.010   2.382
 8307SOL     OW25819   1.316   5.290   1.182
 8307SOL    HW125820   1.259   5.367   1.154
 8307SOL    HW225821   1.332   5.294   1.280
 8308SOL     OW25822   1.534   4.444   0.064
 8308SOL    HW125823   1.541   4.538   0.029
 8308SOL    HW225824   1.528   4.381   7.002
 8309SOL     OW25825   6.249   4.847   4.892
 8309SOL    HW125826   6.217   4.788   4.966
 8309SOL    HW225827   6.236   4.943   4.917
 8310SOL     OW25828   0.886   6.216   1.239
 8310SOL    HW125829   0.917   6.306   1.269
 8310SOL    HW225830   0.792   6.223   1.205
 8311SOL     OW25831   5.176   0.224   4.309
 8311SOL    HW125832   5.231   0.174   4.243
 8311SOL    HW225833   5.179   0.178   4.398
 8312SOL     OW25834   5.700   0.074   0.841
 8312SOL    HW125835   5.734   0.167   0.848
 8312SOL    HW225836   5.610   0.074   0.799
 8313SOL     OW25837   3.774   0.208   5.394
 8313SOL    HW125838   3.719   0.277   5.347
 8313SOL    HW225839   3.714   0.144   5.443
 8314SOL     OW25840   5.765   6.176   6.527
 8314SOL    HW125841   5.666   6.162   6.515
 8314SOL    HW225842   5.813   6.148   6.444
 8315SOL     OW25843   3.765   3.642   3.632
 8315SOL    HW125844   3.817   3.628   3.548
 8315SOL    HW225845   3.743   3.553   3.673
 8316SOL     OW25846   0.981   3.207   6.519
 8316SOL    HW125847   1.052   3.182   6.454
 8316SOL    HW225848   1.012   3.283   6.575
 8317SOL     OW25849   2.120   2.071   4.846
 8317SOL    HW125850   2.079   2.144   4.791
 8317SOL    HW225851   2.170   2.009   4.786
 8318SOL     OW25852   4.546   1.190   6.153
 8318SOL    HW125853   4.481   1.158   6.085
 8318SOL    HW225854   4.528   1.145   6.240
 8319SOL     OW25855   1.158   0.405   5.864
 8319SOL    HW125856   1.104   0.386   5.781
 8319SOL    HW225857   1.131   0.494   5.901
 8320SOL     OW25858   3.433   4.093   3.747
 8320SOL    HW125859   3.482   4.006   3.749
 8320SOL    HW225860   3.335   4.077   3.758
 8321SOL     OW25861   0.016   0.342   6.350
 8321SOL    HW125862   6.946   0.383   6.315
 8321SOL    HW225863   0.055   0.283   6.279
 8322SOL     OW25864   6.976   1.109   0.471
 8322SOL    HW125865   0.027   1.184   0.463
 8322SOL    HW225866   6.994   1.058   0.555
 8323SOL     OW25867   4.622   4.763   1.183
 8323SOL    HW125868   4.647   4.666   1.185
 8323SOL    HW225869   4.642   4.800   1.093
 8324SOL     OW25870   5.762   0.318   0.222
 8324SOL    HW125871   5.693   0.388   0.240
 8324SOL    HW225872   5.743   0.237   0.277
 8325SOL     OW25873   1.344   5.086   5.213
 8325SOL    HW125874   1.360   5.024   5.290
 8325SOL    HW225875   1.303   5.171   5.246
 8326SOL     OW25876   3.656   3.862   0.037
 8326SOL    HW125877   3.679   3.939   0.096
 8326SOL    HW225878   3.694   3.876   6.961
 8327SOL     OW25879   0.516   0.889   5.352
 8327SOL    HW125880   0.587   0.822   5.331
 8327SOL    HW225881   0.431   0.842   5.374
 8328SOL     OW25882   1.085   6.807   5.658
 8328SOL    HW125883   1.069   6.780   5.563
 8328SOL    HW225884   1.020   6.759   5.718
 8329SOL     OW25885   0.721   2.963   5.287
 8329SOL    HW125886   0.686   2.871   5.265
 8329SOL    HW225887   0.780   2.957   5.367
 8330SOL     OW25888   3.944   0.963   6.369
 8330SOL    HW125889   3.874   0.904   6.327
 8330SOL    HW225890   3.928   0.969   6.467
 8331SOL     OW25891   2.654   2.139   0.348
 8331SOL    HW125892   2.693   2.154   0.257
 8331SOL    HW225893   2.580   2.204   0.364
 8332SOL     OW25894   5.426   5.455   1.928
 8332SOL    HW125895   5.450   5.376   1.985
 8332SOL    HW225896   5.443   5.434   1.832
 8333SOL     OW25897   1.604   5.266   0.686
 8333SOL    HW125898   1.690   5.293   0.642
 8333SOL    HW225899   1.527   5.306   0.635
 8334SOL     OW25900   3.005   1.670   6.542
 8334SOL    HW125901   3.058   1.755   6.549
 8334SOL    HW225902   2.960   1.666   6.453
 8335SOL     OW25903   4.044   2.527   6.708
 8335SOL    HW125904   4.023   2.429   6.719
 8335SOL    HW225905   4.111   2.555   6.776
 8336SOL     OW25906   1.522   3.767   2.623
 8336SOL    HW125907   1.449   3.777   2.690
 8336SOL    HW225908   1.503   3.826   2.544
 8337SOL     OW25909   0.920   0.796   5.091
 8337SOL    HW125910   0.959   0.869   5.035
 8337SOL    HW225911   0.862   0.737   5.035
 8338SOL     OW25912   4.046   4.804   2.355
 8338SOL    HW125913   3.950   4.806   2.329
 8338SOL    HW225914   4.101   4.778   2.276
 8339SOL     OW25915   6.701   0.644   0.645
 8339SOL    HW125916   6.647   0.717   0.604
 8339SOL    HW225917   6.694   0.561   0.589
 8340SOL     OW25918   5.052   3.332   0.491
 8340SOL    HW125919   5.132   3.291   0.448
 8340SOL    HW225920   5.077   3.422   0.528
 8341SOL     OW25921   3.274   0.546   6.215
 8341SOL    HW125922   3.314   0.465   6.257
 8341SOL    HW225923   3.332   0.626   6.232
 8342SOL     OW25924   3.347   6.204   0.604
 8342SOL    HW125925   3.414   6.271   0.571
 8342SOL    HW225926   3.386   6.112   0.596
 8343SOL     OW25927   6.591   5.491   4.135
 8343SOL    HW125928   6.686   5.519   4.131
 8343SOL    HW225929   6.580   5.400   4.095
 8344SOL     OW25930   0.222   4.496   4.127
 8344SOL    HW125931   0.316   4.525   4.107
 8344SOL    HW225932   0.217   4.396   4.130
 8345SOL     OW25933   5.360   1.411   3.372
 8345SOL    HW125934   5.364   1.459   3.460
 8345SOL    HW225935   5.302   1.461   3.309
 8346SOL     OW25936   4.017   2.814   6.110
 8346SOL    HW125937   3.944   2.861   6.061
 8346SOL    HW225938   4.077   2.881   6.153
 8347SOL     OW25939   2.488   6.566   6.280
 8347SOL    HW125940   2.537   6.481   6.261
 8347SOL    HW225941   2.517   6.603   6.368
 8348SOL     OW25942   2.959   6.813   1.409
 8348SOL    HW125943   3.040   6.802   1.351
 8348SOL    HW225944   2.887   6.858   1.356
 8349SOL     OW25945   0.756   6.505   1.615
 8349SOL    HW125946   0.821   6.526   1.688
 8349SOL    HW225947   0.754   6.580   1.550
 8350SOL     OW25948   2.482   0.030   6.336
 8350SOL    HW125949   2.492   7.007   6.244
 8350SOL    HW225950   2.392   0.072   6.345
 8351SOL     OW25951   5.861   5.804   3.577
 8351SOL    HW125952   5.763   5.816   3.587
 8351SOL    HW225953   5.905   5.803   3.667
 8352SOL     OW25954   2.632   6.106   2.803
 8352SOL    HW125955   2.675   6.142   2.720
 8352SOL    HW225956   2.628   6.179   2.872
 8353SOL     OW25957   1.840   4.229   1.566
 8353SOL    HW125958   1.866   4.132   1.568
 8353SOL    HW225959   1.740   4.237   1.559
 8354SOL     OW25960   3.273   6.865   4.139
 8354SOL    HW125961   3.351   6.899   4.192
 8354SOL    HW225962   3.209   6.817   4.200
 8355SOL     OW25963   1.872   0.819   6.160
 8355SOL    HW125964   1.797   0.754   6.147
 8355SOL    HW225965   1.924   0.794   6.241
 8356SOL     OW25966   1.280   5.209   1.850
 8356SOL    HW125967   1.340   5.155   1.908
 8356SOL    HW225968   1.334   5.252   1.778
 8357SOL     OW25969   3.505   5.591   5.982
 8357SOL    HW125970   3.585   5.635   6.021
 8357SOL    HW225971   3.512   5.492   5.993
 8358SOL     OW25972   1.255   3.068   5.905
 8358SOL    HW125973   1.304   3.022   5.980
 8358SOL    HW225974   1.158   3.043   5.910
 8359SOL     OW25975   2.004   1.475   4.576
 8359SOL    HW125976   2.081   1.537   4.558
 8359SOL    HW225977   1.998   1.458   4.675
 8360SOL     OW25978   5.102   6.691   0.764
 8360SOL    HW125979   5.033   6.629   0.726
 8360SOL    HW225980   5.153   6.644   0.837
 8361SOL     OW25981   2.547   6.651   6.573
 8361SOL    HW125982   2.545   6.584   6.647
 8361SOL    HW225983   2.482   6.725   6.594
 8362SOL     OW25984   6.197   2.152   0.553
 8362SOL    HW125985   6.283   2.195   0.580
 8362SOL    HW225986   6.143   2.131   0.634
 8363SOL     OW25987   4.501   1.809   0.563
 8363SOL    HW125988   4.454   1.724   0.538
 8363SOL    HW225989   4.520   1.809   0.661
 8364SOL     OW25990   0.884   2.848   3.855
 8364SOL    HW125991   0.954   2.893   3.910
 8364SOL    HW225992   0.892   2.879   3.760
 8365SOL     OW25993   1.883   2.332   3.153
 8365SOL    HW125994   1.800   2.313   3.205
 8365SOL    HW225995   1.873   2.298   3.060
 8366SOL     OW25996   3.960   5.303   1.216
 8366SOL    HW125997   3.969   5.296   1.316
 8366SOL    HW225998   4.021   5.237   1.173
 8367SOL     OW25999   3.076   4.958   5.107
 8367SOL    HW126000   3.044   4.870   5.144
 8367SOL    HW226001   3.167   4.978   5.142
 8368SOL     OW26002   1.162   6.125   6.844
 8368SOL    HW126003   1.253   6.160   6.823
 8368SOL    HW226004   1.099   6.202   6.855
 8369SOL     OW26005   0.762   1.048   0.887
 8369SOL    HW126006   0.673   1.011   0.858
 8369SOL    HW226007   0.811   1.083   0.807
 8370SOL     OW26008   2.609   1.571   6.557
 8370SOL    HW126009   2.530   1.541   6.504
 8370SOL    HW226010   2.681   1.500   6.553
 8371SOL     OW26011   1.725   3.413   6.099
 8371SOL    HW126012   1.817   3.393   6.065
 8371SOL    HW226013   1.705   3.510   6.085
 8372SOL     OW26014   2.205   6.085   1.891
 8372SOL    HW126015   2.164   6.172   1.919
 8372SOL    HW226016   2.191   6.072   1.793
 8373SOL     OW26017   1.447   1.874   4.862
 8373SOL    HW126018   1.399   1.811   4.801
 8373SOL    HW226019   1.422   1.854   4.957
 8374SOL     OW26020   0.859   0.799   4.368
 8374SOL    HW126021   0.884   0.702   4.369
 8374SOL    HW226022   0.761   0.807   4.385
 8375SOL     OW26023   3.393   0.469   5.763
 8375SOL    HW126024   3.376   0.374   5.791
 8375SOL    HW226025   3.460   0.469   5.689
 8376SOL     OW26026   1.843   1.299   4.132
 8376SOL    HW126027   1.745   1.314   4.139
 8376SOL    HW226028   1.891   1.383   4.158
 8377SOL     OW26029   5.497   5.251   0.639
 8377SOL    HW126030   5.442   5.233   0.557
 8377SOL    HW226031   5.547   5.168   0.664
 8378SOL     OW26032   5.357   5.117   3.024
 8378SOL    HW126033   5.285   5.050   3.043
 8378SOL    HW226034   5.359   5.185   3.097
 8379SOL     OW26035   5.020   2.475   1.439
 8379SOL    HW126036   5.087   2.543   1.470
 8379SOL    HW226037   5.060   2.418   1.368
 8380SOL     OW26038   0.248   6.705   6.576
 8380SOL    HW126039   0.269   6.771   6.648
 8380SOL    HW226040   0.246   6.613   6.616
 8381SOL     OW26041   0.281   2.576   3.404
 8381SOL    HW126042   0.266   2.609   3.311
 8381SOL    HW226043   0.208   2.608   3.464
 8382SOL     OW26044   2.525   0.416   1.133
 8382SOL    HW126045   2.537   0.320   1.157
 8382SOL    HW226046   2.458   0.458   1.194
 8383SOL     OW26047   2.528   0.519   5.324
 8383SOL    HW126048   2.436   0.558   5.329
 8383SOL    HW226049   2.576   0.558   5.244
 8384SOL     OW26050   6.625   1.285   0.645
 8384SOL    HW126051   6.691   1.219   0.607
 8384SOL    HW226052   6.585   1.338   0.571
 8385SOL     OW26053   4.721   2.892   0.441
 8385SOL    HW126054   4.795   2.830   0.469
 8385SOL    HW226055   4.632   2.849   0.462
 8386SOL     OW26056   1.994   5.652   1.452
 8386SOL    HW126057   1.909   5.605   1.476
 8386SOL    HW226058   2.071   5.606   1.496
 8387SOL     OW26059   1.655   1.477   1.716
 8387SOL    HW126060   1.566   1.478   1.761
 8387SOL    HW226061   1.660   1.551   1.649
 8388SOL     OW26062   1.648   0.226   0.756
 8388SOL    HW126063   1.640   0.136   0.800
 8388SOL    HW226064   1.574   0.285   0.787
 8389SOL     OW26065   0.862   3.154   4.207
 8389SOL    HW126066   0.794   3.127   4.276
 8389SOL    HW226067   0.816   3.175   4.121
 8390SOL     OW26068   3.573   6.964   6.703
 8390SOL    HW126069   3.629   0.005   6.642
 8390SOL    HW226070   3.621   6.950   6.789
 8391SOL     OW26071   5.284   4.931   0.804
 8391SOL    HW126072   5.222   4.911   0.728
 8391SOL    HW226073   5.240   4.996   0.866
 8392SOL     OW26074   6.630   5.683   5.424
 8392SOL    HW126075   6.599   5.777   5.439
 8392SOL    HW226076   6.674   5.648   5.506
 8393SOL     OW26077   0.188   0.566   3.891
 8393SOL    HW126078   0.207   0.522   3.803
 8393SOL    HW226079   0.169   0.663   3.876
 8394SOL     OW26080   0.623   2.187   2.060
 8394SOL    HW126081   0.600   2.147   2.149
 8394SOL    HW226082   0.683   2.125   2.010
 8395SOL     OW26083   1.338   6.654   3.866
 8395SOL    HW126084   1.256   6.711   3.871
 8395SOL    HW226085   1.313   6.561   3.838
 8396SOL     OW26086   4.600   4.459   2.414
 8396SOL    HW126087   4.544   4.509   2.348
 8396SOL    HW226088   4.681   4.423   2.369
 8397SOL     OW26089   2.231   0.069   2.919
 8397SOL    HW126090   2.224   0.160   2.879
 8397SOL    HW226091   2.320   0.029   2.896
 8398SOL     OW26092   3.470   1.625   0.078
 8398SOL    HW126093   3.430   1.542   0.040
 8398SOL    HW226094   3.474   1.618   0.178
 8399SOL     OW26095   6.755   6.500   0.107
 8399SOL    HW126096   6.817   6.530   0.180
 8399SOL    HW226097   6.804   6.498   0.020
 8400SOL     OW26098   1.169   0.760   3.421
 8400SOL    HW126099   1.235   0.834   3.429
 8400SOL    HW226100   1.215   0.678   3.388
 8401SOL     OW26101   4.047   3.146   5.885
 8401SOL    HW126102   4.016   3.218   5.823
 8401SOL    HW226103   3.997   3.062   5.866
 8402SOL     OW26104   2.909   1.467   5.625
 8402SOL    HW126105   2.897   1.406   5.547
 8402SOL    HW226106   2.998   1.512   5.619
 8403SOL     OW26107   0.539   1.555   3.251
 8403SOL    HW126108   0.488   1.596   3.327
 8403SOL    HW226109   0.604   1.488   3.287
 8404SOL     OW26110   6.095   6.147   6.559
 8404SOL    HW126111   6.036   6.114   6.632
 8404SOL    HW226112   6.050   6.135   6.471
 8405SOL     OW26113   1.693   1.426   6.843
 8405SOL    HW126114   1.665   1.493   6.911
 8405SOL    HW226115   1.661   1.335   6.869
 8406SOL     OW26116   3.849   0.895   1.192
 8406SOL    HW126117   3.889   0.917   1.281
 8406SOL    HW226118   3.850   0.796   1.178
 8407SOL     OW26119   5.394   5.998   4.343
 8407SOL    HW126120   5.490   5.978   4.361
 8407SOL    HW226121   5.337   5.945   4.405
 8408SOL     OW26122   4.609   1.295   3.396
 8408SOL    HW126123   4.630   1.389   3.422
 8408SOL    HW226124   4.550   1.254   3.465
 8409SOL     OW26125   6.486   2.561   3.751
 8409SOL    HW126126   6.491   2.544   3.653
 8409SOL    HW226127   6.424   2.496   3.794
 8410SOL     OW26128   4.511   0.514   1.810
 8410SOL    HW126129   4.445   0.533   1.883
 8410SOL    HW226130   4.559   0.599   1.785
 8411SOL     OW26131   1.697   5.519   4.028
 8411SOL    HW126132   1.721   5.601   4.079
 8411SOL    HW226133   1.658   5.451   4.090
 8412SOL     OW26134   4.071   1.943   1.119
 8412SOL    HW126135   4.056   1.876   1.192
 8412SOL    HW226136   3.983   1.984   1.093
 8413SOL     OW26137   4.725   4.401   0.231
 8413SOL    HW126138   4.659   4.328   0.249
 8413SOL    HW226139   4.764   4.389   0.139
 8414SOL     OW26140   3.992   0.146   2.297
 8414SOL    HW126141   4.027   0.130   2.389
 8414SOL    HW226142   4.041   0.089   2.232
 8415SOL     OW26143   0.178   5.162   4.178
 8415SOL    HW126144   0.190   5.204   4.088
 8415SOL    HW226145   0.260   5.178   4.233
 8416SOL     OW26146   4.911   4.962   3.351
 8416SOL    HW126147   4.907   4.871   3.393
 8416SOL    HW226148   4.863   5.028   3.410
 8417SOL     OW26149   1.264   5.601   5.420
 8417SOL    HW126150   1.225   5.540   5.351
 8417SOL    HW226151   1.229   5.693   5.406
 8418SOL     OW26152   5.940   5.707   1.054
 8418SOL    HW126153   6.021   5.766   1.058
 8418SOL    HW226154   5.948   5.645   0.976
 8419SOL     OW26155   4.588   0.940   2.009
 8419SOL    HW126156   4.574   0.878   2.086
 8419SOL    HW226157   4.659   1.007   2.032
 8420SOL     OW26158   3.700   6.511   1.037
 8420SOL    HW126159   3.734   6.534   0.946
 8420SOL    HW226160   3.614   6.559   1.054
 8421SOL     OW26161   2.904   6.397   1.183
 8421SOL    HW126162   2.838   6.329   1.218
 8421SOL    HW226163   2.855   6.480   1.159
 8422SOL     OW26164   4.737   6.237   1.512
 8422SOL    HW126165   4.665   6.307   1.516
 8422SOL    HW226166   4.817   6.274   1.466
 8423SOL     OW26167   3.957   3.614   5.981
 8423SOL    HW126168   4.021   3.645   5.911
 8423SOL    HW226169   4.007   3.589   6.063
 8424SOL     OW26170   2.442   2.639   2.962
 8424SOL    HW126171   2.403   2.728   2.936
 8424SOL    HW226172   2.483   2.596   2.882
 8425SOL     OW26173   6.462   5.413   0.817
 8425SOL    HW126174   6.392   5.368   0.762
 8425SOL    HW226175   6.530   5.345   0.845
 8426SOL     OW26176   3.810   2.964   4.243
 8426SOL    HW126177   3.868   2.886   4.267
 8426SOL    HW226178   3.842   3.046   4.291
 8427SOL     OW26179   1.591   4.167   5.992
 8427SOL    HW126180   1.505   4.126   5.961
 8427SOL    HW226181   1.582   4.194   6.088
 8428SOL     OW26182   6.397   4.573   1.926
 8428SOL    HW126183   6.448   4.654   1.898
 8428SOL    HW226184   6.453   4.491   1.911
 8429SOL     OW26185   1.987   4.601   4.236
 8429SOL    HW126186   1.983   4.505   4.211
 8429SOL    HW226187   1.954   4.613   4.330
 8430SOL     OW26188   4.291   5.501   3.235
 8430SOL    HW126189   4.343   5.428   3.279
 8430SOL    HW226190   4.271   5.475   3.141
 8431SOL     OW26191   1.932   5.113   1.357
 8431SOL    HW126192   1.913   5.211   1.355
 8431SOL    HW226193   1.916   5.074   1.267
 8432SOL     OW26194   4.332   5.837   5.439
 8432SOL    HW126195   4.237   5.814   5.416
 8432SOL    HW226196   4.361   5.785   5.519
 8433SOL     OW26197   6.701   2.492   6.387
 8433SOL    HW126198   6.681   2.580   6.343
 8433SOL    HW226199   6.624   2.429   6.372
 8434SOL     OW26200   2.845   0.402   4.834
 8434SOL    HW126201   2.794   0.321   4.807
 8434SOL    HW226202   2.793   0.454   4.902
 8435SOL     OW26203   4.764   1.255   0.856
 8435SOL    HW126204   4.810   1.219   0.938
 8435SOL    HW226205   4.823   1.323   0.812
 8436SOL     OW26206   3.263   6.538   4.260
 8436SOL    HW126207   3.350   6.495   4.234
 8436SOL    HW226208   3.187   6.483   4.227
 8437SOL     OW26209   2.012   0.274   2.517
 8437SOL    HW126210   1.988   0.205   2.586
 8437SOL    HW226211   1.931   0.330   2.497
 8438SOL     OW26212   3.194   4.917   2.161
 8438SOL    HW126213   3.133   4.979   2.111
 8438SOL    HW226214   3.139   4.855   2.217
 8439SOL     OW26215   6.477   5.882   0.994
 8439SOL    HW126216   6.549   5.933   1.041
 8439SOL    HW226217   6.497   5.784   0.999
 8440SOL     OW26218   0.486   1.023   3.206
 8440SOL    HW126219   0.461   1.035   3.110
 8440SOL    HW226220   0.438   0.944   3.243
 8441SOL     OW26221   6.818   6.032   0.426
 8441SOL    HW126222   6.909   6.058   0.396
 8441SOL    HW226223   6.791   6.088   0.505
 8442SOL     OW26224   3.511   3.276   6.091
 8442SOL    HW126225   3.601   3.260   6.051
 8442SOL    HW226226   3.498   3.373   6.107
 8443SOL     OW26227   1.230   0.006   2.916
 8443SOL    HW126228   1.200   0.101   2.910
 8443SOL    HW226229   1.150   6.962   2.924
 8444SOL     OW26230   3.138   6.067   3.757
 8444SOL    HW126231   3.214   6.084   3.694
 8444SOL    HW226232   3.167   6.000   3.826
 8445SOL     OW26233   3.460   5.211   2.079
 8445SOL    HW126234   3.474   5.116   2.104
 8445SOL    HW226235   3.544   5.262   2.093
 8446SOL     OW26236   5.246   5.555   0.963
 8446SOL    HW126237   5.278   5.509   0.881
 8446SOL    HW226238   5.317   5.615   0.998
 8447SOL     OW26239   5.831   2.195   2.107
 8447SOL    HW126240   5.785   2.172   2.193
 8447SOL    HW226241   5.816   2.291   2.086
 8448SOL     OW26242   6.411   3.467   5.278
 8448SOL    HW126243   6.388   3.409   5.200
 8448SOL    HW226244   6.474   3.418   5.338
 8449SOL     OW26245   6.997   2.659   4.356
 8449SOL    HW126246   0.023   2.750   4.348
 8449SOL    HW226247   6.937   2.644   4.277
 8450SOL     OW26248   1.830   6.009   1.835
 8450SOL    HW126249   1.748   5.990   1.781
 8450SOL    HW226250   1.905   5.951   1.802
 8451SOL     OW26251   4.681   3.041   6.916
 8451SOL    HW126252   4.649   3.133   6.937
 8451SOL    HW226253   4.699   2.991   7.001
 8452SOL     OW26254   0.227   0.257   1.384
 8452SOL    HW126255   0.143   0.270   1.436
 8452SOL    HW226256   0.285   0.190   1.430
 8453SOL     OW26257   6.409   4.460   6.124
 8453SOL    HW126258   6.415   4.377   6.069
 8453SOL    HW226259   6.382   4.436   6.218
 8454SOL     OW26260   1.203   5.648   1.418
 8454SOL    HW126261   1.266   5.605   1.483
 8454SOL    HW226262   1.149   5.577   1.373
 8455SOL     OW26263   4.911   2.405   0.765
 8455SOL    HW126264   4.811   2.411   0.759
 8455SOL    HW226265   4.939   2.404   0.861
 8456SOL     OW26266   5.293   4.964   3.319
 8456SOL    HW126267   5.204   5.006   3.299
 8456SOL    HW226268   5.301   4.878   3.269
 8457SOL     OW26269   6.237   6.370   5.520
 8457SOL    HW126270   6.179   6.435   5.471
 8457SOL    HW226271   6.323   6.357   5.469
 8458SOL     OW26272   2.373   1.100   6.939
 8458SOL    HW126273   2.406   1.194   6.943
 8458SOL    HW226274   2.278   1.096   6.970
 8459SOL     OW26275   3.189   6.737   1.261
 8459SOL    HW126276   3.211   6.648   1.301
 8459SOL    HW226277   3.274   6.785   1.239
 8460SOL     OW26278   4.191   2.202   5.786
 8460SOL    HW126279   4.201   2.171   5.692
 8460SOL    HW226280   4.279   2.196   5.833
 8461SOL     OW26281   1.057   3.923   1.951
 8461SOL    HW126282   1.016   3.992   1.892
 8461SOL    HW226283   0.987   3.858   1.980
 8462SOL     OW26284   2.933   2.629   0.457
 8462SOL    HW126285   2.895   2.553   0.511
 8462SOL    HW226286   2.869   2.706   0.459
 8463SOL     OW26287   6.712   1.084   0.425
 8463SOL    HW126288   6.811   1.088   0.442
 8463SOL    HW226289   6.686   1.153   0.359
 8464SOL     OW26290   0.280   4.397   5.000
 8464SOL    HW126291   0.206   4.359   4.944
 8464SOL    HW226292   0.293   4.493   4.978
 8465SOL     OW26293   3.233   2.079   0.586
 8465SOL    HW126294   3.291   2.119   0.516
 8465SOL    HW226295   3.197   2.152   0.644
 8466SOL     OW26296   5.786   6.617   4.816
 8466SOL    HW126297   5.687   6.613   4.806
 8466SOL    HW226298   5.826   6.661   4.736
 8467SOL     OW26299   4.193   0.907   1.130
 8467SOL    HW126300   4.189   0.987   1.190
 8467SOL    HW226301   4.186   0.824   1.185
 8468SOL     OW26302   5.195   3.223   0.109
 8468SOL    HW126303   5.283   3.196   0.147
 8468SOL    HW226304   5.196   3.213   0.010
 8469SOL     OW26305   2.680   1.856   5.643
 8469SOL    HW126306   2.701   1.940   5.592
 8469SOL    HW226307   2.679   1.778   5.580
 8470SOL     OW26308   1.083   4.816   0.501
 8470SOL    HW126309   1.084   4.891   0.568
 8470SOL    HW226310   1.026   4.742   0.535
 8471SOL     OW26311   3.977   0.828   5.748
 8471SOL    HW126312   4.038   0.795   5.676
 8471SOL    HW226313   3.891   0.777   5.744
 8472SOL     OW26314   5.757   0.567   5.257
 8472SOL    HW126315   5.839   0.509   5.259
 8472SOL    HW226316   5.709   0.560   5.344
 8473SOL     OW26317   6.411   5.125   0.539
 8473SOL    HW126318   6.335   5.129   0.604
 8473SOL    HW226319   6.404   5.042   0.485
 8474SOL     OW26320   3.625   3.853   1.751
 8474SOL    HW126321   3.651   3.894   1.839
 8474SOL    HW226322   3.525   3.842   1.748
 8475SOL     OW26323   0.121   2.834   2.796
 8475SOL    HW126324   0.073   2.761   2.845
 8475SOL    HW226325   0.105   2.825   2.698
 8476SOL     OW26326   0.065   1.632   1.120
 8476SOL    HW126327   0.017   1.682   1.048
 8476SOL    HW226328   0.162   1.657   1.119
 8477SOL     OW26329   4.020   6.590   2.980
 8477SOL    HW126330   4.005   6.654   3.056
 8477SOL    HW226331   4.109   6.607   2.938
 8478SOL     OW26332   0.903   1.010   5.816
 8478SOL    HW126333   0.853   1.094   5.836
 8478SOL    HW226334   0.890   0.985   5.720
 8479SOL     OW26335   1.150   3.850   0.924
 8479SOL    HW126336   1.249   3.866   0.917
 8479SOL    HW226337   1.101   3.934   0.901
 8480SOL     OW26338   5.198   3.211   6.866
 8480SOL    HW126339   5.226   3.136   6.807
 8480SOL    HW226340   5.238   3.297   6.833
 8481SOL     OW26341   4.845   2.712   4.801
 8481SOL    HW126342   4.815   2.768   4.723
 8481SOL    HW226343   4.906   2.639   4.768
 8482SOL     OW26344   4.996   0.295   2.179
 8482SOL    HW126345   5.058   0.353   2.231
 8482SOL    HW226346   4.916   0.273   2.235
 8483SOL     OW26347   3.113   5.696   3.330
 8483SOL    HW126348   3.063   5.774   3.293
 8483SOL    HW226349   3.073   5.668   3.417
 8484SOL     OW26350   6.692   6.196   4.418
 8484SOL    HW126351   6.762   6.143   4.466
 8484SOL    HW226352   6.602   6.163   4.444
 8485SOL     OW26353   3.803   2.873   0.257
 8485SOL    HW126354   3.819   2.780   0.290
 8485SOL    HW226355   3.863   2.937   0.306
 8486SOL     OW26356   2.043   1.138   2.928
 8486SOL    HW126357   2.079   1.182   2.845
 8486SOL    HW226358   2.116   1.086   2.972
 8487SOL     OW26359   5.816   2.212   6.285
 8487SOL    HW126360   5.774   2.277   6.349
 8487SOL    HW226361   5.782   2.229   6.193
 8488SOL     OW26362   5.385   6.220   2.430
 8488SOL    HW126363   5.470   6.172   2.410
 8488SOL    HW226364   5.393   6.267   2.518
 8489SOL     OW26365   6.142   1.127   1.639
 8489SOL    HW126366   6.162   1.135   1.736
 8489SOL    HW226367   6.218   1.165   1.585
 8490SOL     OW26368   3.147   6.970   5.573
 8490SOL    HW126369   3.159   6.925   5.662
 8490SOL    HW226370   3.179   6.909   5.500
 8491SOL     OW26371   1.680   6.194   2.509
 8491SOL    HW126372   1.775   6.164   2.496
 8491SOL    HW226373   1.672   6.239   2.599
 8492SOL     OW26374   5.658   4.600   4.511
 8492SOL    HW126375   5.637   4.610   4.413
 8492SOL    HW226376   5.736   4.658   4.534
 8493SOL     OW26377   1.849   2.353   6.762
 8493SOL    HW126378   1.753   2.348   6.733
 8493SOL    HW226379   1.908   2.326   6.686
 8494SOL     OW26380   4.537   5.212   1.995
 8494SOL    HW126381   4.489   5.291   2.033
 8494SOL    HW226382   4.605   5.179   2.061
 8495SOL     OW26383   0.181   5.037   1.155
 8495SOL    HW126384   0.245   5.061   1.082
 8495SOL    HW226385   0.091   5.074   1.133
 8496SOL     OW26386   0.128   1.202   2.656
 8496SOL    HW126387   0.221   1.204   2.693
 8496SOL    HW226388   0.126   1.144   2.574
 8497SOL     OW26389   0.140   1.417   3.114
 8497SOL    HW126390   0.053   1.467   3.114
 8497SOL    HW226391   0.214   1.479   3.088
 8498SOL     OW26392   6.630   0.134   3.178
 8498SOL    HW126393   6.617   0.061   3.110
 8498SOL    HW226394   6.697   0.200   3.144
 8499SOL     OW26395   1.061   3.969   6.917
 8499SOL    HW126396   1.033   3.926   6.831
 8499SOL    HW226397   1.141   4.027   6.900
 8500SOL     OW26398   1.745   6.451   6.109
 8500SOL    HW126399   1.792   6.523   6.161
 8500SOL    HW226400   1.808   6.376   6.093
 8501SOL     OW26401   0.379   2.872   6.203
 8501SOL    HW126402   0.434   2.790   6.188
 8501SOL    HW226403   0.330   2.895   6.119
 8502SOL     OW26404   0.533   2.994   1.644
 8502SOL    HW126405   0.434   2.985   1.629
 8502SOL    HW226406   0.577   3.022   1.559
 8503SOL     OW26407   0.239   5.751   5.054
 8503SOL    HW126408   0.309   5.684   5.078
 8503SOL    HW226409   0.186   5.775   5.135
 8504SOL     OW26410   1.850   5.570   1.856
 8504SOL    HW126411   1.928   5.523   1.898
 8504SOL    HW226412   1.797   5.615   1.928
 8505SOL     OW26413   6.377   3.308   2.854
 8505SOL    HW126414   6.308   3.252   2.809
 8505SOL    HW226415   6.418   3.256   2.930
 8506SOL     OW26416   1.286   1.097   6.573
 8506SOL    HW126417   1.266   1.024   6.638
 8506SOL    HW226418   1.244   1.182   6.603
 8507SOL     OW26419   3.618   6.677   4.987
 8507SOL    HW126420   3.682   6.606   5.017
 8507SOL    HW226421   3.657   6.767   5.007
 8508SOL     OW26422   4.364   1.910   5.558
 8508SOL    HW126423   4.294   1.981   5.557
 8508SOL    HW226424   4.320   1.820   5.548
 8509SOL     OW26425   5.633   0.680   3.325
 8509SOL    HW126426   5.624   0.670   3.226
 8509SOL    HW226427   5.673   0.770   3.345
 8510SOL     OW26428   5.863   4.081   2.535
 8510SOL    HW126429   5.938   4.140   2.507
 8510SOL    HW226430   5.834   4.025   2.456
 8511SOL     OW26431   6.205   3.227   2.621
 8511SOL    HW126432   6.255   3.286   2.558
 8511SOL    HW226433   6.154   3.159   2.570
 8512SOL     OW26434   2.932   0.630   2.467
 8512SOL    HW126435   2.979   0.711   2.433
 8512SOL    HW226436   2.873   0.655   2.544
 8513SOL     OW26437   0.159   5.372   0.899
 8513SOL    HW126438   0.098   5.421   0.961
 8513SOL    HW226439   0.106   5.331   0.825
 8514SOL     OW26440   2.330   0.402   3.703
 8514SOL    HW126441   2.396   0.475   3.726
 8514SOL    HW226442   2.357   0.359   3.617
 8515SOL     OW26443   4.995   2.374   1.028
 8515SOL    HW126444   5.057   2.339   1.098
 8515SOL    HW226445   4.902   2.376   1.064
 8516SOL     OW26446   6.953   1.943   2.185
 8516SOL    HW126447   6.880   1.876   2.176
 8516SOL    HW226448   6.991   1.963   2.095
 8517SOL     OW26449   0.581   3.036   5.704
 8517SOL    HW126450   0.655   3.093   5.670
 8517SOL    HW226451   0.605   3.000   5.794
 8518SOL     OW26452   4.409   4.041   6.399
 8518SOL    HW126453   4.408   4.086   6.488
 8518SOL    HW226454   4.495   4.060   6.353
 8519SOL     OW26455   2.134   5.181   2.150
 8519SOL    HW126456   2.094   5.171   2.059
 8519SOL    HW226457   2.163   5.276   2.164
 8520SOL     OW26458   4.034   0.964   0.524
 8520SOL    HW126459   4.110   0.948   0.462
 8520SOL    HW226460   4.046   1.051   0.572
 8521SOL     OW26461   1.835   5.646   5.716
 8521SOL    HW126462   1.916   5.586   5.719
 8521SOL    HW226463   1.861   5.738   5.744
 8522SOL     OW26464   1.370   5.609   2.182
 8522SOL    HW126465   1.317   5.545   2.126
 8522SOL    HW226466   1.456   5.566   2.209
 8523SOL     OW26467   2.900   6.378   6.520
 8523SOL    HW126468   2.890   6.474   6.495
 8523SOL    HW226469   2.949   6.371   6.607
 8524SOL     OW26470   1.483   2.811   4.556
 8524SOL    HW126471   1.552   2.883   4.567
 8524SOL    HW226472   1.500   2.762   4.470
 8525SOL     OW26473   6.198   3.959   3.699
 8525SOL    HW126474   6.117   3.928   3.649
 8525SOL    HW226475   6.169   3.999   3.786
 8526SOL     OW26476   2.779   3.959   1.053
 8526SOL    HW126477   2.685   3.937   1.080
 8526SOL    HW226478   2.782   4.049   1.010
 8527SOL     OW26479   3.468   6.941   5.083
 8527SOL    HW126480   3.430   7.012   5.142
 8527SOL    HW226481   3.451   6.965   4.987
 8528SOL     OW26482   5.508   3.241   6.168
 8528SOL    HW126483   5.443   3.165   6.173
 8528SOL    HW226484   5.547   3.256   6.259
 8529SOL     OW26485   1.239   6.972   6.883
 8529SOL    HW126486   1.247   6.873   6.889
 8529SOL    HW226487   1.146   7.000   6.909
 8530SOL     OW26488   1.020   5.039   6.015
 8530SOL    HW126489   0.971   5.107   6.068
 8530SOL    HW226490   1.097   5.003   6.068
 8531SOL     OW26491   5.640   4.339   3.007
 8531SOL    HW126492   5.672   4.268   2.944
 8531SOL    HW226493   5.547   4.367   2.981
 8532SOL     OW26494   4.327   4.774   4.995
 8532SOL    HW126495   4.261   4.795   4.923
 8532SOL    HW226496   4.348   4.676   4.993
 8533SOL     OW26497   1.762   0.756   5.228
 8533SOL    HW126498   1.748   0.680   5.292
 8533SOL    HW226499   1.760   0.843   5.278
 8534SOL     OW26500   0.154   4.038   3.347
 8534SOL    HW126501   0.121   4.047   3.441
 8534SOL    HW226502   0.254   4.048   3.346
 8535SOL     OW26503   0.831   2.172   5.094
 8535SOL    HW126504   0.807   2.182   4.997
 8535SOL    HW226505   0.815   2.078   5.122
 8536SOL     OW26506   6.255   2.081   4.985
 8536SOL    HW126507   6.302   2.162   4.952
 8536SOL    HW226508   6.182   2.107   5.049
 8537SOL     OW26509   6.307   1.745   0.957
 8537SOL    HW126510   6.340   1.723   0.866
 8537SOL    HW226511   6.384   1.770   1.016
 8538SOL     OW26512   0.503   0.608   5.155
 8538SOL    HW126513   0.461   0.661   5.229
 8538SOL    HW226514   0.578   0.661   5.115
 8539SOL     OW26515   6.316   1.963   2.188
 8539SOL    HW126516   6.218   1.975   2.207
 8539SOL    HW226517   6.328   1.889   2.122
 8540SOL     OW26518   3.766   1.477   0.391
 8540SOL    HW126519   3.789   1.400   0.450
 8540SOL    HW226520   3.758   1.560   0.446
 8541SOL     OW26521   2.683   2.040   5.118
 8541SOL    HW126522   2.614   2.008   5.182
 8541SOL    HW226523   2.676   1.989   5.032
 8542SOL     OW26524   3.001   4.323   6.779
 8542SOL    HW126525   2.993   4.342   6.877
 8542SOL    HW226526   2.912   4.294   6.744
 8543SOL     OW26527   2.866   1.370   5.378
 8543SOL    HW126528   2.953   1.416   5.358
 8543SOL    HW226529   2.866   1.279   5.337
 8544SOL     OW26530   5.464   2.854   5.060
 8544SOL    HW126531   5.437   2.783   4.995
 8544SOL    HW226532   5.563   2.848   5.076
 8545SOL     OW26533   2.976   6.581   4.666
 8545SOL    HW126534   2.985   6.504   4.603
 8545SOL    HW226535   2.938   6.660   4.617
 8546SOL     OW26536   5.957   0.203   1.370
 8546SOL    HW126537   6.023   0.236   1.303
 8546SOL    HW226538   5.903   0.129   1.331
 8547SOL     OW26539   6.706   0.427   5.377
 8547SOL    HW126540   6.621   0.450   5.424
 8547SOL    HW226541   6.772   0.501   5.390
 8548SOL     OW26542   0.269   2.932   5.376
 8548SOL    HW126543   0.323   2.934   5.292
 8548SOL    HW226544   0.325   2.896   5.451
 8549SOL     OW26545   0.606   2.391   4.078
 8549SOL    HW126546   0.695   2.428   4.054
 8549SOL    HW226547   0.593   2.398   4.177
 8550SOL     OW26548   1.126   3.375   6.247
 8550SOL    HW126549   1.209   3.322   6.267
 8550SOL    HW226550   1.108   3.438   6.322
 8551SOL     OW26551   2.735   2.718   6.793
 8551SOL    HW126552   2.664   2.731   6.724
 8551SOL    HW226553   2.776   2.806   6.816
 8552SOL     OW26554   3.061   0.288   1.891
 8552SOL    HW126555   3.040   0.376   1.933
 8552SOL    HW226556   3.004   0.217   1.932
 8553SOL     OW26557   4.340   4.019   0.269
 8553SOL    HW126558   4.314   3.931   0.229
 8553SOL    HW226559   4.322   4.018   0.367
 8554SOL     OW26560   0.837   6.128   1.781
 8554SOL    HW126561   0.787   6.053   1.824
 8554SOL    HW226562   0.783   6.164   1.704
 8555SOL     OW26563   4.275   1.762   3.238
 8555SOL    HW126564   4.306   1.708   3.160
 8555SOL    HW226565   4.325   1.849   3.240
 8556SOL     OW26566   1.742   6.359   5.797
 8556SOL    HW126567   1.669   6.310   5.845
 8556SOL    HW226568   1.822   6.367   5.857
 8557SOL     OW26569   6.332   1.061   1.099
 8557SOL    HW126570   6.415   1.113   1.080
 8557SOL    HW226571   6.352   0.989   1.165
 8558SOL     OW26572   2.127   5.239   2.950
 8558SOL    HW126573   2.039   5.208   2.986
 8558SOL    HW226574   2.119   5.332   2.917
 8559SOL     OW26575   1.817   6.535   2.813
 8559SOL    HW126576   1.812   6.581   2.902
 8559SOL    HW226577   1.907   6.491   2.804
 8560SOL     OW26578   1.360   5.826   1.977
 8560SOL    HW126579   1.291   5.789   1.914
 8560SOL    HW226580   1.373   5.762   2.053
 8561SOL     OW26581   4.124   6.893   3.493
 8561SOL    HW126582   4.174   6.811   3.519
 8561SOL    HW226583   4.034   6.868   3.458
 8562SOL     OW26584   4.069   0.019   7.003
 8562SOL    HW126585   4.142   0.045   6.940
 8562SOL    HW226586   4.045   0.097   0.045
 8563SOL     OW26587   0.824   4.999   2.176
 8563SOL    HW126588   0.906   4.961   2.134
 8563SOL    HW226589   0.742   4.962   2.131
 8564SOL     OW26590   3.392   6.230   5.808
 8564SOL    HW126591   3.325   6.176   5.756
 8564SOL    HW226592   3.478   6.233   5.757
 8565SOL     OW26593   3.873   5.226   1.827
 8565SOL    HW126594   3.809   5.152   1.846
 8565SOL    HW226595   3.919   5.209   1.739
 8566SOL     OW26596   2.043   1.035   2.279
 8566SOL    HW126597   2.141   1.046   2.294
 8566SOL    HW226598   2.011   1.105   2.215
 8567SOL     OW26599   1.463   2.070   1.999
 8567SOL    HW126600   1.411   2.001   1.948
 8567SOL    HW226601   1.427   2.161   1.978
 8568SOL     OW26602   6.039   1.135   0.762
 8568SOL    HW126603   6.015   1.083   0.843
 8568SOL    HW226604   5.960   1.138   0.700
 8569SOL     OW26605   5.204   1.957   5.938
 8569SOL    HW126606   5.152   1.895   5.880
 8569SOL    HW226607   5.166   1.956   6.030
 8570SOL     OW26608   1.480   1.984   4.426
 8570SOL    HW126609   1.522   1.984   4.517
 8570SOL    HW226610   1.384   2.013   4.435
 8571SOL     OW26611   0.734   0.199   4.649
 8571SOL    HW126612   0.788   0.137   4.706
 8571SOL    HW226613   0.777   0.289   4.647
 8572SOL     OW26614   1.865   3.877   5.473
 8572SOL    HW126615   1.787   3.816   5.463
 8572SOL    HW226616   1.834   3.967   5.505
 8573SOL     OW26617   2.843   5.777   6.495
 8573SOL    HW126618   2.898   5.757   6.576
 8573SOL    HW226619   2.806   5.869   6.502
 8574SOL     OW26620   6.085   6.614   5.836
 8574SOL    HW126621   6.151   6.539   5.843
 8574SOL    HW226622   6.120   6.684   5.774
 8575SOL     OW26623   3.118   1.123   2.978
 8575SOL    HW126624   3.192   1.127   3.046
 8575SOL    HW226625   3.072   1.035   2.985
 8576SOL     OW26626   1.815   4.950   4.194
 8576SOL    HW126627   1.768   4.900   4.267
 8576SOL    HW226628   1.842   4.887   4.122
 8577SOL     OW26629   1.124   0.661   5.974
 8577SOL    HW126630   1.164   0.713   5.899
 8577SOL    HW226631   1.195   0.640   6.041
 8578SOL     OW26632   6.563   5.373   5.757
 8578SOL    HW126633   6.601   5.326   5.838
 8578SOL    HW226634   6.565   5.310   5.679
 8579SOL     OW26635   1.146   6.284   2.105
 8579SOL    HW126636   1.244   6.277   2.121
 8579SOL    HW226637   1.122   6.239   2.019
 8580SOL     OW26638   2.127   5.975   1.280
 8580SOL    HW126639   2.061   6.047   1.302
 8580SOL    HW226640   2.109   5.896   1.339
 8581SOL     OW26641   4.029   4.685   1.833
 8581SOL    HW126642   4.102   4.618   1.840
 8581SOL    HW226643   3.946   4.640   1.801
 8582SOL     OW26644   4.842   4.663   5.351
 8582SOL    HW126645   4.777   4.736   5.375
 8582SOL    HW226646   4.931   4.703   5.331
 8583SOL     OW26647   2.970   6.839   2.854
 8583SOL    HW126648   2.942   6.745   2.872
 8583SOL    HW226649   3.034   6.870   2.924
 8584SOL     OW26650   0.418   0.344   5.146
 8584SOL    HW126651   0.502   0.296   5.172
 8584SOL    HW226652   0.440   0.437   5.117
 8585SOL     OW26653   6.179   1.475   1.056
 8585SOL    HW126654   6.135   1.448   0.970
 8585SOL    HW226655   6.223   1.564   1.043
 8586SOL     OW26656   4.442   6.688   1.997
 8586SOL    HW126657   4.402   6.733   1.917
 8586SOL    HW226658   4.372   6.670   2.065
 8587SOL     OW26659   1.114   1.386   4.955
 8587SOL    HW126660   1.201   1.435   4.957
 8587SOL    HW226661   1.039   1.452   4.951
 8588SOL     OW26662   4.879   0.772   0.216
 8588SOL    HW126663   4.788   0.794   0.250
 8588SOL    HW226664   4.872   0.732   0.125
 8589SOL     OW26665   6.623   2.585   5.222
 8589SOL    HW126666   6.652   2.524   5.296
 8589SOL    HW226667   6.548   2.643   5.254
 8590SOL     OW26668   0.634   0.711   2.397
 8590SOL    HW126669   0.573   0.663   2.335
 8590SOL    HW226670   0.612   0.809   2.398
 8591SOL     OW26671   0.096   4.323   0.406
 8591SOL    HW126672   0.072   4.259   0.333
 8591SOL    HW226673   0.135   4.272   0.482
 8592SOL     OW26674   0.197   2.724   6.940
 8592SOL    HW126675   0.158   2.731   0.017
 8592SOL    HW226676   0.170   2.637   6.899
 8593SOL     OW26677   3.327   0.563   6.690
 8593SOL    HW126678   3.283   0.611   6.614
 8593SOL    HW226679   3.414   0.607   6.711
 8594SOL     OW26680   6.096   2.184   6.232
 8594SOL    HW126681   6.173   2.121   6.233
 8594SOL    HW226682   6.029   2.156   6.301
 8595SOL     OW26683   6.284   1.197   3.573
 8595SOL    HW126684   6.195   1.155   3.592
 8595SOL    HW226685   6.276   1.296   3.581
 8596SOL     OW26686   1.330   4.412   2.885
 8596SOL    HW126687   1.349   4.327   2.934
 8596SOL    HW226688   1.394   4.419   2.807
 8597SOL     OW26689   5.520   1.857   1.268
 8597SOL    HW126690   5.551   1.761   1.263
 8597SOL    HW226691   5.529   1.898   1.177
 8598SOL     OW26692   5.152   0.218   5.633
 8598SOL    HW126693   5.085   0.143   5.634
 8598SOL    HW226694   5.178   0.241   5.727
 8599SOL     OW26695   1.083   2.552   4.174
 8599SOL    HW126696   1.146   2.570   4.250
 8599SOL    HW226697   1.116   2.599   4.092
 8600SOL     OW26698   5.399   3.803   0.324
 8600SOL    HW126699   5.338   3.881   0.312
 8600SOL    HW226700   5.347   3.718   0.317
 8601SOL     OW26701   0.053   1.918   3.672
 8601SOL    HW126702   0.106   1.966   3.742
 8601SOL    HW226703   6.981   1.888   3.710
 8602SOL     OW26704   2.406   6.522   2.494
 8602SOL    HW126705   2.501   6.533   2.523
 8602SOL    HW226706   2.368   6.438   2.535
 8603SOL     OW26707   5.409   6.852   6.958
 8603SOL    HW126708   5.343   6.776   6.955
 8603SOL    HW226709   5.366   6.935   6.922
 8604SOL     OW26710   0.888   2.824   6.322
 8604SOL    HW126711   0.973   2.819   6.270
 8604SOL    HW226712   0.904   2.876   6.407
 8605SOL     OW26713   0.913   4.934   3.785
 8605SOL    HW126714   1.013   4.931   3.786
 8605SOL    HW226715   0.876   4.842   3.796
 8606SOL     OW26716   2.624   2.212   0.018
 8606SOL    HW126717   2.676   2.138   6.990
 8606SOL    HW226718   2.649   2.299   6.990
 8607SOL     OW26719   2.405   4.120   6.752
 8607SOL    HW126720   2.350   4.059   6.694
 8607SOL    HW226721   2.469   4.065   6.806
 8608SOL     OW26722   1.949   4.783   2.182
 8608SOL    HW126723   1.903   4.703   2.218
 8608SOL    HW226724   1.986   4.837   2.258
 8609SOL     OW26725   5.004   0.517   3.942
 8609SOL    HW126726   5.040   0.424   3.947
 8609SOL    HW226727   5.025   0.556   3.852
 8610SOL     OW26728   6.598   0.398   3.265
 8610SOL    HW126729   6.570   0.361   3.176
 8610SOL    HW226730   6.654   0.330   3.313
 8611SOL     OW26731   2.955   1.111   4.453
 8611SOL    HW126732   3.040   1.140   4.498
 8611SOL    HW226733   2.963   1.122   4.354
 8612SOL     OW26734   2.866   3.665   1.762
 8612SOL    HW126735   2.950   3.619   1.733
 8612SOL    HW226736   2.789   3.601   1.760
 8613SOL     OW26737   3.228   2.282   1.493
 8613SOL    HW126738   3.130   2.272   1.509
 8613SOL    HW226739   3.264   2.197   1.454
 8614SOL     OW26740   1.853   2.553   3.571
 8614SOL    HW126741   1.909   2.518   3.646
 8614SOL    HW226742   1.799   2.631   3.603
 8615SOL     OW26743   4.765   2.101   5.298
 8615SOL    HW126744   4.690   2.099   5.364
 8615SOL    HW226745   4.848   2.135   5.343
 8616SOL     OW26746   2.784   4.857   1.897
 8616SOL    HW126747   2.743   4.855   1.805
 8616SOL    HW226748   2.836   4.773   1.911
 8617SOL     OW26749   6.070   1.454   3.759
 8617SOL    HW126750   6.096   1.450   3.856
 8617SOL    HW226751   5.984   1.504   3.750
 8618SOL     OW26752   6.182   4.711   1.041
 8618SOL    HW126753   6.107   4.647   1.062
 8618SOL    HW226754   6.249   4.707   1.115
 8619SOL     OW26755   3.551   5.114   3.329
 8619SOL    HW126756   3.502   5.112   3.242
 8619SOL    HW226757   3.644   5.080   3.315
 8620SOL     OW26758   2.108   6.681   4.505
 8620SOL    HW126759   2.197   6.722   4.522
 8620SOL    HW226760   2.079   6.703   4.412
 8621SOL     OW26761   4.878   3.244   2.162
 8621SOL    HW126762   4.893   3.207   2.254
 8621SOL    HW226763   4.829   3.177   2.107
 8622SOL     OW26764   5.408   4.869   1.539
 8622SOL    HW126765   5.318   4.909   1.524
 8622SOL    HW226766   5.473   4.941   1.562
 8623SOL     OW26767   0.681   4.150   5.275
 8623SOL    HW126768   0.619   4.088   5.323
 8623SOL    HW226769   0.628   4.221   5.228
 8624SOL     OW26770   3.380   3.806   5.539
 8624SOL    HW126771   3.400   3.841   5.448
 8624SOL    HW226772   3.301   3.853   5.577
 8625SOL     OW26773   4.456   0.557   5.599
 8625SOL    HW126774   4.537   0.555   5.539
 8625SOL    HW226775   4.425   0.651   5.609
 8626SOL     OW26776   3.893   3.035   6.818
 8626SOL    HW126777   3.861   3.066   6.729
 8626SOL    HW226778   3.882   2.935   6.824
 8627SOL     OW26779   2.476   1.953   2.330
 8627SOL    HW126780   2.525   1.875   2.369
 8627SOL    HW226781   2.380   1.927   2.316
 8628SOL     OW26782   6.285   6.629   6.643
 8628SOL    HW126783   6.346   6.708   6.634
 8628SOL    HW226784   6.316   6.557   6.580
 8629SOL     OW26785   1.406   6.325   5.394
 8629SOL    HW126786   1.366   6.355   5.308
 8629SOL    HW226787   1.346   6.257   5.436
 8630SOL     OW26788   4.941   3.782   4.188
 8630SOL    HW126789   4.967   3.829   4.103
 8630SOL    HW226790   4.929   3.685   4.170
 8631SOL     OW26791   1.396   6.100   6.263
 8631SOL    HW126792   1.343   6.132   6.184
 8631SOL    HW226793   1.475   6.159   6.276
 8632SOL     OW26794   3.972   4.011   5.053
 8632SOL    HW126795   3.891   4.068   5.065
 8632SOL    HW226796   3.998   4.011   4.956
 8633SOL     OW26797   5.821   2.890   5.826
 8633SOL    HW126798   5.766   2.974   5.821
 8633SOL    HW226799   5.891   2.900   5.897
 8634SOL     OW26800   4.853   3.776   0.052
 8634SOL    HW126801   4.849   3.870   0.016
 8634SOL    HW226802   4.944   3.760   0.090
 8635SOL     OW26803   5.280   2.980   6.715
 8635SOL    HW126804   5.295   2.930   6.800
 8635SOL    HW226805   5.326   2.933   6.640
 8636SOL     OW26806   4.915   5.867   1.188
 8636SOL    HW126807   4.816   5.850   1.189
 8636SOL    HW226808   4.947   5.869   1.094
 8637SOL     OW26809   1.698   1.606   6.635
 8637SOL    HW126810   1.719   1.577   6.542
 8637SOL    HW226811   1.720   1.532   6.699
 8638SOL     OW26812   3.995   2.382   5.333
 8638SOL    HW126813   4.016   2.443   5.257
 8638SOL    HW226814   4.007   2.431   5.420
 8639SOL     OW26815   4.360   3.303   6.792
 8639SOL    HW126816   4.301   3.365   6.844
 8639SOL    HW226817   4.312   3.274   6.709
 8640SOL     OW26818   4.309   3.804   0.751
 8640SOL    HW126819   4.295   3.724   0.810
 8640SOL    HW226820   4.310   3.887   0.807
 8641SOL     OW26821   3.953   4.863   4.279
 8641SOL    HW126822   3.932   4.816   4.193
 8641SOL    HW226823   3.958   4.962   4.263
 8642SOL     OW26824   0.983   0.055   3.578
 8642SOL    HW126825   1.009   6.973   3.580
 8642SOL    HW226826   0.981   0.090   3.672
 8643SOL     OW26827   1.954   0.306   6.858
 8643SOL    HW126828   1.902   0.231   6.816
 8643SOL    HW226829   1.905   0.340   6.938
 8644SOL     OW26830   5.655   2.817   6.414
 8644SOL    HW126831   5.745   2.775   6.408
 8644SOL    HW226832   5.635   2.865   6.329
 8645SOL     OW26833   4.175   4.993   1.416
 8645SOL    HW126834   4.177   5.084   1.457
 8645SOL    HW226835   4.268   4.957   1.410
 8646SOL     OW26836   0.557   1.861   6.840
 8646SOL    HW126837   0.498   1.848   6.760
 8646SOL    HW226838   0.584   1.772   6.877
 8647SOL     OW26839   2.195   5.105   0.027
 8647SOL    HW126840   2.278   5.155   0.002
 8647SOL    HW226841   2.128   5.113   6.969
 8648SOL     OW26842   6.171   6.720   0.635
 8648SOL    HW126843   6.225   6.740   0.554
 8648SOL    HW226844   6.211   6.766   0.714
 8649SOL     OW26845   5.652   6.174   0.489
 8649SOL    HW126846   5.631   6.203   0.396
 8649SOL    HW226847   5.690   6.081   0.487
 8650SOL     OW26848   1.616   6.465   5.049
 8650SOL    HW126849   1.530   6.480   5.096
 8650SOL    HW226850   1.601   6.461   4.950
 8651SOL     OW26851   4.099   1.393   0.645
 8651SOL    HW126852   4.025   1.335   0.609
 8651SOL    HW226853   4.158   1.338   0.704
 8652SOL     OW26854   0.825   5.022   3.450
 8652SOL    HW126855   0.892   5.092   3.428
 8652SOL    HW226856   0.870   4.933   3.453
 8653SOL     OW26857   6.377   1.060   5.784
 8653SOL    HW126858   6.448   1.113   5.830
 8653SOL    HW226859   6.371   0.970   5.826
 8654SOL     OW26860   0.361   4.761   1.108
 8654SOL    HW126861   0.443   4.785   1.160
 8654SOL    HW226862   0.298   4.838   1.107
 8655SOL     OW26863   5.130   0.582   4.176
 8655SOL    HW126864   5.084   0.580   4.087
 8655SOL    HW226865   5.095   0.507   4.233
 8656SOL     OW26866   5.708   1.450   2.126
 8656SOL    HW126867   5.731   1.494   2.214
 8656SOL    HW226868   5.704   1.351   2.138
 8657SOL     OW26869   5.814   5.975   6.955
 8657SOL    HW126870   5.906   6.016   6.957
 8657SOL    HW226871   5.822   5.876   6.956
 8658SOL     OW26872   6.299   5.599   0.292
 8658SOL    HW126873   6.204   5.632   0.283
 8658SOL    HW226874   6.301   5.518   0.350
 8659SOL     OW26875   4.787   2.191   2.698
 8659SOL    HW126876   4.805   2.108   2.645
 8659SOL    HW226877   4.824   2.270   2.649
 8660SOL     OW26878   0.331   3.149   2.485
 8660SOL    HW126879   0.421   3.113   2.511
 8660SOL    HW226880   0.293   3.094   2.411
 8661SOL     OW26881   6.179   4.054   1.512
 8661SOL    HW126882   6.157   4.001   1.594
 8661SOL    HW226883   6.270   4.093   1.521
 8662SOL     OW26884   4.172   5.869   2.257
 8662SOL    HW126885   4.078   5.836   2.251
 8662SOL    HW226886   4.173   5.961   2.296
 8663SOL     OW26887   2.718   5.051   2.377
 8663SOL    HW126888   2.721   4.961   2.421
 8663SOL    HW226889   2.753   5.043   2.283
 8664SOL     OW26890   2.464   5.195   2.369
 8664SOL    HW126891   2.430   5.181   2.276
 8664SOL    HW226892   2.547   5.141   2.384
 8665SOL     OW26893   6.139   5.569   4.638
 8665SOL    HW126894   6.121   5.544   4.543
 8665SOL    HW226895   6.054   5.603   4.680
 8666SOL     OW26896   4.952   0.574   4.535
 8666SOL    HW126897   4.897   0.523   4.602
 8666SOL    HW226898   5.029   0.517   4.506
 8667SOL     OW26899   5.256   1.873   4.116
 8667SOL    HW126900   5.182   1.940   4.108
 8667SOL    HW226901   5.311   1.875   4.033
 8668SOL     OW26902   5.414   3.530   4.904
 8668SOL    HW126903   5.481   3.501   4.836
 8668SOL    HW226904   5.337   3.466   4.904
 8669SOL     OW26905   0.479   6.086   6.376
 8669SOL    HW126906   0.471   6.119   6.471
 8669SOL    HW226907   0.569   6.045   6.362
 8670SOL     OW26908   4.545   5.121   5.972
 8670SOL    HW126909   4.557   5.158   6.064
 8670SOL    HW226910   4.488   5.040   5.976
 8671SOL     OW26911   0.310   1.665   2.174
 8671SOL    HW126912   0.397   1.711   2.154
 8671SOL    HW226913   0.321   1.608   2.255
 8672SOL     OW26914   0.672   0.292   3.375
 8672SOL    HW126915   0.769   0.291   3.350
 8672SOL    HW226916   0.644   0.200   3.403
 8673SOL     OW26917   6.532   1.857   0.440
 8673SOL    HW126918   6.522   1.778   0.379
 8673SOL    HW226919   6.620   1.902   0.422
 8674SOL     OW26920   6.705   4.881   2.658
 8674SOL    HW126921   6.698   4.796   2.606
 8674SOL    HW226922   6.615   4.906   2.694
 8675SOL     OW26923   4.531   0.920   5.422
 8675SOL    HW126924   4.580   0.894   5.339
 8675SOL    HW226925   4.591   0.973   5.481
 8676SOL     OW26926   5.005   0.142   1.613
 8676SOL    HW126927   4.968   0.108   1.526
 8676SOL    HW226928   5.036   0.064   1.668
 8677SOL     OW26929   1.660   6.041   5.752
 8677SOL    HW126930   1.599   6.115   5.780
 8677SOL    HW226931   1.613   5.953   5.764
 8678SOL     OW26932   0.947   0.271   1.041
 8678SOL    HW126933   1.026   0.269   0.979
 8678SOL    HW226934   0.915   0.365   1.051
 8679SOL     OW26935   1.957   1.210   3.503
 8679SOL    HW126936   1.949   1.308   3.485
 8679SOL    HW226937   1.935   1.192   3.599
 8680SOL     OW26938   6.264   2.688   6.644
 8680SOL    HW126939   6.353   2.662   6.680
 8680SOL    HW226940   6.262   2.674   6.545
 8681SOL     OW26941   4.752   5.088   1.155
 8681SOL    HW126942   4.800   5.172   1.178
 8681SOL    HW226943   4.732   5.037   1.238
 8682SOL     OW26944   6.919   0.754   1.553
 8682SOL    HW126945   6.893   0.742   1.648
 8682SOL    HW226946   6.863   0.695   1.495
 8683SOL     OW26947   1.939   2.965   5.036
 8683SOL    HW126948   1.992   2.965   4.952
 8683SOL    HW226949   1.841   2.969   5.014
 8684SOL     OW26950   6.678   2.863   4.531
 8684SOL    HW126951   6.614   2.795   4.566
 8684SOL    HW226952   6.707   2.923   4.606
 8685SOL     OW26953   5.946   2.985   6.504
 8685SOL    HW126954   5.930   2.934   6.420
 8685SOL    HW226955   6.040   3.018   6.506
 8686SOL     OW26956   6.421   0.006   2.139
 8686SOL    HW126957   6.377   6.935   2.116
 8686SOL    HW226958   6.388   0.038   2.228
 8687SOL     OW26959   5.958   5.086   3.015
 8687SOL    HW126960   5.959   5.077   3.115
 8687SOL    HW226961   6.052   5.098   2.982
 8688SOL     OW26962   1.223   4.102   6.582
 8688SOL    HW126963   1.151   4.127   6.517
 8688SOL    HW226964   1.289   4.042   6.538
 8689SOL     OW26965   4.125   3.109   6.904
 8689SOL    HW126966   4.030   3.090   6.879
 8689SOL    HW226967   4.186   3.083   6.829
 8690SOL     OW26968   1.046   3.335   2.950
 8690SOL    HW126969   1.060   3.415   2.893
 8690SOL    HW226970   1.105   3.260   2.918
 8691SOL     OW26971   2.981   1.904   5.220
 8691SOL    HW126972   2.987   1.963   5.140
 8691SOL    HW226973   2.972   1.960   5.303
 8692SOL     OW26974   3.505   1.053   4.845
 8692SOL    HW126975   3.448   1.117   4.793
 8692SOL    HW226976   3.585   1.028   4.790
 8693SOL     OW26977   6.197   0.674   6.355
 8693SOL    HW126978   6.234   0.749   6.299
 8693SOL    HW226979   6.131   0.622   6.301
 8694SOL     OW26980   6.035   1.863   4.583
 8694SOL    HW126981   6.126   1.896   4.558
 8694SOL    HW226982   6.021   1.875   4.681
 8695SOL     OW26983   3.868   2.941   5.861
 8695SOL    HW126984   3.829   2.862   5.815
 8695SOL    HW226985   3.794   3.000   5.894
 8696SOL     OW26986   2.789   5.800   5.140
 8696SOL    HW126987   2.763   5.723   5.199
 8696SOL    HW226988   2.745   5.884   5.174
 8697SOL     OW26989   0.407   4.108   6.255
 8697SOL    HW126990   0.457   4.156   6.183
 8697SOL    HW226991   0.337   4.050   6.213
 8698SOL     OW26992   4.727   6.427   5.511
 8698SOL    HW126993   4.762   6.461   5.423
 8698SOL    HW226994   4.736   6.327   5.514
 8699SOL     OW26995   1.894   3.000   5.994
 8699SOL    HW126996   1.965   3.068   6.011
 8699SOL    HW226997   1.918   2.945   5.914
 8700SOL     OW26998   1.205   0.934   5.008
 8700SOL    HW126999   1.225   0.879   5.089
 8700SOL    HW227000   1.270   0.911   4.935
 8701SOL     OW27001   1.829   1.046   0.225
 8701SOL    HW127002   1.890   1.121   0.252
 8701SOL    HW227003   1.844   0.968   0.286
 8702SOL     OW27004   5.492   4.919   1.945
 8702SOL    HW127005   5.430   4.844   1.967
 8702SOL    HW227006   5.492   4.984   2.021
 8703SOL     OW27007   3.138   4.829   6.787
 8703SOL    HW127008   3.115   4.815   6.691
 8703SOL    HW227009   3.075   4.776   6.844
 8704SOL     OW27010   6.395   3.889   3.466
 8704SOL    HW127011   6.393   3.789   3.466
 8704SOL    HW227012   6.314   3.923   3.514
 8705SOL     OW27013   4.199   1.839   6.387
 8705SOL    HW127014   4.256   1.769   6.429
 8705SOL    HW227015   4.103   1.821   6.408
 8706SOL     OW27016   4.976   2.113   0.131
 8706SOL    HW127017   4.984   2.016   0.106
 8706SOL    HW227018   4.896   2.125   0.190
 8707SOL     OW27019   1.226   2.872   4.129
 8707SOL    HW127020   1.166   2.945   4.095
 8707SOL    HW227021   1.224   2.870   4.229
 8708SOL     OW27022   4.137   1.664   3.969
 8708SOL    HW127023   4.173   1.754   3.944
 8708SOL    HW227024   4.132   1.607   3.887
 8709SOL     OW27025   6.778   6.618   6.522
 8709SOL    HW127026   6.814   6.704   6.559
 8709SOL    HW227027   6.720   6.574   6.591
 8710SOL     OW27028   2.328   2.697   3.223
 8710SOL    HW127029   2.387   2.672   3.146
 8710SOL    HW227030   2.307   2.795   3.219
 8711SOL     OW27031   1.614   6.891   2.656
 8711SOL    HW127032   1.515   6.892   2.648
 8711SOL    HW227033   1.640   6.873   2.751
 8712SOL     OW27034   3.363   1.668   4.380
 8712SOL    HW127035   3.281   1.624   4.342
 8712SOL    HW227036   3.382   1.630   4.471
 8713SOL     OW27037   6.909   4.346   1.498
 8713SOL    HW127038   6.963   4.413   1.447
 8713SOL    HW227039   6.850   4.296   1.435
 8714SOL     OW27040   0.914   6.968   6.286
 8714SOL    HW127041   0.942   7.002   6.376
 8714SOL    HW227042   0.841   6.901   6.297
 8715SOL     OW27043   3.996   1.436   0.215
 8715SOL    HW127044   3.944   1.385   0.147
 8715SOL    HW227045   3.935   1.464   0.290
 8716SOL     OW27046   0.485   6.427   1.013
 8716SOL    HW127047   0.431   6.445   1.095
 8716SOL    HW227048   0.515   6.514   0.973
 8717SOL     OW27049   2.609   3.608   5.808
 8717SOL    HW127050   2.708   3.621   5.798
 8717SOL    HW227051   2.580   3.645   5.897
 8718SOL     OW27052   2.155   2.876   5.987
 8718SOL    HW127053   2.096   2.839   5.915
 8718SOL    HW227054   2.207   2.953   5.951
 8719SOL     OW27055   4.036   0.180   0.481
 8719SOL    HW127056   4.128   0.141   0.483
 8719SOL    HW227057   4.036   0.268   0.529
 8720SOL     OW27058   0.349   6.466   6.332
 8720SOL    HW127059   0.441   6.506   6.330
 8720SOL    HW227060   0.351   6.376   6.289
 8721SOL     OW27061   6.252   0.501   0.244
 8721SOL    HW127062   6.170   0.444   0.241
 8721SOL    HW227063   6.324   0.459   0.189
 8722SOL     OW27064   3.711   0.894   0.000
 8722SOL    HW127065   3.721   0.796   7.000
 8722SOL    HW227066   3.782   0.926   0.063
 8723SOL     OW27067   5.582   0.011   2.501
 8723SOL    HW127068   5.668   6.980   2.482
 8723SOL    HW227069   5.513   6.959   2.528
 8724SOL     OW27070   5.804   0.579   3.930
 8724SOL    HW127071   5.815   0.623   4.019
 8724SOL    HW227072   5.891   0.580   3.881
 8725SOL     OW27073   0.733   6.194   5.386
 8725SOL    HW127074   0.707   6.113   5.334
 8725SOL    HW227075   0.830   6.188   5.409
 8726SOL     OW27076   6.831   0.651   0.896
 8726SOL    HW127077   6.825   0.714   0.973
 8726SOL    HW227078   6.765   0.678   0.825
 8727SOL     OW27079   5.834   6.441   6.939
 8727SOL    HW127080   5.850   6.527   6.891
 8727SOL    HW227081   5.776   6.458   0.004
 8728SOL     OW27082   5.235   1.650   1.933
 8728SOL    HW127083   5.277   1.574   1.983
 8728SOL    HW227084   5.141   1.663   1.966
 8729SOL     OW27085   2.776   5.154   5.463
 8729SOL    HW127086   2.793   5.203   5.377
 8729SOL    HW227087   2.725   5.213   5.526
 8730SOL     OW27088   4.868   4.387   3.189
 8730SOL    HW127089   4.920   4.382   3.275
 8730SOL    HW227090   4.926   4.358   3.113
 8731SOL     OW27091   0.757   3.163   3.313
 8731SOL    HW127092   0.770   3.246   3.258
 8731SOL    HW227093   0.695   3.101   3.266
 8732SOL     OW27094   5.737   4.342   2.090
 8732SOL    HW127095   5.769   4.367   2.182
 8732SOL    HW227096   5.793   4.388   2.022
 8733SOL     OW27097   1.019   6.063   0.100
 8733SOL    HW127098   0.984   6.144   0.054
 8733SOL    HW227099   1.114   6.046   0.071
 8734SOL     OW27100   6.706   3.159   2.961
 8734SOL    HW127101   6.736   3.212   2.881
 8734SOL    HW227102   6.779   3.161   3.030
 8735SOL     OW27103   1.209   3.321   5.103
 8735SOL    HW127104   1.275   3.287   5.170
 8735SOL    HW227105   1.133   3.366   5.149
 8736SOL     OW27106   0.134   5.183   2.320
 8736SOL    HW127107   0.205   5.212   2.384
 8736SOL    HW227108   0.161   5.097   2.276
 8737SOL     OW27109   2.687   6.004   6.866
 8737SOL    HW127110   2.747   6.081   6.842
 8737SOL    HW227111   2.593   6.027   6.841
 8738SOL     OW27112   2.092   5.668   3.571
 8738SOL    HW127113   2.090   5.568   3.571
 8738SOL    HW227114   2.028   5.703   3.503
 8739SOL     OW27115   5.279   4.499   5.809
 8739SOL    HW127116   5.355   4.515   5.744
 8739SOL    HW227117   5.298   4.548   5.894
 8740SOL     OW27118   3.632   2.135   2.742
 8740SOL    HW127119   3.618   2.130   2.841
 8740SOL    HW227120   3.547   2.163   2.697
 8741SOL     OW27121   2.212   0.575   2.811
 8741SOL    HW127122   2.220   0.642   2.884
 8741SOL    HW227123   2.168   0.617   2.731
 8742SOL     OW27124   4.289   0.086   1.784
 8742SOL    HW127125   4.330   7.010   1.788
 8742SOL    HW227126   4.361   0.155   1.772
 8743SOL     OW27127   2.193   0.957   1.352
 8743SOL    HW127128   2.264   0.918   1.411
 8743SOL    HW227129   2.204   0.921   1.259
 8744SOL     OW27130   4.330   2.959   0.508
 8744SOL    HW127131   4.402   3.024   0.487
 8744SOL    HW227132   4.306   2.909   0.424
 8745SOL     OW27133   6.485   2.342   6.341
 8745SOL    HW127134   6.545   2.264   6.322
 8745SOL    HW227135   6.438   2.328   6.429
 8746SOL     OW27136   4.773   5.858   4.615
 8746SOL    HW127137   4.772   5.883   4.712
 8746SOL    HW227138   4.839   5.785   4.600
 8747SOL     OW27139   0.572   1.049   2.455
 8747SOL    HW127140   0.555   1.146   2.437
 8747SOL    HW227141   0.485   1.003   2.474
 8748SOL     OW27142   0.860   1.965   4.638
 8748SOL    HW127143   0.831   2.036   4.574
 8748SOL    HW227144   0.792   1.956   4.711
 8749SOL     OW27145   1.754   0.965   5.413
 8749SOL    HW127146   1.766   1.061   5.386
 8749SOL    HW227147   1.665   0.954   5.458
 8750SOL     OW27148   3.592   3.611   5.828
 8750SOL    HW127149   3.638   3.615   5.917
 8750SOL    HW227150   3.648   3.657   5.759
 8751SOL     OW27151   0.130   1.057   1.521
 8751SOL    HW127152   0.113   1.083   1.426
 8751SOL    HW227153   0.154   0.960   1.525
 8752SOL     OW27154   4.050   2.814   6.626
 8752SOL    HW127155   4.063   2.813   6.527
 8752SOL    HW227156   4.000   2.733   6.654
 8753SOL     OW27157   2.467   3.090   6.730
 8753SOL    HW127158   2.464   3.078   6.631
 8753SOL    HW227159   2.428   3.009   6.774
 8754SOL     OW27160   2.994   4.221   5.660
 8754SOL    HW127161   2.929   4.203   5.586
 8754SOL    HW227162   2.950   4.207   5.748
 8755SOL     OW27163   2.401   1.288   1.609
 8755SOL    HW127164   2.403   1.320   1.704
 8755SOL    HW227165   2.494   1.270   1.577
 8756SOL     OW27166   1.614   2.815   3.387
 8756SOL    HW127167   1.529   2.869   3.387
 8756SOL    HW227168   1.591   2.718   3.397
 8757SOL     OW27169   5.018   5.781   6.377
 8757SOL    HW127170   5.090   5.711   6.383
 8757SOL    HW227171   4.928   5.737   6.384
 8758SOL     OW27172   4.535   6.664   3.448
 8758SOL    HW127173   4.565   6.589   3.507
 8758SOL    HW227174   4.566   6.647   3.354
 8759SOL     OW27175   6.301   2.423   6.820
 8759SOL    HW127176   6.377   2.488   6.824
 8759SOL    HW227177   6.257   2.417   6.910
 8760SOL     OW27178   2.642   1.519   4.270
 8760SOL    HW127179   2.566   1.468   4.311
 8760SOL    HW227180   2.727   1.495   4.317
 8761SOL     OW27181   6.065   1.403   1.848
 8761SOL    HW127182   6.153   1.394   1.801
 8761SOL    HW227183   6.018   1.314   1.846
 8762SOL     OW27184   1.315   5.595   4.025
 8762SOL    HW127185   1.285   5.663   4.092
 8762SOL    HW227186   1.286   5.504   4.054
 8763SOL     OW27187   5.385   0.534   5.524
 8763SOL    HW127188   5.367   0.438   5.500
 8763SOL    HW227189   5.361   0.592   5.446
 8764SOL     OW27190   4.275   5.937   5.937
 8764SOL    HW127191   4.280   5.964   5.841
 8764SOL    HW227192   4.200   5.872   5.949
 8765SOL     OW27193   5.855   1.500   4.731
 8765SOL    HW127194   5.832   1.596   4.745
 8765SOL    HW227195   5.821   1.447   4.809
 8766SOL     OW27196   4.127   4.243   5.292
 8766SOL    HW127197   4.192   4.317   5.282
 8766SOL    HW227198   4.049   4.258   5.231
 8767SOL     OW27199   4.169   0.138   3.379
 8767SOL    HW127200   4.149   0.044   3.405
 8767SOL    HW227201   4.126   0.201   3.444
 8768SOL     OW27202   1.614   2.211   1.100
 8768SOL    HW127203   1.640   2.157   1.020
 8768SOL    HW227204   1.568   2.152   1.166
 8769SOL     OW27205   0.180   1.350   1.855
 8769SOL    HW127206   0.125   1.427   1.823
 8769SOL    HW227207   0.244   1.382   1.924
 8770SOL     OW27208   5.293   4.625   2.323
 8770SOL    HW127209   5.297   4.661   2.416
 8770SOL    HW227210   5.381   4.586   2.298
 8771SOL     OW27211   0.266   2.568   6.296
 8771SOL    HW127212   0.261   2.604   6.389
 8771SOL    HW227213   0.342   2.611   6.248
 8772SOL     OW27214   4.913   0.405   5.744
 8772SOL    HW127215   4.940   0.386   5.649
 8772SOL    HW227216   4.995   0.421   5.799
 8773SOL     OW27217   5.569   2.977   2.749
 8773SOL    HW127218   5.667   2.992   2.763
 8773SOL    HW227219   5.542   2.892   2.795
 8774SOL     OW27220   0.513   0.542   0.411
 8774SOL    HW127221   0.425   0.499   0.429
 8774SOL    HW227222   0.586   0.487   0.451
 8775SOL     OW27223   4.947   0.922   5.457
 8775SOL    HW127224   4.877   0.929   5.529
 8775SOL    HW227225   5.017   0.992   5.471
 8776SOL     OW27226   4.855   3.351   1.510
 8776SOL    HW127227   4.805   3.341   1.424
 8776SOL    HW227228   4.849   3.266   1.563
 8777SOL     OW27229   6.820   3.363   3.815
 8777SOL    HW127230   6.844   3.327   3.905
 8777SOL    HW227231   6.903   3.369   3.759
 8778SOL     OW27232   5.178   3.476   5.601
 8778SOL    HW127233   5.265   3.450   5.643
 8778SOL    HW227234   5.112   3.496   5.673
 8779SOL     OW27235   2.413   5.511   2.739
 8779SOL    HW127236   2.327   5.550   2.707
 8779SOL    HW227237   2.408   5.411   2.734
 8780SOL     OW27238   0.567   6.566   3.539
 8780SOL    HW127239   0.548   6.549   3.636
 8780SOL    HW227240   0.488   6.611   3.498
 8781SOL     OW27241   4.611   0.395   3.539
 8781SOL    HW127242   4.589   0.460   3.466
 8781SOL    HW227243   4.591   0.302   3.508
 8782SOL     OW27244   5.812   1.509   1.613
 8782SOL    HW127245   5.728   1.549   1.575
 8782SOL    HW227246   5.806   1.509   1.713
 8783SOL     OW27247   6.653   3.793   4.597
 8783SOL    HW127248   6.568   3.841   4.576
 8783SOL    HW227249   6.636   3.695   4.600
 8784SOL     OW27250   6.351   6.201   0.061
 8784SOL    HW127251   6.301   6.246   7.002
 8784SOL    HW227252   6.402   6.270   0.112
 8785SOL     OW27253   6.320   5.414   6.139
 8785SOL    HW127254   6.312   5.397   6.238
 8785SOL    HW227255   6.415   5.435   6.117
 8786SOL     OW27256   3.230   1.231   1.586
 8786SOL    HW127257   3.174   1.262   1.663
 8786SOL    HW227258   3.172   1.225   1.504
 8787SOL     OW27259   3.393   0.789   2.309
 8787SOL    HW127260   3.332   0.710   2.316
 8787SOL    HW227261   3.464   0.770   2.241
 8788SOL     OW27262   6.607   1.178   5.196
 8788SOL    HW127263   6.565   1.117   5.264
 8788SOL    HW227264   6.559   1.170   5.109
 8789SOL     OW27265   6.841   4.265   5.402
 8789SOL    HW127266   6.911   4.239   5.468
 8789SOL    HW227267   6.752   4.271   5.448
 8790SOL     OW27268   6.471   0.975   6.640
 8790SOL    HW127269   6.468   0.998   6.738
 8790SOL    HW227270   6.564   0.986   6.606
 8791SOL     OW27271   4.823   6.683   5.086
 8791SOL    HW127272   4.880   6.722   5.014
 8791SOL    HW227273   4.792   6.756   5.147
 8792SOL     OW27274   3.206   4.896   2.633
 8792SOL    HW127275   3.130   4.880   2.571
 8792SOL    HW227276   3.279   4.830   2.616
 8793SOL     OW27277   0.460   4.975   3.787
 8793SOL    HW127278   0.461   4.911   3.864
 8793SOL    HW227279   0.476   4.927   3.702
 8794SOL     OW27280   5.954   1.236   3.628
 8794SOL    HW127281   5.861   1.236   3.664
 8794SOL    HW227282   6.013   1.293   3.686
 8795SOL     OW27283   1.329   5.140   4.801
 8795SOL    HW127284   1.318   5.041   4.794
 8795SOL    HW227285   1.388   5.161   4.879
 8796SOL     OW27286   5.978   3.356   2.764
 8796SOL    HW127287   5.991   3.367   2.863
 8796SOL    HW227288   6.062   3.321   2.723
 8797SOL     OW27289   6.813   0.060   4.479
 8797SOL    HW127290   6.773   6.992   4.517
 8797SOL    HW227291   6.820   0.051   4.380
 8798SOL     OW27292   3.953   5.840   6.191
 8798SOL    HW127293   3.960   5.767   6.123
 8798SOL    HW227294   4.027   5.830   6.258
 8799SOL     OW27295   2.989   4.805   2.488
 8799SOL    HW127296   2.901   4.814   2.534
 8799SOL    HW227297   2.975   4.801   2.389
 8800SOL     OW27298   5.948   5.042   5.555
 8800SOL    HW127299   5.999   5.102   5.617
 8800SOL    HW227300   5.850   5.064   5.561
 8801SOL     OW27301   6.233   1.597   4.737
 8801SOL    HW127302   6.133   1.593   4.739
 8801SOL    HW227303   6.263   1.663   4.669
 8802SOL     OW27304   1.657   5.454   5.749
 8802SOL    HW127305   1.629   5.410   5.664
 8802SOL    HW227306   1.708   5.538   5.728
 8803SOL     OW27307   6.870   0.232   0.240
 8803SOL    HW127308   6.902   0.327   0.239
 8803SOL    HW227309   6.772   0.229   0.225
 8804SOL     OW27310   2.170   6.369   1.239
 8804SOL    HW127311   2.261   6.345   1.205
 8804SOL    HW227312   2.148   6.312   1.318
 8805SOL     OW27313   3.834   5.430   3.636
 8805SOL    HW127314   3.919   5.383   3.613
 8805SOL    HW227315   3.756   5.373   3.611
 8806SOL     OW27316   1.938   4.795   0.914
 8806SOL    HW127317   1.924   4.709   0.962
 8806SOL    HW227318   1.965   4.777   0.819
 8807SOL     OW27319   4.360   1.087   6.855
 8807SOL    HW127320   4.386   1.058   6.947
 8807SOL    HW227321   4.311   1.013   6.809
 8808SOL     OW27322   0.172   2.155   6.617
 8808SOL    HW127323   0.083   2.197   6.603
 8808SOL    HW227324   0.228   2.215   6.675
 8809SOL     OW27325   2.107   4.341   3.335
 8809SOL    HW127326   2.148   4.273   3.396
 8809SOL    HW227327   2.159   4.344   3.249
 8810SOL     OW27328   5.698   1.367   5.637
 8810SOL    HW127329   5.722   1.386   5.542
 8810SOL    HW227330   5.623   1.426   5.665
 8811SOL     OW27331   3.649   0.807   2.789
 8811SOL    HW127332   3.685   0.736   2.849
 8811SOL    HW227333   3.567   0.846   2.829
 8812SOL     OW27334   3.228   0.693   0.578
 8812SOL    HW127335   3.271   0.707   0.489
 8812SOL    HW227336   3.298   0.699   0.650
 8813SOL     OW27337   1.750   4.883   3.021
 8813SOL    HW127338   1.754   4.938   2.938
 8813SOL    HW227339   1.726   4.788   2.997
 8814SOL     OW27340   5.828   6.612   0.378
 8814SOL    HW127341   5.870   6.670   0.448
 8814SOL    HW227342   5.888   6.535   0.358
 8815SOL     OW27343   5.613   0.001   1.438
 8815SOL    HW127344   5.606   0.097   1.462
 8815SOL    HW227345   5.656   7.007   1.348
 8816SOL     OW27346   0.744   0.193   6.788
 8816SOL    HW127347   0.744   0.136   6.706
 8816SOL    HW227348   0.702   0.281   6.768
 8817SOL     OW27349   6.979   3.669   4.226
 8817SOL    HW127350   6.937   3.653   4.315
 8817SOL    HW227351   0.056   3.707   4.239
 8818SOL     OW27352   1.326   6.401   3.780
 8818SOL    HW127353   1.397   6.338   3.809
 8818SOL    HW227354   1.237   6.366   3.808
 8819SOL     OW27355   6.066   4.265   5.724
 8819SOL    HW127356   6.126   4.254   5.803
 8819SOL    HW227357   6.051   4.362   5.707
 8820SOL     OW27358   2.868   1.789   4.328
 8820SOL    HW127359   2.770   1.788   4.351
 8820SOL    HW227360   2.907   1.877   4.355
 8821SOL     OW27361   0.863   5.915   0.720
 8821SOL    HW127362   0.904   5.969   0.646
 8821SOL    HW227363   0.830   5.977   0.792
 8822SOL     OW27364   0.582   0.533   3.477
 8822SOL    HW127365   0.619   0.442   3.461
 8822SOL    HW227366   0.651   0.601   3.451
 8823SOL     OW27367   2.216   0.802   2.620
 8823SOL    HW127368   2.285   0.823   2.690
 8823SOL    HW227369   2.130   0.847   2.644
 8824SOL     OW27370   1.270   0.710   0.947
 8824SOL    HW127371   1.197   0.769   0.981
 8824SOL    HW227372   1.337   0.765   0.898
 8825SOL     OW27373   0.753   0.836   1.630
 8825SOL    HW127374   0.673   0.888   1.660
 8825SOL    HW227375   0.836   0.881   1.663
 8826SOL     OW27376   1.245   3.414   0.943
 8826SOL    HW127377   1.329   3.451   0.983
 8826SOL    HW227378   1.208   3.344   1.003
 8827SOL     OW27379   3.796   0.185   2.989
 8827SOL    HW127380   3.867   0.249   3.019
 8827SOL    HW227381   3.824   0.092   3.012
 8828SOL     OW27382   3.761   4.998   6.937
 8828SOL    HW127383   3.807   4.917   6.901
 8828SOL    HW227384   3.814   5.035   7.013
 8829SOL     OW27385   6.131   1.562   1.578
 8829SOL    HW127386   6.182   1.639   1.618
 8829SOL    HW227387   6.038   1.562   1.614
 8830SOL     OW27388   2.249   1.666   3.165
 8830SOL    HW127389   2.304   1.738   3.207
 8830SOL    HW227390   2.305   1.584   3.153
 8831SOL     OW27391   5.896   2.855   2.598
 8831SOL    HW127392   5.834   2.918   2.643
 8831SOL    HW227393   5.976   2.839   2.656
 8832SOL     OW27394   0.608   6.632   4.482
 8832SOL    HW127395   0.525   6.613   4.430
 8832SOL    HW227396   0.584   6.680   4.567
 8833SOL     OW27397   3.874   3.566   0.053
 8833SOL    HW127398   3.901   3.616   0.135
 8833SOL    HW227399   3.861   3.470   0.075
 8834SOL     OW27400   5.917   4.033   4.748
 8834SOL    HW127401   5.833   3.980   4.738
 8834SOL    HW227402   5.943   4.036   4.845
 8835SOL     OW27403   5.339   1.370   6.568
 8835SOL    HW127404   5.311   1.411   6.655
 8835SOL    HW227405   5.258   1.354   6.511
 8836SOL     OW27406   4.985   2.700   0.345
 8836SOL    HW127407   4.919   2.653   0.287
 8836SOL    HW227408   5.043   2.760   0.288
 8837SOL     OW27409   0.074   0.160   1.676
 8837SOL    HW127410   0.137   0.234   1.699
 8837SOL    HW227411   0.011   0.190   1.604
 8838SOL     OW27412   1.245   4.797   2.463
 8838SOL    HW127413   1.198   4.875   2.422
 8838SOL    HW227414   1.186   4.716   2.458
 8839SOL     OW27415   3.730   6.142   2.537
 8839SOL    HW127416   3.790   6.062   2.526
 8839SOL    HW227417   3.741   6.179   2.629
 8840SOL     OW27418   6.291   0.388   2.102
 8840SOL    HW127419   6.198   0.380   2.138
 8840SOL    HW227420   6.318   0.301   2.061
 8841SOL     OW27421   5.583   1.736   2.348
 8841SOL    HW127422   5.675   1.706   2.373
 8841SOL    HW227423   5.517   1.665   2.370
 8842SOL     OW27424   3.311   3.883   3.515
 8842SOL    HW127425   3.409   3.900   3.515
 8842SOL    HW227426   3.266   3.945   3.450
 8843SOL     OW27427   1.363   3.398   4.011
 8843SOL    HW127428   1.328   3.380   4.103
 8843SOL    HW227429   1.344   3.320   3.952
 8844SOL     OW27430   0.223   1.765   4.572
 8844SOL    HW127431   0.208   1.669   4.597
 8844SOL    HW227432   0.295   1.803   4.630
 8845SOL     OW27433   2.410   4.435   0.305
 8845SOL    HW127434   2.470   4.465   0.379
 8845SOL    HW227435   2.334   4.383   0.342
 8846SOL     OW27436   5.295   4.460   4.428
 8846SOL    HW127437   5.316   4.530   4.496
 8846SOL    HW227438   5.214   4.486   4.376
 8847SOL     OW27439   2.187   1.515   3.525
 8847SOL    HW127440   2.195   1.459   3.607
 8847SOL    HW227441   2.259   1.586   3.526
 8848SOL     OW27442   3.042   1.740   2.135
 8848SOL    HW127443   2.970   1.778   2.192
 8848SOL    HW227444   3.049   1.793   2.050
 8849SOL     OW27445   2.879   4.984   3.476
 8849SOL    HW127446   2.916   4.964   3.385
 8849SOL    HW227447   2.784   5.012   3.467
 8850SOL     OW27448   3.328   1.651   0.871
 8850SOL    HW127449   3.293   1.739   0.837
 8850SOL    HW227450   3.385   1.608   0.800
 8851SOL     OW27451   1.026   4.543   2.265
 8851SOL    HW127452   1.088   4.514   2.337
 8851SOL    HW227453   0.979   4.627   2.293
 8852SOL     OW27454   4.468   3.077   5.859
 8852SOL    HW127455   4.488   3.115   5.769
 8852SOL    HW227456   4.380   3.030   5.857
 8853SOL     OW27457   2.800   0.524   4.249
 8853SOL    HW127458   2.793   0.554   4.154
 8853SOL    HW227459   2.811   0.604   4.308
 8854SOL     OW27460   2.703   0.571   6.455
 8854SOL    HW127461   2.785   0.597   6.403
 8854SOL    HW227462   2.665   0.486   6.418
 8855SOL     OW27463   0.319   6.211   0.523
 8855SOL    HW127464   0.303   6.174   0.614
 8855SOL    HW227465   0.348   6.307   0.530
 8856SOL     OW27466   5.789   0.148   5.808
 8856SOL    HW127467   5.874   0.191   5.776
 8856SOL    HW227468   5.785   0.153   5.908
 8857SOL     OW27469   6.367   2.227   3.513
 8857SOL    HW127470   6.414   2.315   3.520
 8857SOL    HW227471   6.415   2.169   3.448
 8858SOL     OW27472   2.105   3.247   5.698
 8858SOL    HW127473   2.184   3.296   5.735
 8858SOL    HW227474   2.051   3.310   5.640
 8859SOL     OW27475   0.319   6.959   5.145
 8859SOL    HW127476   0.393   6.974   5.211
 8859SOL    HW227477   0.319   0.018   5.078
 8860SOL     OW27478   1.814   4.366   2.827
 8860SOL    HW127479   1.837   4.349   2.923
 8860SOL    HW227480   1.896   4.395   2.778
 8861SOL     OW27481   3.437   2.068   5.745
 8861SOL    HW127482   3.482   2.082   5.833
 8861SOL    HW227483   3.348   2.113   5.746
 8862SOL     OW27484   6.431   1.506   3.299
 8862SOL    HW127485   6.359   1.576   3.300
 8862SOL    HW227486   6.434   1.461   3.389
 8863SOL     OW27487   1.597   5.759   4.591
 8863SOL    HW127488   1.680   5.706   4.609
 8863SOL    HW227489   1.621   5.843   4.543
 8864SOL     OW27490   2.536   3.271   6.269
 8864SOL    HW127491   2.612   3.229   6.320
 8864SOL    HW227492   2.449   3.241   6.308
 8865SOL     OW27493   3.150   1.725   5.120
 8865SOL    HW127494   3.176   1.640   5.165
 8865SOL    HW227495   3.093   1.780   5.181
 8866SOL     OW27496   5.116   6.627   4.127
 8866SOL    HW127497   5.085   6.665   4.214
 8866SOL    HW227498   5.042   6.633   4.060
 8867SOL     OW27499   5.223   3.287   2.737
 8867SOL    HW127500   5.165   3.312   2.814
 8867SOL    HW227501   5.314   3.263   2.771
 8868SOL     OW27502   6.034   3.257   0.757
 8868SOL    HW127503   5.976   3.332   0.786
 8868SOL    HW227504   6.116   3.294   0.712
 8869SOL     OW27505   4.489   5.978   3.377
 8869SOL    HW127506   4.506   5.909   3.307
 8869SOL    HW227507   4.520   5.943   3.466
 8870SOL     OW27508   4.240   6.910   0.204
 8870SOL    HW127509   4.203   6.972   0.134
 8870SOL    HW227510   4.333   6.939   0.227
 8871SOL     OW27511   3.220   0.802   3.828
 8871SOL    HW127512   3.214   0.860   3.909
 8871SOL    HW227513   3.128   0.780   3.796
 8872SOL     OW27514   1.470   4.419   4.460
 8872SOL    HW127515   1.452   4.421   4.362
 8872SOL    HW227516   1.531   4.342   4.482
 8873SOL     OW27517   6.595   5.878   1.827
 8873SOL    HW127518   6.537   5.873   1.908
 8873SOL    HW227519   6.539   5.898   1.747
 8874SOL     OW27520   2.145   6.229   0.990
 8874SOL    HW127521   2.094   6.298   1.042
 8874SOL    HW227522   2.237   6.221   1.026
 8875SOL     OW27523   0.580   3.200   5.336
 8875SOL    HW127524   0.509   3.216   5.268
 8875SOL    HW227525   0.642   3.128   5.303
 8876SOL     OW27526   0.999   6.870   4.853
 8876SOL    HW127527   0.953   6.790   4.815
 8876SOL    HW227528   1.053   6.843   4.932
 8877SOL     OW27529   3.000   0.859   4.770
 8877SOL    HW127530   2.921   0.864   4.709
 8877SOL    HW227531   3.084   0.860   4.715
 8878SOL     OW27532   0.329   5.454   0.638
 8878SOL    HW127533   0.246   5.469   0.690
 8878SOL    HW227534   0.316   5.377   0.575
 8879SOL     OW27535   5.636   5.164   1.440
 8879SOL    HW127536   5.694   5.096   1.394
 8879SOL    HW227537   5.612   5.132   1.531
 8880SOL     OW27538   0.018   5.614   4.245
 8880SOL    HW127539   6.980   5.550   4.190
 8880SOL    HW227540   6.972   5.678   4.292
 8881SOL     OW27541   5.936   0.194   4.067
 8881SOL    HW127542   6.005   0.133   4.106
 8881SOL    HW227543   5.876   0.228   4.140
 8882SOL     OW27544   5.123   1.721   0.794
 8882SOL    HW127545   5.032   1.764   0.797
 8882SOL    HW227546   5.141   1.686   0.702
 8883SOL     OW27547   0.835   0.949   5.548
 8883SOL    HW127548   0.761   0.925   5.610
 8883SOL    HW227549   0.802   1.011   5.478
 8884SOL     OW27550   5.598   5.474   6.330
 8884SOL    HW127551   5.537   5.446   6.256
 8884SOL    HW227552   5.565   5.559   6.370
 8885SOL     OW27553   6.797   3.225   1.274
 8885SOL    HW127554   6.739   3.274   1.209
 8885SOL    HW227555   6.887   3.267   1.277
 8886SOL     OW27556   3.215   6.796   5.398
 8886SOL    HW127557   3.202   6.823   5.302
 8886SOL    HW227558   3.307   6.758   5.409
 8887SOL     OW27559   3.003   1.287   1.048
 8887SOL    HW127560   3.037   1.375   1.014
 8887SOL    HW227561   3.062   1.214   1.014
 8888SOL     OW27562   1.238   1.743   1.045
 8888SOL    HW127563   1.306   1.795   1.095
 8888SOL    HW227564   1.227   1.652   1.087
 8889SOL     OW27565   5.479   6.497   5.346
 8889SOL    HW127566   5.399   6.526   5.398
 8889SOL    HW227567   5.485   6.397   5.347
 8890SOL     OW27568   6.473   5.605   3.890
 8890SOL    HW127569   6.568   5.636   3.881
 8890SOL    HW227570   6.469   5.529   3.954
 8891SOL     OW27571   6.190   3.279   5.989
 8891SOL    HW127572   6.165   3.242   5.900
 8891SOL    HW227573   6.128   3.243   6.059
 8892SOL     OW27574   3.466   5.948   3.588
 8892SOL    HW127575   3.426   6.028   3.544
 8892SOL    HW227576   3.438   5.866   3.538
 8893SOL     OW27577   1.201   0.741   2.075
 8893SOL    HW127578   1.251   0.787   2.149
 8893SOL    HW227579   1.217   0.789   1.989
 8894SOL     OW27580   4.132   2.727   5.740
 8894SOL    HW127581   4.091   2.688   5.823
 8894SOL    HW227582   4.070   2.714   5.663
 8895SOL     OW27583   6.581   1.165   1.142
 8895SOL    HW127584   6.575   1.141   1.239
 8895SOL    HW227585   6.549   1.259   1.130
 8896SOL     OW27586   1.744   3.143   4.794
 8896SOL    HW127587   1.838   3.167   4.771
 8896SOL    HW227588   1.700   3.220   4.841
 8897SOL     OW27589   2.419   1.970   2.868
 8897SOL    HW127590   2.516   1.987   2.855
 8897SOL    HW227591   2.397   1.977   2.966
 8898SOL     OW27592   6.033   3.510   4.618
 8898SOL    HW127593   6.032   3.459   4.704
 8898SOL    HW227594   6.120   3.559   4.610
 8899SOL     OW27595   1.465   4.985   0.764
 8899SOL    HW127596   1.505   5.077   0.770
 8899SOL    HW227597   1.389   4.978   0.830
 8900SOL     OW27598   5.423   3.666   2.656
 8900SOL    HW127599   5.487   3.739   2.680
 8900SOL    HW227600   5.347   3.705   2.605
 8901SOL     OW27601   2.499   0.988   4.266
 8901SOL    HW127602   2.560   1.067   4.269
 8901SOL    HW227603   2.549   0.906   4.294
 8902SOL     OW27604   3.393   6.138   0.061
 8902SOL    HW127605   3.455   6.207   0.099
 8902SOL    HW227606   3.299   6.169   0.071
 8903SOL     OW27607   1.501   1.051   4.504
 8903SOL    HW127608   1.509   0.952   4.493
 8903SOL    HW227609   1.406   1.074   4.525
 8904SOL     OW27610   6.513   5.485   3.629
 8904SOL    HW127611   6.573   5.430   3.687
 8904SOL    HW227612   6.472   5.558   3.683
 8905SOL     OW27613   2.232   4.211   4.737
 8905SOL    HW127614   2.253   4.113   4.736
 8905SOL    HW227615   2.146   4.226   4.785
 8906SOL     OW27616   0.319   6.865   6.792
 8906SOL    HW127617   0.419   6.871   6.791
 8906SOL    HW227618   0.282   6.931   6.857
 8907SOL     OW27619   3.244   2.098   4.754
 8907SOL    HW127620   3.238   1.999   4.767
 8907SOL    HW227621   3.218   2.144   4.839
 8908SOL     OW27622   1.395   3.136   6.848
 8908SOL    HW127623   1.473   3.198   6.846
 8908SOL    HW227624   1.428   3.041   6.844
 8909SOL     OW27625   1.541   0.603   4.942
 8909SOL    HW127626   1.568   0.682   4.996
 8909SOL    HW227627   1.445   0.580   4.960
 8910SOL     OW27628   2.029   3.254   5.986
 8910SOL    HW127629   2.008   3.350   5.966
 8910SOL    HW227630   2.079   3.215   5.909
 8911SOL     OW27631   4.301   2.256   4.791
 8911SOL    HW127632   4.273   2.312   4.869
 8911SOL    HW227633   4.220   2.231   4.737
 8912SOL     OW27634   4.454   1.396   0.434
 8912SOL    HW127635   4.407   1.481   0.458
 8912SOL    HW227636   4.463   1.339   0.517
 8913SOL     OW27637   4.534   5.208   0.490
 8913SOL    HW127638   4.507   5.123   0.534
 8913SOL    HW227639   4.615   5.245   0.536
 8914SOL     OW27640   4.202   0.784   4.615
 8914SOL    HW127641   4.148   0.839   4.678
 8914SOL    HW227642   4.227   0.838   4.535
 8915SOL     OW27643   1.117   2.781   3.652
 8915SOL    HW127644   1.088   2.697   3.698
 8915SOL    HW227645   1.062   2.794   3.569
 8916SOL     OW27646   0.706   3.107   1.937
 8916SOL    HW127647   0.624   3.134   1.886
 8916SOL    HW227648   0.785   3.155   1.901
 8917SOL     OW27649   5.991   4.454   6.278
 8917SOL    HW127650   5.938   4.415   6.353
 8917SOL    HW227651   6.026   4.544   6.305
 8918SOL     OW27652   0.164   5.126   1.416
 8918SOL    HW127653   0.099   5.201   1.425
 8918SOL    HW227654   0.170   5.098   1.320
 8919SOL     OW27655   4.597   4.010   0.559
 8919SOL    HW127656   4.560   4.102   0.577
 8919SOL    HW227657   4.528   3.942   0.583
 8920SOL     OW27658   0.702   0.140   6.488
 8920SOL    HW127659   0.641   0.060   6.491
 8920SOL    HW227660   0.675   0.199   6.412
 8921SOL     OW27661   2.112   1.878   3.028
 8921SOL    HW127662   2.159   1.796   3.062
 8921SOL    HW227663   2.088   1.937   3.105
 8922SOL     OW27664   3.045   5.125   2.036
 8922SOL    HW127665   3.094   5.192   2.091
 8922SOL    HW227666   3.005   5.169   1.956
 8923SOL     OW27667   1.283   3.915   5.568
 8923SOL    HW127668   1.235   3.939   5.484
 8923SOL    HW227669   1.379   3.896   5.548
 8924SOL     OW27670   3.330   5.841   5.534
 8924SOL    HW127671   3.281   5.824   5.449
 8924SOL    HW227672   3.411   5.783   5.538
 8925SOL     OW27673   1.027   0.730   2.374
 8925SOL    HW127674   1.112   0.747   2.325
 8925SOL    HW227675   1.004   0.633   2.367
 8926SOL     OW27676   6.085   3.320   0.043
 8926SOL    HW127677   5.996   3.351   0.009
 8926SOL    HW227678   6.113   3.238   7.007
 8927SOL     OW27679   1.718   2.270   4.603
 8927SOL    HW127680   1.628   2.314   4.590
 8927SOL    HW227681   1.766   2.315   4.678
 8928SOL     OW27682   6.837   0.686   5.407
 8928SOL    HW127683   6.847   0.784   5.426
 8928SOL    HW227684   6.835   0.671   5.309
 8929SOL     OW27685   0.312   3.349   4.170
 8929SOL    HW127686   0.389   3.404   4.137
 8929SOL    HW227687   0.232   3.365   4.113
 8930SOL     OW27688   2.418   4.812   4.561
 8930SOL    HW127689   2.513   4.801   4.531
 8930SOL    HW227690   2.409   4.776   4.654
 8931SOL     OW27691   3.570   2.535   0.492
 8931SOL    HW127692   3.589   2.437   0.488
 8931SOL    HW227693   3.644   2.581   0.542
 8932SOL     OW27694   5.298   0.328   0.195
 8932SOL    HW127695   5.214   0.350   0.245
 8932SOL    HW227696   5.275   0.301   0.102
 8933SOL     OW27697   1.126   1.992   5.716
 8933SOL    HW127698   1.061   2.066   5.733
 8933SOL    HW227699   1.206   2.029   5.669
 8934SOL     OW27700   2.792   5.603   3.738
 8934SOL    HW127701   2.794   5.678   3.804
 8934SOL    HW227702   2.754   5.521   3.781
 8935SOL     OW27703   5.519   4.603   1.595
 8935SOL    HW127704   5.499   4.697   1.568
 8935SOL    HW227705   5.435   4.557   1.623
 8936SOL     OW27706   0.872   3.410   1.028
 8936SOL    HW127707   0.926   3.494   1.022
 8936SOL    HW227708   0.932   3.331   1.013
 8937SOL     OW27709   0.519   0.512   4.093
 8937SOL    HW127710   0.515   0.612   4.087
 8937SOL    HW227711   0.448   0.472   4.036
 8938SOL     OW27712   0.243   1.164   0.211
 8938SOL    HW127713   0.200   1.225   0.277
 8938SOL    HW227714   0.178   1.094   0.182
 8939SOL     OW27715   6.254   3.263   4.420
 8939SOL    HW127716   6.225   3.230   4.510
 8939SOL    HW227717   6.187   3.328   4.385
 8940SOL     OW27718   5.482   1.930   1.006
 8940SOL    HW127719   5.422   1.978   0.942
 8940SOL    HW227720   5.511   1.843   0.966
 8941SOL     OW27721   5.229   2.132   1.988
 8941SOL    HW127722   5.281   2.153   2.070
 8941SOL    HW227723   5.246   2.202   1.919
 8942SOL     OW27724   1.049   5.390   4.586
 8942SOL    HW127725   1.069   5.368   4.682
 8942SOL    HW227726   0.951   5.383   4.570
 8943SOL     OW27727   4.431   4.944   0.557
 8943SOL    HW127728   4.503   4.884   0.519
 8943SOL    HW227729   4.439   4.946   0.656
 8944SOL     OW27730   5.312   5.201   4.348
 8944SOL    HW127731   5.280   5.257   4.425
 8944SOL    HW227732   5.350   5.115   4.383
 8945SOL     OW27733   6.709   2.223   4.486
 8945SOL    HW127734   6.663   2.143   4.446
 8945SOL    HW227735   6.789   2.192   4.538
 8946SOL     OW27736   3.398   0.630   4.398
 8946SOL    HW127737   3.343   0.677   4.329
 8946SOL    HW227738   3.455   0.560   4.354
 8947SOL     OW27739   2.165   3.967   6.118
 8947SOL    HW127740   2.065   3.973   6.112
 8947SOL    HW227741   2.201   4.052   6.158
 8948SOL     OW27742   6.032   5.820   2.991
 8948SOL    HW127743   5.980   5.758   2.932
 8948SOL    HW227744   6.084   5.766   3.057
 8949SOL     OW27745   3.955   5.883   0.400
 8949SOL    HW127746   4.013   5.816   0.445
 8949SOL    HW227747   3.982   5.892   0.304
 8950SOL     OW27748   4.415   3.434   1.268
 8950SOL    HW127749   4.435   3.424   1.365
 8950SOL    HW227750   4.487   3.488   1.225
 8951SOL     OW27751   2.181   1.147   4.549
 8951SOL    HW127752   2.191   1.187   4.640
 8951SOL    HW227753   2.232   1.061   4.544
 8952SOL     OW27754   1.459   5.394   3.222
 8952SOL    HW127755   1.378   5.351   3.182
 8952SOL    HW227756   1.433   5.477   3.270
 8953SOL     OW27757   1.824   4.658   1.108
 8953SOL    HW127758   1.727   4.645   1.129
 8953SOL    HW227759   1.855   4.744   1.149
 8954SOL     OW27760   0.185   6.823   3.679
 8954SOL    HW127761   0.121   6.755   3.643
 8954SOL    HW227762   0.168   6.911   3.635
 8955SOL     OW27763   0.228   3.305   2.684
 8955SOL    HW127764   0.202   3.251   2.763
 8955SOL    HW227765   0.267   3.245   2.613
 8956SOL     OW27766   0.629   0.706   5.977
 8956SOL    HW127767   0.597   0.618   5.943
 8956SOL    HW227768   0.728   0.703   5.993
 8957SOL     OW27769   2.131   4.764   1.211
 8957SOL    HW127770   2.069   4.842   1.202
 8957SOL    HW227771   2.188   4.776   1.292
 8958SOL     OW27772   1.262   2.748   5.247
 8958SOL    HW127773   1.238   2.674   5.310
 8958SOL    HW227774   1.305   2.823   5.297
 8959SOL     OW27775   1.389   3.438   2.418
 8959SOL    HW127776   1.428   3.519   2.375
 8959SOL    HW227777   1.399   3.359   2.357
 8960SOL     OW27778   6.471   5.508   3.116
 8960SOL    HW127779   6.506   5.503   3.022
 8960SOL    HW227780   6.380   5.552   3.115
 8961SOL     OW27781   4.419   1.755   3.800
 8961SOL    HW127782   4.411   1.657   3.781
 8961SOL    HW227783   4.330   1.792   3.826
 8962SOL     OW27784   0.006   6.312   1.545
 8962SOL    HW127785   6.970   6.386   1.501
 8962SOL    HW227786   0.093   6.298   1.498
 8963SOL     OW27787   3.188   6.571   4.859
 8963SOL    HW127788   3.142   6.586   4.946
 8963SOL    HW227789   3.120   6.567   4.786
 8964SOL     OW27790   5.287   3.950   2.660
 8964SOL    HW127791   5.287   4.050   2.657
 8964SOL    HW227792   5.304   3.914   2.568
 8965SOL     OW27793   3.799   5.126   0.570
 8965SOL    HW127794   3.733   5.132   0.645
 8965SOL    HW227795   3.848   5.213   0.562
 8966SOL     OW27796   6.626   4.845   6.463
 8966SOL    HW127797   6.587   4.893   6.542
 8966SOL    HW227798   6.586   4.882   6.379
 8967SOL     OW27799   4.583   1.225   3.112
 8967SOL    HW127800   4.672   1.251   3.075
 8967SOL    HW227801   4.580   1.246   3.210
 8968SOL     OW27802   2.811   5.343   2.292
 8968SOL    HW127803   2.792   5.250   2.321
 8968SOL    HW227804   2.862   5.390   2.364
 8969SOL     OW27805   0.120   0.844   3.855
 8969SOL    HW127806   0.200   0.821   3.800
 8969SOL    HW227807   0.047   0.876   3.794
 8970SOL     OW27808   1.374   2.444   0.407
 8970SOL    HW127809   1.350   2.349   0.388
 8970SOL    HW227810   1.295   2.490   0.448
 8971SOL     OW27811   5.279   6.926   1.964
 8971SOL    HW127812   5.271   6.959   2.058
 8971SOL    HW227813   5.217   6.849   1.950
 8972SOL     OW27814   5.210   4.002   0.328
 8972SOL    HW127815   5.131   4.043   0.373
 8972SOL    HW227816   5.286   4.067   0.328
 8973SOL     OW27817   0.497   2.532   2.454
 8973SOL    HW127818   0.446   2.516   2.538
 8973SOL    HW227819   0.544   2.620   2.460
 8974SOL     OW27820   1.810   3.947   3.997
 8974SOL    HW127821   1.865   3.880   3.946
 8974SOL    HW227822   1.753   3.998   3.933
 8975SOL     OW27823   0.555   0.092   6.979
 8975SOL    HW127824   0.487   0.161   7.002
 8975SOL    HW227825   0.638   0.137   6.946
 8976SOL     OW27826   6.987   6.075   0.753
 8976SOL    HW127827   0.018   6.043   0.670
 8976SOL    HW227828   6.912   6.136   0.727
 8977SOL     OW27829   6.900   3.878   6.464
 8977SOL    HW127830   6.959   3.900   6.386
 8977SOL    HW227831   6.956   3.849   6.541
 8978SOL     OW27832   5.193   6.408   4.944
 8978SOL    HW127833   5.232   6.395   4.853
 8978SOL    HW227834   5.254   6.465   4.999
 8979SOL     OW27835   0.884   5.243   6.134
 8979SOL    HW127836   0.949   5.293   6.191
 8979SOL    HW227837   0.826   5.308   6.085
 8980SOL     OW27838   5.664   2.237   6.073
 8980SOL    HW127839   5.670   2.285   5.985
 8980SOL    HW227840   5.596   2.164   6.066
 8981SOL     OW27841   4.842   2.001   5.774
 8981SOL    HW127842   4.751   2.026   5.807
 8981SOL    HW227843   4.899   2.083   5.769
 8982SOL     OW27844   6.627   1.906   1.560
 8982SOL    HW127845   6.681   1.946   1.486
 8982SOL    HW227846   6.614   1.808   1.542
 8983SOL     OW27847   1.072   5.436   1.306
 8983SOL    HW127848   1.039   5.387   1.387
 8983SOL    HW227849   1.047   5.385   1.224
 8984SOL     OW27850   6.199   0.341   4.677
 8984SOL    HW127851   6.167   0.435   4.686
 8984SOL    HW227852   6.294   0.334   4.708
 8985SOL     OW27853   3.731   2.305   0.884
 8985SOL    HW127854   3.739   2.273   0.978
 8985SOL    HW227855   3.811   2.361   0.860
 8986SOL     OW27856   5.544   4.492   2.604
 8986SOL    HW127857   5.587   4.404   2.583
 8986SOL    HW227858   5.533   4.500   2.703
 8987SOL     OW27859   3.240   0.625   1.024
 8987SOL    HW127860   3.236   0.526   1.007
 8987SOL    HW227861   3.304   0.644   1.098
 8988SOL     OW27862   1.775   5.398   0.278
 8988SOL    HW127863   1.815   5.316   0.319
 8988SOL    HW227864   1.760   5.467   0.350
 8989SOL     OW27865   4.906   3.239   2.719
 8989SOL    HW127866   4.951   3.287   2.794
 8989SOL    HW227867   4.885   3.146   2.747
 8990SOL     OW27868   2.083   6.289   1.488
 8990SOL    HW127869   2.048   6.363   1.546
 8990SOL    HW227870   2.078   6.202   1.538
 8991SOL     OW27871   2.640   1.986   1.533
 8991SOL    HW127872   2.577   2.064   1.534
 8991SOL    HW227873   2.607   1.917   1.467
 8992SOL     OW27874   0.630   2.976   0.742
 8992SOL    HW127875   0.709   3.023   0.780
 8992SOL    HW227876   0.610   3.012   0.650
 8993SOL     OW27877   5.475   2.800   2.461
 8993SOL    HW127878   5.527   2.885   2.460
 8993SOL    HW227879   5.403   2.806   2.529
 8994SOL     OW27880   1.717   5.199   4.239
 8994SOL    HW127881   1.759   5.214   4.328
 8994SOL    HW227882   1.745   5.110   4.203
 8995SOL     OW27883   1.324   2.453   4.970
 8995SOL    HW127884   1.269   2.378   5.008
 8995SOL    HW227885   1.283   2.484   4.884
 8996SOL     OW27886   0.878   3.742   2.048
 8996SOL    HW127887   0.928   3.657   2.066
 8996SOL    HW227888   0.827   3.768   2.130
 8997SOL     OW27889   5.311   0.601   6.635
 8997SOL    HW127890   5.409   0.615   6.651
 8997SOL    HW227891   5.286   0.509   6.663
 8998SOL     OW27892   0.377   1.757   4.782
 8998SOL    HW127893   0.309   1.722   4.846
 8998SOL    HW227894   0.425   1.681   4.739
 8999SOL     OW27895   4.916   0.290   6.632
 8999SOL    HW127896   4.983   0.221   6.659
 8999SOL    HW227897   4.830   0.273   6.680
 9000SOL     OW27898   2.411   3.914   6.496
 9000SOL    HW127899   2.463   3.961   6.425
 9000SOL    HW227900   2.455   3.827   6.517
 9001SOL     OW27901   1.167   5.095   2.818
 9001SOL    HW127902   1.082   5.135   2.852
 9001SOL    HW227903   1.174   5.000   2.850
 9002SOL     OW27904   0.364   5.466   5.643
 9002SOL    HW127905   0.389   5.553   5.599
 9002SOL    HW227906   0.280   5.432   5.603
 9003SOL     OW27907   6.210   2.296   0.977
 9003SOL    HW127908   6.293   2.292   1.033
 9003SOL    HW227909   6.191   2.205   0.940
 9004SOL     OW27910   5.030   6.245   2.084
 9004SOL    HW127911   5.081   6.206   2.161
 9004SOL    HW227912   5.092   6.300   2.028
 9005SOL     OW27913   4.962   2.649   3.351
 9005SOL    HW127914   4.920   2.709   3.284
 9005SOL    HW227915   4.899   2.635   3.428
 9006SOL     OW27916   1.231   5.924   1.030
 9006SOL    HW127917   1.144   5.898   1.071
 9006SOL    HW227918   1.302   5.859   1.057
 9007SOL     OW27919   3.315   5.620   3.929
 9007SOL    HW127920   3.264   5.625   3.843
 9007SOL    HW227921   3.410   5.598   3.909
 9008SOL     OW27922   6.454   4.956   2.706
 9008SOL    HW127923   6.413   5.004   2.628
 9008SOL    HW227924   6.390   4.887   2.740
 9009SOL     OW27925   3.444   6.588   0.765
 9009SOL    HW127926   3.418   6.494   0.788
 9009SOL    HW227927   3.372   6.629   0.709
 9010SOL     OW27928   0.843   6.662   5.082
 9010SOL    HW127929   0.767   6.639   5.142
 9010SOL    HW227930   0.830   6.616   4.994
 9011SOL     OW27931   3.994   2.464   1.339
 9011SOL    HW127932   3.951   2.485   1.251
 9011SOL    HW227933   4.088   2.498   1.338
 9012SOL     OW27934   2.175   5.437   0.531
 9012SOL    HW127935   2.221   5.463   0.446
 9012SOL    HW227936   2.169   5.517   0.590
 9013SOL     OW27937   6.231   5.871   4.804
 9013SOL    HW127938   6.252   5.969   4.807
 9013SOL    HW227939   6.138   5.858   4.768
 9014SOL     OW27940   1.459   1.501   0.518
 9014SOL    HW127941   1.370   1.533   0.549
 9014SOL    HW227942   1.482   1.545   0.431
 9015SOL     OW27943   6.114   0.988   6.845
 9015SOL    HW127944   6.133   0.987   6.747
 9015SOL    HW227945   6.017   1.006   6.860
 9016SOL     OW27946   6.515   5.920   6.029
 9016SOL    HW127947   6.508   6.019   6.043
 9016SOL    HW227948   6.426   5.877   6.046
 9017SOL     OW27949   5.615   1.903   3.170
 9017SOL    HW127950   5.697   1.940   3.126
 9017SOL    HW227951   5.557   1.862   3.100
 9018SOL     OW27952   3.498   1.408   5.496
 9018SOL    HW127953   3.532   1.499   5.475
 9018SOL    HW227954   3.559   1.363   5.561
 9019SOL     OW27955   1.603   6.590   0.706
 9019SOL    HW127956   1.543   6.641   0.766
 9019SOL    HW227957   1.570   6.596   0.612
 9020SOL     OW27958   1.906   3.801   2.184
 9020SOL    HW127959   1.849   3.735   2.135
 9020SOL    HW227960   1.850   3.854   2.247
 9021SOL     OW27961   6.725   0.045   3.632
 9021SOL    HW127962   6.675   6.990   3.682
 9021SOL    HW227963   6.667   0.125   3.620
 9022SOL     OW27964   2.940   0.292   0.525
 9022SOL    HW127965   2.952   0.264   0.430
 9022SOL    HW227966   3.022   0.340   0.556
 9023SOL     OW27967   3.760   3.281   3.441
 9023SOL    HW127968   3.789   3.371   3.408
 9023SOL    HW227969   3.741   3.221   3.364
 9024SOL     OW27970   1.814   5.950   5.940
 9024SOL    HW127971   1.760   5.895   6.004
 9024SOL    HW227972   1.755   6.021   5.900
 9025SOL     OW27973   6.172   6.070   1.275
 9025SOL    HW127974   6.206   6.157   1.240
 9025SOL    HW227975   6.073   6.066   1.266
 9026SOL     OW27976   3.637   3.405   3.648
 9026SOL    HW127977   3.694   3.351   3.585
 9026SOL    HW227978   3.592   3.344   3.713
 9027SOL     OW27979   2.747   2.020   3.802
 9027SOL    HW127980   2.764   1.961   3.723
 9027SOL    HW227981   2.752   1.966   3.886
 9028SOL     OW27982   2.238   4.578   6.298
 9028SOL    HW127983   2.225   4.487   6.337
 9028SOL    HW227984   2.215   4.576   6.200
 9029SOL     OW27985   3.735   5.285   4.509
 9029SOL    HW127986   3.709   5.339   4.589
 9029SOL    HW227987   3.666   5.215   4.493
 9030SOL     OW27988   1.713   0.891   2.621
 9030SOL    HW127989   1.614   0.886   2.631
 9030SOL    HW227990   1.740   0.986   2.605
 9031SOL     OW27991   3.280   5.323   5.648
 9031SOL    HW127992   3.250   5.319   5.553
 9031SOL    HW227993   3.272   5.418   5.681
 9032SOL     OW27994   3.741   2.726   0.680
 9032SOL    HW127995   3.698   2.740   0.770
 9032SOL    HW227996   3.732   2.810   0.626
 9033SOL     OW27997   1.294   3.190   3.859
 9033SOL    HW127998   1.209   3.230   3.825
 9033SOL    HW227999   1.291   3.091   3.848
 9034SOL     OW28000   2.677   6.601   5.167
 9034SOL    HW128001   2.661   6.624   5.071
 9034SOL    HW228002   2.590   6.579   5.211
 9035SOL     OW28003   0.393   6.667   5.142
 9035SOL    HW128004   0.322   6.656   5.212
 9035SOL    HW228005   0.403   6.764   5.119
 9036SOL     OW28006   1.991   2.148   5.191
 9036SOL    HW128007   2.087   2.131   5.171
 9036SOL    HW228008   1.983   2.220   5.260
 9037SOL     OW28009   1.642   3.566   6.918
 9037SOL    HW128010   1.615   3.661   6.899
 9037SOL    HW228011   1.735   3.566   6.955
 9038SOL     OW28012   5.346   0.758   5.686
 9038SOL    HW128013   5.318   0.684   5.625
 9038SOL    HW228014   5.340   0.846   5.638
 9039SOL     OW28015   1.709   4.565   4.850
 9039SOL    HW128016   1.642   4.515   4.904
 9039SOL    HW228017   1.676   4.574   4.756
 9040SOL     OW28018   3.108   1.072   3.610
 9040SOL    HW128019   3.156   1.100   3.693
 9040SOL    HW228020   3.097   1.151   3.549
 9041SOL     OW28021   0.915   1.919   2.096
 9041SOL    HW128022   0.921   1.820   2.086
 9041SOL    HW228023   1.000   1.954   2.136
 9042SOL     OW28024   2.687   6.352   3.558
 9042SOL    HW128025   2.707   6.451   3.559
 9042SOL    HW228026   2.682   6.319   3.653
 9043SOL     OW28027   2.190   1.592   5.645
 9043SOL    HW128028   2.091   1.594   5.630
 9043SOL    HW228029   2.226   1.685   5.636
 9044SOL     OW28030   6.269   1.320   1.268
 9044SOL    HW128031   6.274   1.232   1.221
 9044SOL    HW228032   6.207   1.381   1.218
 9045SOL     OW28033   3.482   1.441   1.963
 9045SOL    HW128034   3.499   1.539   1.957
 9045SOL    HW228035   3.424   1.422   2.043
 9046SOL     OW28036   3.817   4.139   4.817
 9046SOL    HW128037   3.872   4.062   4.787
 9046SOL    HW228038   3.759   4.170   4.742
 9047SOL     OW28039   1.782   4.139   5.506
 9047SOL    HW128040   1.690   4.178   5.509
 9047SOL    HW228041   1.845   4.198   5.558
 9048SOL     OW28042   0.224   3.503   6.104
 9048SOL    HW128043   0.145   3.453   6.068
 9048SOL    HW228044   0.256   3.460   6.188
 9049SOL     OW28045   5.037   6.388   6.602
 9049SOL    HW128046   4.988   6.386   6.689
 9049SOL    HW228047   4.973   6.409   6.528
 9050SOL     OW28048   1.342   5.384   6.325
 9050SOL    HW128049   1.337   5.348   6.419
 9050SOL    HW228050   1.355   5.308   6.261
 9051SOL     OW28051   4.533   6.361   1.291
 9051SOL    HW128052   4.486   6.431   1.237
 9051SOL    HW228053   4.525   6.384   1.388
 9052SOL     OW28054   2.443   4.504   4.377
 9052SOL    HW128055   2.349   4.507   4.342
 9052SOL    HW228056   2.445   4.459   4.466
 9053SOL     OW28057   2.482   1.697   3.901
 9053SOL    HW128058   2.496   1.713   3.803
 9053SOL    HW228059   2.460   1.783   3.946
 9054SOL     OW28060   1.621   0.666   1.825
 9054SOL    HW128061   1.601   0.627   1.736
 9054SOL    HW228062   1.660   0.595   1.884
 9055SOL     OW28063   0.210   4.071   3.617
 9055SOL    HW128064   0.308   4.072   3.598
 9055SOL    HW228065   0.194   4.028   3.706
 9056SOL     OW28066   4.798   0.255   1.833
 9056SOL    HW128067   4.863   0.254   1.756
 9056SOL    HW228068   4.834   0.312   1.907
 9057SOL     OW28069   6.993   4.745   5.956
 9057SOL    HW128070   0.029   4.715   6.037
 9057SOL    HW228071   7.014   4.841   5.937
 9058SOL     OW28072   2.691   1.514   4.000
 9058SOL    HW128073   2.685   1.532   4.098
 9058SOL    HW228074   2.688   1.600   3.950
 9059SOL     OW28075   0.127   0.491   3.309
 9059SOL    HW128076   0.163   0.400   3.289
 9059SOL    HW228077   0.035   0.482   3.347
 9060SOL     OW28078   6.793   3.952   2.722
 9060SOL    HW128079   6.855   4.028   2.744
 9060SOL    HW228080   6.841   3.865   2.736
 9061SOL     OW28081   4.362   5.745   2.847
 9061SOL    HW128082   4.457   5.772   2.861
 9061SOL    HW228083   4.343   5.744   2.749
 9062SOL     OW28084   0.364   4.576   2.466
 9062SOL    HW128085   0.279   4.627   2.457
 9062SOL    HW228086   0.401   4.588   2.558
 9063SOL     OW28087   3.023   0.482   2.085
 9063SOL    HW128088   3.033   0.465   2.183
 9063SOL    HW228089   2.932   0.517   2.066
 9064SOL     OW28090   6.149   4.313   4.190
 9064SOL    HW128091   6.223   4.275   4.245
 9064SOL    HW228092   6.175   4.404   4.158
 9065SOL     OW28093   2.566   5.835   6.242
 9065SOL    HW128094   2.478   5.880   6.225
 9065SOL    HW228095   2.620   5.837   6.158
 9066SOL     OW28096   5.782   0.189   6.091
 9066SOL    HW128097   5.799   0.284   6.067
 9066SOL    HW228098   5.785   0.178   6.190
 9067SOL     OW28099   5.990   6.038   4.351
 9067SOL    HW128100   5.958   5.996   4.436
 9067SOL    HW228101   5.959   6.133   4.348
 9068SOL     OW28102   3.440   0.129   5.304
 9068SOL    HW128103   3.444   0.126   5.404
 9068SOL    HW228104   3.365   0.189   5.275
 9069SOL     OW28105   4.156   2.171   2.505
 9069SOL    HW128106   4.177   2.250   2.563
 9069SOL    HW228107   4.153   2.201   2.409
 9070SOL     OW28108   1.244   2.918   6.432
 9070SOL    HW128109   1.234   2.876   6.342
 9070SOL    HW228110   1.234   2.848   6.503
 9071SOL     OW28111   4.956   6.721   6.642
 9071SOL    HW128112   4.881   6.762   6.591
 9071SOL    HW228113   4.925   6.699   6.734
 9072SOL     OW28114   5.326   6.852   1.533
 9072SOL    HW128115   5.335   6.952   1.533
 9072SOL    HW228116   5.312   6.820   1.439
 9073SOL     OW28117   3.561   6.648   1.395
 9073SOL    HW128118   3.536   6.728   1.449
 9073SOL    HW228119   3.519   6.566   1.434
 9074SOL     OW28120   1.842   0.792   1.508
 9074SOL    HW128121   1.878   0.876   1.469
 9074SOL    HW228122   1.850   0.794   1.608
 9075SOL     OW28123   0.481   0.350   1.896
 9075SOL    HW128124   0.457   0.259   1.929
 9075SOL    HW228125   0.579   0.353   1.876
 9076SOL     OW28126   4.927   1.970   4.333
 9076SOL    HW128127   4.875   2.051   4.305
 9076SOL    HW228128   4.871   1.888   4.320
 9077SOL     OW28129   4.314   1.671   6.566
 9077SOL    HW128130   4.219   1.690   6.592
 9077SOL    HW228131   4.370   1.661   6.649
 9078SOL     OW28132   4.868   4.088   7.009
 9078SOL    HW128133   4.830   4.171   6.969
 9078SOL    HW228134   4.966   4.082   6.987
 9079SOL     OW28135   1.318   6.463   5.174
 9079SOL    HW128136   1.250   6.391   5.161
 9079SOL    HW228137   1.292   6.543   5.119
 9080SOL     OW28138   6.094   2.933   0.244
 9080SOL    HW128139   6.020   2.983   0.290
 9080SOL    HW228140   6.147   2.882   0.311
 9081SOL     OW28141   3.257   0.979   1.755
 9081SOL    HW128142   3.221   1.042   1.686
 9081SOL    HW228143   3.220   0.887   1.738
 9082SOL     OW28144   1.946   6.067   5.309
 9082SOL    HW128145   1.865   6.049   5.254
 9082SOL    HW228146   1.922   6.130   5.384
 9083SOL     OW28147   3.725   4.063   6.127
 9083SOL    HW128148   3.737   4.051   6.028
 9083SOL    HW228149   3.814   4.074   6.170
 9084SOL     OW28150   1.421   2.443   6.508
 9084SOL    HW128151   1.516   2.433   6.480
 9084SOL    HW228152   1.386   2.532   6.477
 9085SOL     OW28153   2.323   5.846   1.128
 9085SOL    HW128154   2.282   5.754   1.123
 9085SOL    HW228155   2.261   5.908   1.175
 9086SOL     OW28156   5.964   3.994   1.351
 9086SOL    HW128157   6.045   3.997   1.410
 9086SOL    HW228158   5.990   4.022   1.258
 9087SOL     OW28159   5.113   3.267   1.966
 9087SOL    HW128160   5.081   3.230   2.053
 9087SOL    HW228161   5.148   3.360   1.980
 9088SOL     OW28162   6.655   6.702   0.854
 9088SOL    HW128163   6.642   6.730   0.758
 9088SOL    HW228164   6.752   6.698   0.875
 9089SOL     OW28165   3.768   5.964   5.554
 9089SOL    HW128166   3.692   5.998   5.610
 9089SOL    HW228167   3.835   6.036   5.541
 9090SOL     OW28168   5.060   0.097   3.323
 9090SOL    HW128169   5.104   0.023   3.272
 9090SOL    HW228170   5.007   0.153   3.260
 9091SOL     OW28171   2.452   3.584   0.526
 9091SOL    HW128172   2.479   3.678   0.505
 9091SOL    HW228173   2.479   3.524   0.451
 9092SOL     OW28174   0.665   1.380   0.072
 9092SOL    HW128175   0.596   1.452   0.081
 9092SOL    HW228176   0.694   1.374   6.992
 9093SOL     OW28177   1.461   6.067   6.799
 9093SOL    HW128178   1.528   6.141   6.810
 9093SOL    HW228179   1.447   6.049   6.701
 9094SOL     OW28180   0.606   5.299   2.834
 9094SOL    HW128181   0.609   5.263   2.741
 9094SOL    HW228182   0.699   5.306   2.870
 9095SOL     OW28183   3.949   3.711   6.293
 9095SOL    HW128184   3.966   3.643   6.363
 9095SOL    HW228185   3.868   3.764   6.317
 9096SOL     OW28186   5.884   3.752   2.512
 9096SOL    HW128187   5.831   3.675   2.547
 9096SOL    HW228188   5.823   3.831   2.498
 9097SOL     OW28189   0.402   3.043   6.644
 9097SOL    HW128190   0.406   3.142   6.640
 9097SOL    HW228191   0.336   3.014   6.713
 9098SOL     OW28192   3.521   2.701   6.687
 9098SOL    HW128193   3.429   2.676   6.658
 9098SOL    HW228194   3.517   2.786   6.739
 9099SOL     OW28195   3.659   3.899   0.703
 9099SOL    HW128196   3.601   3.854   0.771
 9099SOL    HW228197   3.678   3.992   0.732
 9100SOL     OW28198   1.214   3.533   3.151
 9100SOL    HW128199   1.171   3.598   3.088
 9100SOL    HW228200   1.148   3.460   3.172
 9101SOL     OW28201   2.209   2.936   3.272
 9101SOL    HW128202   2.141   2.995   3.228
 9101SOL    HW228203   2.217   2.961   3.369
 9102SOL     OW28204   3.479   6.631   2.045
 9102SOL    HW128205   3.469   6.724   2.081
 9102SOL    HW228206   3.392   6.600   2.006
 9103SOL     OW28207   6.638   3.965   0.227
 9103SOL    HW128208   6.667   3.962   0.131
 9103SOL    HW228209   6.662   3.879   0.272
 9104SOL     OW28210   4.335   6.585   2.941
 9104SOL    HW128211   4.356   6.521   3.014
 9104SOL    HW228212   4.420   6.619   2.901
 9105SOL     OW28213   1.726   1.269   0.820
 9105SOL    HW128214   1.736   1.350   0.763
 9105SOL    HW228215   1.810   1.255   0.873
 9106SOL     OW28216   6.400   4.044   0.046
 9106SOL    HW128217   6.437   4.037   0.139
 9106SOL    HW228218   6.467   4.090   7.002
 9107SOL     OW28219   3.101   0.316   5.870
 9107SOL    HW128220   3.077   0.403   5.911
 9107SOL    HW228221   3.154   0.261   5.934
 9108SOL     OW28222   5.189   3.851   5.915
 9108SOL    HW128223   5.259   3.781   5.933
 9108SOL    HW228224   5.230   3.942   5.923
 9109SOL     OW28225   1.315   2.725   2.886
 9109SOL    HW128226   1.321   2.813   2.840
 9109SOL    HW228227   1.264   2.661   2.828
 9110SOL     OW28228   1.944   4.312   4.145
 9110SOL    HW128229   2.011   4.299   4.073
 9110SOL    HW228230   1.960   4.247   4.219
 9111SOL     OW28231   4.118   3.116   0.162
 9111SOL    HW128232   4.198   3.171   0.186
 9111SOL    HW228233   4.109   3.113   0.062
 9112SOL     OW28234   0.925   4.818   5.229
 9112SOL    HW128235   0.969   4.822   5.139
 9112SOL    HW228236   0.946   4.901   5.280
 9113SOL     OW28237   4.611   6.692   1.405
 9113SOL    HW128238   4.540   6.651   1.348
 9113SOL    HW228239   4.624   6.788   1.377
 9114SOL     OW28240   1.155   4.667   1.537
 9114SOL    HW128241   1.058   4.642   1.536
 9114SOL    HW228242   1.199   4.629   1.619
 9115SOL     OW28243   1.371   4.924   5.423
 9115SOL    HW128244   1.349   5.013   5.463
 9115SOL    HW228245   1.354   4.852   5.490
 9116SOL     OW28246   6.245   1.196   6.977
 9116SOL    HW128247   6.211   1.112   6.935
 9116SOL    HW228248   6.208   1.275   6.928
 9117SOL     OW28249   5.718   2.809   0.338
 9117SOL    HW128250   5.762   2.898   0.336
 9117SOL    HW228251   5.673   2.795   0.426
 9118SOL     OW28252   6.318   5.185   0.154
 9118SOL    HW128253   6.317   5.128   0.072
 9118SOL    HW228254   6.344   5.278   0.129
 9119SOL     OW28255   4.947   0.824   1.558
 9119SOL    HW128256   4.890   0.906   1.556
 9119SOL    HW228257   4.890   0.745   1.582
 9120SOL     OW28258   6.194   2.121   5.652
 9120SOL    HW128259   6.226   2.027   5.659
 9120SOL    HW228260   6.237   2.165   5.573
 9121SOL     OW28261   2.216   2.155   5.888
 9121SOL    HW128262   2.226   2.179   5.791
 9121SOL    HW228263   2.306   2.160   5.933
 9122SOL     OW28264   1.819   4.409   2.131
 9122SOL    HW128265   1.839   4.341   2.202
 9122SOL    HW228266   1.799   4.497   2.174
 9123SOL     OW28267   3.410   0.267   4.405
 9123SOL    HW128268   3.459   0.352   4.384
 9123SOL    HW228269   3.462   0.189   4.369
 9124SOL     OW28270   5.279   6.555   6.543
 9124SOL    HW128271   5.303   6.541   6.447
 9124SOL    HW228272   5.198   6.502   6.566
 9125SOL     OW28273   5.312   4.459   1.657
 9125SOL    HW128274   5.367   4.377   1.639
 9125SOL    HW228275   5.229   4.457   1.601
 9126SOL     OW28276   5.985   2.596   1.351
 9126SOL    HW128277   5.924   2.517   1.356
 9126SOL    HW228278   6.031   2.597   1.262
 9127SOL     OW28279   6.723   1.355   6.201
 9127SOL    HW128280   6.634   1.386   6.168
 9127SOL    HW228281   6.720   1.344   6.300
 9128SOL     OW28282   5.235   1.551   5.249
 9128SOL    HW128283   5.164   1.614   5.277
 9128SOL    HW228284   5.239   1.547   5.149
 9129SOL     OW28285   0.176   2.325   0.800
 9129SOL    HW128286   0.268   2.364   0.802
 9129SOL    HW228287   0.183   2.226   0.782
 9130SOL     OW28288   0.077   3.453   0.888
 9130SOL    HW128289   0.112   3.537   0.930
 9130SOL    HW228290   0.118   3.442   0.798
 9131SOL     OW28291   6.426   2.760   5.299
 9131SOL    HW128292   6.460   2.850   5.325
 9131SOL    HW228293   6.362   2.769   5.223
 9132SOL     OW28294   0.700   5.204   4.432
 9132SOL    HW128295   0.695   5.253   4.345
 9132SOL    HW228296   0.768   5.131   4.425
 9133SOL     OW28297   3.847   5.749   2.223
 9133SOL    HW128298   3.824   5.812   2.149
 9133SOL    HW228299   3.785   5.671   2.222
 9134SOL     OW28300   5.032   5.618   0.275
 9134SOL    HW128301   5.021   5.696   0.336
 9134SOL    HW228302   4.966   5.547   0.299
 9135SOL     OW28303   6.654   6.912   1.511
 9135SOL    HW128304   6.753   6.912   1.525
 9135SOL    HW228305   6.608   6.897   1.599
 9136SOL     OW28306   5.539   5.261   5.836
 9136SOL    HW128307   5.494   5.223   5.754
 9136SOL    HW228308   5.488   5.341   5.867
 9137SOL     OW28309   4.962   1.749   1.459
 9137SOL    HW128310   5.036   1.809   1.430
 9137SOL    HW228311   4.935   1.689   1.383
 9138SOL     OW28312   0.409   5.580   6.069
 9138SOL    HW128313   0.367   5.634   5.995
 9138SOL    HW228314   0.391   5.624   6.157
 9139SOL     OW28315   2.559   1.512   4.742
 9139SOL    HW128316   2.529   1.449   4.670
 9139SOL    HW228317   2.573   1.461   4.827
 9140SOL     OW28318   6.275   3.488   3.024
 9140SOL    HW128319   6.222   3.436   3.091
 9140SOL    HW228320   6.310   3.427   2.953
 9141SOL     OW28321   5.753   0.473   6.987
 9141SOL    HW128322   5.742   0.422   6.902
 9141SOL    HW228323   5.760   0.410   0.049
 9142SOL     OW28324   0.284   2.612   1.281
 9142SOL    HW128325   0.214   2.541   1.275
 9142SOL    HW228326   0.369   2.572   1.316
 9143SOL     OW28327   6.552   3.241   0.593
 9143SOL    HW128328   6.561   3.329   0.639
 9143SOL    HW228329   6.598   3.171   0.647
 9144SOL     OW28330   2.457   5.206   5.484
 9144SOL    HW128331   2.523   5.231   5.554
 9144SOL    HW228332   2.470   5.265   5.404
 9145SOL     OW28333   0.287   5.513   0.096
 9145SOL    HW128334   0.287   5.552   0.004
 9145SOL    HW228335   0.244   5.578   0.159
 9146SOL     OW28336   5.475   3.210   2.843
 9146SOL    HW128337   5.522   3.125   2.818
 9146SOL    HW228338   5.520   3.250   2.923
 9147SOL     OW28339   6.222   0.758   4.559
 9147SOL    HW128340   6.321   0.759   4.570
 9147SOL    HW228341   6.185   0.848   4.580
 9148SOL     OW28342   4.882   5.569   0.657
 9148SOL    HW128343   4.918   5.625   0.731
 9148SOL    HW228344   4.783   5.580   0.652
 9149SOL     OW28345   5.807   3.866   3.466
 9149SOL    HW128346   5.771   3.839   3.377
 9149SOL    HW228347   5.739   3.848   3.537
 9150SOL     OW28348   3.296   5.283   1.704
 9150SOL    HW128349   3.224   5.261   1.770
 9150SOL    HW228350   3.269   5.251   1.613
 9151SOL     OW28351   1.889   4.405   3.783
 9151SOL    HW128352   1.920   4.427   3.690
 9151SOL    HW228353   1.969   4.387   3.841
 9152SOL     OW28354   1.966   4.346   4.838
 9152SOL    HW128355   1.891   4.403   4.871
 9152SOL    HW228356   2.003   4.293   4.914
 9153SOL     OW28357   1.443   3.457   0.091
 9153SOL    HW128358   1.508   3.504   0.031
 9153SOL    HW228359   1.446   3.359   0.074
 9154SOL     OW28360   4.279   4.452   6.244
 9154SOL    HW128361   4.312   4.465   6.337
 9154SOL    HW228362   4.266   4.354   6.226
 9155SOL     OW28363   1.643   4.146   2.024
 9155SOL    HW128364   1.732   4.116   1.990
 9155SOL    HW228365   1.577   4.146   1.949
 9156SOL     OW28366   1.542   2.410   0.641
 9156SOL    HW128367   1.566   2.314   0.653
 9156SOL    HW228368   1.490   2.422   0.557
 9157SOL     OW28369   0.014   4.303   5.989
 9157SOL    HW128370   6.990   4.385   5.947
 9157SOL    HW228371   7.000   4.222   5.938
 9158SOL     OW28372   5.683   2.970   4.544
 9158SOL    HW128373   5.608   3.021   4.585
 9158SOL    HW228374   5.709   2.894   4.604
 9159SOL     OW28375   1.694   0.829   2.117
 9159SOL    HW128376   1.739   0.906   2.073
 9159SOL    HW228377   1.754   0.791   2.187
 9160SOL     OW28378   5.755   6.748   5.118
 9160SOL    HW128379   5.770   6.846   5.117
 9160SOL    HW228380   5.799   6.707   5.038
 9161SOL     OW28381   4.980   4.127   4.748
 9161SOL    HW128382   4.983   4.131   4.648
 9161SOL    HW228383   4.905   4.185   4.781
 9162SOL     OW28384   4.389   1.509   4.036
 9162SOL    HW128385   4.333   1.567   3.978
 9162SOL    HW228386   4.473   1.557   4.061
 9163SOL     OW28387   1.516   2.658   4.330
 9163SOL    HW128388   1.606   2.619   4.349
 9163SOL    HW228389   1.514   2.694   4.236
 9164SOL     OW28390   2.212   0.341   6.939
 9164SOL    HW128391   2.237   0.318   0.018
 9164SOL    HW228392   2.136   0.284   6.910
 9165SOL     OW28393   6.074   1.770   5.890
 9165SOL    HW128394   6.039   1.683   5.854
 9165SOL    HW228395   6.151   1.800   5.833
 9166SOL     OW28396   3.844   5.914   1.978
 9166SOL    HW128397   3.936   5.874   1.978
 9166SOL    HW228398   3.816   5.932   1.884
 9167SOL     OW28399   1.943   2.470   6.354
 9167SOL    HW128400   1.946   2.514   6.265
 9167SOL    HW228401   2.036   2.454   6.387
 9168SOL     OW28402   0.018   6.865   6.525
 9168SOL    HW128403   6.970   6.828   6.457
 9168SOL    HW228404   0.092   6.800   6.540
 9169SOL     OW28405   5.820   0.019   5.103
 9169SOL    HW128406   5.794   0.087   5.034
 9169SOL    HW228407   5.914   0.036   5.132
 9170SOL     OW28408   1.563   5.992   0.022
 9170SOL    HW128409   1.507   5.997   6.954
 9170SOL    HW228410   1.506   5.965   0.099
 9171SOL     OW28411   3.940   4.963   0.808
 9171SOL    HW128412   3.849   4.992   0.779
 9171SOL    HW228413   4.009   5.016   0.759
 9172SOL     OW28414   4.147   0.943   2.195
 9172SOL    HW128415   4.121   0.858   2.241
 9172SOL    HW228416   4.097   1.019   2.236
 9173SOL     OW28417   6.479   3.591   6.268
 9173SOL    HW128418   6.451   3.501   6.232
 9173SOL    HW228419   6.455   3.662   6.202
 9174SOL     OW28420   5.883   4.360   1.165
 9174SOL    HW128421   5.785   4.345   1.152
 9174SOL    HW228422   5.926   4.275   1.195
 9175SOL     OW28423   0.329   6.970   5.603
 9175SOL    HW128424   0.384   6.920   5.669
 9175SOL    HW228425   0.281   0.030   5.649
 9176SOL     OW28426   2.407   1.059   3.810
 9176SOL    HW128427   2.352   1.072   3.892
 9176SOL    HW228428   2.499   1.093   3.827
 9177SOL     OW28429   0.600   4.709   4.688
 9177SOL    HW128430   0.604   4.770   4.767
 9177SOL    HW228431   0.676   4.644   4.692
 9178SOL     OW28432   1.658   5.532   0.494
 9178SOL    HW128433   1.580   5.469   0.502
 9178SOL    HW228434   1.711   5.530   0.579
 9179SOL     OW28435   2.247   4.173   3.532
 9179SOL    HW128436   2.204   4.137   3.614
 9179SOL    HW228437   2.326   4.229   3.557
 9180SOL     OW28438   6.554   2.887   3.256
 9180SOL    HW128439   6.597   2.928   3.336
 9180SOL    HW228440   6.513   2.799   3.283
 9181SOL     OW28441   5.208   2.584   5.193
 9181SOL    HW128442   5.122   2.631   5.210
 9181SOL    HW228443   5.242   2.544   5.278
 9182SOL     OW28444   3.003   6.481   2.139
 9182SOL    HW128445   3.069   6.529   2.196
 9182SOL    HW228446   3.049   6.411   2.085
 9183SOL     OW28447   4.849   5.026   0.255
 9183SOL    HW128448   4.764   5.041   0.203
 9183SOL    HW228449   4.859   4.928   0.274
 9184SOL     OW28450   4.760   2.197   0.324
 9184SOL    HW128451   4.736   2.113   0.374
 9184SOL    HW228452   4.762   2.274   0.388
 9185SOL     OW28453   5.097   0.035   4.919
 9185SOL    HW128454   5.157   0.010   4.844
 9185SOL    HW228455   5.007   0.059   4.883
 9186SOL     OW28456   5.689   6.243   4.693
 9186SOL    HW128457   5.698   6.222   4.596
 9186SOL    HW228458   5.620   6.184   4.734
 9187SOL     OW28459   2.711   1.928   0.528
 9187SOL    HW128460   2.703   1.971   0.438
 9187SOL    HW228461   2.622   1.893   0.557
 9188SOL     OW28462   1.492   6.779   0.840
 9188SOL    HW128463   1.558   6.801   0.911
 9188SOL    HW228464   1.505   6.840   0.762
 9189SOL     OW28465   2.681   6.003   1.669
 9189SOL    HW128466   2.662   6.098   1.644
 9189SOL    HW228467   2.642   5.984   1.759
 9190SOL     OW28468   2.127   4.793   5.380
 9190SOL    HW128469   2.087   4.729   5.314
 9190SOL    HW228470   2.131   4.884   5.341
 9191SOL     OW28471   6.445   1.775   6.431
 9191SOL    HW128472   6.398   1.863   6.432
 9191SOL    HW228473   6.538   1.786   6.468
 9192SOL     OW28474   0.991   2.435   6.339
 9192SOL    HW128475   1.031   2.449   6.429
 9192SOL    HW228476   1.063   2.443   6.269
 9193SOL     OW28477   3.482   4.246   6.033
 9193SOL    HW128478   3.562   4.197   5.997
 9193SOL    HW228479   3.422   4.182   6.081
 9194SOL     OW28480   3.430   1.012   3.685
 9194SOL    HW128481   3.440   0.917   3.714
 9194SOL    HW228482   3.334   1.030   3.662
 9195SOL     OW28483   0.994   2.003   3.079
 9195SOL    HW128484   0.979   1.922   3.022
 9195SOL    HW228485   0.912   2.060   3.078
 9196SOL     OW28486   5.875   0.098   2.932
 9196SOL    HW128487   5.854   0.152   3.013
 9196SOL    HW228488   5.804   0.029   2.919
 9197SOL     OW28489   1.795   5.037   1.587
 9197SOL    HW128490   1.847   5.078   1.512
 9197SOL    HW228491   1.832   4.946   1.606
 9198SOL     OW28492   6.263   4.908   6.908
 9198SOL    HW128493   6.315   4.852   6.844
 9198SOL    HW228494   6.166   4.905   6.883
 9199SOL     OW28495   0.847   3.612   4.988
 9199SOL    HW128496   0.764   3.598   5.041
 9199SOL    HW228497   0.842   3.558   4.904
 9200SOL     OW28498   3.061   6.043   6.809
 9200SOL    HW128499   2.982   6.087   6.851
 9200SOL    HW228500   3.112   5.992   6.878
 9201SOL     OW28501   0.120   3.478   0.586
 9201SOL    HW128502   0.170   3.504   0.504
 9201SOL    HW228503   0.066   3.555   0.619
 9202SOL     OW28504   0.916   6.514   2.539
 9202SOL    HW128505   0.952   6.474   2.455
 9202SOL    HW228506   0.986   6.570   2.583
 9203SOL     OW28507   0.166   3.590   5.638
 9203SOL    HW128508   0.125   3.682   5.642
 9203SOL    HW228509   0.231   3.579   5.713
 9204SOL     OW28510   4.739   2.962   5.593
 9204SOL    HW128511   4.818   3.009   5.554
 9204SOL    HW228512   4.658   3.020   5.585
 9205SOL     OW28513   5.222   6.156   3.321
 9205SOL    HW128514   5.135   6.205   3.319
 9205SOL    HW228515   5.259   6.150   3.228
 9206SOL     OW28516   3.345   5.016   3.691
 9206SOL    HW128517   3.288   5.089   3.729
 9206SOL    HW228518   3.334   5.013   3.592
 9207SOL     OW28519   4.939   4.810   5.829
 9207SOL    HW128520   4.985   4.751   5.763
 9207SOL    HW228521   4.851   4.839   5.791
 9208SOL     OW28522   5.942   4.860   3.875
 9208SOL    HW128523   5.955   4.956   3.898
 9208SOL    HW228524   5.990   4.839   3.789
 9209SOL     OW28525   4.233   0.512   0.280
 9209SOL    HW128526   4.190   0.538   0.367
 9209SOL    HW228527   4.204   0.576   0.209
 9210SOL     OW28528   0.358   1.428   2.032
 9210SOL    HW128529   0.298   1.493   2.079
 9210SOL    HW228530   0.438   1.477   1.996
 9211SOL     OW28531   6.680   2.723   6.229
 9211SOL    HW128532   6.640   2.814   6.217
 9211SOL    HW228533   6.714   2.690   6.141
 9212SOL     OW28534   4.552   5.484   4.054
 9212SOL    HW128535   4.572   5.515   4.147
 9212SOL    HW228536   4.456   5.458   4.046
 9213SOL     OW28537   5.509   3.835   5.012
 9213SOL    HW128538   5.578   3.772   4.977
 9213SOL    HW228539   5.443   3.785   5.069
 9214SOL     OW28540   6.900   4.074   5.933
 9214SOL    HW128541   6.840   4.122   5.869
 9214SOL    HW228542   6.883   3.976   5.927
 9215SOL     OW28543   1.645   3.016   1.975
 9215SOL    HW128544   1.651   3.105   1.929
 9215SOL    HW228545   1.668   2.943   1.910
 9216SOL     OW28546   3.728   0.197   2.380
 9216SOL    HW128547   3.818   0.162   2.352
 9216SOL    HW228548   3.663   0.183   2.306
 9217SOL     OW28549   6.946   3.058   6.732
 9217SOL    HW128550   6.874   3.106   6.782
 9217SOL    HW228551   6.950   3.092   6.638
 9218SOL     OW28552   2.139   1.102   0.038
 9218SOL    HW128553   2.063   1.038   0.051
 9218SOL    HW228554   2.121   1.186   0.090
 9219SOL     OW28555   6.020   3.491   0.493
 9219SOL    HW128556   6.042   3.427   0.420
 9219SOL    HW228557   6.090   3.487   0.564
 9220SOL     OW28558   1.210   6.325   1.609
 9220SOL    HW128559   1.219   6.350   1.706
 9220SOL    HW228560   1.172   6.403   1.559
 9221SOL     OW28561   2.548   0.641   3.340
 9221SOL    HW128562   2.622   0.650   3.274
 9221SOL    HW228563   2.465   0.609   3.293
 9222SOL     OW28564   2.611   6.351   6.207
 9222SOL    HW128565   2.701   6.310   6.187
 9222SOL    HW228566   2.545   6.320   6.139
 9223SOL     OW28567   0.686   2.184   3.738
 9223SOL    HW128568   0.778   2.220   3.751
 9223SOL    HW228569   0.687   2.085   3.752
 9224SOL     OW28570   0.954   5.285   4.178
 9224SOL    HW128571   0.935   5.228   4.099
 9224SOL    HW228572   1.052   5.308   4.179
 9225SOL     OW28573   2.708   5.991   6.471
 9225SOL    HW128574   2.638   5.944   6.417
 9225SOL    HW228575   2.665   6.056   6.534
 9226SOL     OW28576   6.306   6.793   2.051
 9226SOL    HW128577   6.348   6.744   2.127
 9226SOL    HW228578   6.227   6.845   2.085
 9227SOL     OW28579   1.776   5.637   0.779
 9227SOL    HW128580   1.849   5.583   0.737
 9227SOL    HW228581   1.772   5.618   0.877
 9228SOL     OW28582   1.875   1.722   5.993
 9228SOL    HW128583   1.949   1.788   6.010
 9228SOL    HW228584   1.913   1.639   5.952
 9229SOL     OW28585   1.008   5.741   5.197
 9229SOL    HW128586   0.962   5.706   5.278
 9229SOL    HW228587   0.993   5.840   5.190
 9230SOL     OW28588   5.496   2.754   2.863
 9230SOL    HW128589   5.426   2.709   2.919
 9230SOL    HW228590   5.587   2.729   2.896
 9231SOL     OW28591   0.635   3.068   4.801
 9231SOL    HW128592   0.582   2.984   4.815
 9231SOL    HW228593   0.584   3.147   4.834
 9232SOL     OW28594   3.976   5.368   0.577
 9232SOL    HW128595   4.008   5.431   0.506
 9232SOL    HW228596   3.995   5.407   0.667
 9233SOL     OW28597   5.789   5.440   1.739
 9233SOL    HW128598   5.798   5.361   1.800
 9233SOL    HW228599   5.767   5.522   1.793
 9234SOL     OW28600   3.476   5.909   6.550
 9234SOL    HW128601   3.392   5.865   6.580
 9234SOL    HW228602   3.520   5.853   6.480
 9235SOL     OW28603   1.589   3.160   2.851
 9235SOL    HW128604   1.551   3.239   2.898
 9235SOL    HW228605   1.622   3.093   2.918
 9236SOL     OW28606   2.093   4.481   5.795
 9236SOL    HW128607   2.141   4.512   5.714
 9236SOL    HW228608   2.148   4.498   5.877
 9237SOL     OW28609   1.181   5.909   4.305
 9237SOL    HW128610   1.271   5.885   4.270
 9237SOL    HW228611   1.112   5.848   4.265
 9238SOL     OW28612   2.676   1.766   0.101
 9238SOL    HW128613   2.695   1.848   0.047
 9238SOL    HW228614   2.759   1.737   0.149
 9239SOL     OW28615   6.882   4.145   7.012
 9239SOL    HW128616   6.942   4.131   6.933
 9239SOL    HW228617   6.788   4.126   6.987
 9240SOL     OW28618   4.680   1.661   1.561
 9240SOL    HW128619   4.657   1.704   1.474
 9240SOL    HW228620   4.670   1.561   1.552
 9241SOL     OW28621   0.742   5.407   5.869
 9241SOL    HW128622   0.690   5.406   5.954
 9241SOL    HW228623   0.683   5.377   5.794
 9242SOL     OW28624   0.944   5.032   0.004
 9242SOL    HW128625   0.865   5.022   0.064
 9242SOL    HW228626   0.973   5.128   0.003
 9243SOL     OW28627   6.880   6.499   1.437
 9243SOL    HW128628   6.810   6.485   1.507
 9243SOL    HW228629   6.836   6.523   1.350
 9244SOL     OW28630   4.179   5.380   6.434
 9244SOL    HW128631   4.124   5.396   6.351
 9244SOL    HW228632   4.243   5.456   6.446
 9245SOL     OW28633   1.713   4.678   2.848
 9245SOL    HW128634   1.677   4.596   2.893
 9245SOL    HW228635   1.748   4.653   2.758
 9246SOL     OW28636   0.034   5.444   2.346
 9246SOL    HW128637   0.092   5.366   2.323
 9246SOL    HW228638   7.003   5.427   2.433
 9247SOL     OW28639   0.920   0.090   2.845
 9247SOL    HW128640   0.881   0.049   2.928
 9247SOL    HW228641   0.974   0.170   2.870
 9248SOL     OW28642   2.297   1.867   4.740
 9248SOL    HW128643   2.271   1.782   4.694
 9248SOL    HW228644   2.337   1.846   4.829
 9249SOL     OW28645   3.589   3.628   0.222
 9249SOL    HW128646   3.633   3.712   0.189
 9249SOL    HW228647   3.622   3.609   0.315
 9250SOL     OW28648   5.478   3.117   3.532
 9250SOL    HW128649   5.391   3.160   3.510
 9250SOL    HW228650   5.467   3.059   3.613
 9251SOL     OW28651   3.629   1.885   2.620
 9251SOL    HW128652   3.704   1.820   2.633
 9251SOL    HW228653   3.652   1.972   2.665
 9252SOL     OW28654   5.076   0.266   3.992
 9252SOL    HW128655   5.129   0.234   4.070
 9252SOL    HW228656   5.044   0.188   3.938
 9253SOL     OW28657   5.506   6.250   5.065
 9253SOL    HW128658   5.596   6.221   5.097
 9253SOL    HW228659   5.506   6.349   5.053
 9254SOL     OW28660   6.811   4.524   2.988
 9254SOL    HW128661   6.867   4.504   2.908
 9254SOL    HW228662   6.752   4.445   3.008
 9255SOL     OW28663   4.599   3.686   0.096
 9255SOL    HW128664   4.677   3.747   0.083
 9255SOL    HW228665   4.631   3.601   0.138
 9256SOL     OW28666   3.572   0.089   2.586
 9256SOL    HW128667   3.617   0.005   2.617
 9256SOL    HW228668   3.615   0.122   2.502
 9257SOL     OW28669   0.042   3.559   3.194
 9257SOL    HW128670   0.081   3.648   3.171
 9257SOL    HW228671   6.959   3.569   3.210
 9258SOL     OW28672   3.153   3.046   3.049
 9258SOL    HW128673   3.096   2.980   2.999
 9258SOL    HW228674   3.131   3.139   3.019
 9259SOL     OW28675   1.086   2.502   0.721
 9259SOL    HW128676   1.184   2.493   0.739
 9259SOL    HW228677   1.054   2.590   0.755
 9260SOL     OW28678   5.543   1.545   4.762
 9260SOL    HW128679   5.451   1.533   4.723
 9260SOL    HW228680   5.611   1.510   4.697
 9261SOL     OW28681   3.812   0.463   0.241
 9261SOL    HW128682   3.721   0.470   0.283
 9261SOL    HW228683   3.879   0.436   0.311
 9262SOL     OW28684   6.987   4.187   5.610
 9262SOL    HW128685   7.011   4.284   5.616
 9262SOL    HW228686   0.039   4.139   5.554
 9263SOL     OW28687   5.225   6.527   0.944
 9263SOL    HW128688   5.285   6.515   1.023
 9263SOL    HW228689   5.270   6.493   0.862
 9264SOL     OW28690   4.601   4.973   0.096
 9264SOL    HW128691   4.668   4.901   0.074
 9264SOL    HW228692   4.516   4.954   0.047
 9265SOL     OW28693   3.967   2.070   0.151
 9265SOL    HW128694   3.974   2.090   0.249
 9265SOL    HW228695   3.885   2.115   0.114
 9266SOL     OW28696   2.338   0.042   1.567
 9266SOL    HW128697   2.330   0.084   1.657
 9266SOL    HW228698   2.247   0.035   1.526
 9267SOL     OW28699   6.396   2.704   4.821
 9267SOL    HW128700   6.460   2.663   4.756
 9267SOL    HW228701   6.383   2.800   4.799
 9268SOL     OW28702   1.220   5.438   2.030
 9268SOL    HW128703   1.252   5.388   1.950
 9268SOL    HW228704   1.140   5.392   2.068
 9269SOL     OW28705   3.174   1.217   6.123
 9269SOL    HW128706   3.084   1.219   6.080
 9269SOL    HW228707   3.191   1.305   6.169
 9270SOL     OW28708   4.110   6.240   5.881
 9270SOL    HW128709   4.135   6.200   5.969
 9270SOL    HW228710   4.011   6.246   5.874
 9271SOL     OW28711   6.417   0.014   0.169
 9271SOL    HW128712   6.338   0.016   0.108
 9271SOL    HW228713   6.436   6.934   0.195
 9272SOL     OW28714   1.215   5.591   4.350
 9272SOL    HW128715   1.155   5.659   4.309
 9272SOL    HW228716   1.236   5.617   4.444
 9273SOL     OW28717   6.131   6.364   3.791
 9273SOL    HW128718   6.223   6.398   3.772
 9273SOL    HW228719   6.126   6.267   3.770
 9274SOL     OW28720   6.721   2.432   6.737
 9274SOL    HW128721   6.776   2.503   6.692
 9274SOL    HW228722   6.626   2.463   6.745
 9275SOL     OW28723   0.034   1.356   6.927
 9275SOL    HW128724   0.006   1.265   6.898
 9275SOL    HW228725   0.001   1.424   6.861
 9276SOL     OW28726   2.034   3.874   1.860
 9276SOL    HW128727   2.103   3.844   1.794
 9276SOL    HW228728   1.983   3.795   1.893
 9277SOL     OW28729   4.885   3.346   6.770
 9277SOL    HW128730   4.791   3.372   6.747
 9277SOL    HW228731   4.945   3.427   6.764
 9278SOL     OW28732   1.494   0.486   5.928
 9278SOL    HW128733   1.534   0.396   5.942
 9278SOL    HW228734   1.423   0.503   5.996
 9279SOL     OW28735   4.391   0.522   1.520
 9279SOL    HW128736   4.364   0.614   1.546
 9279SOL    HW228737   4.412   0.469   1.602
 9280SOL     OW28738   2.174   1.964   3.538
 9280SOL    HW128739   2.227   2.041   3.504
 9280SOL    HW228740   2.225   1.879   3.524
 9281SOL     OW28741   2.566   4.559   0.465
 9281SOL    HW128742   2.664   4.564   0.483
 9281SOL    HW228743   2.516   4.599   0.541
 9282SOL     OW28744   4.632   1.387   4.178
 9282SOL    HW128745   4.582   1.331   4.243
 9282SOL    HW228746   4.704   1.437   4.225
 9283SOL     OW28747   5.386   0.668   3.661
 9283SOL    HW128748   5.306   0.713   3.701
 9283SOL    HW228749   5.385   0.680   3.562
 9284SOL     OW28750   3.560   3.351   5.735
 9284SOL    HW128751   3.548   3.450   5.736
 9284SOL    HW228752   3.658   3.330   5.732
 9285SOL     OW28753   5.022   2.953   1.026
 9285SOL    HW128754   5.083   2.875   1.041
 9285SOL    HW228755   4.985   2.948   0.933
 9286SOL     OW28756   5.409   5.671   0.487
 9286SOL    HW128757   5.508   5.684   0.497
 9286SOL    HW228758   5.365   5.683   0.576
 9287SOL     OW28759   3.522   4.824   6.564
 9287SOL    HW128760   3.496   4.910   6.609
 9287SOL    HW228761   3.484   4.747   6.617
 9288SOL     OW28762   4.911   1.236   3.955
 9288SOL    HW128763   4.857   1.154   3.940
 9288SOL    HW228764   4.856   1.317   3.934
 9289SOL     OW28765   3.955   1.165   2.261
 9289SOL    HW128766   3.956   1.174   2.361
 9289SOL    HW228767   3.894   1.090   2.236
 9290SOL     OW28768   5.209   1.341   3.112
 9290SOL    HW128769   5.119   1.299   3.120
 9290SOL    HW228770   5.277   1.271   3.091
 9291SOL     OW28771   1.696   6.312   4.271
 9291SOL    HW128772   1.794   6.330   4.262
 9291SOL    HW228773   1.676   6.219   4.240
 9292SOL     OW28774   0.823   3.460   0.062
 9292SOL    HW128775   0.922   3.457   0.048
 9292SOL    HW228776   0.803   3.449   0.159
 9293SOL     OW28777   5.251   3.679   6.931
 9293SOL    HW128778   5.323   3.643   6.873
 9293SOL    HW228779   5.162   3.658   6.891
 9294SOL     OW28780   4.268   0.429   5.466
 9294SOL    HW128781   4.320   0.380   5.395
 9294SOL    HW228782   4.331   0.482   5.522
 9295SOL     OW28783   5.767   2.407   4.165
 9295SOL    HW128784   5.680   2.456   4.161
 9295SOL    HW228785   5.833   2.460   4.217
 9296SOL     OW28786   0.817   6.616   0.035
 9296SOL    HW128787   0.856   6.588   0.122
 9296SOL    HW228788   0.761   6.542   7.013
 9297SOL     OW28789   6.511   0.462   0.770
 9297SOL    HW128790   6.533   0.401   0.694
 9297SOL    HW228791   6.585   0.527   0.785
 9298SOL     OW28792   0.733   0.424   5.330
 9298SOL    HW128793   0.696   0.370   5.255
 9298SOL    HW228794   0.815   0.472   5.300
 9299SOL     OW28795   0.520   2.712   5.301
 9299SOL    HW128796   0.463   2.780   5.254
 9299SOL    HW228797   0.462   2.638   5.336
 9300SOL     OW28798   0.768   4.649   5.663
 9300SOL    HW128799   0.736   4.648   5.757
 9300SOL    HW228800   0.847   4.588   5.653
 9301SOL     OW28801   4.908   4.720   3.751
 9301SOL    HW128802   4.852   4.799   3.776
 9301SOL    HW228803   4.893   4.697   3.655
 9302SOL     OW28804   2.132   3.119   3.948
 9302SOL    HW128805   2.048   3.082   3.909
 9302SOL    HW228806   2.132   3.219   3.940
 9303SOL     OW28807   2.412   4.661   0.675
 9303SOL    HW128808   2.356   4.744   0.670
 9303SOL    HW228809   2.495   4.681   0.727
 9304SOL     OW28810   4.330   5.022   2.132
 9304SOL    HW128811   4.426   5.049   2.146
 9304SOL    HW228812   4.297   5.061   2.046
 9305SOL     OW28813   3.508   1.275   0.594
 9305SOL    HW128814   3.465   1.253   0.507
 9305SOL    HW228815   3.490   1.202   0.660
 9306SOL     OW28816   0.000   4.979   4.538
 9306SOL    HW128817   6.944   5.047   4.551
 9306SOL    HW228818   0.087   5.025   4.517
 9307SOL     OW28819   2.002   3.621   1.903
 9307SOL    HW128820   1.969   3.580   1.818
 9307SOL    HW228821   2.083   3.571   1.935
 9308SOL     OW28822   1.969   3.556   0.643
 9308SOL    HW128823   2.056   3.562   0.594
 9308SOL    HW228824   1.895   3.539   0.577
 9309SOL     OW28825   3.330   4.492   5.948
 9309SOL    HW128826   3.415   4.539   5.926
 9309SOL    HW228827   3.342   4.393   5.938
 9310SOL     OW28828   4.598   5.290   6.619
 9310SOL    HW128829   4.603   5.287   6.718
 9310SOL    HW228830   4.679   5.246   6.580
 9311SOL     OW28831   4.164   5.148   2.301
 9311SOL    HW128832   4.084   5.138   2.241
 9311SOL    HW228833   4.241   5.099   2.262
 9312SOL     OW28834   1.370   3.769   1.211
 9312SOL    HW128835   1.295   3.715   1.251
 9312SOL    HW228836   1.371   3.860   1.251
 9313SOL     OW28837   0.571   1.015   1.161
 9313SOL    HW128838   0.671   1.011   1.170
 9313SOL    HW228839   0.536   0.925   1.139
 9314SOL     OW28840   4.830   5.200   6.494
 9314SOL    HW128841   4.925   5.215   6.521
 9314SOL    HW228842   4.827   5.138   6.415
 9315SOL     OW28843   5.854   0.816   5.251
 9315SOL    HW128844   5.827   0.720   5.246
 9315SOL    HW228845   5.947   0.823   5.288
 9316SOL     OW28846   4.474   5.849   5.188
 9316SOL    HW128847   4.458   5.855   5.287
 9316SOL    HW228848   4.571   5.838   5.171
 9317SOL     OW28849   5.347   5.230   3.288
 9317SOL    HW128850   5.349   5.133   3.313
 9317SOL    HW228851   5.440   5.264   3.275
 9318SOL     OW28852   5.921   0.799   5.789
 9318SOL    HW128853   5.843   0.856   5.814
 9318SOL    HW228854   6.006   0.845   5.814
 9319SOL     OW28855   2.012   2.679   0.168
 9319SOL    HW128856   1.977   2.736   0.094
 9319SOL    HW228857   2.093   2.721   0.208
 9320SOL     OW28858   3.830   0.148   4.967
 9320SOL    HW128859   3.853   0.202   4.886
 9320SOL    HW228860   3.739   0.176   5.000
 9321SOL     OW28861   6.952   0.490   3.517
 9321SOL    HW128862   6.877   0.450   3.569
 9321SOL    HW228863   6.950   0.589   3.526
 9322SOL     OW28864   0.352   4.161   6.982
 9322SOL    HW128865   0.407   4.092   6.935
 9322SOL    HW228866   0.364   4.151   0.066
 9323SOL     OW28867   1.087   0.839   5.570
 9323SOL    HW128868   0.995   0.877   5.557
 9323SOL    HW228869   1.085   0.741   5.553
 9324SOL     OW28870   0.984   4.430   0.731
 9324SOL    HW128871   0.904   4.410   0.673
 9324SOL    HW228872   1.064   4.445   0.673
 9325SOL     OW28873   5.677   0.189   0.534
 9325SOL    HW128874   5.727   0.262   0.581
 9325SOL    HW228875   5.579   0.208   0.537
 9326SOL     OW28876   2.269   5.342   0.166
 9326SOL    HW128877   2.195   5.279   0.145
 9326SOL    HW228878   2.265   5.420   0.103
 9327SOL     OW28879   5.233   0.956   2.890
 9327SOL    HW128880   5.256   1.040   2.842
 9327SOL    HW228881   5.308   0.890   2.882
 9328SOL     OW28882   2.624   0.955   5.088
 9328SOL    HW128883   2.651   0.986   4.997
 9328SOL    HW228884   2.693   0.981   5.155
 9329SOL     OW28885   5.961   3.756   1.220
 9329SOL    HW128886   5.925   3.842   1.257
 9329SOL    HW228887   6.015   3.709   1.290
 9330SOL     OW28888   6.279   6.964   6.173
 9330SOL    HW128889   6.356   7.015   6.135
 9330SOL    HW228890   6.195   6.992   6.126
 9331SOL     OW28891   2.626   1.207   0.385
 9331SOL    HW128892   2.625   1.161   0.296
 9331SOL    HW228893   2.613   1.305   0.372
 9332SOL     OW28894   4.166   4.217   1.451
 9332SOL    HW128895   4.081   4.164   1.457
 9332SOL    HW228896   4.184   4.240   1.355
 9333SOL     OW28897   4.217   3.879   0.065
 9333SOL    HW128898   4.130   3.921   0.037
 9333SOL    HW228899   4.199   3.795   0.116
 9334SOL     OW28900   5.994   6.246   3.425
 9334SOL    HW128901   6.007   6.152   3.393
 9334SOL    HW228902   5.951   6.301   3.353
 9335SOL     OW28903   1.018   1.308   6.835
 9335SOL    HW128904   0.994   1.400   6.867
 9335SOL    HW228905   1.058   1.315   6.743
 9336SOL     OW28906   3.022   5.727   5.696
 9336SOL    HW128907   3.058   5.808   5.742
 9336SOL    HW228908   2.938   5.753   5.646
 9337SOL     OW28909   4.055   1.922   4.814
 9337SOL    HW128910   4.100   1.935   4.902
 9337SOL    HW228911   3.973   1.866   4.825
 9338SOL     OW28912   5.143   0.436   1.818
 9338SOL    HW128913   5.084   0.468   1.892
 9338SOL    HW228914   5.182   0.347   1.842
 9339SOL     OW28915   5.968   6.926   1.805
 9339SOL    HW128916   6.034   6.937   1.879
 9339SOL    HW228917   5.946   0.001   1.767
 9340SOL     OW28918   5.255   4.184   4.465
 9340SOL    HW128919   5.161   4.157   4.485
 9340SOL    HW228920   5.258   4.282   4.444
 9341SOL     OW28921   0.325   5.743   1.004
 9341SOL    HW128922   0.250   5.732   0.938
 9341SOL    HW228923   0.370   5.831   0.990
 9342SOL     OW28924   2.315   6.258   3.730
 9342SOL    HW128925   2.392   6.206   3.766
 9342SOL    HW228926   2.342   6.352   3.710
 9343SOL     OW28927   5.503   4.500   2.122
 9343SOL    HW128928   5.596   4.480   2.152
 9343SOL    HW228929   5.477   4.436   2.050
 9344SOL     OW28930   4.918   6.636   2.657
 9344SOL    HW128931   4.932   6.543   2.622
 9344SOL    HW228932   4.893   6.696   2.581
 9345SOL     OW28933   6.170   5.756   1.854
 9345SOL    HW128934   6.157   5.783   1.950
 9345SOL    HW228935   6.252   5.698   1.848
 9346SOL     OW28936   5.639   1.631   1.309
 9346SOL    HW128937   5.601   1.613   1.400
 9346SOL    HW228938   5.640   1.546   1.256
 9347SOL     OW28939   2.998   3.888   0.374
 9347SOL    HW128940   3.091   3.866   0.344
 9347SOL    HW228941   3.001   3.970   0.432
 9348SOL     OW28942   3.169   6.404   2.421
 9348SOL    HW128943   3.102   6.477   2.406
 9348SOL    HW228944   3.134   6.318   2.384
 9349SOL     OW28945   6.907   5.865   3.153
 9349SOL    HW128946   6.885   5.960   3.176
 9349SOL    HW228947   6.900   5.853   3.054
 9350SOL     OW28948   0.025   2.895   5.251
 9350SOL    HW128949   6.967   2.868   5.313
 9350SOL    HW228950   0.106   2.921   5.304
 9351SOL     OW28951   2.774   0.020   0.081
 9351SOL    HW128952   2.679   0.003   0.107
 9351SOL    HW228953   2.829   6.954   0.098
 9352SOL     OW28954   3.543   1.350   6.507
 9352SOL    HW128955   3.523   1.422   6.573
 9352SOL    HW228956   3.502   1.374   6.418
 9353SOL     OW28957   0.675   4.523   0.849
 9353SOL    HW128958   0.600   4.465   0.880
 9353SOL    HW228959   0.748   4.466   0.810
 9354SOL     OW28960   0.303   1.991   6.450
 9354SOL    HW128961   0.249   1.991   6.366
 9354SOL    HW228962   0.268   2.060   6.513
 9355SOL     OW28963   0.469   1.925   4.452
 9355SOL    HW128964   0.544   1.984   4.424
 9355SOL    HW228965   0.384   1.978   4.454
 9356SOL     OW28966   4.781   0.039   2.006
 9356SOL    HW128967   4.738   0.066   2.093
 9356SOL    HW228968   4.784   0.118   1.945
 9357SOL     OW28969   1.919   3.470   5.850
 9357SOL    HW128970   1.889   3.564   5.833
 9357SOL    HW228971   1.917   3.418   5.765
 9358SOL     OW28972   6.531   3.205   1.726
 9358SOL    HW128973   6.584   3.133   1.771
 9358SOL    HW228974   6.550   3.203   1.627
 9359SOL     OW28975   1.876   4.376   5.687
 9359SOL    HW128976   1.966   4.405   5.717
 9359SOL    HW228977   1.856   4.415   5.597
 9360SOL     OW28978   0.581   4.590   6.626
 9360SOL    HW128979   0.594   4.641   6.541
 9360SOL    HW228980   0.638   4.508   6.624
 9361SOL     OW28981   1.779   5.339   2.926
 9361SOL    HW128982   1.743   5.426   2.960
 9361SOL    HW228983   1.840   5.299   2.995
 9362SOL     OW28984   1.939   1.607   2.771
 9362SOL    HW128985   1.876   1.582   2.844
 9362SOL    HW228986   1.947   1.707   2.766
 9363SOL     OW28987   3.097   5.446   1.953
 9363SOL    HW128988   3.038   5.425   1.875
 9363SOL    HW228989   3.162   5.517   1.926
 9364SOL     OW28990   2.682   2.457   6.282
 9364SOL    HW128991   2.693   2.389   6.210
 9364SOL    HW228992   2.695   2.413   6.371
 9365SOL     OW28993   3.098   2.112   3.776
 9365SOL    HW128994   3.174   2.058   3.741
 9365SOL    HW228995   3.023   2.111   3.709
 9366SOL     OW28996   3.671   5.267   6.145
 9366SOL    HW128997   3.688   5.295   6.240
 9366SOL    HW228998   3.636   5.173   6.143
 9367SOL     OW28999   6.581   6.301   2.236
 9367SOL    HW129000   6.550   6.218   2.283
 9367SOL    HW229001   6.657   6.341   2.286
 9368SOL     OW29002   3.301   0.776   3.124
 9368SOL    HW129003   3.341   0.744   3.210
 9368SOL    HW229004   3.207   0.806   3.140
 9369SOL     OW29005   6.662   6.719   3.737
 9369SOL    HW129006   6.687   6.624   3.753
 9369SOL    HW229007   6.684   6.744   3.642
 9370SOL     OW29008   5.489   0.426   4.614
 9370SOL    HW129009   5.413   0.361   4.623
 9370SOL    HW229010   5.498   0.478   4.700
 9371SOL     OW29011   2.400   5.186   0.346
 9371SOL    HW129012   2.340   5.255   0.305
 9371SOL    HW229013   2.491   5.191   0.303
 9372SOL     OW29014   5.183   6.545   1.511
 9372SOL    HW129015   5.215   6.469   1.454
 9372SOL    HW229016   5.245   6.623   1.502
 9373SOL     OW29017   4.510   2.603   1.618
 9373SOL    HW129018   4.558   2.676   1.665
 9373SOL    HW229019   4.520   2.615   1.519
 9374SOL     OW29020   0.529   2.773   6.871
 9374SOL    HW129021   0.588   2.830   6.814
 9374SOL    HW229022   0.505   2.823   6.954
 9375SOL     OW29023   0.799   2.374   0.998
 9375SOL    HW129024   0.739   2.320   1.058
 9375SOL    HW229025   0.759   2.379   0.907
 9376SOL     OW29026   2.514   3.923   1.198
 9376SOL    HW129027   2.521   3.969   1.110
 9376SOL    HW229028   2.445   3.851   1.192
 9377SOL     OW29029   1.740   5.016   3.318
 9377SOL    HW129030   1.746   5.004   3.219
 9377SOL    HW229031   1.774   4.933   3.363
 9378SOL     OW29032   2.891   1.467   3.491
 9378SOL    HW129033   2.928   1.559   3.478
 9378SOL    HW229034   2.820   1.449   3.423
 9379SOL     OW29035   4.500   0.058   5.400
 9379SOL    HW129036   4.581   0.028   5.350
 9379SOL    HW229037   4.524   0.074   5.495
 9380SOL     OW29038   3.752   5.254   5.110
 9380SOL    HW129039   3.738   5.351   5.132
 9380SOL    HW229040   3.664   5.214   5.084
 9381SOL     OW29041   5.621   3.142   5.907
 9381SOL    HW129042   5.595   3.162   6.002
 9381SOL    HW229043   5.680   3.215   5.873
 9382SOL     OW29044   3.946   0.637   3.538
 9382SOL    HW129045   3.930   0.722   3.588
 9382SOL    HW229046   3.950   0.656   3.439
 9383SOL     OW29047   5.723   4.766   3.740
 9383SOL    HW129048   5.647   4.824   3.772
 9383SOL    HW229049   5.805   4.787   3.793
 9384SOL     OW29050   4.337   6.999   2.404
 9384SOL    HW129051   4.354   0.057   2.337
 9384SOL    HW229052   4.254   6.950   2.378
 9385SOL     OW29053   4.773   1.752   4.273
 9385SOL    HW129054   4.804   1.660   4.298
 9385SOL    HW229055   4.718   1.790   4.346
 9386SOL     OW29056   3.000   5.583   5.417
 9386SOL    HW129057   3.033   5.528   5.340
 9386SOL    HW229058   3.053   5.668   5.422
 9387SOL     OW29059   2.875   2.307   0.720
 9387SOL    HW129060   2.946   2.368   0.753
 9387SOL    HW229061   2.886   2.292   0.622
 9388SOL     OW29062   2.581   6.076   3.499
 9388SOL    HW129063   2.497   6.021   3.497
 9388SOL    HW229064   2.559   6.170   3.524
 9389SOL     OW29065   2.808   0.361   2.945
 9389SOL    HW129066   2.738   0.429   2.920
 9389SOL    HW229067   2.842   0.382   3.036
 9390SOL     OW29068   5.565   4.979   6.001
 9390SOL    HW129069   5.473   4.940   6.000
 9390SOL    HW229070   5.563   5.069   5.959
 9391SOL     OW29071   0.630   0.291   6.264
 9391SOL    HW129072   0.717   0.288   6.214
 9391SOL    HW229073   0.555   0.274   6.200
 9392SOL     OW29074   5.411   5.179   5.066
 9392SOL    HW129075   5.495   5.186   5.014
 9392SOL    HW229076   5.413   5.096   5.122
 9393SOL     OW29077   2.752   0.254   5.813
 9393SOL    HW129078   2.807   0.317   5.758
 9393SOL    HW229079   2.787   0.161   5.803
 9394SOL     OW29080   6.069   0.801   1.189
 9394SOL    HW129081   6.102   0.847   1.271
 9394SOL    HW229082   6.079   0.862   1.110
 9395SOL     OW29083   2.568   1.037   0.591
 9395SOL    HW129084   2.600   1.084   0.509
 9395SOL    HW229085   2.642   0.979   0.627
 9396SOL     OW29086   1.932   5.016   4.559
 9396SOL    HW129087   2.014   5.069   4.580
 9396SOL    HW229088   1.897   4.975   4.643
 9397SOL     OW29089   2.888   6.272   6.179
 9397SOL    HW129090   2.962   6.331   6.145
 9397SOL    HW229091   2.922   6.218   6.256
 9398SOL     OW29092   5.829   0.961   6.215
 9398SOL    HW129093   5.820   0.872   6.171
 9398SOL    HW229094   5.748   1.016   6.196
 9399SOL     OW29095   1.098   3.154   4.625
 9399SOL    HW129096   1.074   3.206   4.706
 9399SOL    HW229097   1.064   3.200   4.543
 9400SOL     OW29098   5.045   0.599   1.168
 9400SOL    HW129099   5.077   0.593   1.262
 9400SOL    HW229100   5.121   0.626   1.108
 9401SOL     OW29101   6.885   2.082   2.710
 9401SOL    HW129102   6.820   2.026   2.658
 9401SOL    HW229103   6.845   2.106   2.799
 9402SOL     OW29104   1.006   4.025   3.290
 9402SOL    HW129105   1.056   4.104   3.253
 9402SOL    HW229106   1.070   3.953   3.315
 9403SOL     OW29107   6.319   1.381   1.737
 9403SOL    HW129108   6.293   1.461   1.683
 9403SOL    HW229109   6.342   1.305   1.676
 9404SOL     OW29110   0.659   2.309   1.238
 9404SOL    HW129111   0.608   2.386   1.276
 9404SOL    HW229112   0.595   2.245   1.195
 9405SOL     OW29113   2.133   4.335   3.945
 9405SOL    HW129114   2.191   4.417   3.943
 9405SOL    HW229115   2.170   4.267   3.881
 9406SOL     OW29116   0.699   2.936   6.730
 9406SOL    HW129117   0.709   3.030   6.765
 9406SOL    HW229118   0.624   2.933   6.664
 9407SOL     OW29119   2.498   5.455   4.441
 9407SOL    HW129120   2.571   5.444   4.373
 9407SOL    HW229121   2.475   5.552   4.449
 9408SOL     OW29122   6.928   2.949   6.073
 9408SOL    HW129123   6.881   3.008   6.140
 9408SOL    HW229124   6.931   2.995   5.985
 9409SOL     OW29125   6.262   6.095   1.539
 9409SOL    HW129126   6.226   6.078   1.447
 9409SOL    HW229127   6.197   6.062   1.607
 9410SOL     OW29128   3.434   0.926   1.962
 9410SOL    HW129129   3.413   0.831   1.983
 9410SOL    HW229130   3.378   0.957   1.884
 9411SOL     OW29131   3.987   3.207   3.053
 9411SOL    HW129132   4.058   3.201   3.124
 9411SOL    HW229133   3.998   3.293   3.003
 9412SOL     OW29134   1.742   0.681   2.419
 9412SOL    HW129135   1.722   0.692   2.516
 9412SOL    HW229136   1.812   0.748   2.392
 9413SOL     OW29137   4.671   5.058   3.490
 9413SOL    HW129138   4.622   4.971   3.482
 9413SOL    HW229139   4.670   5.088   3.585
 9414SOL     OW29140   3.207   1.231   3.835
 9414SOL    HW129141   3.177   1.234   3.931
 9414SOL    HW229142   3.296   1.277   3.826
 9415SOL     OW29143   2.318   0.078   1.870
 9415SOL    HW129144   2.233   0.129   1.859
 9415SOL    HW229145   2.298   7.005   1.913
 9416SOL     OW29146   6.841   0.803   5.897
 9416SOL    HW129147   6.803   0.756   5.817
 9416SOL    HW229148   6.769   0.812   5.967
 9417SOL     OW29149   3.561   0.020   0.758
 9417SOL    HW129150   3.481   0.075   0.782
 9417SOL    HW229151   3.622   0.073   0.698
 9418SOL     OW29152   1.861   1.728   2.182
 9418SOL    HW129153   1.791   1.675   2.230
 9418SOL    HW229154   1.895   1.800   2.242
 9419SOL     OW29155   1.691   3.703   6.055
 9419SOL    HW129156   1.733   3.762   6.124
 9419SOL    HW229157   1.594   3.689   6.078
 9420SOL     OW29158   5.723   4.156   0.232
 9420SOL    HW129159   5.754   4.091   0.302
 9420SOL    HW229160   5.803   4.204   0.194
 9421SOL     OW29161   3.165   5.349   4.924
 9421SOL    HW129162   3.099   5.280   4.952
 9421SOL    HW229163   3.215   5.317   4.844
 9422SOL     OW29164   3.037   5.969   3.248
 9422SOL    HW129165   2.956   5.977   3.190
 9422SOL    HW229166   3.119   5.965   3.190
 9423SOL     OW29167   3.748   6.598   3.317
 9423SOL    HW129168   3.659   6.600   3.271
 9423SOL    HW229169   3.748   6.526   3.386
 9424SOL     OW29170   5.531   1.963   4.557
 9424SOL    HW129171   5.616   1.966   4.505
 9424SOL    HW229172   5.462   1.912   4.506
 9425SOL     OW29173   5.785   4.996   0.982
 9425SOL    HW129174   5.740   5.081   0.954
 9425SOL    HW229175   5.721   4.940   1.035
 9426SOL     OW29176   2.654   1.286   6.101
 9426SOL    HW129177   2.661   1.196   6.059
 9426SOL    HW229178   2.668   1.357   6.031
 9427SOL     OW29179   2.426   5.560   3.113
 9427SOL    HW129180   2.440   5.599   3.021
 9427SOL    HW229181   2.493   5.600   3.176
 9428SOL     OW29182   0.195   0.015   0.636
 9428SOL    HW129183   0.238   0.036   0.548
 9428SOL    HW229184   0.202   0.094   0.697
 9429SOL     OW29185   2.259   2.777   3.806
 9429SOL    HW129186   2.260   2.835   3.888
 9429SOL    HW229187   2.165   2.759   3.779
 9430SOL     OW29188   0.456   2.121   4.883
 9430SOL    HW129189   0.516   2.090   4.809
 9430SOL    HW229190   0.468   2.220   4.896
 9431SOL     OW29191   6.549   4.925   1.367
 9431SOL    HW129192   6.527   5.019   1.339
 9431SOL    HW229193   6.505   4.860   1.304
 9432SOL     OW29194   6.211   1.044   4.533
 9432SOL    HW129195   6.152   1.118   4.565
 9432SOL    HW229196   6.191   1.024   4.437
 9433SOL     OW29197   3.289   6.582   2.960
 9433SOL    HW129198   3.351   6.592   3.037
 9433SOL    HW229199   3.322   6.636   2.883
 9434SOL     OW29200   5.777   5.967   2.937
 9434SOL    HW129201   5.816   5.880   2.966
 9434SOL    HW229202   5.768   6.028   3.015
 9435SOL     OW29203   0.399   1.914   2.895
 9435SOL    HW129204   0.300   1.911   2.878
 9435SOL    HW229205   0.426   1.832   2.945
 9436SOL     OW29206   1.621   1.608   2.684
 9436SOL    HW129207   1.630   1.682   2.618
 9436SOL    HW229208   1.655   1.638   2.773
 9437SOL     OW29209   0.203   5.367   3.329
 9437SOL    HW129210   0.142   5.410   3.263
 9437SOL    HW229211   0.280   5.325   3.280
 9438SOL     OW29212   1.275   6.939   2.135
 9438SOL    HW129213   1.326   7.010   2.087
 9438SOL    HW229214   1.335   6.862   2.155
 9439SOL     OW29215   1.038   2.789   1.565
 9439SOL    HW129216   1.094   2.827   1.490
 9439SOL    HW229217   0.984   2.712   1.530
 9440SOL     OW29218   3.984   4.942   3.548
 9440SOL    HW129219   3.915   4.937   3.620
 9440SOL    HW229220   4.069   4.900   3.579
 9441SOL     OW29221   6.383   5.636   5.785
 9441SOL    HW129222   6.383   5.545   5.742
 9441SOL    HW229223   6.475   5.675   5.781
 9442SOL     OW29224   4.784   3.445   1.829
 9442SOL    HW129225   4.800   3.459   1.927
 9442SOL    HW229226   4.801   3.349   1.806
 9443SOL     OW29227   2.319   5.607   0.347
 9443SOL    HW129228   2.399   5.603   0.287
 9443SOL    HW229229   2.247   5.661   0.302
 9444SOL     OW29230   1.859   4.172   0.643
 9444SOL    HW129231   1.856   4.072   0.648
 9444SOL    HW229232   1.800   4.211   0.713
 9445SOL     OW29233   6.579   3.276   3.486
 9445SOL    HW129234   6.506   3.293   3.420
 9445SOL    HW229235   6.564   3.332   3.567
 9446SOL     OW29236   6.906   5.533   4.543
 9446SOL    HW129237   6.969   5.498   4.475
 9446SOL    HW229238   6.950   5.534   4.633
 9447SOL     OW29239   5.477   5.269   3.650
 9447SOL    HW129240   5.399   5.303   3.704
 9447SOL    HW229241   5.445   5.198   3.587
 9448SOL     OW29242   6.606   6.762   6.202
 9448SOL    HW129243   6.610   6.766   6.103
 9448SOL    HW229244   6.530   6.703   6.230
 9449SOL     OW29245   6.021   6.971   6.862
 9449SOL    HW129246   6.050   6.875   6.862
 9449SOL    HW229247   6.080   0.009   6.924
 9450SOL     OW29248   2.256   5.405   3.243
 9450SOL    HW129249   2.319   5.456   3.184
 9450SOL    HW229250   2.166   5.399   3.200
 9451SOL     OW29251   3.497   5.617   5.509
 9451SOL    HW129252   3.470   5.590   5.601
 9451SOL    HW229253   3.434   5.577   5.442
 9452SOL     OW29254   0.968   4.539   7.014
 9452SOL    HW129255   0.902   4.506   0.066
 9452SOL    HW229256   0.939   4.628   6.979
 9453SOL     OW29257   2.411   4.980   2.748
 9453SOL    HW129258   2.359   5.022   2.823
 9453SOL    HW229259   2.504   5.018   2.748
 9454SOL     OW29260   3.738   3.193   6.645
 9454SOL    HW129261   3.676   3.212   6.721
 9454SOL    HW229262   3.704   3.237   6.563
 9455SOL     OW29263   2.710   2.028   2.886
 9455SOL    HW129264   2.778   1.967   2.846
 9455SOL    HW229265   2.718   2.025   2.986
 9456SOL     OW29266   6.297   3.552   0.932
 9456SOL    HW129267   6.244   3.635   0.946
 9456SOL    HW229268   6.246   3.473   0.969
 9457SOL     OW29269   0.268   5.071   4.625
 9457SOL    HW129270   0.259   5.169   4.611
 9457SOL    HW229271   0.323   5.032   4.551
 9458SOL     OW29272   0.517   3.975   0.268
 9458SOL    HW129273   0.610   3.949   0.242
 9458SOL    HW229274   0.499   3.945   0.361
 9459SOL     OW29275   5.510   4.958   3.824
 9459SOL    HW129276   5.501   5.028   3.753
 9459SOL    HW229277   5.479   4.995   3.912
 9460SOL     OW29278   2.161   3.589   4.791
 9460SOL    HW129279   2.174   3.683   4.823
 9460SOL    HW229280   2.152   3.589   4.691
 9461SOL     OW29281   0.419   1.929   1.899
 9461SOL    HW129282   0.500   1.957   1.849
 9461SOL    HW229283   0.445   1.899   1.991
 9462SOL     OW29284   2.040   2.445   3.400
 9462SOL    HW129285   2.004   2.384   3.330
 9462SOL    HW229286   1.966   2.469   3.464
 9463SOL     OW29287   5.374   6.578   1.199
 9463SOL    HW129288   5.382   6.505   1.267
 9463SOL    HW229289   5.461   6.588   1.151
 9464SOL     OW29290   5.926   0.043   0.532
 9464SOL    HW129291   6.001   0.108   0.522
 9464SOL    HW229292   5.839   0.089   0.516
 9465SOL     OW29293   0.055   3.502   1.838
 9465SOL    HW129294   0.033   3.415   1.881
 9465SOL    HW229295   6.995   3.567   1.853
 9466SOL     OW29296   3.367   4.202   5.598
 9466SOL    HW129297   3.333   4.208   5.692
 9466SOL    HW229298   3.299   4.157   5.540
 9467SOL     OW29299   0.858   2.890   1.284
 9467SOL    HW129300   0.865   2.888   1.185
 9467SOL    HW229301   0.950   2.899   1.324
 9468SOL     OW29302   6.233   3.674   6.751
 9468SOL    HW129303   6.285   3.704   6.671
 9468SOL    HW229304   6.285   3.694   6.834
 9469SOL     OW29305   6.864   5.726   1.261
 9469SOL    HW129306   6.952   5.763   1.232
 9469SOL    HW229307   6.821   5.679   1.184
 9470SOL     OW29308   4.724   3.449   0.153
 9470SOL    HW129309   4.687   3.384   0.088
 9470SOL    HW229310   4.824   3.454   0.143
 9471SOL     OW29311   6.649   1.895   4.639
 9471SOL    HW129312   6.679   1.987   4.665
 9471SOL    HW229313   6.720   1.829   4.665
 9472SOL     OW29314   0.420   3.979   5.700
 9472SOL    HW129315   0.443   4.001   5.795
 9472SOL    HW229316   0.325   3.950   5.694
 9473SOL     OW29317   3.497   4.418   6.665
 9473SOL    HW129318   3.472   4.513   6.684
 9473SOL    HW229319   3.425   4.358   6.699
 9474SOL     OW29320   6.362   3.762   1.844
 9474SOL    HW129321   6.333   3.670   1.872
 9474SOL    HW229322   6.435   3.794   1.904
 9475SOL     OW29323   4.501   3.315   0.661
 9475SOL    HW129324   4.479   3.323   0.758
 9475SOL    HW229325   4.553   3.395   0.631
 9476SOL     OW29326   3.955   3.756   4.510
 9476SOL    HW129327   3.894   3.677   4.517
 9476SOL    HW229328   4.031   3.735   4.449
 9477SOL     OW29329   0.739   2.657   1.074
 9477SOL    HW129330   0.739   2.558   1.081
 9477SOL    HW229331   0.769   2.697   1.161
 9478SOL     OW29332   5.493   3.450   0.978
 9478SOL    HW129333   5.540   3.420   0.895
 9478SOL    HW229334   5.549   3.427   1.058
 9479SOL     OW29335   4.530   6.839   0.984
 9479SOL    HW129336   4.448   6.896   0.982
 9479SOL    HW229337   4.506   6.747   1.017
 9480SOL     OW29338   6.053   5.202   0.214
 9480SOL    HW129339   6.039   5.143   0.294
 9480SOL    HW229340   6.149   5.199   0.187
 9481SOL     OW29341   4.950   2.391   2.205
 9481SOL    HW129342   4.867   2.380   2.260
 9481SOL    HW229343   4.968   2.307   2.154
 9482SOL     OW29344   6.891   0.655   2.834
 9482SOL    HW129345   6.823   0.728   2.834
 9482SOL    HW229346   6.927   0.643   2.926
 9483SOL     OW29347   1.871   0.786   0.353
 9483SOL    HW129348   1.856   0.692   0.382
 9483SOL    HW229349   1.969   0.804   0.346
 9484SOL     OW29350   3.373   0.122   4.909
 9484SOL    HW129351   3.319   0.075   4.839
 9484SOL    HW229352   3.395   0.215   4.879
 9485SOL     OW29353   0.457   1.752   0.841
 9485SOL    HW129354   0.430   1.838   0.886
 9485SOL    HW229355   0.555   1.738   0.854
 9486SOL     OW29356   4.358   6.258   1.526
 9486SOL    HW129357   4.351   6.160   1.544
 9486SOL    HW229358   4.432   6.296   1.582
 9487SOL     OW29359   3.173   4.054   3.877
 9487SOL    HW129360   3.089   4.023   3.922
 9487SOL    HW229361   3.239   4.081   3.947
 9488SOL     OW29362   2.808   0.340   1.019
 9488SOL    HW129363   2.838   0.419   0.966
 9488SOL    HW229364   2.714   0.353   1.049
 9489SOL     OW29365   5.256   4.222   1.302
 9489SOL    HW129366   5.266   4.173   1.215
 9489SOL    HW229367   5.159   4.234   1.322
 9490SOL     OW29368   6.912   5.540   3.535
 9490SOL    HW129369   6.981   5.557   3.604
 9490SOL    HW229370   6.906   5.442   3.517
 9491SOL     OW29371   5.576   5.593   3.715
 9491SOL    HW129372   5.596   5.690   3.700
 9491SOL    HW229373   5.625   5.538   3.648
 9492SOL     OW29374   3.519   3.540   4.706
 9492SOL    HW129375   3.558   3.477   4.639
 9492SOL    HW229376   3.424   3.559   4.683
 9493SOL     OW29377   3.153   5.916   4.773
 9493SOL    HW129378   3.159   5.866   4.687
 9493SOL    HW229379   3.222   5.988   4.775
 9494SOL     OW29380   5.705   3.220   2.281
 9494SOL    HW129381   5.776   3.246   2.216
 9494SOL    HW229382   5.619   3.204   2.231
 9495SOL     OW29383   6.825   1.742   2.939
 9495SOL    HW129384   6.782   1.689   2.866
 9495SOL    HW229385   6.756   1.773   3.004
 9496SOL     OW29386   5.503   2.982   1.713
 9496SOL    HW129387   5.424   3.035   1.743
 9496SOL    HW229388   5.556   2.952   1.793
 9497SOL     OW29389   4.855   6.094   4.948
 9497SOL    HW129390   4.796   6.022   4.913
 9497SOL    HW229391   4.898   6.064   5.033
 9498SOL     OW29392   6.571   4.736   4.863
 9498SOL    HW129393   6.472   4.742   4.874
 9498SOL    HW229394   6.615   4.812   4.910
 9499SOL     OW29395   1.384   6.179   5.016
 9499SOL    HW129396   1.338   6.188   5.104
 9499SOL    HW229397   1.329   6.222   4.945
 9500SOL     OW29398   4.359   6.667   0.591
 9500SOL    HW129399   4.331   6.657   0.495
 9500SOL    HW229400   4.287   6.715   0.641
 9501SOL     OW29401   1.922   1.232   4.492
 9501SOL    HW129402   1.941   1.329   4.507
 9501SOL    HW229403   2.001   1.178   4.520
 9502SOL     OW29404   5.750   3.432   5.377
 9502SOL    HW129405   5.675   3.471   5.431
 9502SOL    HW229406   5.837   3.468   5.409
 9503SOL     OW29407   6.627   2.498   0.198
 9503SOL    HW129408   6.634   2.552   0.282
 9503SOL    HW229409   6.683   2.415   0.207
 9504SOL     OW29410   6.873   3.697   1.856
 9504SOL    HW129411   6.918   3.785   1.839
 9504SOL    HW229412   6.795   3.711   1.917
 9505SOL     OW29413   4.850   4.477   5.548
 9505SOL    HW129414   4.825   4.555   5.489
 9505SOL    HW229415   4.813   4.393   5.510
 9506SOL     OW29416   1.671   2.775   0.895
 9506SOL    HW129417   1.743   2.837   0.863
 9506SOL    HW229418   1.677   2.689   0.846
 9507SOL     OW29419   6.997   0.874   1.953
 9507SOL    HW129420   6.969   0.961   1.914
 9507SOL    HW229421   0.048   0.830   1.892
 9508SOL     OW29422   5.665   2.031   2.725
 9508SOL    HW129423   5.594   1.967   2.696
 9508SOL    HW229424   5.739   2.030   2.658
 9509SOL     OW29425   0.022   1.095   3.269
 9509SOL    HW129426   6.999   1.169   3.324
 9509SOL    HW229427   0.058   1.132   3.183
 9510SOL     OW29428   1.381   4.288   3.783
 9510SOL    HW129429   1.466   4.311   3.736
 9510SOL    HW229430   1.309   4.273   3.716
 9511SOL     OW29431   2.172   0.585   1.157
 9511SOL    HW129432   2.271   0.593   1.168
 9511SOL    HW229433   2.135   0.527   1.229
 9512SOL     OW29434   6.869   2.072   0.666
 9512SOL    HW129435   6.812   2.150   0.639
 9512SOL    HW229436   6.826   2.023   0.741
 9513SOL     OW29437   2.744   4.221   6.770
 9513SOL    HW129438   2.740   4.121   6.762
 9513SOL    HW229439   2.664   4.261   6.726
 9514SOL     OW29440   2.525   4.866   6.670
 9514SOL    HW129441   2.505   4.860   6.573
 9514SOL    HW229442   2.599   4.803   6.693
 9515SOL     OW29443   1.927   6.326   2.348
 9515SOL    HW129444   1.962   6.365   2.263
 9515SOL    HW229445   1.829   6.306   2.338
 9516SOL     OW29446   5.601   4.349   0.427
 9516SOL    HW129447   5.664   4.352   0.350
 9516SOL    HW229448   5.534   4.277   0.412
 9517SOL     OW29449   1.997   4.041   1.189
 9517SOL    HW129450   2.028   4.111   1.125
 9517SOL    HW229451   1.897   4.043   1.194
 9518SOL     OW29452   2.030   1.616   0.704
 9518SOL    HW129453   1.990   1.538   0.655
 9518SOL    HW229454   1.997   1.614   0.799
 9519SOL     OW29455   3.082   3.034   4.999
 9519SOL    HW129456   3.157   2.969   5.013
 9519SOL    HW229457   3.021   2.999   4.928
 9520SOL     OW29458   2.774   0.689   3.188
 9520SOL    HW129459   2.803   0.777   3.225
 9520SOL    HW229460   2.691   0.701   3.133
 9521SOL     OW29461   5.523   5.434   2.610
 9521SOL    HW129462   5.542   5.344   2.570
 9521SOL    HW229463   5.595   5.498   2.585
 9522SOL     OW29464   2.934   5.621   1.390
 9522SOL    HW129465   2.886   5.554   1.333
 9522SOL    HW229466   2.993   5.574   1.455
 9523SOL     OW29467   3.102   5.401   5.177
 9523SOL    HW129468   3.134   5.309   5.199
 9523SOL    HW229469   3.121   5.421   5.081
 9524SOL     OW29470   3.862   2.540   1.117
 9524SOL    HW129471   3.772   2.580   1.102
 9524SOL    HW229472   3.898   2.506   1.030
 9525SOL     OW29473   2.456   2.583   6.196
 9525SOL    HW129474   2.391   2.514   6.164
 9525SOL    HW229475   2.528   2.539   6.249
 9526SOL     OW29476   5.000   6.131   1.674
 9526SOL    HW129477   5.004   6.066   1.749
 9526SOL    HW229478   4.940   6.207   1.700
 9527SOL     OW29479   0.690   7.001   2.089
 9527SOL    HW129480   0.767   0.030   2.137
 9527SOL    HW229481   0.676   0.031   2.001
 9528SOL     OW29482   6.721   0.687   0.234
 9528SOL    HW129483   6.627   0.659   0.215
 9528SOL    HW229484   6.765   0.619   0.294
 9529SOL     OW29485   6.594   3.000   5.390
 9529SOL    HW129486   6.660   2.973   5.320
 9529SOL    HW229487   6.623   3.086   5.431
 9530SOL     OW29488   2.170   3.217   3.458
 9530SOL    HW129489   2.198   3.131   3.500
 9530SOL    HW229490   2.096   3.200   3.393
 9531SOL     OW29491   4.038   5.163   3.033
 9531SOL    HW129492   4.127   5.118   3.044
 9531SOL    HW229493   3.974   5.100   2.989
 9532SOL     OW29494   0.176   6.267   2.199
 9532SOL    HW129495   0.078   6.284   2.208
 9532SOL    HW229496   0.203   6.278   2.103
 9533SOL     OW29497   0.250   0.748   4.527
 9533SOL    HW129498   0.273   0.834   4.483
 9533SOL    HW229499   0.257   0.758   4.627
 9534SOL     OW29500   5.958   2.756   5.274
 9534SOL    HW129501   5.876   2.773   5.219
 9534SOL    HW229502   5.966   2.825   5.345
 9535SOL     OW29503   2.319   1.387   5.579
 9535SOL    HW129504   2.378   1.403   5.500
 9535SOL    HW229505   2.264   1.469   5.597
 9536SOL     OW29506   3.099   4.725   5.221
 9536SOL    HW129507   3.046   4.644   5.195
 9536SOL    HW229508   3.140   4.710   5.311
 9537SOL     OW29509   2.638   0.440   2.523
 9537SOL    HW129510   2.567   0.430   2.453
 9537SOL    HW229511   2.610   0.510   2.589
 9538SOL     OW29512   6.426   1.747   4.592
 9538SOL    HW129513   6.476   1.666   4.561
 9538SOL    HW229514   6.491   1.813   4.630
 9539SOL     OW29515   2.248   4.259   6.049
 9539SOL    HW129516   2.170   4.259   5.987
 9539SOL    HW229517   2.230   4.322   6.125
 9540SOL     OW29518   4.642   4.272   5.188
 9540SOL    HW129519   4.726   4.255   5.136
 9540SOL    HW229520   4.599   4.185   5.210
 9541SOL     OW29521   2.379   1.798   5.836
 9541SOL    HW129522   2.296   1.832   5.880
 9541SOL    HW229523   2.416   1.721   5.889
 9542SOL     OW29524   4.789   3.709   5.360
 9542SOL    HW129525   4.790   3.650   5.279
 9542SOL    HW229526   4.698   3.746   5.373
 9543SOL     OW29527   3.939   0.697   4.573
 9543SOL    HW129528   3.921   0.607   4.532
 9543SOL    HW229529   4.010   0.743   4.520
 9544SOL     OW29530   6.488   0.919   2.698
 9544SOL    HW129531   6.465   0.845   2.634
 9544SOL    HW229532   6.572   0.896   2.746
 9545SOL     OW29533   6.681   5.328   3.463
 9545SOL    HW129534   6.710   5.349   3.369
 9545SOL    HW229535   6.676   5.412   3.516
 9546SOL     OW29536   1.956   3.091   0.111
 9546SOL    HW129537   1.950   3.001   0.067
 9546SOL    HW229538   1.923   3.162   0.048
 9547SOL     OW29539   2.497   6.145   3.884
 9547SOL    HW129540   2.469   6.051   3.900
 9547SOL    HW229541   2.486   6.198   3.969
 9548SOL     OW29542   6.666   5.668   4.880
 9548SOL    HW129543   6.723   5.608   4.824
 9548SOL    HW229544   6.576   5.677   4.838
 9549SOL     OW29545   3.105   4.654   1.175
 9549SOL    HW129546   3.005   4.665   1.169
 9549SOL    HW229547   3.126   4.576   1.234
 9550SOL     OW29548   0.080   1.441   6.257
 9550SOL    HW129549   0.123   1.351   6.262
 9550SOL    HW229550   0.005   1.446   6.323
 9551SOL     OW29551   0.026   0.019   4.651
 9551SOL    HW129552   0.096   0.090   4.647
 9551SOL    HW229553   6.973   0.034   4.579
 9552SOL     OW29554   1.037   6.121   2.579
 9552SOL    HW129555   1.109   6.190   2.587
 9552SOL    HW229556   1.024   6.098   2.482
 9553SOL     OW29557   6.024   4.379   6.567
 9553SOL    HW129558   5.938   4.331   6.548
 9553SOL    HW229559   6.004   4.474   6.593
 9554SOL     OW29560   2.598   0.981   1.413
 9554SOL    HW129561   2.620   1.078   1.417
 9554SOL    HW229562   2.683   0.928   1.410
 9555SOL     OW29563   0.005   1.968   0.987
 9555SOL    HW129564   6.929   1.971   0.945
 9555SOL    HW229565   0.030   2.059   1.018
 9556SOL     OW29566   2.210   1.830   1.221
 9556SOL    HW129567   2.253   1.742   1.241
 9556SOL    HW229568   2.214   1.847   1.123
 9557SOL     OW29569   6.203   0.720   2.760
 9557SOL    HW129570   6.274   0.677   2.817
 9557SOL    HW229571   6.164   0.798   2.809
 9558SOL     OW29572   6.753   5.648   3.871
 9558SOL    HW129573   6.737   5.556   3.835
 9558SOL    HW229574   6.851   5.668   3.871
 9559SOL     OW29575   0.022   3.922   1.852
 9559SOL    HW129576   0.091   3.910   1.924
 9559SOL    HW229577   6.996   4.012   1.860
 9560SOL     OW29578   1.692   1.622   2.946
 9560SOL    HW129579   1.625   1.552   2.971
 9560SOL    HW229580   1.714   1.677   3.027
 9561SOL     OW29581   2.610   6.816   0.923
 9561SOL    HW129582   2.651   6.726   0.909
 9561SOL    HW229583   2.585   6.855   0.834
 9562SOL     OW29584   2.970   6.357   4.492
 9562SOL    HW129585   2.932   6.378   4.401
 9562SOL    HW229586   2.960   6.260   4.511
 9563SOL     OW29587   6.397   6.186   6.689
 9563SOL    HW129588   6.372   6.241   6.769
 9563SOL    HW229589   6.314   6.152   6.645
 9564SOL     OW29590   2.639   0.105   6.799
 9564SOL    HW129591   2.604   0.025   6.848
 9564SOL    HW229592   2.609   0.188   6.847
 9565SOL     OW29593   4.392   5.840   4.822
 9565SOL    HW129594   4.340   5.853   4.737
 9565SOL    HW229595   4.328   5.834   4.899
 9566SOL     OW29596   3.306   4.607   0.226
 9566SOL    HW129597   3.303   4.640   0.320
 9566SOL    HW229598   3.246   4.663   0.169
 9567SOL     OW29599   6.387   5.155   6.080
 9567SOL    HW129600   6.301   5.107   6.063
 9567SOL    HW229601   6.367   5.246   6.118
 9568SOL     OW29602   4.539   3.001   6.313
 9568SOL    HW129603   4.583   3.044   6.391
 9568SOL    HW229604   4.442   2.987   6.333
 9569SOL     OW29605   6.421   1.232   0.815
 9569SOL    HW129606   6.513   1.236   0.776
 9569SOL    HW229607   6.367   1.164   0.764
 9570SOL     OW29608   0.655   1.948   1.687
 9570SOL    HW129609   0.728   1.973   1.751
 9570SOL    HW229610   0.649   2.018   1.616
 9571SOL     OW29611   2.526   3.441   0.324
 9571SOL    HW129612   2.495   3.384   0.248
 9571SOL    HW229613   2.602   3.396   0.371
 9572SOL     OW29614   1.253   5.543   1.091
 9572SOL    HW129615   1.183   5.557   1.161
 9572SOL    HW229616   1.210   5.524   1.003
 9573SOL     OW29617   0.545   1.262   6.817
 9573SOL    HW129618   0.479   1.240   6.889
 9573SOL    HW229619   0.625   1.202   6.826
 9574SOL     OW29620   3.767   3.273   4.790
 9574SOL    HW129621   3.856   3.269   4.834
 9574SOL    HW229622   3.697   3.242   4.854
 9575SOL     OW29623   5.641   1.012   1.087
 9575SOL    HW129624   5.660   0.977   1.178
 9575SOL    HW229625   5.543   1.005   1.068
 9576SOL     OW29626   3.414   1.112   3.332
 9576SOL    HW129627   3.500   1.098   3.380
 9576SOL    HW229628   3.432   1.116   3.233
 9577SOL     OW29629   1.444   0.679   2.337
 9577SOL    HW129630   1.390   0.625   2.402
 9577SOL    HW229631   1.539   0.650   2.341
 9578SOL     OW29632   5.779   3.520   2.749
 9578SOL    HW129633   5.703   3.480   2.699
 9578SOL    HW229634   5.860   3.463   2.738
 9579SOL     OW29635   1.343   6.527   2.676
 9579SOL    HW129636   1.255   6.572   2.691
 9579SOL    HW229637   1.372   6.483   2.761
 9580SOL     OW29638   5.652   3.970   7.000
 9580SOL    HW129639   5.695   3.957   0.074
 9580SOL    HW229640   5.556   3.945   7.006
 9581SOL     OW29641   2.441   4.746   6.202
 9581SOL    HW129642   2.368   4.685   6.235
 9581SOL    HW229643   2.491   4.702   6.128
 9582SOL     OW29644   4.426   4.604   4.093
 9582SOL    HW129645   4.349   4.634   4.149
 9582SOL    HW229646   4.498   4.673   4.096
 9583SOL     OW29647   2.207   3.338   1.669
 9583SOL    HW129648   2.259   3.378   1.745
 9583SOL    HW229649   2.250   3.364   1.582
 9584SOL     OW29650   6.051   5.845   6.738
 9584SOL    HW129651   6.039   5.816   6.833
 9584SOL    HW229652   5.976   5.811   6.683
 9585SOL     OW29653   6.142   0.853   2.484
 9585SOL    HW129654   6.129   0.827   2.579
 9585SOL    HW229655   6.111   0.948   2.470
 9586SOL     OW29656   5.778   3.800   3.181
 9586SOL    HW129657   5.831   3.735   3.127
 9586SOL    HW229658   5.804   3.894   3.156
 9587SOL     OW29659   5.692   0.233   2.239
 9587SOL    HW129660   5.666   0.142   2.207
 9587SOL    HW229661   5.646   0.251   2.326
 9588SOL     OW29662   0.302   1.315   1.346
 9588SOL    HW129663   0.212   1.289   1.310
 9588SOL    HW229664   0.293   1.401   1.397
 9589SOL     OW29665   2.381   5.673   6.728
 9589SOL    HW129666   2.443   5.676   6.650
 9589SOL    HW229667   2.303   5.733   6.712
 9590SOL     OW29668   0.294   3.611   1.954
 9590SOL    HW129669   0.316   3.705   1.929
 9590SOL    HW229670   0.200   3.590   1.927
 9591SOL     OW29671   2.819   6.043   0.567
 9591SOL    HW129672   2.772   6.034   0.479
 9591SOL    HW229673   2.904   6.094   0.553
 9592SOL     OW29674   4.375   5.319   2.668
 9592SOL    HW129675   4.298   5.376   2.696
 9592SOL    HW229676   4.341   5.241   2.616
 9593SOL     OW29677   5.269   2.409   4.521
 9593SOL    HW129678   5.306   2.327   4.564
 9593SOL    HW229679   5.185   2.387   4.472
 9594SOL     OW29680   6.817   6.259   3.305
 9594SOL    HW129681   6.802   6.160   3.312
 9594SOL    HW229682   6.738   6.302   3.260
 9595SOL     OW29683   2.381   5.722   5.011
 9595SOL    HW129684   2.433   5.760   4.935
 9595SOL    HW229685   2.326   5.645   4.978
 9596SOL     OW29686   0.490   4.965   5.735
 9596SOL    HW129687   0.413   4.902   5.730
 9596SOL    HW229688   0.517   4.991   5.642
 9597SOL     OW29689   0.346   3.873   1.871
 9597SOL    HW129690   0.282   3.916   1.934
 9597SOL    HW229691   0.371   3.938   1.800
 9598SOL     OW29692   0.602   3.828   5.583
 9598SOL    HW129693   0.535   3.884   5.632
 9598SOL    HW229694   0.694   3.863   5.600
 9599SOL     OW29695   3.605   0.208   5.077
 9599SOL    HW129696   3.571   0.182   5.167
 9599SOL    HW229697   3.527   0.219   5.014
 9600SOL     OW29698   1.660   0.321   5.622
 9600SOL    HW129699   1.687   0.405   5.668
 9600SOL    HW229700   1.560   0.313   5.624
 9601SOL     OW29701   6.576   4.081   6.304
 9601SOL    HW129702   6.666   4.115   6.277
 9601SOL    HW229703   6.509   4.103   6.233
 9602SOL     OW29704   6.750   5.406   6.075
 9602SOL    HW129705   6.730   5.321   6.027
 9602SOL    HW229706   6.664   5.452   6.097
 9603SOL     OW29707   2.065   6.945   4.643
 9603SOL    HW129708   2.051   0.014   4.591
 9603SOL    HW229709   2.090   6.871   4.581
 9604SOL     OW29710   5.449   0.834   0.444
 9604SOL    HW129711   5.385   0.857   0.371
 9604SOL    HW229712   5.437   0.896   0.521
 9605SOL     OW29713   1.424   4.681   5.562
 9605SOL    HW129714   1.497   4.729   5.610
 9605SOL    HW229715   1.453   4.588   5.541
 9606SOL     OW29716   1.085   6.994   4.102
 9606SOL    HW129717   1.031   0.060   4.081
 9606SOL    HW229718   1.153   6.980   4.030
 9607SOL     OW29719   0.983   0.997   1.677
 9607SOL    HW129720   1.004   1.073   1.615
 9607SOL    HW229721   0.955   1.034   1.766
 9608SOL     OW29722   0.221   0.109   2.401
 9608SOL    HW129723   0.220   0.148   2.493
 9608SOL    HW229724   0.182   0.175   2.337
 9609SOL     OW29725   1.220   4.172   4.464
 9609SOL    HW129726   1.299   4.163   4.525
 9609SOL    HW229727   1.163   4.249   4.495
 9610SOL     OW29728   1.617   2.725   5.860
 9610SOL    HW129729   1.669   2.687   5.784
 9610SOL    HW229730   1.521   2.731   5.835
 9611SOL     OW29731   6.685   0.266   1.585
 9611SOL    HW129732   6.616   0.258   1.513
 9611SOL    HW229733   6.774   0.282   1.544
 9612SOL     OW29734   6.612   3.022   0.803
 9612SOL    HW129735   6.707   3.027   0.774
 9612SOL    HW229736   6.572   2.935   0.773
 9613SOL     OW29737   5.506   6.873   4.282
 9613SOL    HW129738   5.592   6.835   4.249
 9613SOL    HW229739   5.485   6.958   4.233
 9614SOL     OW29740   4.114   3.699   1.815
 9614SOL    HW129741   4.105   3.628   1.745
 9614SOL    HW229742   4.147   3.783   1.772
 9615SOL     OW29743   2.613   5.100   3.311
 9615SOL    HW129744   2.515   5.095   3.327
 9615SOL    HW229745   2.652   5.178   3.360
 9616SOL     OW29746   4.055   3.144   1.450
 9616SOL    HW129747   4.096   3.132   1.359
 9616SOL    HW229748   3.955   3.143   1.442
 9617SOL     OW29749   1.164   3.483   3.539
 9617SOL    HW129750   1.069   3.514   3.549
 9617SOL    HW229751   1.173   3.390   3.575
 9618SOL     OW29752   3.579   0.214   6.366
 9618SOL    HW129753   3.661   0.245   6.318
 9618SOL    HW229754   3.575   0.257   6.456
 9619SOL     OW29755   1.338   6.428   0.683
 9619SOL    HW129756   1.398   6.357   0.646
 9619SOL    HW229757   1.386   6.476   0.757
 9620SOL     OW29758   3.965   0.654   6.587
 9620SOL    HW129759   3.994   0.603   6.506
 9620SOL    HW229760   3.880   0.616   6.622
 9621SOL     OW29761   1.288   0.480   2.002
 9621SOL    HW129762   1.359   0.456   2.068
 9621SOL    HW229763   1.245   0.566   2.029
 9622SOL     OW29764   6.535   1.006   6.890
 9622SOL    HW129765   6.620   0.955   6.904
 9622SOL    HW229766   6.491   1.023   6.979
 9623SOL     OW29767   4.862   5.554   6.336
 9623SOL    HW129768   4.762   5.547   6.326
 9623SOL    HW229769   4.906   5.500   6.264
 9624SOL     OW29770   5.180   5.106   5.268
 9624SOL    HW129771   5.092   5.079   5.230
 9624SOL    HW229772   5.253   5.049   5.230
 9625SOL     OW29773   4.894   4.207   6.680
 9625SOL    HW129774   4.897   4.114   6.644
 9625SOL    HW229775   4.799   4.232   6.698
 9626SOL     OW29776   1.679   4.559   4.552
 9626SOL    HW129777   1.607   4.511   4.502
 9626SOL    HW229778   1.759   4.571   4.493
 9627SOL     OW29779   1.631   4.382   5.349
 9627SOL    HW129780   1.597   4.303   5.298
 9627SOL    HW229781   1.611   4.466   5.299
 9628SOL     OW29782   5.935   4.256   6.908
 9628SOL    HW129783   5.943   4.195   6.986
 9628SOL    HW229784   5.852   4.312   6.917
 9629SOL     OW29785   6.528   6.308   3.615
 9629SOL    HW129786   6.561   6.349   3.529
 9629SOL    HW229787   6.568   6.216   3.625
 9630SOL     OW29788   6.200   6.109   5.535
 9630SOL    HW129789   6.209   6.206   5.558
 9630SOL    HW229790   6.214   6.096   5.437
 9631SOL     OW29791   4.804   1.172   1.827
 9631SOL    HW129792   4.736   1.113   1.784
 9631SOL    HW229793   4.785   1.179   1.925
 9632SOL     OW29794   1.803   5.282   1.927
 9632SOL    HW129795   1.835   5.359   1.872
 9632SOL    HW229796   1.707   5.264   1.907
 9633SOL     OW29797   3.588   3.099   1.962
 9633SOL    HW129798   3.656   3.090   1.889
 9633SOL    HW229799   3.586   3.014   2.016
 9634SOL     OW29800   6.134   4.424   3.147
 9634SOL    HW129801   6.213   4.470   3.106
 9634SOL    HW229802   6.118   4.462   3.238
 9635SOL     OW29803   0.059   4.369   4.795
 9635SOL    HW129804   0.084   4.273   4.779
 9635SOL    HW229805   0.030   4.410   4.709
 9636SOL     OW29806   4.386   1.186   5.903
 9636SOL    HW129807   4.299   1.148   5.870
 9636SOL    HW229808   4.429   1.238   5.829
 9637SOL     OW29809   2.526   3.651   1.473
 9637SOL    HW129810   2.542   3.589   1.550
 9637SOL    HW229811   2.486   3.736   1.506
 9638SOL     OW29812   0.061   4.289   6.260
 9638SOL    HW129813   0.042   4.276   6.163
 9638SOL    HW229814   7.004   4.344   6.302
 9639SOL     OW29815   4.203   2.352   1.924
 9639SOL    HW129816   4.126   2.315   1.977
 9639SOL    HW229817   4.168   2.413   1.853
 9640SOL     OW29818   4.178   1.140   1.840
 9640SOL    HW129819   4.105   1.079   1.810
 9640SOL    HW229820   4.146   1.194   1.918
 9641SOL     OW29821   5.488   5.629   3.091
 9641SOL    HW129822   5.423   5.572   3.140
 9641SOL    HW229823   5.463   5.631   2.994
 9642SOL     OW29824   1.217   0.457   4.376
 9642SOL    HW129825   1.188   0.511   4.454
 9642SOL    HW229826   1.315   0.437   4.383
 9643SOL     OW29827   4.638   4.375   3.738
 9643SOL    HW129828   4.682   4.314   3.673
 9643SOL    HW229829   4.639   4.333   3.829
 9644SOL     OW29830   1.743   5.910   5.121
 9644SOL    HW129831   1.679   5.844   5.083
 9644SOL    HW229832   1.823   5.862   5.157
 9645SOL     OW29833   1.254   4.221   5.178
 9645SOL    HW129834   1.247   4.321   5.174
 9645SOL    HW229835   1.317   4.189   5.108
 9646SOL     OW29836   2.340   6.502   3.651
 9646SOL    HW129837   2.260   6.561   3.666
 9646SOL    HW229838   2.363   6.501   3.554
 9647SOL     OW29839   6.875   6.474   2.767
 9647SOL    HW129840   6.928   6.442   2.845
 9647SOL    HW229841   6.890   6.572   2.755
 9648SOL     OW29842   5.571   3.180   1.291
 9648SOL    HW129843   5.480   3.142   1.275
 9648SOL    HW229844   5.591   3.181   1.389
 9649SOL     OW29845   2.227   3.575   6.404
 9649SOL    HW129846   2.312   3.616   6.373
 9649SOL    HW229847   2.157   3.646   6.416
 9650SOL     OW29848   6.110   5.062   3.238
 9650SOL    HW129849   6.159   5.135   3.284
 9650SOL    HW229850   6.175   4.992   3.207
 9651SOL     OW29851   3.884   1.258   0.513
 9651SOL    HW129852   3.833   1.195   0.572
 9651SOL    HW229853   3.908   1.211   0.427
 9652SOL     OW29854   0.763   4.350   1.619
 9652SOL    HW129855   0.750   4.263   1.668
 9652SOL    HW229856   0.677   4.378   1.577
 9653SOL     OW29857   4.459   4.716   5.406
 9653SOL    HW129858   4.457   4.785   5.333
 9653SOL    HW229859   4.488   4.759   5.491
 9654SOL     OW29860   3.308   2.888   2.587
 9654SOL    HW129861   3.320   2.795   2.552
 9654SOL    HW229862   3.255   2.941   2.521
 9655SOL     OW29863   0.065   1.394   0.715
 9655SOL    HW129864   0.050   1.346   0.801
 9655SOL    HW229865   0.141   1.458   0.725
 9656SOL     OW29866   4.644   2.124   0.688
 9656SOL    HW129867   4.601   2.053   0.632
 9656SOL    HW229868   4.726   2.087   0.731
 9657SOL     OW29869   4.950   4.365   3.440
 9657SOL    HW129870   4.914   4.311   3.517
 9657SOL    HW229871   5.038   4.327   3.412
 9658SOL     OW29872   5.429   1.990   2.362
 9658SOL    HW129873   5.442   1.894   2.339
 9658SOL    HW229874   5.333   2.006   2.383
 9659SOL     OW29875   2.419   1.968   7.009
 9659SOL    HW129876   2.351   2.024   6.960
 9659SOL    HW229877   2.494   2.027   0.025
 9660SOL     OW29878   0.765   0.232   1.794
 9660SOL    HW129879   0.795   0.137   1.792
 9660SOL    HW229880   0.836   0.288   1.836
 9661SOL     OW29881   4.470   5.478   1.457
 9661SOL    HW129882   4.486   5.446   1.550
 9661SOL    HW229883   4.433   5.402   1.402
 9662SOL     OW29884   5.145   4.103   6.909
 9662SOL    HW129885   5.128   4.079   6.813
 9662SOL    HW229886   5.154   4.020   6.963
 9663SOL     OW29887   0.861   4.229   2.416
 9663SOL    HW129888   0.939   4.167   2.425
 9663SOL    HW229889   0.780   4.178   2.388
 9664SOL     OW29890   5.663   4.311   3.996
 9664SOL    HW129891   5.610   4.393   4.017
 9664SOL    HW229892   5.685   4.263   4.081
 9665SOL     OW29893   6.588   6.136   5.636
 9665SOL    HW129894   6.502   6.186   5.643
 9665SOL    HW229895   6.634   6.135   5.725
 9666SOL     OW29896   6.697   4.276   1.626
 9666SOL    HW129897   6.675   4.192   1.576
 9666SOL    HW229898   6.784   4.313   1.592
 9667SOL     OW29899   4.653   4.340   0.941
 9667SOL    HW129900   4.734   4.353   0.884
 9667SOL    HW229901   4.679   4.294   1.026
 9668SOL     OW29902   1.558   1.229   6.195
 9668SOL    HW129903   1.622   1.169   6.243
 9668SOL    HW229904   1.545   1.195   6.101
 9669SOL     OW29905   2.556   0.177   0.515
 9669SOL    HW129906   2.614   0.097   0.499
 9669SOL    HW229907   2.611   0.252   0.550
 9670SOL     OW29908   0.258   6.222   5.176
 9670SOL    HW129909   0.220   6.171   5.099
 9670SOL    HW229910   0.262   6.319   5.153
 9671SOL     OW29911   0.487   5.037   0.140
 9671SOL    HW129912   0.474   5.033   0.239
 9671SOL    HW229913   0.486   5.133   0.110
 9672SOL     OW29914   1.639   4.978   2.565
 9672SOL    HW129915   1.662   4.988   2.662
 9672SOL    HW229916   1.655   5.064   2.518
 9673SOL     OW29917   3.671   3.959   1.168
 9673SOL    HW129918   3.632   4.027   1.230
 9673SOL    HW229919   3.734   3.900   1.219
 9674SOL     OW29920   3.825   6.206   2.793
 9674SOL    HW129921   3.896   6.248   2.737
 9674SOL    HW229922   3.867   6.165   2.874
 9675SOL     OW29923   4.952   3.339   0.067
 9675SOL    HW129924   5.045   3.304   0.076
 9675SOL    HW229925   4.932   3.357   6.986
 9676SOL     OW29926   1.405   3.564   5.787
 9676SOL    HW129927   1.317   3.603   5.759
 9676SOL    HW229928   1.444   3.511   5.711
 9677SOL     OW29929   6.609   5.180   6.469
 9677SOL    HW129930   6.676   5.245   6.504
 9677SOL    HW229931   6.652   5.121   6.400
 9678SOL     OW29932   3.254   3.717   4.304
 9678SOL    HW129933   3.161   3.753   4.303
 9678SOL    HW229934   3.317   3.786   4.269
 9679SOL     OW29935   2.868   1.392   4.405
 9679SOL    HW129936   2.857   1.434   4.495
 9679SOL    HW229937   2.874   1.293   4.414
 9680SOL     OW29938   4.834   6.812   5.513
 9680SOL    HW129939   4.754   6.780   5.564
 9680SOL    HW229940   4.892   6.734   5.489
 9681SOL     OW29941   3.380   2.032   1.350
 9681SOL    HW129942   3.357   1.945   1.393
 9681SOL    HW229943   3.421   2.015   1.260
 9682SOL     OW29944   4.704   4.476   3.474
 9682SOL    HW129945   4.634   4.459   3.405
 9682SOL    HW229946   4.789   4.433   3.446
 9683SOL     OW29947   3.039   6.061   0.282
 9683SOL    HW129948   2.942   6.040   0.277
 9683SOL    HW229949   3.092   5.976   0.283
 9684SOL     OW29950   0.571   3.937   5.112
 9684SOL    HW129951   0.554   3.964   5.207
 9684SOL    HW229952   0.550   4.014   5.051
 9685SOL     OW29953   4.647   3.551   0.598
 9685SOL    HW129954   4.710   3.579   0.670
 9685SOL    HW229955   4.698   3.511   0.522
 9686SOL     OW29956   0.733   3.063   0.304
 9686SOL    HW129957   0.744   2.995   0.376
 9686SOL    HW229958   0.738   3.155   0.344
 9687SOL     OW29959   6.344   0.498   1.797
 9687SOL    HW129960   6.282   0.576   1.800
 9687SOL    HW229961   6.327   0.438   1.875
 9688SOL     OW29962   0.650   3.798   1.066
 9688SOL    HW129963   0.627   3.711   1.023
 9688SOL    HW229964   0.704   3.854   1.003
 9689SOL     OW29965   1.028   4.436   6.299
 9689SOL    HW129966   1.105   4.373   6.287
 9689SOL    HW229967   1.062   4.527   6.321
 9690SOL     OW29968   4.364   5.651   5.627
 9690SOL    HW129969   4.398   5.558   5.613
 9690SOL    HW229970   4.277   5.648   5.675
 9691SOL     OW29971   3.097   3.986   2.191
 9691SOL    HW129972   3.116   3.945   2.102
 9691SOL    HW229973   3.064   4.080   2.178
 9692SOL     OW29974   4.611   5.347   1.049
 9692SOL    HW129975   4.614   5.247   1.062
 9692SOL    HW229976   4.684   5.389   1.103
 9693SOL     OW29977   5.545   4.503   3.255
 9693SOL    HW129978   5.579   4.484   3.164
 9693SOL    HW229979   5.619   4.535   3.313
 9694SOL     OW29980   3.663   1.006   1.858
 9694SOL    HW129981   3.651   1.105   1.853
 9694SOL    HW229982   3.591   0.967   1.914
 9695SOL     OW29983   6.999   3.029   3.606
 9695SOL    HW129984   6.985   3.099   3.536
 9695SOL    HW229985   0.051   2.962   3.574
 9696SOL     OW29986   5.980   1.822   2.241
 9696SOL    HW129987   5.951   1.798   2.148
 9696SOL    HW229988   5.924   1.897   2.275
 9697SOL     OW29989   0.428   6.257   0.805
 9697SOL    HW129990   0.513   6.206   0.812
 9697SOL    HW229991   0.422   6.323   0.880
 9698SOL     OW29992   5.608   2.920   6.174
 9698SOL    HW129993   5.699   2.926   6.132
 9698SOL    HW229994   5.538   2.927   6.103
 9699SOL     OW29995   0.774   5.594   0.063
 9699SOL    HW129996   0.695   5.590   0.124
 9699SOL    HW229997   0.855   5.560   0.111
 9700SOL     OW29998   6.371   5.435   4.699
 9700SOL    HW129999   6.419   5.425   4.612
 9700SOL    HW230000   6.282   5.478   4.683
 9701SOL     OW30001   3.857   3.892   5.845
 9701SOL    HW130002   3.807   3.819   5.797
 9701SOL    HW230003   3.938   3.853   5.889
 9702SOL     OW30004   3.747   2.508   0.108
 9702SOL    HW130005   3.843   2.482   0.118
 9702SOL    HW230006   3.721   2.507   0.011
 9703SOL     OW30007   5.246   3.898   4.053
 9703SOL    HW130008   5.202   3.970   4.106
 9703SOL    HW230009   5.243   3.921   3.956
 9704SOL     OW30010   2.941   5.421   2.521
 9704SOL    HW130011   2.889   5.352   2.572
 9704SOL    HW230012   3.035   5.423   2.554
 9705SOL     OW30013   6.252   4.250   5.925
 9705SOL    HW130014   6.346   4.217   5.933
 9705SOL    HW230015   6.207   4.243   6.014
 9706SOL     OW30016   2.932   2.287   1.660
 9706SOL    HW130017   2.920   2.189   1.648
 9706SOL    HW230018   2.936   2.308   1.757
 9707SOL     OW30019   5.688   5.004   2.617
 9707SOL    HW130020   5.676   4.905   2.608
 9707SOL    HW230021   5.780   5.023   2.652
 9708SOL     OW30022   1.140   1.471   2.950
 9708SOL    HW130023   1.212   1.455   3.018
 9708SOL    HW230024   1.093   1.556   2.973
 9709SOL     OW30025   5.324   4.714   2.021
 9709SOL    HW130026   5.225   4.704   2.014
 9709SOL    HW230027   5.363   4.632   2.063
 9710SOL     OW30028   6.238   0.506   0.684
 9710SOL    HW130029   6.300   0.513   0.763
 9710SOL    HW230030   6.291   0.487   0.602
 9711SOL     OW30031   3.770   5.536   6.318
 9711SOL    HW130032   3.765   5.445   6.360
 9711SOL    HW230033   3.779   5.526   6.219
 9712SOL     OW30034   6.066   3.287   0.305
 9712SOL    HW130035   6.158   3.249   0.317
 9712SOL    HW230036   6.056   3.323   0.213
 9713SOL     OW30037   2.959   5.330   3.371
 9713SOL    HW130038   3.057   5.310   3.373
 9713SOL    HW230039   2.944   5.416   3.322
 9714SOL     OW30040   3.726   6.356   5.755
 9714SOL    HW130041   3.801   6.422   5.752
 9714SOL    HW230042   3.745   6.288   5.827
 9715SOL     OW30043   5.664   4.905   6.627
 9715SOL    HW130044   5.674   4.953   6.540
 9715SOL    HW230045   5.661   4.807   6.610
 9716SOL     OW30046   3.554   4.707   6.954
 9716SOL    HW130047   3.611   4.635   6.993
 9716SOL    HW230048   3.610   4.786   6.930
 9717SOL     OW30049   4.569   6.323   6.666
 9717SOL    HW130050   4.584   6.230   6.700
 9717SOL    HW230051   4.574   6.324   6.566
 9718SOL     OW30052   4.324   3.237   1.086
 9718SOL    HW130053   4.271   3.162   1.124
 9718SOL    HW230054   4.332   3.310   1.154
 9719SOL     OW30055   5.109   6.793   5.777
 9719SOL    HW130056   5.072   6.700   5.772
 9719SOL    HW230057   5.181   6.797   5.846
 9720SOL     OW30058   0.788   3.364   2.604
 9720SOL    HW130059   0.714   3.364   2.671
 9720SOL    HW230060   0.789   3.276   2.556
 9721SOL     OW30061   0.139   1.249   6.591
 9721SOL    HW130062   0.109   1.342   6.568
 9721SOL    HW230063   0.221   1.226   6.539
 9722SOL     OW30064   3.712   1.034   5.243
 9722SOL    HW130065   3.770   0.973   5.191
 9722SOL    HW230066   3.634   1.062   5.187
 9723SOL     OW30067   4.848   5.959   4.062
 9723SOL    HW130068   4.802   5.958   3.973
 9723SOL    HW230069   4.782   5.936   4.134
 9724SOL     OW30070   1.749   4.342   0.217
 9724SOL    HW130071   1.669   4.383   0.173
 9724SOL    HW230072   1.833   4.382   0.179
 9725SOL     OW30073   3.924   6.232   6.495
 9725SOL    HW130074   3.854   6.176   6.540
 9725SOL    HW230075   3.880   6.308   6.447
 9726SOL     OW30076   4.686   2.012   4.900
 9726SOL    HW130077   4.708   2.085   4.964
 9726SOL    HW230078   4.606   2.038   4.846
 9727SOL     OW30079   1.134   2.389   6.959
 9727SOL    HW130080   1.167   2.420   0.033
 9727SOL    HW230081   1.059   2.448   6.929
 9728SOL     OW30082   0.219   1.893   5.313
 9728SOL    HW130083   0.284   1.819   5.296
 9728SOL    HW230084   0.140   1.882   5.254
 9729SOL     OW30085   1.202   4.494   3.816
 9729SOL    HW130086   1.281   4.556   3.813
 9729SOL    HW230087   1.234   4.401   3.831
 9730SOL     OW30088   1.115   4.403   3.232
 9730SOL    HW130089   1.161   4.429   3.317
 9730SOL    HW230090   1.117   4.479   3.168
 9731SOL     OW30091   4.589   5.365   1.688
 9731SOL    HW130092   4.626   5.315   1.610
 9731SOL    HW230093   4.618   5.322   1.773
 9732SOL     OW30094   0.659   3.108   2.204
 9732SOL    HW130095   0.708   3.195   2.208
 9732SOL    HW230096   0.646   3.081   2.109
 9733SOL     OW30097   5.952   5.601   0.520
 9733SOL    HW130098   6.028   5.634   0.465
 9733SOL    HW230099   5.917   5.516   0.481
 9734SOL     OW30100   6.599   0.196   0.244
 9734SOL    HW130101   6.532   0.138   0.198
 9734SOL    HW230102   6.565   0.222   0.334
 9735SOL     OW30103   1.731   3.033   3.293
 9735SOL    HW130104   1.686   2.958   3.340
 9735SOL    HW230105   1.686   3.119   3.317
 9736SOL     OW30106   5.303   1.723   6.358
 9736SOL    HW130107   5.338   1.670   6.281
 9736SOL    HW230108   5.362   1.708   6.438
 9737SOL     OW30109   5.273   2.201   2.598
 9737SOL    HW130110   5.373   2.198   2.604
 9737SOL    HW230111   5.246   2.274   2.536
 9738SOL     OW30112   1.956   6.731   0.850
 9738SOL    HW130113   1.896   6.660   0.886
 9738SOL    HW230114   1.901   6.799   0.800
 9739SOL     OW30115   5.360   5.739   0.171
 9739SOL    HW130116   5.420   5.799   0.223
 9739SOL    HW230117   5.296   5.794   0.118
 9740SOL     OW30118   6.837   1.367   2.835
 9740SOL    HW130119   6.879   1.307   2.904
 9740SOL    HW230120   6.901   1.381   2.760
 9741SOL     OW30121   2.467   0.826   3.555
 9741SOL    HW130122   2.368   0.838   3.548
 9741SOL    HW230123   2.500   0.770   3.479
 9742SOL     OW30124   4.062   1.183   0.263
 9742SOL    HW130125   4.160   1.170   0.247
 9742SOL    HW230126   4.038   1.279   0.246
 9743SOL     OW30127   0.183   4.080   2.863
 9743SOL    HW130128   0.264   4.132   2.889
 9743SOL    HW230129   0.126   4.063   2.943
 9744SOL     OW30130   2.189   0.306   2.771
 9744SOL    HW130131   2.122   0.302   2.698
 9744SOL    HW230132   2.196   0.400   2.805
 9745SOL     OW30133   4.641   2.962   6.029
 9745SOL    HW130134   4.709   3.019   6.075
 9745SOL    HW230135   4.594   3.015   5.959
 9746SOL     OW30136   5.235   6.582   5.486
 9746SOL    HW130137   5.286   6.593   5.571
 9746SOL    HW230138   5.165   6.511   5.498
 9747SOL     OW30139   2.984   2.086   1.970
 9747SOL    HW130140   2.972   2.103   1.872
 9747SOL    HW230141   2.946   2.163   2.021
 9748SOL     OW30142   6.840   6.854   3.215
 9748SOL    HW130143   6.864   6.779   3.154
 9748SOL    HW230144   6.778   6.917   3.168
 9749SOL     OW30145   0.769   0.978   3.278
 9749SOL    HW130146   0.857   0.968   3.232
 9749SOL    HW230147   0.706   1.030   3.221
 9750SOL     OW30148   5.964   5.695   3.811
 9750SOL    HW130149   5.957   5.596   3.812
 9750SOL    HW230150   6.058   5.722   3.791
 9751SOL     OW30151   2.157   0.034   0.486
 9751SOL    HW130152   2.224   6.978   0.461
 9751SOL    HW230153   2.205   0.121   0.498
 9752SOL     OW30154   4.275   1.648   5.522
 9752SOL    HW130155   4.228   1.641   5.610
 9752SOL    HW230156   4.247   1.572   5.463
 9753SOL     OW30157   1.021   5.619   6.098
 9753SOL    HW130158   1.044   5.580   6.009
 9753SOL    HW230159   0.991   5.547   6.159
 9754SOL     OW30160   2.884   0.570   0.880
 9754SOL    HW130161   2.918   0.595   0.789
 9754SOL    HW230162   2.910   0.640   0.946
 9755SOL     OW30163   3.433   4.098   4.516
 9755SOL    HW130164   3.439   4.003   4.548
 9755SOL    HW230165   3.415   4.099   4.418
 9756SOL     OW30166   6.270   2.463   6.192
 9756SOL    HW130167   6.186   2.424   6.228
 9756SOL    HW230168   6.349   2.420   6.235
 9757SOL     OW30169   5.800   4.437   5.011
 9757SOL    HW130170   5.804   4.398   5.103
 9757SOL    HW230171   5.708   4.423   4.973
 9758SOL     OW30172   2.148   1.040   0.618
 9758SOL    HW130173   2.181   1.084   0.535
 9758SOL    HW230174   2.072   1.093   0.656
 9759SOL     OW30175   1.141   0.888   0.283
 9759SOL    HW130176   1.118   0.813   0.345
 9759SOL    HW230177   1.057   0.935   0.256
 9760SOL     OW30178   4.992   3.328   5.484
 9760SOL    HW130179   4.951   3.368   5.402
 9760SOL    HW230180   5.055   3.394   5.525
 9761SOL     OW30181   1.085   2.391   1.954
 9761SOL    HW130182   1.006   2.416   2.009
 9761SOL    HW230183   1.169   2.402   2.008
 9762SOL     OW30184   3.132   1.429   4.746
 9762SOL    HW130185   3.046   1.422   4.797
 9762SOL    HW230186   3.126   1.507   4.683
 9763SOL     OW30187   5.618   0.958   3.970
 9763SOL    HW130188   5.528   0.990   3.998
 9763SOL    HW230189   5.609   0.896   3.892
 9764SOL     OW30190   6.326   2.299   2.095
 9764SOL    HW130191   6.394   2.241   2.051
 9764SOL    HW230192   6.236   2.256   2.089
 9765SOL     OW30193   6.890   6.641   3.032
 9765SOL    HW130194   6.923   6.550   3.057
 9765SOL    HW230195   6.954   6.682   2.967
 9766SOL     OW30196   2.455   6.370   2.159
 9766SOL    HW130197   2.441   6.466   2.185
 9766SOL    HW230198   2.553   6.352   2.149
 9767SOL     OW30199   2.492   2.432   5.828
 9767SOL    HW130200   2.449   2.429   5.918
 9767SOL    HW230201   2.591   2.441   5.838
 9768SOL     OW30202   4.619   1.393   1.719
 9768SOL    HW130203   4.688   1.323   1.733
 9768SOL    HW230204   4.548   1.385   1.789
 9769SOL     OW30205   3.421   1.571   4.644
 9769SOL    HW130206   3.520   1.576   4.661
 9769SOL    HW230207   3.383   1.492   4.691
 9770SOL     OW30208   3.716   1.371   5.217
 9770SOL    HW130209   3.694   1.283   5.176
 9770SOL    HW230210   3.778   1.358   5.294
 9771SOL     OW30211   2.390   5.366   1.073
 9771SOL    HW130212   2.375   5.421   1.155
 9771SOL    HW230213   2.374   5.422   0.992
 9772SOL     OW30214   2.010   6.437   1.728
 9772SOL    HW130215   2.035   6.501   1.800
 9772SOL    HW230216   1.965   6.357   1.767
 9773SOL     OW30217   4.790   5.468   3.620
 9773SOL    HW130218   4.820   5.547   3.673
 9773SOL    HW230219   4.806   5.486   3.523
 9774SOL     OW30220   0.336   5.549   2.824
 9774SOL    HW130221   0.392   5.495   2.888
 9774SOL    HW230222   0.247   5.506   2.813
 9775SOL     OW30223   3.057   0.261   3.482
 9775SOL    HW130224   3.114   0.232   3.404
 9775SOL    HW230225   3.081   0.205   3.562
 9776SOL     OW30226   1.235   4.438   5.925
 9776SOL    HW130227   1.171   4.515   5.923
 9776SOL    HW230228   1.243   4.399   5.834
 9777SOL     OW30229   6.096   5.131   0.656
 9777SOL    HW130230   6.080   5.219   0.701
 9777SOL    HW230231   6.051   5.058   0.708
 9778SOL     OW30232   6.903   1.681   4.865
 9778SOL    HW130233   6.877   1.586   4.846
 9778SOL    HW230234   6.910   1.731   4.778
 9779SOL     OW30235   0.673   1.919   3.784
 9779SOL    HW130236   0.728   1.841   3.757
 9779SOL    HW230237   0.635   1.902   3.875
 9780SOL     OW30238   2.308   1.813   0.941
 9780SOL    HW130239   2.374   1.760   0.994
 9780SOL    HW230240   2.349   1.902   0.917
 9781SOL     OW30241   2.028   3.179   4.619
 9781SOL    HW130242   2.031   3.194   4.520
 9781SOL    HW230243   2.042   3.267   4.666
 9782SOL     OW30244   0.623   2.073   0.001
 9782SOL    HW130245   0.569   2.156   0.005
 9782SOL    HW230246   0.592   2.016   6.940
 9783SOL     OW30247   4.353   2.419   3.305
 9783SOL    HW130248   4.353   2.518   3.298
 9783SOL    HW230249   4.323   2.379   3.219
 9784SOL     OW30250   3.703   0.436   5.952
 9784SOL    HW130251   3.707   0.524   5.999
 9784SOL    HW230252   3.709   0.451   5.853
 9785SOL     OW30253   6.978   2.044   5.451
 9785SOL    HW130254   0.053   2.074   5.482
 9785SOL    HW230255   6.907   2.078   5.513
 9786SOL     OW30256   2.463   3.216   0.555
 9786SOL    HW130257   2.539   3.238   0.494
 9786SOL    HW230258   2.377   3.225   0.505
 9787SOL     OW30259   3.270   3.338   2.714
 9787SOL    HW130260   3.338   3.276   2.754
 9787SOL    HW230261   3.228   3.294   2.634
 9788SOL     OW30262   1.213   6.773   1.756
 9788SOL    HW130263   1.168   6.804   1.840
 9788SOL    HW230264   1.307   6.809   1.753
 9789SOL     OW30265   1.511   6.216   0.564
 9789SOL    HW130266   1.585   6.197   0.500
 9789SOL    HW230267   1.466   6.130   0.589
 9790SOL     OW30268   6.553   4.248   5.960
 9790SOL    HW130269   6.596   4.250   5.870
 9790SOL    HW230270   6.617   4.284   6.028
 9791SOL     OW30271   0.259   0.230   6.785
 9791SOL    HW130272   0.231   0.199   6.694
 9791SOL    HW230273   0.201   0.187   6.854
 9792SOL     OW30274   3.239   5.040   1.045
 9792SOL    HW130275   3.284   5.032   0.956
 9792SOL    HW230276   3.174   5.117   1.043
 9793SOL     OW30277   4.416   0.428   2.398
 9793SOL    HW130278   4.327   0.469   2.379
 9793SOL    HW230279   4.415   0.332   2.372
 9794SOL     OW30280   6.383   4.529   5.696
 9794SOL    HW130281   6.296   4.558   5.736
 9794SOL    HW230282   6.456   4.590   5.728
 9795SOL     OW30283   1.377   2.605   4.671
 9795SOL    HW130284   1.422   2.515   4.670
 9795SOL    HW230285   1.424   2.666   4.607
 9796SOL     OW30286   4.132   3.675   2.834
 9796SOL    HW130287   4.226   3.711   2.841
 9796SOL    HW230288   4.132   3.592   2.778
 9797SOL     OW30289   1.964   5.750   0.256
 9797SOL    HW130290   2.048   5.725   0.208
 9797SOL    HW230291   1.890   5.763   0.190
 9798SOL     OW30292   2.664   0.672   2.264
 9798SOL    HW130293   2.621   0.697   2.177
 9798SOL    HW230294   2.756   0.711   2.269
 9799SOL     OW30295   2.919   4.172   5.909
 9799SOL    HW130296   2.898   4.081   5.944
 9799SOL    HW230297   2.915   4.238   5.984
 9800SOL     OW30298   5.105   4.897   4.446
 9800SOL    HW130299   5.021   4.948   4.425
 9800SOL    HW230300   5.081   4.807   4.483
 9801SOL     OW30301   4.633   4.213   6.766
 9801SOL    HW130302   4.564   4.250   6.704
 9801SOL    HW230303   4.597   4.215   6.860
 9802SOL     OW30304   5.852   4.834   0.478
 9802SOL    HW130305   5.791   4.824   0.400
 9802SOL    HW230306   5.822   4.773   0.552
 9803SOL     OW30307   1.634   3.157   6.567
 9803SOL    HW130308   1.659   3.223   6.496
 9803SOL    HW230309   1.556   3.103   6.535
 9804SOL     OW30310   0.679   6.212   3.200
 9804SOL    HW130311   0.664   6.306   3.233
 9804SOL    HW230312   0.652   6.207   3.104
 9805SOL     OW30313   0.647   6.564   3.089
 9805SOL    HW130314   0.642   6.528   3.182
 9805SOL    HW230315   0.639   6.664   3.092
 9806SOL     OW30316   1.353   1.495   6.850
 9806SOL    HW130317   1.271   1.550   6.836
 9806SOL    HW230318   1.384   1.458   6.762
 9807SOL     OW30319   3.329   3.966   0.953
 9807SOL    HW130320   3.261   4.014   0.897
 9807SOL    HW230321   3.312   3.986   1.049
 9808SOL     OW30322   4.171   5.515   4.918
 9808SOL    HW130323   4.093   5.460   4.888
 9808SOL    HW230324   4.232   5.531   4.840
 9809SOL     OW30325   0.591   3.553   6.950
 9809SOL    HW130326   0.684   3.522   6.969
 9809SOL    HW230327   0.543   3.483   6.897
 9810SOL     OW30328   3.434   2.128   4.433
 9810SOL    HW130329   3.345   2.163   4.461
 9810SOL    HW230330   3.471   2.070   4.505
 9811SOL     OW30331   5.666   4.838   3.317
 9811SOL    HW130332   5.667   4.769   3.389
 9811SOL    HW230333   5.756   4.844   3.275
 9812SOL     OW30334   3.269   1.256   5.491
 9812SOL    HW130335   3.345   1.321   5.486
 9812SOL    HW230336   3.208   1.282   5.567
 9813SOL     OW30337   5.073   1.911   1.056
 9813SOL    HW130338   5.101   1.825   1.013
 9813SOL    HW230339   4.975   1.907   1.077
 9814SOL     OW30340   6.761   0.854   6.846
 9814SOL    HW130341   6.787   0.792   6.920
 9814SOL    HW230342   6.763   0.805   6.759
 9815SOL     OW30343   4.883   3.296   4.464
 9815SOL    HW130344   4.904   3.201   4.441
 9815SOL    HW230345   4.788   3.303   4.494
 9816SOL     OW30346   0.122   1.015   5.749
 9816SOL    HW130347   0.187   1.090   5.738
 9816SOL    HW230348   0.122   0.984   5.845
 9817SOL     OW30349   1.462   6.659   3.368
 9817SOL    HW130350   1.395   6.676   3.296
 9817SOL    HW230351   1.425   6.594   3.434
 9818SOL     OW30352   6.623   1.398   4.159
 9818SOL    HW130353   6.654   1.340   4.083
 9818SOL    HW230354   6.531   1.370   4.187
 9819SOL     OW30355   5.270   3.243   3.120
 9819SOL    HW130356   5.333   3.306   3.075
 9819SOL    HW230357   5.224   3.187   3.051
 9820SOL     OW30358   3.442   3.112   6.288
 9820SOL    HW130359   3.458   3.156   6.200
 9820SOL    HW230360   3.517   3.134   6.350
 9821SOL     OW30361   5.499   1.180   6.448
 9821SOL    HW130362   5.434   1.229   6.506
 9821SOL    HW230363   5.592   1.194   6.482
 9822SOL     OW30364   1.617   0.057   3.286
 9822SOL    HW130365   1.621   0.114   3.204
 9822SOL    HW230366   1.576   0.108   3.361
 9823SOL     OW30367   3.131   6.716   0.517
 9823SOL    HW130368   3.107   6.730   0.613
 9823SOL    HW230369   3.217   6.765   0.498
 9824SOL     OW30370   2.083   4.809   4.792
 9824SOL    HW130371   2.177   4.834   4.815
 9824SOL    HW230372   2.082   4.750   4.711
 9825SOL     OW30373   3.773   5.085   5.787
 9825SOL    HW130374   3.845   5.077   5.718
 9825SOL    HW230375   3.785   5.016   5.858
 9826SOL     OW30376   4.984   5.028   5.989
 9826SOL    HW130377   4.957   4.944   5.942
 9826SOL    HW230378   5.017   5.094   5.922
 9827SOL     OW30379   1.960   3.785   3.835
 9827SOL    HW130380   1.997   3.801   3.743
 9827SOL    HW230381   2.036   3.780   3.900
 9828SOL     OW30382   2.375   3.149   6.443
 9828SOL    HW130383   2.307   3.218   6.467
 9828SOL    HW230384   2.329   3.068   6.408
 9829SOL     OW30385   3.577   6.110   6.862
 9829SOL    HW130386   3.500   6.112   6.925
 9829SOL    HW230387   3.611   6.016   6.853
 9830SOL     OW30388   6.129   2.882   2.119
 9830SOL    HW130389   6.189   2.803   2.128
 9830SOL    HW230390   6.163   2.957   2.176
 9831SOL     OW30391   2.180   5.618   1.232
 9831SOL    HW130392   2.114   5.662   1.292
 9831SOL    HW230393   2.241   5.561   1.286
 9832SOL     OW30394   5.011   5.664   2.878
 9832SOL    HW130395   4.996   5.578   2.829
 9832SOL    HW230396   4.996   5.741   2.816
 9833SOL     OW30397   4.156   3.204   5.400
 9833SOL    HW130398   4.127   3.233   5.309
 9833SOL    HW230399   4.146   3.105   5.408
 9834SOL     OW30400   3.348   4.310   5.274
 9834SOL    HW130401   3.249   4.321   5.281
 9834SOL    HW230402   3.384   4.275   5.361
 9835SOL     OW30403   3.258   2.765   5.407
 9835SOL    HW130404   3.181   2.821   5.376
 9835SOL    HW230405   3.224   2.677   5.441
 9836SOL     OW30406   5.848   4.616   4.098
 9836SOL    HW130407   5.882   4.709   4.116
 9836SOL    HW230408   5.849   4.599   4.000
 9837SOL     OW30409   2.839   0.729   2.806
 9837SOL    HW130410   2.919   0.670   2.815
 9837SOL    HW230411   2.865   0.813   2.759
 9838SOL     OW30412   0.900   6.633   6.171
 9838SOL    HW130413   0.885   6.549   6.119
 9838SOL    HW230414   0.963   6.692   6.121
 9839SOL     OW30415   6.032   1.898   3.274
 9839SOL    HW130416   6.060   1.811   3.235
 9839SOL    HW230417   6.018   1.965   3.201
 9840SOL     OW30418   0.085   1.939   1.240
 9840SOL    HW130419   0.052   2.029   1.269
 9840SOL    HW230420   0.032   1.908   1.161
 9841SOL     OW30421   1.859   4.208   4.619
 9841SOL    HW130422   1.879   4.113   4.641
 9841SOL    HW230423   1.905   4.268   4.685
 9842SOL     OW30424   4.044   3.668   2.450
 9842SOL    HW130425   3.996   3.745   2.491
 9842SOL    HW230426   4.038   3.588   2.509
 9843SOL     OW30427   5.206   0.521   1.373
 9843SOL    HW130428   5.159   0.538   1.459
 9843SOL    HW230429   5.305   0.520   1.389
 9844SOL     OW30430   6.150   1.298   2.161
 9844SOL    HW130431   6.081   1.235   2.125
 9844SOL    HW230432   6.126   1.324   2.254
 9845SOL     OW30433   3.360   1.996   3.714
 9845SOL    HW130434   3.393   2.037   3.628
 9845SOL    HW230435   3.425   1.927   3.745
 9846SOL     OW30436   3.819   3.624   1.849
 9846SOL    HW130437   3.833   3.531   1.815
 9846SOL    HW230438   3.787   3.682   1.774
 9847SOL     OW30439   3.534   2.857   4.189
 9847SOL    HW130440   3.623   2.896   4.163
 9847SOL    HW230441   3.465   2.885   4.122
 9848SOL     OW30442   3.209   3.235   6.064
 9848SOL    HW130443   3.301   3.263   6.036
 9848SOL    HW230444   3.169   3.177   5.993
 9849SOL     OW30445   0.431   0.350   0.024
 9849SOL    HW130446   0.397   0.358   6.945
 9849SOL    HW230447   0.354   0.334   0.086
 9850SOL     OW30448   5.696   0.155   3.930
 9850SOL    HW130449   5.673   0.224   3.861
 9850SOL    HW230450   5.782   0.181   3.974
 9851SOL     OW30451   4.838   1.448   5.032
 9851SOL    HW130452   4.934   1.438   5.061
 9851SOL    HW230453   4.779   1.446   5.113
 9852SOL     OW30454   4.265   2.348   2.705
 9852SOL    HW130455   4.310   2.390   2.784
 9852SOL    HW230456   4.330   2.339   2.630
 9853SOL     OW30457   5.499   4.318   4.606
 9853SOL    HW130458   5.527   4.411   4.585
 9853SOL    HW230459   5.405   4.303   4.576
 9854SOL     OW30460   0.394   6.015   5.321
 9854SOL    HW130461   0.340   6.090   5.283
 9854SOL    HW230462   0.426   6.040   5.412
 9855SOL     OW30463   2.638   2.815   1.160
 9855SOL    HW130464   2.679   2.902   1.135
 9855SOL    HW230465   2.705   2.760   1.210
 9856SOL     OW30466   4.408   3.858   5.666
 9856SOL    HW130467   4.319   3.896   5.637
 9856SOL    HW230468   4.418   3.869   5.765
 9857SOL     OW30469   4.407   2.365   3.570
 9857SOL    HW130470   4.358   2.365   3.483
 9857SOL    HW230471   4.357   2.308   3.636
 9858SOL     OW30472   0.145   0.868   0.562
 9858SOL    HW130473   0.161   0.788   0.620
 9858SOL    HW230474   0.089   0.841   0.484
 9859SOL     OW30475   6.098   6.910   2.158
 9859SOL    HW130476   6.026   6.848   2.191
 9859SOL    HW230477   6.068   7.005   2.171
 9860SOL     OW30478   0.477   1.429   3.610
 9860SOL    HW130479   0.548   1.464   3.672
 9860SOL    HW230480   0.484   1.330   3.604
 9861SOL     OW30481   3.270   0.292   3.238
 9861SOL    HW130482   3.218   0.228   3.182
 9861SOL    HW230483   3.338   0.242   3.292
 9862SOL     OW30484   3.845   4.080   0.117
 9862SOL    HW130485   3.780   4.149   0.148
 9862SOL    HW230486   3.895   4.044   0.196
 9863SOL     OW30487   3.649   6.884   2.759
 9863SOL    HW130488   3.573   6.821   2.777
 9863SOL    HW230489   3.668   6.937   2.842
 9864SOL     OW30490   3.875   6.526   4.117
 9864SOL    HW130491   3.918   6.478   4.040
 9864SOL    HW230492   3.923   6.613   4.132
 9865SOL     OW30493   1.512   0.852   4.211
 9865SOL    HW130494   1.612   0.843   4.208
 9865SOL    HW230495   1.480   0.829   4.304
 9866SOL     OW30496   4.511   4.846   6.013
 9866SOL    HW130497   4.537   4.860   6.109
 9866SOL    HW230498   4.439   4.776   6.008
 9867SOL     OW30499   6.261   1.088   0.599
 9867SOL    HW130500   6.185   1.120   0.655
 9867SOL    HW230501   6.276   0.991   0.616
 9868SOL     OW30502   0.690   4.070   5.929
 9868SOL    HW130503   0.671   3.974   5.950
 9868SOL    HW230504   0.773   4.075   5.874
 9869SOL     OW30505   1.666   3.031   2.352
 9869SOL    HW130506   1.608   2.976   2.292
 9869SOL    HW230507   1.610   3.080   2.418
 9870SOL     OW30508   3.555   5.667   2.749
 9870SOL    HW130509   3.543   5.586   2.693
 9870SOL    HW230510   3.526   5.648   2.842
 9871SOL     OW30511   0.198   5.930   6.239
 9871SOL    HW130512   0.281   5.982   6.258
 9871SOL    HW230513   0.119   5.977   6.279
 9872SOL     OW30514   2.268   4.832   4.348
 9872SOL    HW130515   2.310   4.820   4.438
 9872SOL    HW230516   2.295   4.756   4.288
 9873SOL     OW30517   2.473   2.502   6.967
 9873SOL    HW130518   2.446   2.442   0.027
 9873SOL    HW230519   2.572   2.511   6.965
 9874SOL     OW30520   0.063   2.846   4.813
 9874SOL    HW130521   0.078   2.784   4.890
 9874SOL    HW230522   0.010   2.925   4.843
 9875SOL     OW30523   6.222   6.583   1.884
 9875SOL    HW130524   6.269   6.627   1.961
 9875SOL    HW230525   6.266   6.495   1.865
 9876SOL     OW30526   6.395   0.412   3.483
 9876SOL    HW130527   6.301   0.396   3.452
 9876SOL    HW230528   6.459   0.387   3.411
 9877SOL     OW30529   0.423   6.345   4.033
 9877SOL    HW130530   0.345   6.315   4.088
 9877SOL    HW230531   0.506   6.346   4.089
 9878SOL     OW30532   2.739   4.844   5.153
 9878SOL    HW130533   2.769   4.766   5.099
 9878SOL    HW230534   2.690   4.909   5.094
 9879SOL     OW30535   5.498   5.240   4.689
 9879SOL    HW130536   5.567   5.269   4.756
 9879SOL    HW230537   5.412   5.288   4.708
 9880SOL     OW30538   3.192   0.782   5.950
 9880SOL    HW130539   3.164   0.687   5.966
 9880SOL    HW230540   3.132   0.844   6.000
 9881SOL     OW30541   0.910   0.927   4.846
 9881SOL    HW130542   0.973   1.005   4.841
 9881SOL    HW230543   0.830   0.953   4.900
 9882SOL     OW30544   1.085   3.742   3.881
 9882SOL    HW130545   1.159   3.693   3.927
 9882SOL    HW230546   1.042   3.805   3.945
 9883SOL     OW30547   1.289   6.343   0.293
 9883SOL    HW130548   1.281   6.246   0.318
 9883SOL    HW230549   1.341   6.392   0.362
 9884SOL     OW30550   5.009   2.089   2.152
 9884SOL    HW130551   4.937   2.138   2.103
 9884SOL    HW230552   5.096   2.100   2.104
 9885SOL     OW30553   6.896   2.131   4.658
 9885SOL    HW130554   6.941   2.220   4.667
 9885SOL    HW230555   6.965   2.059   4.651
 9886SOL     OW30556   1.200   4.475   2.465
 9886SOL    HW130557   1.276   4.512   2.518
 9886SOL    HW230558   1.143   4.418   2.524
 9887SOL     OW30559   3.765   0.288   6.159
 9887SOL    HW130560   3.799   0.199   6.130
 9887SOL    HW230561   3.748   0.345   6.079
 9888SOL     OW30562   5.537   4.714   2.865
 9888SOL    HW130563   5.611   4.731   2.801
 9888SOL    HW230564   5.547   4.773   2.945
 9889SOL     OW30565   6.546   5.240   2.027
 9889SOL    HW130566   6.539   5.141   2.019
 9889SOL    HW230567   6.639   5.265   2.056
 9890SOL     OW30568   1.998   2.409   0.707
 9890SOL    HW130569   2.030   2.343   0.639
 9890SOL    HW230570   2.047   2.495   0.695
 9891SOL     OW30571   4.841   3.978   1.875
 9891SOL    HW130572   4.922   4.036   1.863
 9891SOL    HW230573   4.839   3.942   1.968
 9892SOL     OW30574   6.752   4.632   1.188
 9892SOL    HW130575   6.680   4.574   1.226
 9892SOL    HW230576   6.714   4.722   1.166
 9893SOL     OW30577   0.836   0.514   1.083
 9893SOL    HW130578   0.842   0.574   1.162
 9893SOL    HW230579   0.742   0.511   1.050
 9894SOL     OW30580   3.024   2.984   0.799
 9894SOL    HW130581   3.121   2.980   0.776
 9894SOL    HW230582   2.985   2.892   0.790
 9895SOL     OW30583   6.222   4.917   4.453
 9895SOL    HW130584   6.164   4.912   4.372
 9895SOL    HW230585   6.213   5.007   4.496
 9896SOL     OW30586   6.596   1.275   6.745
 9896SOL    HW130587   6.616   1.359   6.796
 9896SOL    HW230588   6.572   1.203   6.809
 9897SOL     OW30589   5.371   6.296   2.738
 9897SOL    HW130590   5.411   6.380   2.774
 9897SOL    HW230591   5.400   6.219   2.794
 9898SOL     OW30592   1.745   6.087   4.897
 9898SOL    HW130593   1.730   6.054   4.990
 9898SOL    HW230594   1.663   6.069   4.842
 9899SOL     OW30595   1.248   5.828   0.756
 9899SOL    HW130596   1.212   5.853   0.846
 9899SOL    HW230597   1.205   5.743   0.725
 9900SOL     OW30598   2.023   2.589   3.083
 9900SOL    HW130599   2.002   2.498   3.119
 9900SOL    HW230600   2.004   2.658   3.153
 9901SOL     OW30601   2.881   0.217   6.781
 9901SOL    HW130602   2.949   0.157   6.822
 9901SOL    HW230603   2.790   0.178   6.793
 9902SOL     OW30604   3.568   5.021   1.464
 9902SOL    HW130605   3.591   5.107   1.509
 9902SOL    HW230606   3.485   5.033   1.409
 9903SOL     OW30607   5.701   2.117   1.430
 9903SOL    HW130608   5.717   2.079   1.339
 9903SOL    HW230609   5.720   2.047   1.499
 9904SOL     OW30610   0.909   3.839   6.730
 9904SOL    HW130611   0.881   3.744   6.744
 9904SOL    HW230612   0.887   3.867   6.637
 9905SOL     OW30613   1.946   0.372   6.370
 9905SOL    HW130614   1.936   0.461   6.415
 9905SOL    HW230615   1.931   0.384   6.271
 9906SOL     OW30616   1.856   3.358   1.294
 9906SOL    HW130617   1.907   3.322   1.216
 9906SOL    HW230618   1.899   3.443   1.325
 9907SOL     OW30619   0.840   6.974   1.476
 9907SOL    HW130620   0.778   6.953   1.551
 9907SOL    HW230621   0.913   0.019   1.508
 9908SOL     OW30622   6.360   1.435   5.434
 9908SOL    HW130623   6.331   1.355   5.382
 9908SOL    HW230624   6.302   1.446   5.515
 9909SOL     OW30625   4.433   1.653   3.024
 9909SOL    HW130626   4.421   1.591   2.946
 9909SOL    HW230627   4.517   1.627   3.073
 9910SOL     OW30628   0.977   5.266   1.477
 9910SOL    HW130629   0.886   5.236   1.447
 9910SOL    HW230630   0.982   5.261   1.576
 9911SOL     OW30631   2.969   5.849   2.571
 9911SOL    HW130632   3.031   5.924   2.547
 9911SOL    HW230633   3.014   5.790   2.638
 9912SOL     OW30634   3.882   6.881   1.384
 9912SOL    HW130635   3.891   6.981   1.384
 9912SOL    HW230636   3.882   6.848   1.290
 9913SOL     OW30637   6.328   4.267   0.326
 9913SOL    HW130638   6.295   4.255   0.232
 9913SOL    HW230639   6.251   4.292   0.385
 9914SOL     OW30640   5.848   1.036   4.861
 9914SOL    HW130641   5.767   1.018   4.804
 9914SOL    HW230642   5.826   1.016   4.956
 9915SOL     OW30643   6.300   1.186   3.884
 9915SOL    HW130644   6.258   1.262   3.834
 9915SOL    HW230645   6.312   1.212   3.980
 9916SOL     OW30646   2.004   2.545   2.762
 9916SOL    HW130647   2.078   2.522   2.700
 9916SOL    HW230648   2.040   2.595   2.841
 9917SOL     OW30649   4.642   3.839   6.441
 9917SOL    HW130650   4.678   3.932   6.449
 9917SOL    HW230651   4.589   3.817   6.523
 9918SOL     OW30652   2.645   2.024   3.437
 9918SOL    HW130653   2.564   2.081   3.447
 9918SOL    HW230654   2.647   1.955   3.508
 9919SOL     OW30655   0.605   5.298   0.747
 9919SOL    HW130656   0.642   5.354   0.674
 9919SOL    HW230657   0.543   5.353   0.803
 9920SOL     OW30658   4.832   1.190   2.490
 9920SOL    HW130659   4.760   1.227   2.549
 9920SOL    HW230660   4.860   1.260   2.424
 9921SOL     OW30661   4.113   6.024   4.374
 9921SOL    HW130662   4.127   6.109   4.324
 9921SOL    HW230663   4.025   6.028   4.423
 9922SOL     OW30664   2.164   3.803   0.567
 9922SOL    HW130665   2.115   3.817   0.481
 9922SOL    HW230666   2.217   3.719   0.563
 9923SOL     OW30667   5.534   4.711   6.937
 9923SOL    HW130668   5.522   4.651   0.001
 9923SOL    HW230669   5.487   4.672   6.858
 9924SOL     OW30670   6.322   1.745   3.174
 9924SOL    HW130671   6.263   1.690   3.115
 9924SOL    HW230672   6.412   1.754   3.132
 9925SOL     OW30673   0.180   4.241   4.233
 9925SOL    HW130674   0.229   4.284   4.309
 9925SOL    HW230675   0.106   4.185   4.270
 9926SOL     OW30676   4.498   3.038   1.359
 9926SOL    HW130677   4.500   3.068   1.455
 9926SOL    HW230678   4.569   3.087   1.308
 9927SOL     OW30679   1.717   0.229   0.484
 9927SOL    HW130680   1.638   0.259   0.432
 9927SOL    HW230681   1.694   0.223   0.581
 9928SOL     OW30682   5.131   4.927   2.979
 9928SOL    HW130683   5.103   5.015   3.018
 9928SOL    HW230684   5.059   4.860   2.995
 9929SOL     OW30685   3.151   4.103   5.062
 9929SOL    HW130686   3.238   4.095   5.013
 9929SOL    HW230687   3.150   4.190   5.113
 9930SOL     OW30688   6.219   6.549   4.751
 9930SOL    HW130689   6.314   6.578   4.762
 9930SOL    HW230690   6.185   6.581   4.662
 9931SOL     OW30691   0.505   5.296   4.643
 9931SOL    HW130692   0.408   5.313   4.624
 9931SOL    HW230693   0.545   5.247   4.566
 9932SOL     OW30694   2.832   3.322   6.054
 9932SOL    HW130695   2.875   3.238   6.085
 9932SOL    HW230696   2.790   3.308   5.964
 9933SOL     OW30697   1.171   6.353   4.022
 9933SOL    HW130698   1.261   6.359   4.066
 9933SOL    HW230699   1.099   6.356   4.092
 9934SOL     OW30700   6.509   2.119   5.573
 9934SOL    HW130701   6.440   2.180   5.533
 9934SOL    HW230702   6.528   2.044   5.510
 9935SOL     OW30703   3.054   6.458   0.408
 9935SOL    HW130704   3.068   6.379   0.468
 9935SOL    HW230705   3.086   6.541   0.454
 9936SOL     OW30706   6.739   4.823   0.177
 9936SOL    HW130707   6.712   4.919   0.174
 9936SOL    HW230708   6.833   4.814   0.143
 9937SOL     OW30709   0.273   1.942   1.505
 9937SOL    HW130710   0.351   1.925   1.444
 9937SOL    HW230711   0.249   1.857   1.552
 9938SOL     OW30712   6.427   5.194   3.593
 9938SOL    HW130713   6.478   5.270   3.553
 9938SOL    HW230714   6.474   5.108   3.572
 9939SOL     OW30715   4.073   2.466   1.702
 9939SOL    HW130716   4.082   2.564   1.684
 9939SOL    HW230717   4.003   2.428   1.641
 9940SOL     OW30718   0.870   0.676   1.312
 9940SOL    HW130719   0.775   0.675   1.343
 9940SOL    HW230720   0.930   0.701   1.388
 9941SOL     OW30721   3.113   3.011   4.521
 9941SOL    HW130722   3.212   3.001   4.512
 9941SOL    HW230723   3.067   2.953   4.454
 9942SOL     OW30724   2.547   5.317   2.999
 9942SOL    HW130725   2.539   5.417   3.005
 9942SOL    HW230726   2.456   5.276   2.994
 9943SOL     OW30727   0.498   4.422   5.636
 9943SOL    HW130728   0.581   4.366   5.642
 9943SOL    HW230729   0.503   4.497   5.701
 9944SOL     OW30730   0.958   4.454   6.601
 9944SOL    HW130731   0.964   4.407   6.512
 9944SOL    HW230732   0.917   4.392   6.668
 9945SOL     OW30733   4.368   5.559   6.502
 9945SOL    HW130734   4.438   5.568   6.431
 9945SOL    HW230735   4.412   5.549   6.591
 9946SOL     OW30736   5.958   0.743   3.372
 9946SOL    HW130737   5.890   0.776   3.437
 9946SOL    HW230738   5.964   0.643   3.377
 9947SOL     OW30739   2.558   2.407   4.331
 9947SOL    HW130740   2.570   2.308   4.332
 9947SOL    HW230741   2.572   2.441   4.239
 9948SOL     OW30742   6.169   4.547   5.993
 9948SOL    HW130743   6.233   4.547   6.070
 9948SOL    HW230744   6.168   4.456   5.951
 9949SOL     OW30745   6.751   4.980   4.035
 9949SOL    HW130746   6.659   4.970   4.074
 9949SOL    HW230747   6.798   5.056   4.079
 9950SOL     OW30748   5.666   6.269   5.437
 9950SOL    HW130749   5.686   6.241   5.343
 9950SOL    HW230750   5.751   6.296   5.482
 9951SOL     OW30751   0.693   1.482   3.765
 9951SOL    HW130752   0.721   1.439   3.680
 9951SOL    HW230753   0.723   1.577   3.766
 9952SOL     OW30754   1.241   4.708   0.299
 9952SOL    HW130755   1.306   4.642   0.335
 9952SOL    HW230756   1.184   4.742   0.374
 9953SOL     OW30757   5.620   2.272   4.708
 9953SOL    HW130758   5.709   2.233   4.686
 9953SOL    HW230759   5.584   2.321   4.629
 9954SOL     OW30760   0.238   0.636   5.921
 9954SOL    HW130761   0.163   0.625   5.856
 9954SOL    HW230762   0.325   0.640   5.870
 9955SOL     OW30763   5.971   3.554   6.330
 9955SOL    HW130764   6.061   3.512   6.318
 9955SOL    HW230765   5.981   3.650   6.356
 9956SOL     OW30766   0.976   5.764   2.539
 9956SOL    HW130767   0.921   5.835   2.496
 9956SOL    HW230768   1.058   5.747   2.485
 9957SOL     OW30769   5.433   6.084   1.938
 9957SOL    HW130770   5.347   6.040   1.911
 9957SOL    HW230771   5.416   6.151   2.009
 9958SOL     OW30772   2.657   5.041   0.095
 9958SOL    HW130773   2.698   5.075   0.010
 9958SOL    HW230774   2.571   4.996   0.075
 9959SOL     OW30775   4.111   3.641   4.344
 9959SOL    HW130776   4.206   3.610   4.337
 9959SOL    HW230777   4.064   3.626   4.257
 9960SOL     OW30778   0.372   0.599   1.894
 9960SOL    HW130779   0.418   0.684   1.921
 9960SOL    HW230780   0.426   0.521   1.924
 9961SOL     OW30781   1.773   5.613   4.348
 9961SOL    HW130782   1.847   5.548   4.328
 9961SOL    HW230783   1.686   5.564   4.348
 9962SOL     OW30784   5.180   6.205   1.308
 9962SOL    HW130785   5.277   6.229   1.315
 9962SOL    HW230786   5.171   6.112   1.272
 9963SOL     OW30787   2.743   3.145   6.496
 9963SOL    HW130788   2.694   3.216   6.546
 9963SOL    HW230789   2.838   3.175   6.481
 9964SOL     OW30790   5.041   3.473   6.141
 9964SOL    HW130791   5.006   3.468   6.235
 9964SOL    HW230792   4.964   3.481   6.078
 9965SOL     OW30793   3.674   5.776   6.374
 9965SOL    HW130794   3.698   5.681   6.354
 9965SOL    HW230795   3.681   5.831   6.291
 9966SOL     OW30796   2.241   5.777   2.403
 9966SOL    HW130797   2.324   5.796   2.456
 9966SOL    HW230798   2.264   5.762   2.307
 9967SOL     OW30799   5.610   0.035   2.100
 9967SOL    HW130800   5.621   0.032   2.000
 9967SOL    HW230801   5.627   6.959   2.138
 9968SOL     OW30802   3.005   3.213   6.467
 9968SOL    HW130803   3.037   3.228   6.561
 9968SOL    HW230804   3.059   3.267   6.404
 9969SOL     OW30805   2.267   2.963   3.552
 9969SOL    HW130806   2.261   2.863   3.557
 9969SOL    HW230807   2.336   2.996   3.617
 9970SOL     OW30808   5.282   4.213   2.750
 9970SOL    HW130809   5.358   4.277   2.745
 9970SOL    HW230810   5.262   4.192   2.846
 9971SOL     OW30811   2.665   4.739   0.802
 9971SOL    HW130812   2.618   4.678   0.866
 9971SOL    HW230813   2.716   4.684   0.736
 9972SOL     OW30814   3.726   4.787   1.408
 9972SOL    HW130815   3.659   4.849   1.447
 9972SOL    HW230816   3.818   4.818   1.431
 9973SOL     OW30817   4.434   2.384   4.586
 9973SOL    HW130818   4.430   2.354   4.681
 9973SOL    HW230819   4.349   2.360   4.539
 9974SOL     OW30820   6.563   3.397   3.758
 9974SOL    HW130821   6.650   3.382   3.806
 9974SOL    HW230822   6.559   3.493   3.727
 9975SOL     OW30823   0.120   4.893   6.704
 9975SOL    HW130824   0.032   4.858   6.670
 9975SOL    HW230825   0.174   4.818   6.741
 9976SOL     OW30826   0.543   6.006   5.553
 9976SOL    HW130827   0.542   5.971   5.647
 9976SOL    HW230828   0.636   6.007   5.518
 9977SOL     OW30829   0.013   5.627   5.275
 9977SOL    HW130830   0.056   5.537   5.285
 9977SOL    HW230831   6.949   5.618   5.214
 9978SOL     OW30832   5.957   3.047   2.986
 9978SOL    HW130833   6.054   3.037   3.008
 9978SOL    HW230834   5.903   2.992   3.049
 9979SOL     OW30835   6.997   4.508   5.608
 9979SOL    HW130836   7.005   4.608   5.609
 9979SOL    HW230837   0.061   4.469   5.560
 9980SOL     OW30838   2.032   1.723   6.337
 9980SOL    HW130839   2.130   1.707   6.336
 9980SOL    HW230840   2.014   1.820   6.319
 9981SOL     OW30841   2.665   1.993   2.085
 9981SOL    HW130842   2.690   2.060   2.015
 9981SOL    HW230843   2.596   2.032   2.146
 9982SOL     OW30844   0.281   0.737   3.632
 9982SOL    HW130845   0.295   0.797   3.554
 9982SOL    HW230846   0.258   0.645   3.601
 9983SOL     OW30847   0.672   2.485   3.822
 9983SOL    HW130848   0.605   2.509   3.752
 9983SOL    HW230849   0.666   2.387   3.841
 9984SOL     OW30850   2.162   0.764   0.381
 9984SOL    HW130851   2.196   0.748   0.474
 9984SOL    HW230852   2.232   0.813   0.328
 9985SOL     OW30853   1.989   1.340   1.657
 9985SOL    HW130854   2.026   1.280   1.585
 9985SOL    HW230855   1.905   1.301   1.694
 9986SOL     OW30856   4.699   4.104   6.352
 9986SOL    HW130857   4.651   4.186   6.385
 9986SOL    HW230858   4.744   4.126   6.265
 9987SOL     OW30859   6.909   2.341   3.617
 9987SOL    HW130860   6.864   2.431   3.620
 9987SOL    HW230861   6.999   2.348   3.660
 9988SOL     OW30862   0.566   5.536   5.248
 9988SOL    HW130863   0.570   5.536   5.148
 9988SOL    HW230864   0.527   5.622   5.280
 9989SOL     OW30865   6.402   4.461   3.466
 9989SOL    HW130866   6.322   4.517   3.443
 9989SOL    HW230867   6.388   4.418   3.555
 9990SOL     OW30868   2.673   6.318   1.821
 9990SOL    HW130869   2.708   6.236   1.866
 9990SOL    HW230870   2.741   6.391   1.827
 9991SOL     OW30871   2.021   2.773   3.687
 9991SOL    HW130872   2.071   2.770   3.600
 9991SOL    HW230873   1.923   2.762   3.670
 9992SOL     OW30874   5.011   4.367   0.293
 9992SOL    HW130875   4.915   4.371   0.265
 9992SOL    HW230876   5.020   4.312   0.376
 9993SOL     OW30877   3.943   0.759   1.672
 9993SOL    HW130878   3.913   0.712   1.755
 9993SOL    HW230879   3.902   0.714   1.592
 9994SOL     OW30880   0.048   4.846   3.318
 9994SOL    HW130881   6.978   4.793   3.316
 9994SOL    HW230882   0.086   4.843   3.411
 9995SOL     OW30883   4.058   1.296   2.783
 9995SOL    HW130884   3.979   1.334   2.831
 9995SOL    HW230885   4.069   1.200   2.808
 9996SOL     OW30886   2.308   3.061   1.665
 9996SOL    HW130887   2.269   3.151   1.684
 9996SOL    HW230888   2.244   3.008   1.609
 9997SOL     OW30889   3.579   1.849   0.794
 9997SOL    HW130890   3.518   1.890   0.862
 9997SOL    HW230891   3.527   1.831   0.710
 9998SOL     OW30892   5.537   4.217   0.760
 9998SOL    HW130893   5.471   4.248   0.692
 9998SOL    HW230894   5.491   4.159   0.827
 9999SOL     OW30895   6.889   2.693   5.354
 9999SOL    HW130896   6.807   2.697   5.297
 9999SOL    HW230897   6.874   2.631   5.431
10000SOL     OW30898   6.676   3.813   6.976
10000SOL    HW130899   6.749   3.763   6.929
10000SOL    HW230900   6.591   3.762   6.969
10001SOL     OW30901   4.905   0.454   1.992
10001SOL    HW130902   4.855   0.521   2.046
10001SOL    HW230903   4.954   0.391   2.053
10002SOL     OW30904   1.717   0.546   2.098
10002SOL    HW130905   1.799   0.565   2.151
10002SOL    HW230906   1.657   0.626   2.100
10003SOL     OW30907   3.817   1.611   3.443
10003SOL    HW130908   3.902   1.659   3.423
10003SOL    HW230909   3.740   1.665   3.410
10004SOL     OW30910   5.506   2.449   3.719
10004SOL    HW130911   5.470   2.423   3.629
10004SOL    HW230912   5.444   2.515   3.761
10005SOL     OW30913   4.801   0.789   4.106
10005SOL    HW130914   4.779   0.761   4.200
10005SOL    HW230915   4.734   0.751   4.043
10006SOL     OW30916   5.132   0.145   4.569
10006SOL    HW130917   5.042   0.118   4.536
10006SOL    HW230918   5.173   0.069   4.620
10007SOL     OW30919   0.880   5.073   5.389
10007SOL    HW130920   0.859   5.007   5.462
10007SOL    HW230921   0.890   5.164   5.429
10008SOL     OW30922   4.459   1.255   4.426
10008SOL    HW130923   4.455   1.284   4.522
10008SOL    HW230924   4.502   1.165   4.420
10009SOL     OW30925   2.109   4.237   1.838
10009SOL    HW130926   2.101   4.284   1.750
10009SOL    HW230927   2.105   4.305   1.912
10010SOL     OW30928   1.733   0.525   5.774
10010SOL    HW130929   1.660   0.490   5.833
10010SOL    HW230930   1.708   0.616   5.740
10011SOL     OW30931   5.591   1.655   5.006
10011SOL    HW130932   5.577   1.622   4.913
10011SOL    HW230933   5.642   1.741   5.004
10012SOL     OW30934   5.163   0.998   3.181
10012SOL    HW130935   5.230   0.999   3.106
10012SOL    HW230936   5.083   1.051   3.155
10013SOL     OW30937   0.910   1.270   3.808
10013SOL    HW130938   0.852   1.322   3.871
10013SOL    HW230939   0.852   1.213   3.750
10014SOL     OW30940   6.873   4.020   0.450
10014SOL    HW130941   6.824   4.031   0.364
10014SOL    HW230942   6.844   3.935   0.494
10015SOL     OW30943   1.568   3.742   0.536
10015SOL    HW130944   1.599   3.680   0.607
10015SOL    HW230945   1.562   3.693   0.449
10016SOL     OW30946   1.795   1.208   6.548
10016SOL    HW130947   1.777   1.174   6.455
10016SOL    HW230948   1.708   1.223   6.595
10017SOL     OW30949   2.861   1.794   3.320
10017SOL    HW130950   2.763   1.781   3.302
10017SOL    HW230951   2.910   1.800   3.233
10018SOL     OW30952   4.336   6.624   5.610
10018SOL    HW130953   4.307   6.578   5.694
10018SOL    HW230954   4.371   6.556   5.545
10019SOL     OW30955   0.028   2.271   2.585
10019SOL    HW130956   6.965   2.225   2.627
10019SOL    HW230957   0.021   2.263   2.485
10020SOL     OW30958   1.579   2.393   1.824
10020SOL    HW130959   1.637   2.339   1.764
10020SOL    HW230960   1.587   2.358   1.918
10021SOL     OW30961   0.376   2.932   1.287
10021SOL    HW130962   0.358   2.873   1.208
10021SOL    HW230963   0.473   2.927   1.312
10022SOL     OW30964   2.742   0.672   6.124
10022SOL    HW130965   2.738   0.573   6.116
10022SOL    HW230966   2.827   0.699   6.169
10023SOL     OW30967   1.219   5.301   6.834
10023SOL    HW130968   1.136   5.294   6.779
10023SOL    HW230969   1.204   5.365   6.909
10024SOL     OW30970   1.980   6.516   2.136
10024SOL    HW130971   1.965   6.575   2.216
10024SOL    HW230972   1.982   6.571   2.053
10025SOL     OW30973   1.655   1.628   1.307
10025SOL    HW130974   1.652   1.529   1.295
10025SOL    HW230975   1.750   1.659   1.309
10026SOL     OW30976   5.724   6.394   3.557
10026SOL    HW130977   5.741   6.325   3.487
10026SOL    HW230978   5.637   6.375   3.602
10027SOL     OW30979   6.683   3.738   4.936
10027SOL    HW130980   6.657   3.752   5.031
10027SOL    HW230981   6.665   3.821   4.883
10028SOL     OW30982   1.770   1.196   1.716
10028SOL    HW130983   1.705   1.270   1.732
10028SOL    HW230984   1.734   1.134   1.646
10029SOL     OW30985   5.119   1.929   4.543
10029SOL    HW130986   5.054   1.939   4.468
10029SOL    HW230987   5.169   2.015   4.555
10030SOL     OW30988   2.692   6.967   3.469
10030SOL    HW130989   2.641   0.035   3.490
10030SOL    HW230990   2.629   6.891   3.457
10031SOL     OW30991   5.731   5.095   4.994
10031SOL    HW130992   5.719   5.143   5.081
10031SOL    HW230993   5.782   5.010   5.010
10032SOL     OW30994   1.990   1.633   5.199
10032SOL    HW130995   1.952   1.718   5.236
10032SOL    HW230996   2.047   1.653   5.119
10033SOL     OW30997   6.060   2.862   4.331
10033SOL    HW130998   6.015   2.852   4.243
10033SOL    HW230999   6.135   2.928   4.323
10034SOL     OW31000   3.552   0.395   3.884
10034SOL    HW131001   3.597   0.465   3.939
10034SOL    HW231002   3.458   0.423   3.864
10035SOL     OW31003   6.280   4.434   1.447
10035SOL    HW131004   6.321   4.472   1.530
10035SOL    HW231005   6.182   4.419   1.462
10036SOL     OW31006   6.157   2.298   1.394
10036SOL    HW131007   6.142   2.381   1.341
10036SOL    HW231008   6.128   2.219   1.340
10037SOL     OW31009   0.023   1.501   0.278
10037SOL    HW131010   6.992   1.553   0.349
10037SOL    HW231011   0.072   1.424   0.318
10038SOL     OW31012   5.518   0.481   0.221
10038SOL    HW131013   5.438   0.422   0.213
10038SOL    HW231014   5.527   0.535   0.137
10039SOL     OW31015   3.486   0.715   3.706
10039SOL    HW131016   3.500   0.704   3.805
10039SOL    HW231017   3.415   0.653   3.675
10040SOL     OW31018   5.135   5.004   6.458
10040SOL    HW131019   5.218   5.007   6.513
10040SOL    HW231020   5.126   5.088   6.405
10041SOL     OW31021   4.127   5.774   6.937
10041SOL    HW131022   4.112   5.774   6.838
10041SOL    HW231023   4.204   5.714   6.958
10042SOL     OW31024   0.621   2.087   4.076
10042SOL    HW131025   0.586   2.173   4.037
10042SOL    HW231026   0.640   2.101   4.173
10043SOL     OW31027   6.895   1.377   4.998
10043SOL    HW131028   6.801   1.404   4.978
10043SOL    HW231029   6.895   1.298   5.059
10044SOL     OW31030   2.061   2.271   4.671
10044SOL    HW131031   2.104   2.313   4.591
10044SOL    HW231032   1.997   2.337   4.712
10045SOL     OW31033   3.840   0.681   1.923
10045SOL    HW131034   3.748   0.648   1.902
10045SOL    HW231035   3.887   0.615   1.982
10046SOL     OW31036   1.942   3.740   0.856
10046SOL    HW131037   1.858   3.711   0.902
10046SOL    HW231038   1.952   3.689   0.770
10047SOL     OW31039   0.915   3.554   4.721
10047SOL    HW131040   0.933   3.510   4.633
10047SOL    HW231041   0.982   3.523   4.788
10048SOL     OW31042   0.401   6.510   2.661
10048SOL    HW131043   0.483   6.539   2.611
10048SOL    HW231044   0.420   6.511   2.759
10049SOL     OW31045   1.900   1.551   5.599
10049SOL    HW131046   1.856   1.637   5.624
10049SOL    HW231047   1.862   1.476   5.653
10050SOL     OW31048   5.614   3.916   5.332
10050SOL    HW131049   5.526   3.885   5.296
10050SOL    HW231050   5.645   3.995   5.279
10051SOL     OW31051   0.378   4.171   4.732
10051SOL    HW131052   0.381   4.123   4.644
10051SOL    HW231053   0.414   4.263   4.721
10052SOL     OW31054   2.205   1.164   3.338
10052SOL    HW131055   2.153   1.097   3.285
10052SOL    HW231056   2.150   1.195   3.416
10053SOL     OW31057   4.236   5.777   4.294
10053SOL    HW131058   4.202   5.718   4.220
10053SOL    HW231059   4.177   5.857   4.303
10054SOL     OW31060   6.025   4.557   5.386
10054SOL    HW131061   5.976   4.630   5.339
10054SOL    HW231062   5.989   4.469   5.357
10055SOL     OW31063   6.312   2.310   5.462
10055SOL    HW131064   6.344   2.392   5.511
10055SOL    HW231065   6.305   2.331   5.364
10056SOL     OW31066   5.336   4.675   3.528
10056SOL    HW131067   5.333   4.727   3.443
10056SOL    HW231068   5.271   4.714   3.593
10057SOL     OW31069   5.554   4.271   5.491
10057SOL    HW131070   5.483   4.323   5.444
10057SOL    HW231071   5.511   4.203   5.551
10058SOL     OW31072   6.712   3.482   4.823
10058SOL    HW131073   6.704   3.426   4.906
10058SOL    HW231074   6.705   3.579   4.847
10059SOL     OW31075   0.009   1.912   0.240
10059SOL    HW131076   7.011   1.964   0.156
10059SOL    HW231077   0.106   1.898   0.257
10060SOL     OW31078   2.299   2.250   2.873
10060SOL    HW131079   2.382   2.198   2.894
10060SOL    HW231080   2.278   2.312   2.948
10061SOL     OW31081   4.573   1.121   4.078
10061SOL    HW131082   4.627   1.080   4.005
10061SOL    HW231083   4.563   1.219   4.061
10062SOL     OW31084   6.411   6.968   4.262
10062SOL    HW131085   6.486   6.954   4.197
10062SOL    HW231086   6.402   6.888   4.321
10063SOL     OW31087   3.098   1.678   4.636
10063SOL    HW131088   3.186   1.684   4.589
10063SOL    HW231089   3.083   1.762   4.688
10064SOL     OW31090   4.208   5.785   6.334
10064SOL    HW131091   4.259   5.702   6.312
10064SOL    HW231092   4.267   5.851   6.379
10065SOL     OW31093   1.967   1.279   1.321
10065SOL    HW131094   1.963   1.340   1.242
10065SOL    HW231095   2.060   1.280   1.359
10066SOL     OW31096   0.261   2.579   4.775
10066SOL    HW131097   0.224   2.488   4.792
10066SOL    HW231098   0.187   2.641   4.748
10067SOL     OW31099   0.235   3.232   6.431
10067SOL    HW131100   0.265   3.241   6.526
10067SOL    HW231101   0.304   3.273   6.371
10068SOL     OW31102   1.038   3.884   3.648
10068SOL    HW131103   1.068   3.854   3.738
10068SOL    HW231104   0.941   3.861   3.635
10069SOL     OW31105   3.022   4.962   1.668
10069SOL    HW131106   3.004   4.993   1.575
10069SOL    HW231107   2.938   4.924   1.708
10070SOL     OW31108   0.650   5.090   5.142
10070SOL    HW131109   0.569   5.031   5.134
10070SOL    HW231110   0.727   5.037   5.177
10071SOL     OW31111   1.352   0.372   4.076
10071SOL    HW131112   1.259   0.401   4.095
10071SOL    HW231113   1.352   0.307   4.000
10072SOL     OW31114   0.661   1.247   3.193
10072SOL    HW131115   0.579   1.193   3.212
10072SOL    HW231116   0.657   1.281   3.099
10073SOL     OW31117   6.470   3.917   3.765
10073SOL    HW131118   6.398   3.944   3.701
10073SOL    HW231119   6.529   3.995   3.784
10074SOL     OW31120   1.711   5.872   0.669
10074SOL    HW131121   1.716   5.782   0.711
10074SOL    HW231122   1.770   5.875   0.589
10075SOL     OW31123   1.957   0.820   2.722
10075SOL    HW131124   1.865   0.809   2.685
10075SOL    HW231125   1.964   0.771   2.809
10076SOL     OW31126   4.908   5.644   3.133
10076SOL    HW131127   4.972   5.676   3.202
10076SOL    HW231128   4.954   5.639   3.044
10077SOL     OW31129   5.309   2.495   0.266
10077SOL    HW131130   5.344   2.445   0.346
10077SOL    HW231131   5.220   2.458   0.240
10078SOL     OW31132   0.818   6.534   4.842
10078SOL    HW131133   0.830   6.615   4.785
10078SOL    HW231134   0.786   6.457   4.786
10079SOL     OW31135   5.391   2.294   3.016
10079SOL    HW131136   5.441   2.283   2.930
10079SOL    HW231137   5.364   2.389   3.028
10080SOL     OW31138   5.109   0.922   6.331
10080SOL    HW131139   5.089   0.891   6.238
10080SOL    HW231140   5.201   0.893   6.357
10081SOL     OW31141   0.738   1.676   0.213
10081SOL    HW131142   0.811   1.624   0.169
10081SOL    HW231143   0.649   1.640   0.183
10082SOL     OW31144   1.375   5.354   3.783
10082SOL    HW131145   1.361   5.279   3.847
10082SOL    HW231146   1.427   5.427   3.828
10083SOL     OW31147   3.217   6.863   3.694
10083SOL    HW131148   3.188   6.931   3.760
10083SOL    HW231149   3.223   6.904   3.603
10084SOL     OW31150   6.884   0.002   5.018
10084SOL    HW131151   6.972   6.975   5.040
10084SOL    HW231152   6.898   0.099   4.994
10085SOL     OW31153   4.747   6.789   0.757
10085SOL    HW131154   4.682   6.795   0.833
10085SOL    HW231155   4.699   6.809   0.671
10086SOL     OW31156   6.149   6.185   3.081
10086SOL    HW131157   6.070   6.187   3.019
10086SOL    HW231158   6.174   6.278   3.106
10087SOL     OW31159   0.007   6.519   4.339
10087SOL    HW131160   6.942   6.578   4.339
10087SOL    HW231161   0.090   6.574   4.329
10088SOL     OW31162   6.812   0.956   0.213
10088SOL    HW131163   6.761   1.008   0.281
10088SOL    HW231164   6.781   0.861   0.213
10089SOL     OW31165   3.035   1.238   3.412
10089SOL    HW131166   3.040   1.270   3.317
10089SOL    HW231167   2.947   1.264   3.452
10090SOL     OW31168   0.905   4.728   2.417
10090SOL    HW131169   0.890   4.740   2.515
10090SOL    HW231170   0.827   4.680   2.377
10091SOL     OW31171   6.599   6.007   6.680
10091SOL    HW131172   6.531   6.077   6.699
10091SOL    HW231173   6.593   5.935   6.750
10092SOL     OW31174   1.468   3.114   5.157
10092SOL    HW131175   1.567   3.103   5.160
10092SOL    HW231176   1.437   3.110   5.062
10093SOL     OW31177   4.973   3.432   4.826
10093SOL    HW131178   4.941   3.340   4.848
10093SOL    HW231179   4.941   3.496   4.896
10094SOL     OW31180   2.334   6.581   0.840
10094SOL    HW131181   2.299   6.659   0.789
10094SOL    HW231182   2.300   6.585   0.934
10095SOL     OW31183   5.396   1.828   4.864
10095SOL    HW131184   5.425   1.924   4.862
10095SOL    HW231185   5.448   1.776   4.797
10096SOL     OW31186   5.094   1.031   2.479
10096SOL    HW131187   5.041   1.112   2.503
10096SOL    HW231188   5.168   1.057   2.416
10097SOL     OW31189   2.202   2.369   6.384
10097SOL    HW131190   2.261   2.292   6.358
10097SOL    HW231191   2.256   2.434   6.438
10098SOL     OW31192   2.948   5.832   4.423
10098SOL    HW131193   2.973   5.735   4.429
10098SOL    HW231194   2.852   5.840   4.399
10099SOL     OW31195   6.348   4.176   1.717
10099SOL    HW131196   6.409   4.216   1.785
10099SOL    HW231197   6.383   4.196   1.625
10100SOL     OW31198   5.601   4.961   5.399
10100SOL    HW131199   5.617   5.060   5.405
10100SOL    HW231200   5.688   4.914   5.388
10101SOL     OW31201   6.747   3.075   1.872
10101SOL    HW131202   6.787   2.984   1.871
10101SOL    HW231203   6.724   3.100   1.966
10102SOL     OW31204   5.755   0.404   0.701
10102SOL    HW131205   5.700   0.394   0.784
10102SOL    HW231206   5.851   0.417   0.726
10103SOL     OW31207   1.084   0.570   5.522
10103SOL    HW131208   1.118   0.480   5.494
10103SOL    HW231209   0.984   0.572   5.510
10104SOL     OW31210   2.268   0.701   6.257
10104SOL    HW131211   2.347   0.652   6.293
10104SOL    HW231212   2.298   0.765   6.186
10105SOL     OW31213   2.685   1.042   5.984
10105SOL    HW131214   2.597   1.006   6.016
10105SOL    HW231215   2.722   0.982   5.913
10106SOL     OW31216   4.362   5.965   1.522
10106SOL    HW131217   4.303   5.884   1.532
10106SOL    HW231218   4.434   5.962   1.591
10107SOL     OW31219   5.046   3.587   6.719
10107SOL    HW131220   4.970   3.638   6.678
10107SOL    HW231221   5.096   3.538   6.648
10108SOL     OW31222   1.352   2.461   0.841
10108SOL    HW131223   1.376   2.441   0.935
10108SOL    HW231224   1.433   2.456   0.783
10109SOL     OW31225   0.922   0.989   0.112
10109SOL    HW131226   0.929   1.021   0.018
10109SOL    HW231227   0.826   0.994   0.142
10110SOL     OW31228   4.578   5.043   2.675
10110SOL    HW131229   4.560   5.068   2.770
10110SOL    HW231230   4.493   5.016   2.631
10111SOL     OW31231   1.272   2.723   2.353
10111SOL    HW131232   1.218   2.797   2.313
10111SOL    HW231233   1.341   2.762   2.414
10112SOL     OW31234   6.765   3.630   2.983
10112SOL    HW131235   6.790   3.617   3.079
10112SOL    HW231236   6.667   3.651   2.976
10113SOL     OW31237   4.314   0.773   6.756
10113SOL    HW131238   4.314   0.697   6.691
10113SOL    HW231239   4.377   0.844   6.723
10114SOL     OW31240   3.905   2.195   3.077
10114SOL    HW131241   3.970   2.217   3.150
10114SOL    HW231242   3.949   2.209   2.988
10115SOL     OW31243   4.311   1.713   4.337
10115SOL    HW131244   4.357   1.675   4.257
10115SOL    HW231245   4.339   1.663   4.418
10116SOL     OW31246   5.538   0.096   5.690
10116SOL    HW131247   5.525   0.157   5.613
10116SOL    HW231248   5.619   0.124   5.742
10117SOL     OW31249   6.716   5.612   5.685
10117SOL    HW131250   6.655   5.541   5.722
10117SOL    HW231251   6.741   5.675   5.758
10118SOL     OW31252   2.780   4.925   4.309
10118SOL    HW131253   2.793   4.967   4.399
10118SOL    HW231254   2.724   4.843   4.318
10119SOL     OW31255   6.984   5.408   3.835
10119SOL    HW131256   0.014   5.422   3.748
10119SOL    HW231257   0.037   5.397   3.907
10120SOL     OW31258   1.581   2.906   2.720
10120SOL    HW131259   1.661   2.847   2.728
10120SOL    HW231260   1.611   3.002   2.714
10121SOL     OW31261   5.526   4.566   0.594
10121SOL    HW131262   5.606   4.580   0.652
10121SOL    HW231263   5.542   4.488   0.532
10122SOL     OW31264   5.915   2.187   3.355
10122SOL    HW131265   5.973   2.147   3.284
10122SOL    HW231266   5.971   2.242   3.417
10123SOL     OW31267   6.066   6.472   0.579
10123SOL    HW131268   6.137   6.432   0.520
10123SOL    HW231269   6.105   6.548   0.630
10124SOL     OW31270   1.184   5.269   2.592
10124SOL    HW131271   1.089   5.300   2.587
10124SOL    HW231272   1.198   5.219   2.677
10125SOL     OW31273   1.821   1.059   1.989
10125SOL    HW131274   1.873   1.130   2.036
10125SOL    HW231275   1.768   1.099   1.914
10126SOL     OW31276   6.074   0.021   5.987
10126SOL    HW131277   6.097   6.980   5.908
10126SOL    HW231278   5.977   0.011   6.008
10127SOL     OW31279   1.237   4.628   6.310
10127SOL    HW131280   1.210   4.707   6.366
10127SOL    HW231281   1.261   4.660   6.218
10128SOL     OW31282   2.848   0.522   0.206
10128SOL    HW131283   2.803   0.593   0.259
10128SOL    HW231284   2.829   0.536   0.109
10129SOL     OW31285   6.915   1.626   2.099
10129SOL    HW131286   6.820   1.647   2.075
10129SOL    HW231287   6.922   1.608   2.197
10130SOL     OW31288   1.037   2.430   1.679
10130SOL    HW131289   1.130   2.444   1.645
10130SOL    HW231290   1.035   2.444   1.778
10131SOL     OW31291   1.797   0.861   4.202
10131SOL    HW131292   1.846   0.939   4.163
10131SOL    HW231293   1.818   0.854   4.299
10132SOL     OW31294   0.242   6.899   2.287
10132SOL    HW131295   0.317   6.833   2.296
10132SOL    HW231296   0.271   6.988   2.319
10133SOL     OW31297   4.686   5.569   1.311
10133SOL    HW131298   4.603   5.535   1.354
10133SOL    HW231299   4.669   5.660   1.273
10134SOL     OW31300   6.893   1.058   2.713
10134SOL    HW131301   6.956   1.135   2.709
10134SOL    HW231302   6.860   1.037   2.621
10135SOL     OW31303   5.681   1.253   3.767
10135SOL    HW131304   5.595   1.302   3.750
10135SOL    HW231305   5.701   1.253   3.865
10136SOL     OW31306   4.913   2.692   2.492
10136SOL    HW131307   4.995   2.696   2.434
10136SOL    HW231308   4.889   2.784   2.521
10137SOL     OW31309   0.576   5.317   5.677
10137SOL    HW131310   0.564   5.227   5.636
10137SOL    HW231311   0.492   5.370   5.667
10138SOL     OW31312   5.873   1.725   6.719
10138SOL    HW131313   5.883   1.763   6.811
10138SOL    HW231314   5.962   1.694   6.685
10139SOL     OW31315   3.575   3.184   4.967
10139SOL    HW131316   3.541   3.277   4.953
10139SOL    HW231317   3.515   3.119   4.921
10140SOL     OW31318   6.749   6.505   5.839
10140SOL    HW131319   6.721   6.568   5.767
10140SOL    HW231320   6.841   6.471   5.820
10141SOL     OW31321   3.690   1.297   3.936
10141SOL    HW131322   3.787   1.317   3.950
10141SOL    HW231323   3.643   1.294   4.024
10142SOL     OW31324   5.936   6.245   4.787
10142SOL    HW131325   5.838   6.252   4.773
10142SOL    HW231326   5.973   6.335   4.814
10143SOL     OW31327   5.515   2.905   0.154
10143SOL    HW131328   5.615   2.902   0.152
10143SOL    HW231329   5.480   2.825   0.203
10144SOL     OW31330   4.037   6.683   5.270
10144SOL    HW131331   4.009   6.645   5.359
10144SOL    HW231332   4.045   6.782   5.277
10145SOL     OW31333   4.389   6.365   2.242
10145SOL    HW131334   4.350   6.345   2.152
10145SOL    HW231335   4.408   6.463   2.249
10146SOL     OW31336   7.002   4.048   4.424
10146SOL    HW131337   6.964   4.129   4.468
10146SOL    HW231338   6.931   4.002   4.371
10147SOL     OW31339   4.366   4.923   6.957
10147SOL    HW131340   4.291   4.971   7.002
10147SOL    HW231341   4.398   4.976   6.879
10148SOL     OW31342   0.303   5.124   0.917
10148SOL    HW131343   0.315   5.086   0.825
10148SOL    HW231344   0.263   5.215   0.911
10149SOL     OW31345   4.758   4.933   1.676
10149SOL    HW131346   4.781   4.911   1.581
10149SOL    HW231347   4.803   4.868   1.737
10150SOL     OW31348   4.825   3.769   1.696
10150SOL    HW131349   4.860   3.837   1.760
10150SOL    HW231350   4.899   3.709   1.666
10151SOL     OW31351   0.116   0.258   5.457
10151SOL    HW131352   0.030   0.231   5.414
10151SOL    HW231353   0.103   0.269   5.555
10152SOL     OW31354   6.106   6.021   3.312
10152SOL    HW131355   6.109   6.070   3.224
10152SOL    HW231356   6.174   5.949   3.312
10153SOL     OW31357   4.186   5.861   3.766
10153SOL    HW131358   4.170   5.819   3.856
10153SOL    HW231359   4.236   5.798   3.707
10154SOL     OW31360   4.052   4.840   5.487
10154SOL    HW131361   4.041   4.755   5.436
10154SOL    HW231362   4.032   4.917   5.427
10155SOL     OW31363   4.582   2.031   5.882
10155SOL    HW131364   4.641   2.023   5.962
10155SOL    HW231365   4.510   2.099   5.901
10156SOL     OW31366   4.301   0.281   1.331
10156SOL    HW131367   4.227   0.328   1.282
10156SOL    HW231368   4.333   0.338   1.407
10157SOL     OW31369   0.537   2.624   0.221
10157SOL    HW131370   0.563   2.640   0.316
10157SOL    HW231371   0.484   2.702   0.187
10158SOL     OW31372   5.559   6.697   2.676
10158SOL    HW131373   5.467   6.731   2.657
10158SOL    HW231374   5.600   6.662   2.592
10159SOL     OW31375   3.473   2.879   2.808
10159SOL    HW131376   3.432   2.854   2.896
10159SOL    HW231377   3.413   2.850   2.734
10160SOL     OW31378   1.948   4.203   2.305
10160SOL    HW131379   1.898   4.166   2.383
10160SOL    HW231380   1.986   4.128   2.251
10161SOL     OW31381   3.585   4.624   5.932
10161SOL    HW131382   3.664   4.572   5.900
10161SOL    HW231383   3.575   4.612   6.030
10162SOL     OW31384   1.725   4.605   1.473
10162SOL    HW131385   1.803   4.661   1.503
10162SOL    HW231386   1.752   4.550   1.394
10163SOL     OW31387   1.361   5.885   5.312
10163SOL    HW131388   1.428   5.910   5.382
10163SOL    HW231389   1.269   5.896   5.349
10164SOL     OW31390   6.310   3.407   3.610
10164SOL    HW131391   6.364   3.365   3.683
10164SOL    HW231392   6.224   3.441   3.648
10165SOL     OW31393   5.619   2.785   3.625
10165SOL    HW131394   5.627   2.820   3.718
10165SOL    HW231395   5.677   2.705   3.614
10166SOL     OW31396   1.432   2.465   1.092
10166SOL    HW131397   1.484   2.549   1.109
10166SOL    HW231398   1.492   2.386   1.100
10167SOL     OW31399   0.494   4.958   6.529
10167SOL    HW131400   0.488   4.992   6.623
10167SOL    HW231401   0.586   4.975   6.494
10168SOL     OW31402   6.124   1.563   6.449
10168SOL    HW131403   6.027   1.546   6.435
10168SOL    HW231404   6.142   1.579   6.546
10169SOL     OW31405   0.326   3.624   3.234
10169SOL    HW131406   0.269   3.544   3.254
10169SOL    HW231407   0.268   3.698   3.200
10170SOL     OW31408   6.460   5.424   0.173
10170SOL    HW131409   6.446   5.400   0.269
10170SOL    HW231410   6.534   5.490   0.166
10171SOL     OW31411   1.348   2.718   5.842
10171SOL    HW131412   1.321   2.674   5.927
10171SOL    HW231413   1.278   2.786   5.817
10172SOL     OW31414   6.705   6.829   3.471
10172SOL    HW131415   6.776   6.888   3.509
10172SOL    HW231416   6.743   6.776   3.395
10173SOL     OW31417   3.667   4.816   0.425
10173SOL    HW131418   3.723   4.870   0.488
10173SOL    HW231419   3.655   4.724   0.462
10174SOL     OW31420   5.221   6.633   3.232
10174SOL    HW131421   5.170   6.631   3.318
10174SOL    HW231422   5.319   6.627   3.252
10175SOL     OW31423   6.606   1.893   3.123
10175SOL    HW131424   6.685   1.873   3.181
10175SOL    HW231425   6.591   1.992   3.121
10176SOL     OW31426   6.164   3.084   5.768
10176SOL    HW131427   6.263   3.079   5.766
10176SOL    HW231428   6.126   2.993   5.788
10177SOL     OW31429   2.353   0.342   1.356
10177SOL    HW131430   2.395   0.261   1.315
10177SOL    HW231431   2.256   0.346   1.329
10178SOL     OW31432   1.591   1.037   0.847
10178SOL    HW131433   1.615   1.002   0.938
10178SOL    HW231434   1.629   1.128   0.835
10179SOL     OW31435   0.036   4.144   0.232
10179SOL    HW131436   6.991   4.150   0.152
10179SOL    HW231437   0.095   4.064   0.224
10180SOL     OW31438   4.669   6.866   6.979
10180SOL    HW131439   4.654   6.965   6.971
10180SOL    HW231440   4.704   6.845   0.055
10181SOL     OW31441   6.507   3.360   1.405
10181SOL    HW131442   6.525   3.277   1.458
10181SOL    HW231443   6.499   3.336   1.308
10182SOL     OW31444   5.759   1.320   0.403
10182SOL    HW131445   5.686   1.306   0.469
10182SOL    HW231446   5.834   1.256   0.421
10183SOL     OW31447   6.198   2.911   6.332
10183SOL    HW131448   6.219   2.966   6.251
10183SOL    HW231449   6.258   2.831   6.334
10184SOL     OW31450   5.730   2.950   6.692
10184SOL    HW131451   5.738   2.915   6.598
10184SOL    HW231452   5.819   2.981   6.724
10185SOL     OW31453   4.310   6.161   2.729
10185SOL    HW131454   4.386   6.112   2.685
10185SOL    HW231455   4.227   6.106   2.724
10186SOL     OW31456   4.791   3.618   5.662
10186SOL    HW131457   4.822   3.697   5.609
10186SOL    HW231458   4.697   3.597   5.639
10187SOL     OW31459   2.173   4.076   5.602
10187SOL    HW131460   2.202   4.130   5.523
10187SOL    HW231461   2.195   3.979   5.586
10188SOL     OW31462   2.595   6.287   0.166
10188SOL    HW131463   2.612   6.337   0.251
10188SOL    HW231464   2.496   6.274   0.155
10189SOL     OW31465   1.590   0.942   0.057
10189SOL    HW131466   1.633   0.973   0.142
10189SOL    HW231467   1.492   0.959   0.061
10190SOL     OW31468   3.379   4.053   1.504
10190SOL    HW131469   3.309   3.990   1.470
10190SOL    HW231470   3.336   4.136   1.538
10191SOL     OW31471   6.254   5.458   1.005
10191SOL    HW131472   6.331   5.486   0.947
10191SOL    HW231473   6.169   5.489   0.963
10192SOL     OW31474   2.168   1.663   4.982
10192SOL    HW131475   2.115   1.714   4.914
10192SOL    HW231476   2.266   1.670   4.959
10193SOL     OW31477   3.610   3.657   2.078
10193SOL    HW131478   3.685   3.674   2.141
10193SOL    HW231479   3.638   3.589   2.010
10194SOL     OW31480   3.101   0.348   4.743
10194SOL    HW131481   3.013   0.364   4.787
10194SOL    HW231482   3.126   0.252   4.752
10195SOL     OW31483   5.893   0.188   1.721
10195SOL    HW131484   5.800   0.178   1.757
10195SOL    HW231485   5.892   0.179   1.622
10196SOL     OW31486   5.442   2.413   3.467
10196SOL    HW131487   5.349   2.449   3.461
10196SOL    HW231488   5.464   2.362   3.384
10197SOL     OW31489   5.678   0.155   3.193
10197SOL    HW131490   5.596   0.107   3.226
10197SOL    HW231491   5.654   0.247   3.163
10198SOL     OW31492   3.834   6.065   0.997
10198SOL    HW131493   3.748   6.114   0.989
10198SOL    HW231494   3.909   6.122   0.964
10199SOL     OW31495   0.984   1.426   0.157
10199SOL    HW131496   0.957   1.333   0.182
10199SOL    HW231497   0.957   1.445   0.063
10200SOL     OW31498   5.234   3.315   5.897
10200SOL    HW131499   5.267   3.228   5.858
10200SOL    HW231500   5.165   3.295   5.966
10201SOL     OW31501   0.204   5.699   1.811
10201SOL    HW131502   0.192   5.798   1.818
10201SOL    HW231503   0.224   5.674   1.717
10202SOL     OW31504   0.713   3.667   1.325
10202SOL    HW131505   0.665   3.678   1.411
10202SOL    HW231506   0.658   3.706   1.251
10203SOL     OW31507   1.796   2.709   2.724
10203SOL    HW131508   1.767   2.696   2.630
10203SOL    HW231509   1.884   2.664   2.738
10204SOL     OW31510   3.074   4.377   6.182
10204SOL    HW131511   3.123   4.463   6.193
10204SOL    HW231512   2.991   4.379   6.237
10205SOL     OW31513   4.260   1.373   3.038
10205SOL    HW131514   4.224   1.410   3.124
10205SOL    HW231515   4.250   1.442   2.966
10206SOL     OW31516   5.131   5.913   5.747
10206SOL    HW131517   5.211   5.962   5.781
10206SOL    HW231518   5.074   5.975   5.692
10207SOL     OW31519   1.870   0.527   1.462
10207SOL    HW131520   1.876   0.624   1.485
10207SOL    HW231521   1.805   0.514   1.387
10208SOL     OW31522   6.213   5.820   5.571
10208SOL    HW131523   6.240   5.916   5.556
10208SOL    HW231524   6.285   5.773   5.621
10209SOL     OW31525   0.058   0.924   6.010
10209SOL    HW131526   0.037   1.022   6.000
10209SOL    HW231527   6.996   0.870   5.978
10210SOL     OW31528   5.450   6.455   1.696
10210SOL    HW131529   5.406   6.536   1.735
10210SOL    HW231530   5.448   6.460   1.596
10211SOL     OW31531   3.579   6.607   5.685
10211SOL    HW131532   3.482   6.630   5.672
10211SOL    HW231533   3.590   6.508   5.684
10212SOL     OW31534   0.855   1.326   4.345
10212SOL    HW131535   0.839   1.368   4.435
10212SOL    HW231536   0.875   1.229   4.357
10213SOL     OW31537   5.828   1.633   2.457
10213SOL    HW131538   5.846   1.701   2.529
10213SOL    HW231539   5.891   1.649   2.380
10214SOL     OW31540   0.358   0.863   2.449
10214SOL    HW131541   0.343   0.816   2.536
10214SOL    HW231542   0.328   0.804   2.374
10215SOL     OW31543   3.051   2.996   5.286
10215SOL    HW131544   3.059   2.998   5.186
10215SOL    HW231545   3.047   3.090   5.320
10216SOL     OW31546   6.909   6.945   0.925
10216SOL    HW131547   6.986   6.896   0.885
10216SOL    HW231548   6.942   0.012   0.972
10217SOL     OW31549   2.429   1.410   4.425
10217SOL    HW131550   2.347   1.384   4.374
10217SOL    HW231551   2.457   1.333   4.483
10218SOL     OW31552   1.069   1.244   1.495
10218SOL    HW131553   1.104   1.239   1.401
10218SOL    HW231554   1.145   1.228   1.559
10219SOL     OW31555   0.341   2.546   2.712
10219SOL    HW131556   0.410   2.492   2.760
10219SOL    HW231557   0.250   2.518   2.741
10220SOL     OW31558   4.150   1.799   1.689
10220SOL    HW131559   4.239   1.764   1.720
10220SOL    HW231560   4.155   1.817   1.591
10221SOL     OW31561   1.276   2.190   3.981
10221SOL    HW131562   1.236   2.257   3.919
10221SOL    HW231563   1.365   2.161   3.946
10222SOL     OW31564   1.539   3.915   5.495
10222SOL    HW131565   1.610   3.947   5.558
10222SOL    HW231566   1.531   3.979   5.419
10223SOL     OW31567   1.793   5.371   6.458
10223SOL    HW131568   1.854   5.311   6.509
10223SOL    HW231569   1.742   5.318   6.390
10224SOL     OW31570   0.929   1.062   4.382
10224SOL    HW131571   1.006   1.087   4.324
10224SOL    HW231572   0.910   0.964   4.373
10225SOL     OW31573   1.062   6.180   5.498
10225SOL    HW131574   1.045   6.132   5.584
10225SOL    HW231575   1.082   6.276   5.516
10226SOL     OW31576   2.811   0.565   6.949
10226SOL    HW131577   2.759   0.651   6.953
10226SOL    HW231578   2.789   0.516   6.866
10227SOL     OW31579   4.700   4.940   0.933
10227SOL    HW131580   4.782   4.942   0.876
10227SOL    HW231581   4.711   5.004   1.010
10228SOL     OW31582   0.594   4.886   2.102
10228SOL    HW131583   0.552   4.849   2.185
10228SOL    HW231584   0.606   4.813   2.035
10229SOL     OW31585   1.214   1.134   4.014
10229SOL    HW131586   1.152   1.063   4.046
10229SOL    HW231587   1.276   1.160   4.088
10230SOL     OW31588   6.955   0.761   3.539
10230SOL    HW131589   6.941   0.838   3.602
10230SOL    HW231590   6.933   0.789   3.446
10231SOL     OW31591   6.682   6.669   5.629
10231SOL    HW131592   6.660   6.751   5.575
10231SOL    HW231593   6.683   6.589   5.568
10232SOL     OW31594   3.781   0.940   4.319
10232SOL    HW131595   3.742   0.874   4.384
10232SOL    HW231596   3.769   0.907   4.226
10233SOL     OW31597   5.343   2.814   5.392
10233SOL    HW131598   5.279   2.787   5.464
10233SOL    HW231599   5.301   2.885   5.336
10234SOL     OW31600   5.265   0.332   0.928
10234SOL    HW131601   5.319   0.258   0.968
10234SOL    HW231602   5.321   0.414   0.920
10235SOL     OW31603   4.827   1.163   0.392
10235SOL    HW131604   4.802   1.194   0.300
10235SOL    HW231605   4.744   1.144   0.444
10236SOL     OW31606   1.825   6.268   1.861
10236SOL    HW131607   1.823   6.171   1.836
10236SOL    HW231608   1.769   6.284   1.941
10237SOL     OW31609   6.399   4.287   1.008
10237SOL    HW131610   6.463   4.231   0.955
10237SOL    HW231611   6.414   4.384   0.985
10238SOL     OW31612   3.505   3.838   4.587
10238SOL    HW131613   3.593   3.806   4.623
10238SOL    HW231614   3.430   3.788   4.630
10239SOL     OW31615   1.299   4.490   5.110
10239SOL    HW131616   1.355   4.434   5.049
10239SOL    HW231617   1.351   4.572   5.137
10240SOL     OW31618   1.440   4.610   2.641
10240SOL    HW131619   1.433   4.657   2.729
10240SOL    HW231620   1.454   4.676   2.568
10241SOL     OW31621   0.169   0.779   1.503
10241SOL    HW131622   0.073   0.767   1.527
10241SOL    HW231623   0.199   0.704   1.444
10242SOL     OW31624   0.148   2.301   6.308
10242SOL    HW131625   0.205   2.383   6.310
10242SOL    HW231626   0.054   2.327   6.286
10243SOL     OW31627   6.993   5.298   1.468
10243SOL    HW131628   6.911   5.267   1.419
10243SOL    HW231629   6.969   5.373   1.530
10244SOL     OW31630   1.535   4.629   0.341
10244SOL    HW131631   1.537   4.713   0.395
10244SOL    HW231632   1.592   4.560   0.385
10245SOL     OW31633   2.018   3.808   0.327
10245SOL    HW131634   1.978   3.717   0.319
10245SOL    HW231635   1.988   3.864   0.250
10246SOL     OW31636   2.926   3.584   4.414
10246SOL    HW131637   2.882   3.516   4.474
10246SOL    HW231638   3.022   3.560   4.402
10247SOL     OW31639   0.938   5.240   5.118
10247SOL    HW131640   0.840   5.244   5.099
10247SOL    HW231641   0.976   5.155   5.081
10248SOL     OW31642   3.314   0.168   1.980
10248SOL    HW131643   3.219   0.188   1.956
10248SOL    HW231644   3.344   0.087   1.930
10249SOL     OW31645   2.580   1.028   6.419
10249SOL    HW131646   2.553   0.939   6.456
10249SOL    HW231647   2.509   1.061   6.358
10250SOL     OW31648   0.286   1.922   1.014
10250SOL    HW131649   0.207   1.972   1.051
10250SOL    HW231650   0.291   1.831   1.055
10251SOL     OW31651   1.955   2.805   5.805
10251SOL    HW131652   1.880   2.744   5.779
10251SOL    HW231653   1.986   2.857   5.726
10252SOL     OW31654   6.789   6.228   0.663
10252SOL    HW131655   6.720   6.251   0.732
10252SOL    HW231656   6.801   6.305   0.600
10253SOL     OW31657   4.660   5.519   6.974
10253SOL    HW131658   4.708   5.598   7.014
10253SOL    HW231659   4.717   5.437   6.984
10254SOL     OW31660   3.879   2.171   4.923
10254SOL    HW131661   3.909   2.258   4.883
10254SOL    HW231662   3.936   2.149   5.001
10255SOL     OW31663   2.240   5.635   1.560
10255SOL    HW131664   2.287   5.569   1.501
10255SOL    HW231665   2.303   5.707   1.589
10256SOL     OW31666   5.870   6.849   1.521
10256SOL    HW131667   5.957   6.885   1.554
10256SOL    HW231668   5.836   6.907   1.446
10257SOL     OW31669   1.091   4.640   5.024
10257SOL    HW131670   1.121   4.735   5.021
10257SOL    HW231671   1.162   4.584   5.067
10258SOL     OW31672   4.964   0.233   3.562
10258SOL    HW131673   5.048   0.225   3.616
10258SOL    HW231674   4.979   0.196   3.470
10259SOL     OW31675   0.758   5.570   3.253
10259SOL    HW131676   0.766   5.540   3.348
10259SOL    HW231677   0.683   5.636   3.245
10260SOL     OW31678   6.785   0.331   3.051
10260SOL    HW131679   6.735   0.368   2.972
10260SOL    HW231680   6.814   0.406   3.109
10261SOL     OW31681   6.751   6.502   1.892
10261SOL    HW131682   6.831   6.443   1.887
10261SOL    HW231683   6.775   6.594   1.862
10262SOL     OW31684   2.687   5.585   4.749
10262SOL    HW131685   2.753   5.648   4.707
10262SOL    HW231686   2.714   5.491   4.727
10263SOL     OW31687   4.640   1.086   6.545
10263SOL    HW131688   4.702   1.075   6.468
10263SOL    HW231689   4.666   1.167   6.598
10264SOL     OW31690   6.125   1.630   6.708
10264SOL    HW131691   6.146   1.542   6.749
10264SOL    HW231692   6.171   1.703   6.759
10265SOL     OW31693   3.418   2.110   3.220
10265SOL    HW131694   3.342   2.103   3.156
10265SOL    HW231695   3.504   2.114   3.169
10266SOL     OW31696   3.453   2.812   5.209
10266SOL    HW131697   3.392   2.803   5.288
10266SOL    HW231698   3.516   2.888   5.223
10267SOL     OW31699   6.301   1.869   6.746
10267SOL    HW131700   6.228   1.937   6.747
10267SOL    HW231701   6.372   1.898   6.681
10268SOL     OW31702   4.631   6.522   1.863
10268SOL    HW131703   4.574   6.587   1.913
10268SOL    HW231704   4.728   6.544   1.880
10269SOL     OW31705   1.700   1.794   5.592
10269SOL    HW131706   1.641   1.718   5.566
10269SOL    HW231707   1.696   1.807   5.691
10270SOL     OW31708   1.978   5.818   2.262
10270SOL    HW131709   2.067   5.828   2.307
10270SOL    HW231710   1.961   5.899   2.205
10271SOL     OW31711   3.494   2.831   0.410
10271SOL    HW131712   3.409   2.843   0.357
10271SOL    HW231713   3.504   2.734   0.435
10272SOL     OW31714   1.373   0.828   4.786
10272SOL    HW131715   1.443   0.768   4.746
10272SOL    HW231716   1.369   0.914   4.735
10273SOL     OW31717   4.032   6.071   3.662
10273SOL    HW131718   4.101   6.010   3.700
10273SOL    HW231719   4.075   6.132   3.595
10274SOL     OW31720   1.677   4.672   5.884
10274SOL    HW131721   1.630   4.736   5.824
10274SOL    HW231722   1.652   4.579   5.860
10275SOL     OW31723   1.481   0.190   2.010
10275SOL    HW131724   1.482   0.231   2.102
10275SOL    HW231725   1.576   0.179   1.979
10276SOL     OW31726   6.622   5.688   6.436
10276SOL    HW131727   6.529   5.723   6.425
10276SOL    HW231728   6.619   5.601   6.485
10277SOL     OW31729   2.570   6.675   3.801
10277SOL    HW131730   2.496   6.697   3.737
10277SOL    HW231731   2.545   6.596   3.856
10278SOL     OW31732   5.672   0.892   5.476
10278SOL    HW131733   5.735   0.959   5.515
10278SOL    HW231734   5.711   0.854   5.392
10279SOL     OW31735   2.815   0.202   3.965
10279SOL    HW131736   2.795   0.219   4.061
10279SOL    HW231737   2.902   0.246   3.941
10280SOL     OW31738   2.573   4.572   1.022
10280SOL    HW131739   2.498   4.615   1.073
10280SOL    HW231740   2.569   4.473   1.034
10281SOL     OW31741   5.735   2.590   2.520
10281SOL    HW131742   5.753   2.688   2.520
10281SOL    HW231743   5.656   2.570   2.579
10282SOL     OW31744   6.635   3.719   4.264
10282SOL    HW131745   6.625   3.675   4.175
10282SOL    HW231746   6.670   3.653   4.330
10283SOL     OW31747   1.121   2.980   1.363
10283SOL    HW131748   1.085   3.072   1.378
10283SOL    HW231749   1.217   2.977   1.391
10284SOL     OW31750   4.943   4.601   6.003
10284SOL    HW131751   4.951   4.684   5.947
10284SOL    HW231752   4.908   4.526   5.947
10285SOL     OW31753   4.851   6.905   0.958
10285SOL    HW131754   4.773   6.916   1.019
10285SOL    HW231755   4.819   6.871   0.869
10286SOL     OW31756   3.525   1.796   3.799
10286SOL    HW131757   3.488   1.728   3.735
10286SOL    HW231758   3.575   1.748   3.872
10287SOL     OW31759   1.763   6.882   2.098
10287SOL    HW131760   1.755   6.972   2.143
10287SOL    HW231761   1.860   6.859   2.087
10288SOL     OW31762   4.824   6.363   2.407
10288SOL    HW131763   4.810   6.448   2.357
10288SOL    HW231764   4.736   6.319   2.425
10289SOL     OW31765   3.623   0.828   1.631
10289SOL    HW131766   3.568   0.898   1.585
10289SOL    HW231767   3.693   0.873   1.687
10290SOL     OW31768   3.698   4.082   2.896
10290SOL    HW131769   3.630   4.054   2.829
10290SOL    HW231770   3.652   4.099   2.984
10291SOL     OW31771   4.267   0.227   3.924
10291SOL    HW131772   4.361   0.262   3.928
10291SOL    HW231773   4.266   0.145   3.867
10292SOL     OW31774   1.331   1.660   4.693
10292SOL    HW131775   1.376   1.573   4.709
10292SOL    HW231776   1.289   1.660   4.602
10293SOL     OW31777   1.925   6.024   2.572
10293SOL    HW131778   1.919   5.935   2.527
10293SOL    HW231779   1.864   6.025   2.652
10294SOL     OW31780   4.886   3.545   3.406
10294SOL    HW131781   4.905   3.554   3.504
10294SOL    HW231782   4.917   3.456   3.374
10295SOL     OW31783   6.262   4.773   5.847
10295SOL    HW131784   6.243   4.692   5.902
10295SOL    HW231785   6.177   4.820   5.825
10296SOL     OW31786   5.062   4.347   6.535
10296SOL    HW131787   5.034   4.443   6.543
10296SOL    HW231788   4.993   4.289   6.577
10297SOL     OW31789   2.534   6.647   4.410
10297SOL    HW131790   2.505   6.552   4.420
10297SOL    HW231791   2.456   6.708   4.426
10298SOL     OW31792   4.221   4.752   3.261
10298SOL    HW131793   4.208   4.723   3.166
10298SOL    HW231794   4.225   4.852   3.264
10299SOL     OW31795   4.235   4.686   2.991
10299SOL    HW131796   4.209   4.764   2.935
10299SOL    HW231797   4.289   4.622   2.936
10300SOL     OW31798   1.512   4.647   2.040
10300SOL    HW131799   1.601   4.671   2.001
10300SOL    HW231800   1.477   4.564   1.995
10301SOL     OW31801   5.580   2.377   2.385
10301SOL    HW131802   5.655   2.420   2.436
10301SOL    HW231803   5.608   2.362   2.290
10302SOL     OW31804   1.430   6.063   3.687
10302SOL    HW131805   1.515   6.101   3.649
10302SOL    HW231806   1.352   6.106   3.642
10303SOL     OW31807   3.600   4.893   1.177
10303SOL    HW131808   3.668   4.886   1.250
10303SOL    HW231809   3.643   4.876   1.089
10304SOL     OW31810   6.040   1.006   3.447
10304SOL    HW131811   5.990   1.071   3.504
10304SOL    HW231812   5.980   0.929   3.423
10305SOL     OW31813   1.022   5.995   6.555
10305SOL    HW131814   0.936   5.992   6.606
10305SOL    HW231815   1.085   5.926   6.593
10306SOL     OW31816   4.562   5.543   6.314
10306SOL    HW131817   4.515   5.525   6.229
10306SOL    HW231818   4.578   5.641   6.323
10307SOL     OW31819   2.455   1.962   5.229
10307SOL    HW131820   2.386   1.993   5.164
10307SOL    HW231821   2.471   1.864   5.217
10308SOL     OW31822   3.148   4.851   4.466
10308SOL    HW131823   3.205   4.769   4.467
10308SOL    HW231824   3.061   4.832   4.512
10309SOL     OW31825   6.594   0.482   3.910
10309SOL    HW131826   6.517   0.419   3.898
10309SOL    HW231827   6.670   0.452   3.853
10310SOL     OW31828   3.202   3.665   1.005
10310SOL    HW131829   3.264   3.741   1.020
10310SOL    HW231830   3.112   3.700   0.979
10311SOL     OW31831   0.234   5.588   1.211
10311SOL    HW131832   0.251   5.659   1.143
10311SOL    HW231833   0.288   5.507   1.189
10312SOL     OW31834   3.708   5.671   1.472
10312SOL    HW131835   3.771   5.749   1.468
10312SOL    HW231836   3.746   5.601   1.533
10313SOL     OW31837   3.986   6.738   2.536
10313SOL    HW131838   3.988   6.812   2.603
10313SOL    HW231839   3.928   6.663   2.569
10314SOL     OW31840   5.842   0.761   1.515
10314SOL    HW131841   5.918   0.807   1.560
10314SOL    HW231842   5.865   0.665   1.502
10315SOL     OW31843   6.780   6.337   4.651
10315SOL    HW131844   6.871   6.331   4.692
10315SOL    HW231845   6.781   6.294   4.561
10316SOL     OW31846   6.777   2.964   4.309
10316SOL    HW131847   6.746   2.922   4.395
10316SOL    HW231848   6.814   3.055   4.329
10317SOL     OW31849   3.764   4.995   6.615
10317SOL    HW131850   3.684   4.950   6.576
10317SOL    HW231851   3.740   5.088   6.642
10318SOL     OW31852   6.166   5.689   1.385
10318SOL    HW131853   6.253   5.698   1.336
10318SOL    HW231854   6.108   5.769   1.364
10319SOL     OW31855   0.767   4.333   4.869
10319SOL    HW131856   0.794   4.250   4.821
10319SOL    HW231857   0.838   4.358   4.935
10320SOL     OW31858   0.840   0.748   0.875
10320SOL    HW131859   0.891   0.762   0.960
10320SOL    HW231860   0.742   0.750   0.895
10321SOL     OW31861   4.037   6.693   4.585
10321SOL    HW131862   4.037   6.625   4.658
10321SOL    HW231863   3.961   6.756   4.599
10322SOL     OW31864   6.655   5.648   0.221
10322SOL    HW131865   6.702   5.733   0.196
10322SOL    HW231866   6.719   5.572   0.216
10323SOL     OW31867   6.753   3.590   6.665
10323SOL    HW131868   6.768   3.493   6.642
10323SOL    HW231869   6.723   3.639   6.584
10324SOL     OW31870   3.227   3.262   3.485
10324SOL    HW131871   3.177   3.317   3.419
10324SOL    HW231872   3.306   3.218   3.441
10325SOL     OW31873   6.610   4.622   4.339
10325SOL    HW131874   6.543   4.618   4.413
10325SOL    HW231875   6.673   4.699   4.355
10326SOL     OW31876   4.952   2.784   6.783
10326SOL    HW131877   5.002   2.784   6.870
10326SOL    HW231878   4.924   2.877   6.761
10327SOL     OW31879   2.397   1.464   2.991
10327SOL    HW131880   2.405   1.558   2.959
10327SOL    HW231881   2.301   1.435   2.984
10328SOL     OW31882   5.820   3.871   1.847
10328SOL    HW131883   5.845   3.822   1.764
10328SOL    HW231884   5.892   3.862   1.915
10329SOL     OW31885   2.538   0.520   4.343
10329SOL    HW131886   2.517   0.499   4.438
10329SOL    HW231887   2.637   0.528   4.331
10330SOL     OW31888   3.432   5.106   3.073
10330SOL    HW131889   3.368   5.183   3.084
10330SOL    HW231890   3.518   5.140   3.036
10331SOL     OW31891   5.793   1.045   3.021
10331SOL    HW131892   5.827   1.102   2.946
10331SOL    HW231893   5.840   0.956   3.019
10332SOL     OW31894   0.145   2.156   0.406
10332SOL    HW131895   0.242   2.178   0.397
10332SOL    HW231896   0.102   2.156   0.316
10333SOL     OW31897   5.867   4.435   4.322
10333SOL    HW131898   5.840   4.485   4.240
10333SOL    HW231899   5.790   4.429   4.385
10334SOL     OW31900   2.262   5.490   3.879
10334SOL    HW131901   2.229   5.556   3.813
10334SOL    HW231902   2.324   5.535   3.944
10335SOL     OW31903   1.755   4.545   6.752
10335SOL    HW131904   1.788   4.599   6.829
10335SOL    HW231905   1.721   4.606   6.680
10336SOL     OW31906   4.816   6.317   2.834
10336SOL    HW131907   4.906   6.338   2.796
10336SOL    HW231908   4.746   6.369   2.785
10337SOL     OW31909   6.734   5.173   5.224
10337SOL    HW131910   6.827   5.150   5.195
10337SOL    HW231911   6.712   5.266   5.196
10338SOL     OW31912   3.366   6.322   0.889
10338SOL    HW131913   3.352   6.253   0.818
10338SOL    HW231914   3.278   6.347   0.929
10339SOL     OW31915   3.790   5.085   1.061
10339SOL    HW131916   3.735   5.085   1.144
10339SOL    HW231917   3.884   5.111   1.083
10340SOL     OW31918   1.517   5.548   6.825
10340SOL    HW131919   1.472   5.615   6.764
10340SOL    HW231920   1.605   5.521   6.786
10341SOL     OW31921   2.296   2.784   2.002
10341SOL    HW131922   2.244   2.727   1.938
10341SOL    HW231923   2.383   2.809   1.961
10342SOL     OW31924   2.028   6.014   6.113
10342SOL    HW131925   1.942   6.013   6.061
10342SOL    HW231926   2.008   6.000   6.210
10343SOL     OW31927   1.972   3.886   0.045
10343SOL    HW131928   2.015   3.953   7.000
10343SOL    HW231929   1.873   3.899   0.043
10344SOL     OW31930   4.017   3.649   3.792
10344SOL    HW131931   3.992   3.561   3.752
10344SOL    HW231932   3.974   3.723   3.740
10345SOL     OW31933   1.975   1.478   6.820
10345SOL    HW131934   2.006   1.392   6.779
10345SOL    HW231935   1.877   1.472   6.841
10346SOL     OW31936   6.156   0.022   1.092
10346SOL    HW131937   6.130   0.039   0.997
10346SOL    HW231938   6.105   6.958   1.127
10347SOL     OW31939   4.940   1.479   0.789
10347SOL    HW131940   4.935   1.576   0.767
10347SOL    HW231941   4.968   1.427   0.709
10348SOL     OW31942   6.425   0.265   6.237
10348SOL    HW131943   6.515   0.239   6.272
10348SOL    HW231944   6.385   0.335   6.296
10349SOL     OW31945   6.175   0.340   1.155
10349SOL    HW131946   6.191   0.244   1.177
10349SOL    HW231947   6.262   0.385   1.135
10350SOL     OW31948   3.594   5.944   4.608
10350SOL    HW131949   3.504   5.944   4.566
10350SOL    HW231950   3.619   5.850   4.633
10351SOL     OW31951   6.086   4.534   5.661
10351SOL    HW131952   6.076   4.529   5.562
10351SOL    HW231953   6.046   4.620   5.694
10352SOL     OW31954   5.261   2.609   6.522
10352SOL    HW131955   5.246   2.521   6.476
10352SOL    HW231956   5.173   2.647   6.549
10353SOL     OW31957   0.202   2.872   3.544
10353SOL    HW131958   0.176   2.787   3.591
10353SOL    HW231959   0.183   2.863   3.447
10354SOL     OW31960   1.179   4.439   1.347
10354SOL    HW131961   1.169   4.503   1.423
10354SOL    HW231962   1.092   4.394   1.329
10355SOL     OW31963   1.348   1.384   1.359
10355SOL    HW131964   1.363   1.383   1.458
10355SOL    HW231965   1.424   1.339   1.313
10356SOL     OW31966   0.466   3.318   6.913
10356SOL    HW131967   0.541   3.285   6.969
10356SOL    HW231968   0.383   3.266   6.933
10357SOL     OW31969   1.940   2.129   5.957
10357SOL    HW131970   2.032   2.161   5.934
10357SOL    HW231971   1.872   2.183   5.908
10358SOL     OW31972   1.849   3.301   2.670
10358SOL    HW131973   1.939   3.300   2.715
10358SOL    HW231974   1.780   3.330   2.735
10359SOL     OW31975   4.756   2.731   2.011
10359SOL    HW131976   4.833   2.696   1.957
10359SOL    HW231977   4.734   2.824   1.981
10360SOL     OW31978   5.192   4.922   2.692
10360SOL    HW131979   5.244   4.842   2.662
10360SOL    HW231980   5.148   4.901   2.780
10361SOL     OW31981   2.542   0.773   2.012
10361SOL    HW131982   2.461   0.822   2.046
10361SOL    HW231983   2.574   0.816   1.928
10362SOL     OW31984   0.553   4.588   2.676
10362SOL    HW131985   0.617   4.541   2.616
10362SOL    HW231986   0.596   4.607   2.764
10363SOL     OW31987   4.433   2.450   0.242
10363SOL    HW131988   4.412   2.353   0.254
10363SOL    HW231989   4.446   2.469   0.145
10364SOL     OW31990   5.896   5.360   1.152
10364SOL    HW131991   5.808   5.338   1.108
10364SOL    HW231992   5.970   5.322   1.097
10365SOL     OW31993   5.674   4.828   0.205
10365SOL    HW131994   5.762   4.807   0.162
10365SOL    HW231995   5.611   4.752   0.189
10366SOL     OW31996   4.347   0.027   3.709
10366SOL    HW131997   4.396   6.968   3.663
10366SOL    HW231998   4.372   0.115   3.667
10367SOL     OW31999   6.670   1.789   2.138
10367SOL    HW132000   6.654   1.885   2.158
10367SOL    HW232001   6.640   1.768   2.045
10368SOL     OW32002   2.765   1.037   2.286
10368SOL    HW132003   2.719   1.075   2.206
10368SOL    HW232004   2.783   1.110   2.352
10369SOL     OW32005   2.785   6.708   5.802
10369SOL    HW132006   2.861   6.669   5.854
10369SOL    HW232007   2.699   6.671   5.837
10370SOL     OW32008   6.463   1.441   4.757
10370SOL    HW132009   6.379   1.487   4.785
10370SOL    HW232010   6.472   1.447   4.657
10371SOL     OW32011   3.429   0.160   3.389
10371SOL    HW132012   3.529   0.169   3.383
10371SOL    HW232013   3.403   0.151   3.485
10372SOL     OW32014   2.570   0.975   1.789
10372SOL    HW132015   2.610   1.062   1.759
10372SOL    HW232016   2.620   0.899   1.748
10373SOL     OW32017   0.137   6.821   4.800
10373SOL    HW132018   0.086   6.886   4.744
10373SOL    HW232019   0.227   6.860   4.822
10374SOL     OW32020   2.637   6.682   4.657
10374SOL    HW132021   2.603   6.670   4.563
10374SOL    HW232022   2.674   6.595   4.690
10375SOL     OW32023   3.137   1.916   6.559
10375SOL    HW132024   3.061   1.975   6.588
10375SOL    HW232025   3.155   1.931   6.461
10376SOL     OW32026   1.722   6.417   3.361
10376SOL    HW132027   1.801   6.357   3.374
10376SOL    HW232028   1.716   6.481   3.438
10377SOL     OW32029   0.654   2.165   1.484
10377SOL    HW132030   0.672   2.197   1.391
10377SOL    HW232031   0.627   2.242   1.541
10378SOL     OW32032   0.017   5.470   5.674
10378SOL    HW132033   0.007   5.554   5.620
10378SOL    HW232034   6.993   5.485   5.765
10379SOL     OW32035   2.759   5.808   3.903
10379SOL    HW132036   2.809   5.812   3.989
10379SOL    HW232037   2.766   5.895   3.855
10380SOL     OW32038   1.446   2.316   4.661
10380SOL    HW132039   1.468   2.256   4.738
10380SOL    HW232040   1.382   2.269   4.600
10381SOL     OW32041   3.622   4.297   0.447
10381SOL    HW132042   3.697   4.340   0.398
10381SOL    HW232043   3.598   4.210   0.402
10382SOL     OW32044   3.161   6.306   1.999
10382SOL    HW132045   3.177   6.243   2.075
10382SOL    HW232046   3.106   6.259   1.929
10383SOL     OW32047   1.804   3.885   0.534
10383SOL    HW132048   1.867   3.870   0.458
10383SOL    HW232049   1.714   3.848   0.511
10384SOL     OW32050   6.438   6.349   0.790
10384SOL    HW132051   6.368   6.278   0.775
10384SOL    HW232052   6.511   6.312   0.847
10385SOL     OW32053   3.630   5.799   5.794
10385SOL    HW132054   3.548   5.835   5.837
10385SOL    HW232055   3.607   5.720   5.737
10386SOL     OW32056   0.630   0.832   5.710
10386SOL    HW132057   0.644   0.790   5.800
10386SOL    HW232058   0.589   0.923   5.721
10387SOL     OW32059   5.108   3.011   2.988
10387SOL    HW132060   5.096   2.944   2.915
10387SOL    HW232061   5.172   2.974   3.056
10388SOL     OW32062   2.772   0.015   0.721
10388SOL    HW132063   2.734   6.997   0.635
10388SOL    HW232064   2.780   0.114   0.718
10389SOL     OW32065   5.598   3.415   0.171
10389SOL    HW132066   5.565   3.322   0.158
10389SOL    HW232067   5.623   3.454   0.083
10390SOL     OW32068   1.601   2.530   0.309
10390SOL    HW132069   1.646   2.476   0.237
10390SOL    HW232070   1.506   2.502   0.318
10391SOL     OW32071   1.739   5.912   3.749
10391SOL    HW132072   1.783   5.822   3.761
10391SOL    HW232073   1.790   5.981   3.800
10392SOL     OW32074   5.978   5.140   5.304
10392SOL    HW132075   6.076   5.131   5.286
10392SOL    HW232076   5.957   5.111   5.397
10393SOL     OW32077   1.609   3.704   3.674
10393SOL    HW132078   1.623   3.714   3.772
10393SOL    HW232079   1.574   3.790   3.636
10394SOL     OW32080   2.306   5.754   4.251
10394SOL    HW132081   2.229   5.756   4.315
10394SOL    HW232082   2.371   5.826   4.275
10395SOL     OW32083   0.517   6.654   1.283
10395SOL    HW132084   0.462   6.582   1.327
10395SOL    HW232085   0.488   6.665   1.188
10396SOL     OW32086   4.018   1.816   3.643
10396SOL    HW132087   3.990   1.728   3.680
10396SOL    HW232088   4.072   1.802   3.560
10397SOL     OW32089   3.662   1.662   4.015
10397SOL    HW132090   3.711   1.579   4.042
10397SOL    HW232091   3.631   1.710   4.097
10398SOL     OW32092   5.898   2.327   1.106
10398SOL    HW132093   5.979   2.318   1.048
10398SOL    HW232094   5.863   2.237   1.130
10399SOL     OW32095   5.508   2.279   3.258
10399SOL    HW132096   5.484   2.203   3.318
10399SOL    HW232097   5.456   2.271   3.172
10400SOL     OW32098   4.775   6.047   6.987
10400SOL    HW132099   4.840   6.078   0.041
10400SOL    HW232100   4.721   5.971   0.008
10401SOL     OW32101   6.547   6.480   2.618
10401SOL    HW132102   6.570   6.574   2.595
10401SOL    HW232103   6.620   6.419   2.589
10402SOL     OW32104   6.545   2.226   5.107
10402SOL    HW132105   6.506   2.139   5.078
10402SOL    HW232106   6.476   2.279   5.156
10403SOL     OW32107   4.850   1.496   3.504
10403SOL    HW132108   4.845   1.540   3.594
10403SOL    HW232109   4.938   1.451   3.494
10404SOL     OW32110   6.184   6.417   4.481
10404SOL    HW132111   6.242   6.416   4.563
10404SOL    HW232112   6.215   6.346   4.417
10405SOL     OW32113   0.953   0.526   5.195
10405SOL    HW132114   0.974   0.615   5.155
10405SOL    HW232115   0.974   0.454   5.129
10406SOL     OW32116   2.223   4.606   3.258
10406SOL    HW132117   2.255   4.691   3.215
10406SOL    HW232118   2.301   4.556   3.294
10407SOL     OW32119   2.365   6.832   6.165
10407SOL    HW132120   2.270   6.806   6.149
10407SOL    HW232121   2.416   6.755   6.203
10408SOL     OW32122   4.527   0.235   1.771
10408SOL    HW132123   4.520   0.335   1.777
10408SOL    HW232124   4.623   0.208   1.780
10409SOL     OW32125   0.757   4.973   1.024
10409SOL    HW132126   0.692   4.935   1.090
10409SOL    HW232127   0.849   4.940   1.045
10410SOL     OW32128   5.387   1.951   1.775
10410SOL    HW132129   5.403   1.968   1.678
10410SOL    HW232130   5.303   1.897   1.787
10411SOL     OW32131   3.493   6.290   3.228
10411SOL    HW132132   3.576   6.238   3.208
10411SOL    HW232133   3.422   6.229   3.261
10412SOL     OW32134   0.615   0.914   0.073
10412SOL    HW132135   0.596   0.920   6.990
10412SOL    HW232136   0.566   0.836   0.111
10413SOL     OW32137   0.257   3.240   0.618
10413SOL    HW132138   0.339   3.233   0.674
10413SOL    HW232139   0.219   3.332   0.624
10414SOL     OW32140   4.072   4.604   5.732
10414SOL    HW132141   4.146   4.582   5.670
10414SOL    HW232142   3.987   4.615   5.680
10415SOL     OW32143   1.712   3.506   4.524
10415SOL    HW132144   1.706   3.422   4.578
10415SOL    HW232145   1.750   3.580   4.581
10416SOL     OW32146   6.279   0.482   4.978
10416SOL    HW132147   6.273   0.383   4.961
10416SOL    HW232148   6.223   0.531   4.912
10417SOL     OW32149   3.059   5.297   4.468
10417SOL    HW132150   3.145   5.268   4.509
10417SOL    HW232151   3.062   5.283   4.370
10418SOL     OW32152   0.219   3.655   6.850
10418SOL    HW132153   0.192   3.731   6.910
10418SOL    HW232154   0.300   3.681   6.798
10419SOL     OW32155   2.150   6.971   5.951
10419SOL    HW132156   2.171   0.036   6.007
10419SOL    HW232157   2.222   6.957   5.884
10420SOL     OW32158   0.491   3.727   3.759
10420SOL    HW132159   0.568   3.772   3.713
10420SOL    HW232160   0.448   3.662   3.696
10421SOL     OW32161   0.434   1.829   3.647
10421SOL    HW132162   0.522   1.856   3.685
10421SOL    HW232163   0.361   1.856   3.709
10422SOL     OW32164   6.454   2.936   4.990
10422SOL    HW132165   6.398   2.855   4.975
10422SOL    HW232166   6.481   2.975   4.902
10423SOL     OW32167   6.523   5.962   5.148
10423SOL    HW132168   6.505   6.060   5.161
10423SOL    HW232169   6.610   5.939   5.191
10424SOL     OW32170   4.837   3.176   0.266
10424SOL    HW132171   4.740   3.162   0.248
10424SOL    HW232172   4.878   3.227   0.190
10425SOL     OW32173   0.988   0.430   1.829
10425SOL    HW132174   1.062   0.464   1.770
10425SOL    HW232175   0.909   0.491   1.821
10426SOL     OW32176   6.183   4.798   0.676
10426SOL    HW132177   6.155   4.752   0.592
10426SOL    HW232178   6.102   4.833   0.723
10427SOL     OW32179   3.667   0.581   6.424
10427SOL    HW132180   3.656   0.680   6.427
10427SOL    HW232181   3.608   0.538   6.492
10428SOL     OW32182   3.835   1.213   3.716
10428SOL    HW132183   3.834   1.113   3.716
10428SOL    HW232184   3.779   1.247   3.792
10429SOL     OW32185   6.500   4.881   1.001
10429SOL    HW132186   6.421   4.919   1.048
10429SOL    HW232187   6.577   4.876   1.064
10430SOL     OW32188   4.842   0.186   4.490
10430SOL    HW132189   4.822   0.258   4.555
10430SOL    HW232190   4.836   0.221   4.397
10431SOL     OW32191   3.098   6.241   4.226
10431SOL    HW132192   3.162   6.264   4.153
10431SOL    HW232193   3.010   6.286   4.209
10432SOL     OW32194   5.474   6.845   5.046
10432SOL    HW132195   5.559   6.793   5.056
10432SOL    HW232196   5.479   6.900   4.963
10433SOL     OW32197   1.500   6.262   1.630
10433SOL    HW132198   1.411   6.265   1.584
10433SOL    HW232199   1.496   6.317   1.713
10434SOL     OW32200   3.902   6.738   3.489
10434SOL    HW132201   3.851   6.694   3.415
10434SOL    HW232202   3.943   6.668   3.547
10435SOL     OW32203   6.843   0.674   4.612
10435SOL    HW132204   6.763   0.616   4.629
10435SOL    HW232205   6.918   0.645   4.671
10436SOL     OW32206   0.795   4.918   5.625
10436SOL    HW132207   0.750   4.830   5.607
10436SOL    HW232208   0.810   4.928   5.724
10437SOL     OW32209   5.164   4.846   5.619
10437SOL    HW132210   5.118   4.757   5.617
10437SOL    HW232211   5.263   4.832   5.608
10438SOL     OW32212   6.126   6.543   0.268
10438SOL    HW132213   6.057   6.473   0.253
10438SOL    HW232214   6.082   6.632   0.280
10439SOL     OW32215   4.730   0.753   5.963
10439SOL    HW132216   4.649   0.811   5.958
10439SOL    HW232217   4.704   0.658   5.942
10440SOL     OW32218   1.282   0.035   0.478
10440SOL    HW132219   1.258   6.973   0.420
10440SOL    HW232220   1.198   0.078   0.513
10441SOL     OW32221   3.494   0.415   1.319
10441SOL    HW132222   3.479   0.476   1.241
10441SOL    HW232223   3.559   0.457   1.383
10442SOL     OW32224   2.916   6.442   5.681
10442SOL    HW132225   2.956   6.494   5.757
10442SOL    HW232226   2.964   6.465   5.596
10443SOL     OW32227   4.865   3.844   4.904
10443SOL    HW132228   4.840   3.753   4.938
10443SOL    HW232229   4.805   3.868   4.827
10444SOL     OW32230   3.646   6.181   4.738
10444SOL    HW132231   3.626   6.256   4.674
10444SOL    HW232232   3.632   6.093   4.693
10445SOL     OW32233   0.420   4.942   5.089
10445SOL    HW132234   0.386   4.952   4.995
10445SOL    HW232235   0.354   4.889   5.142
10446SOL     OW32236   1.353   3.122   4.902
10446SOL    HW132237   1.326   3.031   4.871
10446SOL    HW232238   1.365   3.183   4.823
10447SOL     OW32239   0.295   0.724   2.202
10447SOL    HW132240   0.295   0.802   2.141
10447SOL    HW232241   0.202   0.687   2.209
10448SOL     OW32242   3.212   1.135   1.978
10448SOL    HW132243   3.220   1.088   2.066
10448SOL    HW232244   3.222   1.070   1.904
10449SOL     OW32245   2.036   5.184   4.833
10449SOL    HW132246   2.105   5.174   4.761
10449SOL    HW232247   1.987   5.271   4.821
10450SOL     OW32248   0.772   1.608   0.683
10450SOL    HW132249   0.787   1.515   0.649
10450SOL    HW232250   0.716   1.658   0.617
10451SOL     OW32251   1.449   5.383   2.452
10451SOL    HW132252   1.481   5.390   2.547
10451SOL    HW232253   1.457   5.473   2.408
10452SOL     OW32254   6.619   4.035   2.511
10452SOL    HW132255   6.703   4.052   2.460
10452SOL    HW232256   6.641   4.004   2.603
10453SOL     OW32257   4.296   5.605   1.940
10453SOL    HW132258   4.354   5.651   1.872
10453SOL    HW232259   4.220   5.665   1.965
10454SOL     OW32260   4.573   3.667   0.884
10454SOL    HW132261   4.668   3.647   0.861
10454SOL    HW232262   4.568   3.702   0.978
10455SOL     OW32263   6.129   5.591   3.189
10455SOL    HW132264   6.080   5.506   3.206
10455SOL    HW232265   6.213   5.593   3.245
10456SOL     OW32266   3.388   6.368   1.223
10456SOL    HW132267   3.419   6.455   1.185
10456SOL    HW232268   3.342   6.385   1.310
10457SOL     OW32269   3.374   3.501   1.691
10457SOL    HW132270   3.377   3.417   1.745
10457SOL    HW232271   3.379   3.580   1.752
10458SOL     OW32272   0.517   1.087   5.946
10458SOL    HW132273   0.458   1.008   5.962
10458SOL    HW232274   0.504   1.153   6.021
10459SOL     OW32275   4.967   5.516   2.290
10459SOL    HW132276   4.889   5.494   2.232
10459SOL    HW232277   5.011   5.432   2.321
10460SOL     OW32278   1.201   5.134   1.531
10460SOL    HW132279   1.127   5.195   1.502
10460SOL    HW232280   1.162   5.049   1.566
10461SOL     OW32281   1.655   5.207   5.468
10461SOL    HW132282   1.616   5.292   5.434
10461SOL    HW232283   1.585   5.136   5.467
10462SOL     OW32284   6.011   2.107   3.086
10462SOL    HW132285   6.068   2.088   3.006
10462SOL    HW232286   5.946   2.180   3.064
10463SOL     OW32287   3.903   3.001   5.466
10463SOL    HW132288   3.872   2.967   5.378
10463SOL    HW232289   3.926   2.924   5.525
10464SOL     OW32290   6.104   6.602   1.403
10464SOL    HW132291   6.125   6.616   1.499
10464SOL    HW232292   6.188   6.606   1.349
10465SOL     OW32293   6.494   6.253   1.626
10465SOL    HW132294   6.576   6.197   1.637
10465SOL    HW232295   6.424   6.200   1.577
10466SOL     OW32296   4.694   4.888   5.299
10466SOL    HW132297   4.612   4.932   5.262
10466SOL    HW232298   4.742   4.952   5.360
10467SOL     OW32299   1.238   2.224   5.551
10467SOL    HW132300   1.277   2.182   5.470
10467SOL    HW232301   1.310   2.243   5.617
10468SOL     OW32302   3.952   4.771   3.195
10468SOL    HW132303   3.917   4.685   3.232
10468SOL    HW232304   4.046   4.784   3.225
10469SOL     OW32305   3.841   2.584   6.319
10469SOL    HW132306   3.830   2.589   6.220
10469SOL    HW232307   3.808   2.669   6.361
10470SOL     OW32308   3.144   1.879   3.539
10470SOL    HW132309   3.205   1.858   3.616
10470SOL    HW232310   3.059   1.919   3.574
10471SOL     OW32311   2.528   2.541   1.388
10471SOL    HW132312   2.445   2.500   1.426
10471SOL    HW232313   2.575   2.474   1.330
10472SOL     OW32314   2.716   5.632   1.073
10472SOL    HW132315   2.648   5.637   1.000
10472SOL    HW232316   2.719   5.720   1.121
10473SOL     OW32317   6.034   0.742   0.372
10473SOL    HW132318   6.044   0.833   0.412
10473SOL    HW232319   6.059   0.746   0.275
10474SOL     OW32320   4.719   1.497   4.798
10474SOL    HW132321   4.663   1.560   4.851
10474SOL    HW232322   4.792   1.460   4.855
10475SOL     OW32323   4.570   6.667   2.848
10475SOL    HW132324   4.584   6.607   2.768
10475SOL    HW232325   4.658   6.683   2.892
10476SOL     OW32326   6.961   6.210   6.871
10476SOL    HW132327   6.933   6.184   6.779
10476SOL    HW232328   6.912   6.293   6.899
10477SOL     OW32329   6.276   1.918   4.459
10477SOL    HW132330   6.334   1.861   4.517
10477SOL    HW232331   6.229   1.861   4.391
10478SOL     OW32332   0.368   0.596   1.416
10478SOL    HW132333   0.345   0.504   1.449
10478SOL    HW232334   0.466   0.612   1.429
10479SOL     OW32335   0.467   2.796   1.899
10479SOL    HW132336   0.410   2.748   1.832
10479SOL    HW232337   0.563   2.780   1.878
10480SOL     OW32338   5.787   0.436   1.416
10480SOL    HW132339   5.853   0.484   1.358
10480SOL    HW232340   5.834   0.366   1.469
10481SOL     OW32341   2.382   0.257   4.417
10481SOL    HW132342   2.288   0.288   4.432
10481SOL    HW232343   2.441   0.337   4.401
10482SOL     OW32344   0.497   5.528   4.997
10482SOL    HW132345   0.576   5.476   4.964
10482SOL    HW232346   0.502   5.621   4.962
10483SOL     OW32347   0.106   5.972   0.545
10483SOL    HW132348   0.115   6.038   0.471
10483SOL    HW232349   0.186   5.912   0.547
10484SOL     OW32350   6.157   0.861   1.463
10484SOL    HW132351   6.203   0.842   1.550
10484SOL    HW232352   6.123   0.955   1.463
10485SOL     OW32353   3.381   3.273   2.290
10485SOL    HW132354   3.337   3.237   2.372
10485SOL    HW232355   3.476   3.297   2.311
10486SOL     OW32356   6.314   0.654   6.063
10486SOL    HW132357   6.386   0.585   6.057
10486SOL    HW232358   6.344   0.729   6.123
10487SOL     OW32359   4.856   2.131   1.309
10487SOL    HW132360   4.858   2.043   1.356
10487SOL    HW232361   4.787   2.190   1.353
10488SOL     OW32362   2.220   1.999   6.156
10488SOL    HW132363   2.145   1.982   6.220
10488SOL    HW232364   2.184   1.999   6.063
10489SOL     OW32365   6.277   6.262   4.291
10489SOL    HW132366   6.246   6.171   4.262
10489SOL    HW232367   6.316   6.310   4.213
10490SOL     OW32368   5.795   1.810   0.702
10490SOL    HW132369   5.729   1.824   0.628
10490SOL    HW232370   5.782   1.719   0.741
10491SOL     OW32371   2.143   2.066   5.588
10491SOL    HW132372   2.046   2.086   5.602
10491SOL    HW232373   2.180   2.025   5.671
10492SOL     OW32374   4.626   6.065   1.250
10492SOL    HW132375   4.675   6.132   1.306
10492SOL    HW232376   4.528   6.072   1.267
10493SOL     OW32377   2.995   6.363   1.557
10493SOL    HW132378   2.969   6.315   1.641
10493SOL    HW232379   2.997   6.299   1.481
10494SOL     OW32380   6.384   4.232   5.687
10494SOL    HW132381   6.365   4.330   5.680
10494SOL    HW232382   6.320   4.191   5.751
10495SOL     OW32383   6.726   0.444   0.470
10495SOL    HW132384   6.664   0.410   0.400
10495SOL    HW232385   6.806   0.384   0.476
10496SOL     OW32386   6.538   4.699   5.189
10496SOL    HW132387   6.570   4.607   5.163
10496SOL    HW232388   6.461   4.690   5.251
10497SOL     OW32389   1.191   6.724   2.375
10497SOL    HW132390   1.238   6.635   2.373
10497SOL    HW232391   1.258   6.796   2.394
10498SOL     OW32392   6.028   6.102   0.895
10498SOL    HW132393   5.948   6.162   0.897
10498SOL    HW232394   6.104   6.150   0.853
10499SOL     OW32395   4.868   6.614   1.283
10499SOL    HW132396   4.931   6.689   1.302
10499SOL    HW232397   4.780   6.632   1.326
10500SOL     OW32398   5.983   2.253   5.800
10500SOL    HW132399   6.074   2.240   5.760
10500SOL    HW232400   5.951   2.167   5.839
10501SOL     OW32401   2.166   6.061   2.201
10501SOL    HW132402   2.242   6.076   2.137
10501SOL    HW232403   2.201   6.061   2.295
10502SOL     OW32404   2.752   4.202   0.955
10502SOL    HW132405   2.815   4.278   0.940
10502SOL    HW232406   2.682   4.230   1.021
10503SOL     OW32407   5.676   3.924   0.512
10503SOL    HW132408   5.719   3.990   0.574
10503SOL    HW232409   5.592   3.889   0.554
10504SOL     OW32410   0.326   2.547   5.381
10504SOL    HW132411   0.236   2.531   5.341
10504SOL    HW232412   0.351   2.470   5.440
10505SOL     OW32413   5.703   6.635   1.532
10505SOL    HW132414   5.769   6.709   1.546
10505SOL    HW232415   5.613   6.666   1.562
10506SOL     OW32416   0.541   3.579   0.589
10506SOL    HW132417   0.636   3.594   0.617
10506SOL    HW232418   0.538   3.511   0.516
10507SOL     OW32419   2.362   5.257   6.885
10507SOL    HW132420   2.411   5.344   6.892
10507SOL    HW232421   2.301   5.260   6.806
10508SOL     OW32422   0.779   5.471   4.280
10508SOL    HW132423   0.754   5.522   4.197
10508SOL    HW232424   0.854   5.409   4.259
10509SOL     OW32425   6.262   4.492   4.738
10509SOL    HW132426   6.220   4.487   4.829
10509SOL    HW232427   6.281   4.400   4.705
10510SOL     OW32428   4.737   6.077   0.434
10510SOL    HW132429   4.673   6.146   0.467
10510SOL    HW232430   4.722   5.991   0.483
10511SOL     OW32431   3.047   1.504   2.019
10511SOL    HW132432   2.952   1.480   2.037
10511SOL    HW232433   3.071   1.585   2.072
10512SOL     OW32434   3.553   0.027   6.151
10512SOL    HW132435   3.579   0.078   6.233
10512SOL    HW232436   3.621   6.971   6.133
10513SOL     OW32437   6.201   3.070   3.143
10513SOL    HW132438   6.300   3.062   3.130
10513SOL    HW232439   6.177   3.036   3.233
10514SOL     OW32440   1.509   1.662   1.551
10514SOL    HW132441   1.535   1.738   1.610
10514SOL    HW232442   1.563   1.665   1.467
10515SOL     OW32443   2.049   2.925   4.155
10515SOL    HW132444   2.069   3.000   4.092
10515SOL    HW232445   1.953   2.898   4.145
10516SOL     OW32446   2.432   1.727   0.168
10516SOL    HW132447   2.365   1.775   0.111
10516SOL    HW232448   2.524   1.754   0.140
10517SOL     OW32449   1.443   4.325   1.332
10517SOL    HW132450   1.493   4.345   1.416
10517SOL    HW232451   1.372   4.395   1.317
10518SOL     OW32452   0.101   5.956   1.790
10518SOL    HW132453   0.132   5.953   1.885
10518SOL    HW232454   0.001   5.960   1.788
10519SOL     OW32455   2.794   4.731   0.391
10519SOL    HW132456   2.795   4.827   0.362
10519SOL    HW232457   2.785   4.672   0.312
10520SOL     OW32458   0.036   2.218   5.977
10520SOL    HW132459   6.988   2.142   5.988
10520SOL    HW232460   0.121   2.199   6.026
10521SOL     OW32461   6.556   5.288   1.484
10521SOL    HW132462   6.529   5.244   1.398
10521SOL    HW232463   6.474   5.322   1.531
10522SOL     OW32464   0.355   2.922   3.256
10522SOL    HW132465   0.333   2.831   3.221
10522SOL    HW232466   0.294   2.989   3.213
10523SOL     OW32467   0.471   4.113   3.546
10523SOL    HW132468   0.520   4.065   3.619
10523SOL    HW232469   0.490   4.211   3.551
10524SOL     OW32470   0.847   6.145   4.082
10524SOL    HW132471   0.779   6.215   4.061
10524SOL    HW232472   0.915   6.141   4.009
10525SOL     OW32473   3.874   6.966   5.258
10525SOL    HW132474   3.888   0.041   5.299
10525SOL    HW232475   3.892   6.970   5.160
10526SOL     OW32476   0.542   6.587   1.799
10526SOL    HW132477   0.527   6.647   1.720
10526SOL    HW232478   0.633   6.546   1.792
10527SOL     OW32479   0.858   0.552   6.030
10527SOL    HW132480   0.947   0.592   6.008
10527SOL    HW232481   0.872   0.461   6.071
10528SOL     OW32482   1.007   4.152   6.368
10528SOL    HW132483   0.960   4.107   6.444
10528SOL    HW232484   0.943   4.163   6.292
10529SOL     OW32485   2.202   5.625   4.730
10529SOL    HW132486   2.210   5.722   4.706
10529SOL    HW232487   2.110   5.606   4.762
10530SOL     OW32488   1.075   6.448   5.564
10530SOL    HW132489   1.007   6.452   5.637
10530SOL    HW232490   1.166   6.464   5.602
10531SOL     OW32491   2.404   1.984   4.403
10531SOL    HW132492   2.354   2.015   4.485
10531SOL    HW232493   2.406   2.058   4.336
10532SOL     OW32494   6.975   6.789   6.796
10532SOL    HW132495   6.923   6.847   6.858
10532SOL    HW232496   6.975   6.829   6.704
10533SOL     OW32497   2.926   6.134   3.920
10533SOL    HW132498   2.849   6.107   3.861
10533SOL    HW232499   3.010   6.135   3.866
10534SOL     OW32500   6.352   5.334   1.870
10534SOL    HW132501   6.331   5.429   1.892
10534SOL    HW232502   6.433   5.305   1.921
10535SOL     OW32503   1.937   1.506   2.505
10535SOL    HW132504   1.913   1.579   2.569
10535SOL    HW232505   1.879   1.512   2.424
10536SOL     OW32506   4.688   0.083   4.130
10536SOL    HW132507   4.631   0.038   4.062
10536SOL    HW232508   4.652   0.174   4.149
10537SOL     OW32509   5.000   6.391   3.810
10537SOL    HW132510   4.965   6.402   3.903
10537SOL    HW232511   4.931   6.346   3.753
10538SOL     OW32512   6.447   3.620   1.208
10538SOL    HW132513   6.356   3.652   1.184
10538SOL    HW232514   6.441   3.526   1.242
10539SOL     OW32515   6.265   5.339   1.246
10539SOL    HW132516   6.256   5.386   1.158
10539SOL    HW232517   6.188   5.363   1.305
10540SOL     OW32518   2.018   3.434   5.527
10540SOL    HW132519   2.065   3.420   5.440
10540SOL    HW232520   2.041   3.525   5.563
10541SOL     OW32521   3.939   3.042   3.770
10541SOL    HW132522   4.026   3.024   3.815
10541SOL    HW232523   3.865   3.042   3.838
10542SOL     OW32524   6.464   0.247   4.739
10542SOL    HW132525   6.529   0.216   4.809
10542SOL    HW232526   6.482   0.199   4.653
10543SOL     OW32527   1.207   1.831   4.295
10543SOL    HW132528   1.160   1.814   4.208
10543SOL    HW232529   1.283   1.766   4.305
10544SOL     OW32530   2.050   6.126   2.808
10544SOL    HW132531   2.148   6.106   2.801
10544SOL    HW232532   2.009   6.067   2.878
10545SOL     OW32533   1.530   1.933   1.615
10545SOL    HW132534   1.446   1.957   1.567
10545SOL    HW232535   1.570   2.015   1.655
10546SOL     OW32536   3.350   6.084   1.135
10546SOL    HW132537   3.301   6.039   1.210
10546SOL    HW232538   3.355   6.182   1.154
10547SOL     OW32539   5.033   2.063   4.050
10547SOL    HW132540   4.987   1.974   4.044
10547SOL    HW232541   4.966   2.136   4.039
10548SOL     OW32542   0.223   3.753   4.211
10548SOL    HW132543   0.297   3.719   4.269
10548SOL    HW232544   0.245   3.735   4.115
10549SOL     OW32545   0.400   1.600   0.571
10549SOL    HW132546   0.338   1.525   0.593
10549SOL    HW232547   0.411   1.658   0.651
10550SOL     OW32548   3.998   6.558   3.665
10550SOL    HW132549   4.088   6.602   3.662
10550SOL    HW232550   4.001   6.473   3.612
10551SOL     OW32551   2.415   2.176   6.237
10551SOL    HW132552   2.358   2.101   6.205
10551SOL    HW232553   2.510   2.145   6.247
10552SOL     OW32554   2.108   0.704   5.022
10552SOL    HW132555   2.181   0.727   4.958
10552SOL    HW232556   2.087   0.606   5.015
10553SOL     OW32557   0.159   4.373   0.776
10553SOL    HW132558   0.060   4.373   0.760
10553SOL    HW232559   0.201   4.298   0.725
10554SOL     OW32560   5.120   5.539   1.911
10554SOL    HW132561   5.090   5.572   1.822
10554SOL    HW232562   5.210   5.496   1.902
10555SOL     OW32563   2.712   2.405   1.230
10555SOL    HW132564   2.690   2.310   1.208
10555SOL    HW232565   2.789   2.435   1.173
10556SOL     OW32566   2.957   0.713   3.785
10556SOL    HW132567   2.970   0.636   3.723
10556SOL    HW232568   2.866   0.752   3.771
10557SOL     OW32569   1.529   3.291   3.691
10557SOL    HW132570   1.465   3.270   3.765
10557SOL    HW232571   1.600   3.353   3.724
10558SOL     OW32572   3.880   5.948   5.853
10558SOL    HW132573   3.955   5.887   5.878
10558SOL    HW232574   3.795   5.896   5.847
10559SOL     OW32575   3.959   0.968   1.852
10559SOL    HW132576   3.868   0.997   1.882
10559SOL    HW232577   3.951   0.914   1.768
10560SOL     OW32578   4.586   6.912   2.499
10560SOL    HW132579   4.495   6.952   2.495
10560SOL    HW232580   4.621   6.919   2.592
10561SOL     OW32581   3.797   4.384   1.694
10561SOL    HW132582   3.883   4.355   1.650
10561SOL    HW232583   3.800   4.482   1.711
10562SOL     OW32584   4.418   5.837   0.518
10562SOL    HW132585   4.382   5.838   0.425
10562SOL    HW232586   4.376   5.761   0.569
10563SOL     OW32587   1.056   0.757   1.527
10563SOL    HW132588   1.075   0.662   1.552
10563SOL    HW232589   1.077   0.817   1.604
10564SOL     OW32590   5.729   6.745   3.892
10564SOL    HW132591   5.661   6.673   3.881
10564SOL    HW232592   5.739   6.766   3.990
10565SOL     OW32593   6.729   6.401   5.546
10565SOL    HW132594   6.709   6.314   5.590
10565SOL    HW232595   6.824   6.401   5.514
10566SOL     OW32596   3.212   1.737   6.776
10566SOL    HW132597   3.213   1.643   6.741
10566SOL    HW232598   3.174   1.798   6.706
10567SOL     OW32599   2.432   2.818   6.044
10567SOL    HW132600   2.342   2.853   6.020
10567SOL    HW232601   2.424   2.755   6.122
10568SOL     OW32602   5.903   2.225   0.704
10568SOL    HW132603   5.820   2.219   0.760
10568SOL    HW232604   5.880   2.269   0.617
10569SOL     OW32605   5.567   0.707   2.142
10569SOL    HW132606   5.617   0.625   2.116
10569SOL    HW232607   5.628   0.786   2.136
10570SOL     OW32608   1.571   4.484   3.491
10570SOL    HW132609   1.615   4.553   3.433
10570SOL    HW232610   1.478   4.513   3.513
10571SOL     OW32611   0.249   4.184   5.170
10571SOL    HW132612   0.294   4.261   5.124
10571SOL    HW232613   0.218   4.118   5.102
10572SOL     OW32614   0.229   4.695   2.749
10572SOL    HW132615   0.146   4.730   2.791
10572SOL    HW232616   0.293   4.770   2.733
10573SOL     OW32617   5.003   0.475   4.907
10573SOL    HW132618   4.958   0.511   4.989
10573SOL    HW232619   5.074   0.540   4.878
10574SOL     OW32620   6.866   1.480   3.879
10574SOL    HW132621   6.940   1.463   3.945
10574SOL    HW232622   6.906   1.510   3.792
10575SOL     OW32623   6.546   1.105   3.808
10575SOL    HW132624   6.545   1.130   3.711
10575SOL    HW232625   6.460   1.131   3.851
10576SOL     OW32626   1.019   5.526   2.973
10576SOL    HW132627   0.967   5.494   3.053
10576SOL    HW232628   1.107   5.478   2.970
10577SOL     OW32629   1.949   4.604   0.423
10577SOL    HW132630   2.034   4.607   0.371
10577SOL    HW232631   1.916   4.510   0.430
10578SOL     OW32632   4.797   0.936   3.630
10578SOL    HW132633   4.818   1.004   3.560
10578SOL    HW232634   4.733   0.869   3.593
10579SOL     OW32635   3.542   3.059   1.262
10579SOL    HW132636   3.490   3.013   1.190
10579SOL    HW232637   3.525   3.157   1.259
10580SOL     OW32638   6.706   6.222   5.908
10580SOL    HW132639   6.652   6.208   5.991
10580SOL    HW232640   6.705   6.319   5.883
10581SOL     OW32641   5.578   0.271   2.487
10581SOL    HW132642   5.575   0.173   2.505
10581SOL    HW232643   5.564   0.322   2.572
10582SOL     OW32644   4.793   4.639   6.234
10582SOL    HW132645   4.831   4.611   6.322
10582SOL    HW232646   4.856   4.613   6.161
10583SOL     OW32647   4.483   6.868   4.339
10583SOL    HW132648   4.549   6.875   4.415
10583SOL    HW232649   4.392   6.852   4.376
10584SOL     OW32650   6.317   0.100   6.610
10584SOL    HW132651   6.218   0.108   6.618
10584SOL    HW232652   6.360   0.174   6.662
10585SOL     OW32653   2.108   1.879   5.876
10585SOL    HW132654   2.035   1.852   5.812
10585SOL    HW232655   2.081   1.962   5.924
10586SOL     OW32656   4.725   4.974   5.707
10586SOL    HW132657   4.689   5.014   5.791
10586SOL    HW232658   4.655   4.918   5.663
10587SOL     OW32659   6.420   5.428   6.793
10587SOL    HW132660   6.384   5.520   6.807
10587SOL    HW232661   6.354   5.361   6.826
10588SOL     OW32662   1.974   1.840   4.900
10588SOL    HW132663   1.988   1.937   4.884
10588SOL    HW232664   1.889   1.811   4.855
10589SOL     OW32665   4.922   0.302   4.238
10589SOL    HW132666   5.001   0.263   4.285
10589SOL    HW232667   4.935   0.292   4.139
10590SOL     OW32668   0.308   6.452   1.529
10590SOL    HW132669   0.251   6.525   1.567
10590SOL    HW232670   0.334   6.389   1.602
10591SOL     OW32671   2.458   1.665   1.111
10591SOL    HW132672   2.514   1.601   1.058
10591SOL    HW232673   2.429   1.621   1.195
10592SOL     OW32674   5.633   3.447   4.761
10592SOL    HW132675   5.689   3.500   4.698
10592SOL    HW232676   5.690   3.378   4.807
10593SOL     OW32677   2.066   5.909   0.724
10593SOL    HW132678   2.029   5.947   0.809
10593SOL    HW232679   2.141   5.967   0.692
10594SOL     OW32680   4.404   1.898   2.882
10594SOL    HW132681   4.400   1.828   2.953
10594SOL    HW232682   4.313   1.933   2.863
10595SOL     OW32683   6.201   0.362   6.702
10595SOL    HW132684   6.171   0.267   6.693
10595SOL    HW232685   6.126   0.417   6.740
10596SOL     OW32686   4.596   0.114   7.013
10596SOL    HW132687   4.527   0.174   6.972
10596SOL    HW232688   4.686   0.156   7.004
10597SOL     OW32689   2.428   1.237   5.764
10597SOL    HW132690   2.415   1.140   5.741
10597SOL    HW232691   2.377   1.293   5.698
10598SOL     OW32692   3.447   2.223   6.553
10598SOL    HW132693   3.393   2.221   6.638
10598SOL    HW232694   3.415   2.297   6.495
10599SOL     OW32695   6.421   3.400   6.846
10599SOL    HW132696   6.369   3.450   6.777
10599SOL    HW232697   6.383   3.308   6.856
10600SOL     OW32698   3.752   2.280   1.154
10600SOL    HW132699   3.753   2.243   1.247
10600SOL    HW232700   3.789   2.373   1.154
10601SOL     OW32701   1.598   4.846   5.678
10601SOL    HW132702   1.588   4.921   5.743
10601SOL    HW232703   1.684   4.857   5.628
10602SOL     OW32704   1.110   1.184   1.223
10602SOL    HW132705   1.159   1.238   1.154
10602SOL    HW232706   1.155   1.096   1.235
10603SOL     OW32707   4.628   0.317   3.229
10603SOL    HW132708   4.580   0.232   3.212
10603SOL    HW232709   4.568   0.380   3.279
10604SOL     OW32710   0.235   6.036   4.972
10604SOL    HW132711   0.198   6.053   4.881
10604SOL    HW232712   0.215   5.942   4.999
10605SOL     OW32713   1.506   6.533   0.285
10605SOL    HW132714   1.482   6.563   0.193
10605SOL    HW232715   1.575   6.461   0.279
10606SOL     OW32716   6.542   1.059   1.407
10606SOL    HW132717   6.602   1.043   1.485
10606SOL    HW232718   6.513   0.972   1.368
10607SOL     OW32719   3.947   4.617   0.144
10607SOL    HW132720   3.954   4.716   0.150
10607SOL    HW232721   4.034   4.579   0.112
10608SOL     OW32722   6.846   3.769   4.030
10608SOL    HW132723   6.894   3.727   4.107
10608SOL    HW232724   6.856   3.712   3.949
10609SOL     OW32725   2.999   6.697   6.806
10609SOL    HW132726   2.925   6.765   6.804
10609SOL    HW232727   3.027   6.683   6.901
10610SOL     OW32728   0.274   1.603   3.930
10610SOL    HW132729   0.340   1.668   3.968
10610SOL    HW232730   0.182   1.638   3.940
10611SOL     OW32731   2.949   5.007   6.166
10611SOL    HW132732   3.020   5.075   6.185
10611SOL    HW232733   2.907   5.027   6.077
10612SOL     OW32734   5.131   2.447   4.003
10612SOL    HW132735   5.042   2.469   4.042
10612SOL    HW232736   5.119   2.392   3.920
10613SOL     OW32737   6.422   5.691   4.718
10613SOL    HW132738   6.352   5.748   4.761
10613SOL    HW232739   6.383   5.600   4.700
10614SOL     OW32740   5.453   1.068   4.501
10614SOL    HW132741   5.378   1.104   4.445
10614SOL    HW232742   5.487   1.140   4.561
10615SOL     OW32743   3.482   0.695   5.945
10615SOL    HW132744   3.509   0.599   5.948
10615SOL    HW232745   3.414   0.708   5.873
10616SOL     OW32746   3.102   6.098   6.556
10616SOL    HW132747   3.185   6.151   6.569
10616SOL    HW232748   3.070   6.063   6.644
10617SOL     OW32749   3.039   4.421   1.373
10617SOL    HW132750   2.989   4.365   1.440
10617SOL    HW232751   3.135   4.394   1.372
10618SOL     OW32752   1.649   5.046   5.903
10618SOL    HW132753   1.709   5.126   5.912
10618SOL    HW232754   1.642   5.000   5.992
10619SOL     OW32755   0.211   2.652   3.153
10619SOL    HW132756   0.280   2.598   3.105
10619SOL    HW232757   0.121   2.636   3.113
10620SOL     OW32758   0.773   0.187   5.490
10620SOL    HW132759   0.752   0.231   5.577
10620SOL    HW232760   0.773   0.255   5.417
10621SOL     OW32761   0.086   4.187   2.069
10621SOL    HW132762   0.057   4.257   2.135
10621SOL    HW232763   0.046   4.206   1.980
10622SOL     OW32764   4.450   2.328   1.564
10622SOL    HW132765   4.422   2.420   1.590
10622SOL    HW232766   4.434   2.265   1.640
10623SOL     OW32767   6.980   5.859   5.939
10623SOL    HW132768   7.008   5.815   6.024
10623SOL    HW232769   0.030   5.837   5.866
10624SOL     OW32770   0.271   2.635   5.640
10624SOL    HW132771   0.352   2.617   5.696
10624SOL    HW232772   0.294   2.624   5.543
10625SOL     OW32773   0.333   3.914   1.508
10625SOL    HW132774   0.237   3.894   1.526
10625SOL    HW232775   0.367   3.979   1.576
10626SOL     OW32776   3.388   3.032   0.594
10626SOL    HW132777   3.377   3.056   0.690
10626SOL    HW232778   3.474   3.070   0.560
10627SOL     OW32779   5.806   1.198   6.553
10627SOL    HW132780   5.896   1.178   6.515
10627SOL    HW232781   5.816   1.251   6.637
10628SOL     OW32782   4.365   0.035   1.445
10628SOL    HW132783   4.350   0.098   1.368
10628SOL    HW232784   4.293   6.980   1.445
10629SOL     OW32785   3.143   5.047   4.775
10629SOL    HW132786   3.078   5.109   4.819
10629SOL    HW232787   3.119   4.953   4.797
10630SOL     OW32788   6.070   1.399   2.449
10630SOL    HW132789   6.163   1.403   2.484
10630SOL    HW232790   6.008   1.444   2.513
10631SOL     OW32791   3.763   4.347   5.599
10631SOL    HW132792   3.676   4.323   5.554
10631SOL    HW232793   3.831   4.276   5.579
10632SOL     OW32794   5.542   6.256   3.734
10632SOL    HW132795   5.605   6.273   3.809
10632SOL    HW232796   5.449   6.252   3.769
10633SOL     OW32797   2.459   2.772   1.544
10633SOL    HW132798   2.385   2.812   1.491
10633SOL    HW232799   2.503   2.699   1.492
10634SOL     OW32800   1.915   5.365   0.639
10634SOL    HW132801   1.950   5.292   0.698
10634SOL    HW232802   1.992   5.419   0.604
10635SOL     OW32803   2.047   2.915   6.650
10635SOL    HW132804   2.034   2.816   6.651
10635SOL    HW232805   2.089   2.942   6.563
10636SOL     OW32806   0.476   2.434   1.415
10636SOL    HW132807   0.414   2.364   1.451
10636SOL    HW232808   0.522   2.479   1.492
10637SOL     OW32809   1.427   5.150   6.149
10637SOL    HW132810   1.400   5.120   6.057
10637SOL    HW232811   1.466   5.072   6.199
10638SOL     OW32812   5.476   6.510   2.893
10638SOL    HW132813   5.553   6.552   2.941
10638SOL    HW232814   5.393   6.520   2.948
10639SOL     OW32815   1.378   3.560   2.022
10639SOL    HW132816   1.429   3.588   2.103
10639SOL    HW232817   1.336   3.640   1.980
10640SOL     OW32818   4.774   1.018   3.890
10640SOL    HW132819   4.807   0.947   3.952
10640SOL    HW232820   4.771   0.983   3.797
10641SOL     OW32821   2.625   1.672   3.261
10641SOL    HW132822   2.678   1.638   3.183
10641SOL    HW232823   2.592   1.595   3.315
10642SOL     OW32824   6.170   1.371   0.798
10642SOL    HW132825   6.120   1.285   0.788
10642SOL    HW232826   6.268   1.351   0.804
10643SOL     OW32827   2.341   6.138   5.331
10643SOL    HW132828   2.294   6.050   5.325
10643SOL    HW232829   2.349   6.177   5.239
10644SOL     OW32830   5.319   3.229   1.033
10644SOL    HW132831   5.373   3.313   1.037
10644SOL    HW232832   5.247   3.239   0.964
10645SOL     OW32833   1.761   2.881   4.178
10645SOL    HW132834   1.799   2.842   4.262
10645SOL    HW232835   1.739   2.977   4.193
10646SOL     OW32836   6.668   0.180   6.331
10646SOL    HW132837   6.753   0.209   6.287
10646SOL    HW232838   6.672   0.082   6.350
10647SOL     OW32839   3.457   5.395   4.836
10647SOL    HW132840   3.413   5.475   4.876
10647SOL    HW232841   3.474   5.327   4.908
10648SOL     OW32842   5.591   5.244   6.745
10648SOL    HW132843   5.543   5.229   6.659
10648SOL    HW232844   5.690   5.245   6.729
10649SOL     OW32845   0.590   3.616   3.272
10649SOL    HW132846   0.494   3.645   3.266
10649SOL    HW232847   0.604   3.535   3.215
10650SOL     OW32848   0.530   0.663   3.804
10650SOL    HW132849   0.574   0.576   3.781
10650SOL    HW232850   0.449   0.676   3.746
10651SOL     OW32851   6.196   5.858   6.139
10651SOL    HW132852   6.141   5.891   6.217
10651SOL    HW232853   6.150   5.779   6.098
10652SOL     OW32854   2.133   6.754   6.571
10652SOL    HW132855   2.229   6.781   6.580
10652SOL    HW232856   2.098   6.724   6.660
10653SOL     OW32857   4.248   5.862   4.585
10653SOL    HW132858   4.210   5.951   4.558
10653SOL    HW232859   4.178   5.791   4.573
10654SOL     OW32860   4.809   0.038   6.706
10654SOL    HW132861   4.771   0.083   6.787
10654SOL    HW232862   4.738   6.996   6.664
10655SOL     OW32863   1.570   5.191   0.256
10655SOL    HW132864   1.651   5.207   0.312
10655SOL    HW232865   1.589   5.220   0.162
10656SOL     OW32866   6.951   1.523   2.357
10656SOL    HW132867   6.989   1.448   2.303
10656SOL    HW232868   6.977   1.512   2.453
10657SOL     OW32869   6.082   0.908   4.779
10657SOL    HW132870   6.000   0.964   4.777
10657SOL    HW232871   6.138   0.933   4.858
10658SOL     OW32872   6.560   4.491   4.722
10658SOL    HW132873   6.596   4.580   4.748
10658SOL    HW232874   6.460   4.495   4.720
10659SOL     OW32875   0.979   5.660   0.685
10659SOL    HW132876   0.972   5.675   0.587
10659SOL    HW232877   0.928   5.730   0.734
10660SOL     OW32878   5.644   3.656   6.562
10660SOL    HW132879   5.702   3.679   6.639
10660SOL    HW232880   5.674   3.569   6.522
10661SOL     OW32881   1.466   6.372   1.053
10661SOL    HW132882   1.465   6.300   0.983
10661SOL    HW232883   1.410   6.343   1.131
10662SOL     OW32884   4.871   0.678   2.401
10662SOL    HW132885   4.846   0.767   2.441
10662SOL    HW232886   4.839   0.605   2.461
10663SOL     OW32887   0.830   1.110   2.426
10663SOL    HW132888   0.846   1.150   2.517
10663SOL    HW232889   0.738   1.072   2.422
10664SOL     OW32890   6.467   4.056   5.353
10664SOL    HW132891   6.465   4.152   5.328
10664SOL    HW232892   6.551   4.036   5.405
10665SOL     OW32893   1.258   1.844   0.347
10665SOL    HW132894   1.328   1.871   0.282
10665SOL    HW232895   1.213   1.925   0.384
10666SOL     OW32896   3.361   3.872   1.735
10666SOL    HW132897   3.346   3.884   1.636
10666SOL    HW232898   3.346   3.959   1.781
10667SOL     OW32899   4.701   2.288   3.534
10667SOL    HW132900   4.607   2.292   3.568
10667SOL    HW232901   4.704   2.320   3.439
10668SOL     OW32902   2.783   1.472   5.093
10668SOL    HW132903   2.768   1.451   5.189
10668SOL    HW232904   2.795   1.570   5.081
10669SOL     OW32905   5.531   0.648   1.382
10669SOL    HW132906   5.521   0.746   1.402
10669SOL    HW232907   5.593   0.607   1.448
10670SOL     OW32908   5.749   4.706   4.818
10670SOL    HW132909   5.837   4.749   4.802
10670SOL    HW232910   5.754   4.609   4.793
10671SOL     OW32911   2.225   1.629   4.547
10671SOL    HW132912   2.303   1.571   4.520
10671SOL    HW232913   2.197   1.685   4.470
10672SOL     OW32914   6.570   4.341   1.855
10672SOL    HW132915   6.628   4.354   1.936
10672SOL    HW232916   6.626   4.308   1.779
10673SOL     OW32917   0.325   1.191   6.968
10673SOL    HW132918   0.256   1.183   6.896
10673SOL    HW232919   0.284   1.171   0.041
10674SOL     OW32920   4.119   3.410   3.469
10674SOL    HW132921   4.102   3.431   3.565
10674SOL    HW232922   4.091   3.316   3.450
10675SOL     OW32923   1.544   6.928   0.145
10675SOL    HW132924   1.485   6.931   0.225
10675SOL    HW232925   1.537   6.838   0.101
10676SOL     OW32926   6.876   6.236   5.193
10676SOL    HW132927   6.828   6.324   5.198
10676SOL    HW232928   6.963   6.244   5.241
10677SOL     OW32929   1.622   0.411   1.691
10677SOL    HW132930   1.697   0.387   1.753
10677SOL    HW232931   1.595   0.329   1.640
10678SOL     OW32932   4.884   5.704   3.803
10678SOL    HW132933   4.900   5.688   3.900
10678SOL    HW232934   4.829   5.786   3.790
10679SOL     OW32935   4.200   5.296   6.699
10679SOL    HW132936   4.201   5.332   6.606
10679SOL    HW232937   4.139   5.217   6.705
10680SOL     OW32938   4.148   2.133   4.178
10680SOL    HW132939   4.064   2.154   4.127
10680SOL    HW232940   4.126   2.079   4.259
10681SOL     OW32941   0.223   3.648   1.025
10681SOL    HW132942   0.305   3.640   1.082
10681SOL    HW232943   0.242   3.705   0.946
10682SOL     OW32944   0.420   1.707   5.221
10682SOL    HW132945   0.501   1.723   5.164
10682SOL    HW232946   0.372   1.626   5.187
10683SOL     OW32947   4.859   1.834   3.999
10683SOL    HW132948   4.902   1.761   3.946
10683SOL    HW232949   4.833   1.800   4.089
10684SOL     OW32950   4.958   4.755   3.154
10684SOL    HW132951   4.930   4.730   3.247
10684SOL    HW232952   4.898   4.826   3.119
10685SOL     OW32953   0.743   5.651   1.745
10685SOL    HW132954   0.649   5.618   1.751
10685SOL    HW232955   0.757   5.697   1.658
10686SOL     OW32956   0.946   4.266   5.495
10686SOL    HW132957   0.932   4.185   5.439
10686SOL    HW232958   0.913   4.347   5.446
10687SOL     OW32959   5.723   5.870   4.160
10687SOL    HW132960   5.821   5.868   4.142
10687SOL    HW232961   5.678   5.798   4.109
10688SOL     OW32962   6.553   3.778   2.798
10688SOL    HW132963   6.528   3.702   2.738
10688SOL    HW232964   6.639   3.818   2.766
10689SOL     OW32965   0.156   0.022   3.530
10689SOL    HW132966   0.123   0.014   3.436
10689SOL    HW232967   0.247   0.063   3.531
10690SOL     OW32968   0.422   5.531   4.006
10690SOL    HW132969   0.449   5.544   4.101
10690SOL    HW232970   0.503   5.520   3.949
10691SOL     OW32971   0.845   1.952   2.580
10691SOL    HW132972   0.912   1.954   2.654
10691SOL    HW232973   0.809   2.044   2.565
10692SOL     OW32974   2.838   6.763   3.996
10692SOL    HW132975   2.768   6.692   4.000
10692SOL    HW232976   2.875   6.767   3.903
10693SOL     OW32977   1.924   6.062   0.954
10693SOL    HW132978   2.013   6.106   0.949
10693SOL    HW232979   1.879   6.088   1.039
10694SOL     OW32980   5.484   6.496   0.181
10694SOL    HW132981   5.479   6.588   0.222
10694SOL    HW232982   5.404   6.482   0.123
10695SOL     OW32983   0.442   2.479   3.059
10695SOL    HW132984   0.487   2.475   2.970
10695SOL    HW232985   0.489   2.419   3.124
10696SOL     OW32986   7.011   4.499   3.284
10696SOL    HW132987   6.937   4.439   3.255
10696SOL    HW232988   0.041   4.537   3.203
10697SOL     OW32989   0.172   6.470   5.071
10697SOL    HW132990   0.120   6.552   5.098
10697SOL    HW232991   0.216   6.486   4.983
10698SOL     OW32992   5.305   4.233   6.535
10698SOL    HW132993   5.238   4.304   6.552
10698SOL    HW232994   5.268   4.144   6.563
10699SOL     OW32995   3.571   4.195   1.784
10699SOL    HW132996   3.590   4.137   1.704
10699SOL    HW232997   3.638   4.269   1.787
10700SOL     OW32998   5.897   6.782   0.585
10700SOL    HW132999   5.910   6.879   0.562
10700SOL    HW233000   5.981   6.745   0.623
10701SOL     OW33001   2.664   6.228   6.608
10701SOL    HW133002   2.752   6.269   6.585
10701SOL    HW233003   2.612   6.291   6.666
10702SOL     OW33004   5.449   2.743   1.603
10702SOL    HW133005   5.497   2.814   1.656
10702SOL    HW233006   5.493   2.732   1.514
10703SOL     OW33007   2.887   3.242   4.980
10703SOL    HW133008   2.818   3.206   4.918
10703SOL    HW233009   2.957   3.172   4.996
10704SOL     OW33010   5.875   5.723   1.699
10704SOL    HW133011   5.944   5.795   1.687
10704SOL    HW233012   5.920   5.634   1.701
10705SOL     OW33013   5.809   4.691   2.035
10705SOL    HW133014   5.768   4.732   1.954
10705SOL    HW233015   5.844   4.600   2.012
10706SOL     OW33016   5.069   0.507   2.377
10706SOL    HW133017   4.988   0.565   2.387
10706SOL    HW233018   5.149   0.553   2.415
10707SOL     OW33019   0.155   6.932   4.377
10707SOL    HW133020   0.183   6.980   4.460
10707SOL    HW233021   0.063   6.894   4.389
10708SOL     OW33022   4.333   0.570   2.009
10708SOL    HW133023   4.264   0.643   2.007
10708SOL    HW233024   4.404   0.594   2.074
10709SOL     OW33025   5.678   5.207   5.506
10709SOL    HW133026   5.712   5.300   5.523
10709SOL    HW233027   5.593   5.193   5.556
10710SOL     OW33028   0.153   0.289   4.304
10710SOL    HW133029   0.127   0.382   4.330
10710SOL    HW233030   0.179   0.238   4.385
10711SOL     OW33031   1.632   6.801   4.807
10711SOL    HW133032   1.668   6.798   4.714
10711SOL    HW233033   1.692   6.856   4.865
10712SOL     OW33034   2.789   0.610   1.976
10712SOL    HW133035   2.703   0.579   2.017
10712SOL    HW233036   2.794   0.579   1.881
10713SOL     OW33037   0.516   3.577   2.195
10713SOL    HW133038   0.600   3.551   2.147
10713SOL    HW233039   0.439   3.524   2.160
10714SOL     OW33040   5.841   3.580   4.915
10714SOL    HW133041   5.824   3.612   4.821
10714SOL    HW233042   5.897   3.498   4.912
10715SOL     OW33043   4.938   0.889   2.765
10715SOL    HW133044   5.000   0.854   2.835
10715SOL    HW233045   4.989   0.901   2.679
10716SOL     OW33046   6.042   2.192   3.752
10716SOL    HW133047   6.015   2.118   3.690
10716SOL    HW233048   6.064   2.274   3.699
10717SOL     OW33049   1.470   2.083   1.283
10717SOL    HW133050   1.475   1.986   1.261
10717SOL    HW233051   1.374   2.110   1.293
10718SOL     OW33052   1.337   3.143   6.508
10718SOL    HW133053   1.313   3.048   6.486
10718SOL    HW233054   1.326   3.159   6.606
10719SOL     OW33055   6.535   6.018   2.641
10719SOL    HW133056   6.455   5.970   2.677
10719SOL    HW233057   6.566   6.085   2.709
10720SOL     OW33058   0.539   4.403   4.654
10720SOL    HW133059   0.634   4.398   4.686
10720SOL    HW233060   0.517   4.498   4.629
10721SOL     OW33061   5.550   4.060   4.872
10721SOL    HW133062   5.593   4.040   4.784
10721SOL    HW233063   5.544   3.977   4.927
10722SOL     OW33064   0.728   4.951   0.167
10722SOL    HW133065   0.644   5.004   0.156
10722SOL    HW233066   0.756   4.952   0.263
10723SOL     OW33067   0.361   3.721   6.235
10723SOL    HW133068   0.331   3.809   6.200
10723SOL    HW233069   0.324   3.648   6.178
10724SOL     OW33070   5.861   1.071   6.910
10724SOL    HW133071   5.768   1.057   6.875
10724SOL    HW233072   5.875   1.014   6.991
10725SOL     OW33073   0.693   5.682   4.438
10725SOL    HW133074   0.740   5.603   4.398
10725SOL    HW233075   0.619   5.651   4.497
10726SOL     OW33076   5.346   0.006   5.403
10726SOL    HW133077   5.412   6.955   5.439
10726SOL    HW233078   5.289   0.040   5.477
10727SOL     OW33079   0.236   4.791   5.255
10727SOL    HW133080   0.187   4.784   5.167
10727SOL    HW233081   0.196   4.726   5.320
10728SOL     OW33082   0.360   5.916   0.066
10728SOL    HW133083   0.413   5.907   6.997
10728SOL    HW233084   0.285   5.850   0.064
10729SOL     OW33085   5.562   0.877   1.562
10729SOL    HW133086   5.655   0.851   1.535
10729SOL    HW233087   5.567   0.954   1.627
10730SOL     OW33088   2.351   0.609   1.725
10730SOL    HW133089   2.291   0.638   1.799
10730SOL    HW233090   2.329   0.514   1.700
10731SOL     OW33091   3.055   5.824   0.963
10731SOL    HW133092   3.060   5.830   1.063
10731SOL    HW233093   3.117   5.891   0.922
10732SOL     OW33094   5.903   5.401   3.783
10732SOL    HW133095   5.957   5.319   3.801
10732SOL    HW233096   5.813   5.375   3.747
10733SOL     OW33097   6.505   1.841   1.117
10733SOL    HW133098   6.519   1.925   1.066
10733SOL    HW233099   6.527   1.857   1.214
10734SOL     OW33100   0.982   0.618   6.937
10734SOL    HW133101   1.047   0.670   6.992
10734SOL    HW233102   0.936   0.680   6.873
10735SOL     OW33103   1.170   3.228   3.332
10735SOL    HW133104   1.220   3.314   3.346
10735SOL    HW233105   1.213   3.176   3.259
10736SOL     OW33106   1.272   0.536   2.530
10736SOL    HW133107   1.219   0.468   2.581
10736SOL    HW233108   1.252   0.627   2.566
10737SOL     OW33109   2.065   1.967   0.743
10737SOL    HW133110   2.023   1.954   0.833
10737SOL    HW233111   2.127   1.891   0.724
10738SOL     OW33112   2.489   0.106   3.330
10738SOL    HW133113   2.396   0.117   3.297
10738SOL    HW233114   2.554   0.132   3.258
10739SOL     OW33115   0.559   1.287   0.717
10739SOL    HW133116   0.573   1.196   0.677
10739SOL    HW233117   0.609   1.355   0.664
10740SOL     OW33118   0.264   4.470   5.293
10740SOL    HW133119   0.360   4.467   5.320
10740SOL    HW233120   0.256   4.458   5.194
10741SOL     OW33121   6.396   0.092   1.229
10741SOL    HW133122   6.428   7.013   1.219
10741SOL    HW233123   6.307   0.101   1.184
10742SOL     OW33124   5.366   0.954   1.109
10742SOL    HW133125   5.363   0.904   1.196
10742SOL    HW233126   5.306   0.910   1.042
10743SOL     OW33127   2.788   1.924   4.844
10743SOL    HW133128   2.825   2.007   4.803
10743SOL    HW233129   2.736   1.873   4.776
10744SOL     OW33130   4.079   1.092   0.810
10744SOL    HW133131   4.038   1.100   0.901
10744SOL    HW233132   4.176   1.116   0.815
10745SOL     OW33133   0.086   5.373   6.687
10745SOL    HW133134   0.149   5.381   6.610
10745SOL    HW233135   0.108   5.291   6.740
10746SOL     OW33136   2.272   4.350   1.112
10746SOL    HW133137   2.235   4.268   1.069
10746SOL    HW233138   2.255   4.430   1.054
10747SOL     OW33139   4.462   1.049   3.585
10747SOL    HW133140   4.514   0.968   3.557
10747SOL    HW233141   4.391   1.068   3.516
10748SOL     OW33142   4.803   1.298   1.392
10748SOL    HW133143   4.736   1.368   1.366
10748SOL    HW233144   4.886   1.342   1.427
10749SOL     OW33145   0.616   5.925   3.003
10749SOL    HW133146   0.533   5.874   2.979
10749SOL    HW233147   0.646   5.898   3.095
10750SOL     OW33148   4.324   6.055   5.115
10750SOL    HW133149   4.329   5.959   5.144
10750SOL    HW233150   4.415   6.087   5.090
10751SOL     OW33151   1.661   4.302   4.042
10751SOL    HW133152   1.760   4.312   4.052
10751SOL    HW233153   1.641   4.227   3.979
10752SOL     OW33154   5.867   4.097   6.287
10752SOL    HW133155   5.783   4.073   6.240
10752SOL    HW233156   5.902   4.018   6.337
10753SOL     OW33157   4.486   6.500   4.450
10753SOL    HW133158   4.464   6.518   4.546
10753SOL    HW233159   4.420   6.547   4.391
10754SOL     OW33160   0.995   1.166   3.479
10754SOL    HW133161   0.997   1.066   3.479
10754SOL    HW233162   1.050   1.201   3.554
10755SOL     OW33163   6.926   0.781   6.380
10755SOL    HW133164   7.010   0.729   6.364
10755SOL    HW233165   6.946   0.879   6.376
10756SOL     OW33166   6.846   4.508   0.252
10756SOL    HW133167   6.791   4.564   0.190
10756SOL    HW233168   6.881   4.429   0.202
10757SOL     OW33169   1.179   3.311   0.361
10757SOL    HW133170   1.116   3.323   0.438
10757SOL    HW233171   1.198   3.400   0.319
10758SOL     OW33172   0.387   6.808   4.255
10758SOL    HW133173   0.307   6.851   4.296
10758SOL    HW233174   0.450   6.878   4.222
10759SOL     OW33175   1.842   2.903   1.331
10759SOL    HW133176   1.750   2.940   1.340
10759SOL    HW233177   1.891   2.951   1.258
10760SOL     OW33178   6.683   1.428   1.758
10760SOL    HW133179   6.760   1.478   1.799
10760SOL    HW233180   6.670   1.341   1.805
10761SOL     OW33181   1.258   0.909   6.132
10761SOL    HW133182   1.332   0.916   6.198
10761SOL    HW233183   1.175   0.878   6.178
10762SOL     OW33184   4.342   1.775   4.772
10762SOL    HW133185   4.279   1.713   4.818
10762SOL    HW233186   4.309   1.869   4.781
10763SOL     OW33187   5.173   6.523   2.428
10763SOL    HW133188   5.149   6.465   2.506
10763SOL    HW233189   5.092   6.572   2.396
10764SOL     OW33190   5.456   2.657   5.930
10764SOL    HW133191   5.541   2.679   5.883
10764SOL    HW233192   5.475   2.634   6.025
10765SOL     OW33193   5.139   2.271   0.273
10765SOL    HW133194   5.074   2.208   0.232
10765SOL    HW233195   5.230   2.231   0.271
10766SOL     OW33196   4.947   3.604   1.049
10766SOL    HW133197   5.038   3.619   1.011
10766SOL    HW233198   4.954   3.548   1.131
10767SOL     OW33199   1.169   0.726   0.072
10767SOL    HW133200   1.256   0.682   0.095
10767SOL    HW233201   1.139   0.781   0.150
10768SOL     OW33202   5.014   4.404   1.675
10768SOL    HW133203   4.927   4.415   1.722
10768SOL    HW233204   5.085   4.456   1.723
10769SOL     OW33205   2.650   4.705   4.867
10769SOL    HW133206   2.669   4.699   4.769
10769SOL    HW233207   2.714   4.645   4.916
10770SOL     OW33208   5.262   0.875   5.133
10770SOL    HW133209   5.167   0.899   5.111
10770SOL    HW233210   5.267   0.777   5.154
10771SOL     OW33211   5.693   1.082   3.408
10771SOL    HW133212   5.757   1.159   3.410
10771SOL    HW233213   5.608   1.109   3.453
10772SOL     OW33214   6.657   6.884   4.588
10772SOL    HW133215   6.560   6.883   4.562
10772SOL    HW233216   6.698   6.796   4.566
10773SOL     OW33217   6.592   5.326   6.981
10773SOL    HW133218   6.544   5.331   6.893
10773SOL    HW233219   6.533   5.363   0.038
10774SOL     OW33220   2.246   2.141   6.906
10774SOL    HW133221   2.293   2.190   6.832
10774SOL    HW233222   2.148   2.160   6.902
10775SOL     OW33223   6.958   4.707   1.335
10775SOL    HW133224   6.893   4.676   1.266
10775SOL    HW233225   6.909   4.743   1.415
10776SOL     OW33226   0.178   0.509   6.810
10776SOL    HW133227   0.209   0.423   6.770
10776SOL    HW233228   0.210   0.585   6.755
10777SOL     OW33229   3.301   5.678   2.996
10777SOL    HW133230   3.367   5.605   2.977
10777SOL    HW233231   3.213   5.637   3.022
10778SOL     OW33232   5.785   0.273   4.275
10778SOL    HW133233   5.719   0.335   4.231
10778SOL    HW233234   5.778   0.283   4.374
10779SOL     OW33235   6.322   4.437   3.726
10779SOL    HW133236   6.241   4.485   3.692
10779SOL    HW233237   6.294   4.372   3.797
10780SOL     OW33238   2.004   0.955   3.773
10780SOL    HW133239   1.977   0.992   3.862
10780SOL    HW233240   1.953   1.002   3.701
10781SOL     OW33241   4.299   1.132   3.355
10781SOL    HW133242   4.213   1.086   3.378
10781SOL    HW233243   4.287   1.231   3.358
10782SOL     OW33244   5.318   1.724   2.236
10782SOL    HW133245   5.374   1.703   2.156
10782SOL    HW233246   5.221   1.721   2.212
10783SOL     OW33247   0.663   3.096   3.669
10783SOL    HW133248   0.590   3.056   3.613
10783SOL    HW233249   0.668   3.195   3.652
10784SOL     OW33250   3.860   6.695   4.335
10784SOL    HW133251   3.795   6.619   4.325
10784SOL    HW233252   3.900   6.692   4.427
10785SOL     OW33253   0.312   4.596   1.452
10785SOL    HW133254   0.292   4.694   1.454
10785SOL    HW233255   0.250   4.551   1.387
10786SOL     OW33256   5.547   4.902   3.069
10786SOL    HW133257   5.507   4.993   3.060
10786SOL    HW233258   5.568   4.885   3.166
10787SOL     OW33259   1.702   1.697   4.843
10787SOL    HW133260   1.612   1.734   4.863
10787SOL    HW233261   1.726   1.627   4.911
10788SOL     OW33262   1.817   4.728   6.361
10788SOL    HW133263   1.906   4.762   6.389
10788SOL    HW233264   1.804   4.635   6.397
10789SOL     OW33265   0.120   2.716   6.523
10789SOL    HW133266   0.056   2.734   6.599
10789SOL    HW233267   0.127   2.798   6.466
10790SOL     OW33268   1.408   0.957   1.525
10790SOL    HW133269   1.353   0.923   1.449
10790SOL    HW233270   1.392   0.899   1.605
10791SOL     OW33271   0.567   0.016   1.053
10791SOL    HW133272   0.544   0.106   1.017
10791SOL    HW233273   0.485   6.975   1.059
10792SOL     OW33274   3.151   3.797   3.760
10792SOL    HW133275   3.146   3.897   3.772
10792SOL    HW233276   3.085   3.753   3.821
10793SOL     OW33277   5.552   3.424   4.274
10793SOL    HW133278   5.480   3.395   4.211
10793SOL    HW233279   5.522   3.406   4.368
10794SOL     OW33280   3.045   3.537   3.621
10794SOL    HW133281   3.022   3.485   3.538
10794SOL    HW233282   3.041   3.476   3.700
10795SOL     OW33283   6.736   4.675   2.477
10795SOL    HW133284   6.690   4.703   2.393
10795SOL    HW233285   6.819   4.729   2.490
10796SOL     OW33286   5.624   6.789   6.788
10796SOL    HW133287   5.587   6.784   6.695
10796SOL    HW233288   5.548   6.781   6.853
10797SOL     OW33289   4.187   2.955   1.622
10797SOL    HW133290   4.154   2.862   1.605
10797SOL    HW233291   4.147   3.017   1.555
10798SOL     OW33292   2.901   6.370   0.731
10798SOL    HW133293   2.833   6.329   0.791
10798SOL    HW233294   2.955   6.298   0.687
10799SOL     OW33295   3.809   1.134   1.591
10799SOL    HW133296   3.878   1.206   1.603
10799SOL    HW233297   3.733   1.150   1.655
10800SOL     OW33298   0.727   6.744   6.361
10800SOL    HW133299   0.661   6.669   6.374
10800SOL    HW233300   0.791   6.719   6.288
10801SOL     OW33301   0.802   6.182   6.081
10801SOL    HW133302   0.814   6.199   6.179
10801SOL    HW233303   0.799   6.083   6.065
10802SOL     OW33304   0.927   1.279   3.246
10802SOL    HW133305   0.963   1.240   3.330
10802SOL    HW233306   0.827   1.272   3.246
10803SOL     OW33307   3.117   3.989   6.378
10803SOL    HW133308   3.060   3.928   6.322
10803SOL    HW233309   3.063   4.026   6.453
10804SOL     OW33310   5.768   3.430   1.931
10804SOL    HW133311   5.809   3.420   2.022
10804SOL    HW233312   5.678   3.387   1.930
10805SOL     OW33313   4.331   6.358   6.966
10805SOL    HW133314   4.293   6.431   0.007
10805SOL    HW233315   4.405   6.394   6.910
10806SOL     OW33316   4.438   3.565   5.853
10806SOL    HW133317   4.482   3.653   5.867
10806SOL    HW233318   4.460   3.531   5.761
10807SOL     OW33319   1.134   0.250   2.145
10807SOL    HW133320   1.038   0.232   2.126
10807SOL    HW233321   1.160   0.338   2.105
10808SOL     OW33322   0.302   2.964   5.716
10808SOL    HW133323   0.256   2.924   5.637
10808SOL    HW233324   0.399   2.979   5.695
10809SOL     OW33325   2.693   4.657   3.368
10809SOL    HW133326   2.784   4.616   3.377
10809SOL    HW233327   2.695   4.727   3.297
10810SOL     OW33328   1.314   0.148   4.444
10810SOL    HW133329   1.325   0.144   4.544
10810SOL    HW233330   1.220   0.124   4.420
10811SOL     OW33331   3.987   4.036   6.249
10811SOL    HW133332   4.077   4.004   6.217
10811SOL    HW233333   3.997   4.081   6.337
10812SOL     OW33334   0.481   4.183   0.700
10812SOL    HW133335   0.508   4.224   0.787
10812SOL    HW233336   0.470   4.084   0.712
10813SOL     OW33337   2.070   4.835   6.339
10813SOL    HW133338   2.084   4.741   6.308
10813SOL    HW233339   2.139   4.895   6.297
10814SOL     OW33340   1.432   6.819   6.650
10814SOL    HW133341   1.527   6.800   6.675
10814SOL    HW233342   1.425   6.912   6.615
10815SOL     OW33343   4.440   4.608   3.382
10815SOL    HW133344   4.367   4.656   3.333
10815SOL    HW233345   4.485   4.543   3.320
10816SOL     OW33346   3.172   3.004   2.390
10816SOL    HW133347   3.213   2.934   2.331
10816SOL    HW233348   3.083   3.030   2.353
10817SOL     OW33349   4.528   0.784   3.500
10817SOL    HW133350   4.437   0.764   3.536
10817SOL    HW233351   4.525   0.787   3.400
10818SOL     OW33352   4.514   4.464   5.451
10818SOL    HW133353   4.516   4.451   5.550
10818SOL    HW233354   4.516   4.562   5.430
10819SOL     OW33355   6.528   4.974   6.237
10819SOL    HW133356   6.478   5.024   6.167
10819SOL    HW233357   6.594   4.912   6.193
10820SOL     OW33358   0.269   5.654   3.743
10820SOL    HW133359   0.224   5.610   3.821
10820SOL    HW233360   0.290   5.586   3.673
10821SOL     OW33361   5.220   7.008   2.819
10821SOL    HW133362   5.313   7.000   2.856
10821SOL    HW233363   5.224   0.015   2.722
10822SOL     OW33364   6.903   3.268   3.461
10822SOL    HW133365   6.811   3.238   3.437
10822SOL    HW233366   6.897   3.345   3.524
10823SOL     OW33367   1.771   6.815   1.518
10823SOL    HW133368   1.803   6.835   1.610
10823SOL    HW233369   1.805   6.726   1.489
10824SOL     OW33370   6.634   1.540   2.775
10824SOL    HW133371   6.582   1.481   2.712
10824SOL    HW233372   6.711   1.490   2.812
10825SOL     OW33373   2.359   1.094   6.242
10825SOL    HW133374   2.367   1.193   6.228
10825SOL    HW233375   2.367   1.047   6.155
10826SOL     OW33376   1.250   2.918   3.829
10826SOL    HW133377   1.201   2.865   3.759
10826SOL    HW233378   1.237   2.875   3.919
10827SOL     OW33379   0.111   3.012   4.060
10827SOL    HW133380   0.188   3.071   4.082
10827SOL    HW233381   0.068   3.043   3.975
10828SOL     OW33382   1.156   4.501   0.559
10828SOL    HW133383   1.198   4.581   0.602
10828SOL    HW233384   1.222   4.459   0.496
10829SOL     OW33385   4.072   2.283   0.376
10829SOL    HW133386   4.016   2.241   0.447
10829SOL    HW233387   4.162   2.306   0.414
10830SOL     OW33388   5.112   1.785   3.021
10830SOL    HW133389   5.160   1.873   3.018
10830SOL    HW233390   5.129   1.735   2.936
10831SOL     OW33391   2.811   6.023   3.104
10831SOL    HW133392   2.762   5.947   3.063
10831SOL    HW233393   2.749   6.100   3.117
10832SOL     OW33394   0.801   3.065   6.202
10832SOL    HW133395   0.823   2.975   6.240
10832SOL    HW233396   0.759   3.121   6.273
10833SOL     OW33397   0.863   0.206   2.156
10833SOL    HW133398   0.794   0.277   2.157
10833SOL    HW233399   0.864   0.158   2.244
10834SOL     OW33400   0.857   2.124   0.549
10834SOL    HW133401   0.904   2.039   0.528
10834SOL    HW233402   0.911   2.177   0.615
10835SOL     OW33403   5.432   2.348   0.472
10835SOL    HW133404   5.399   2.345   0.566
10835SOL    HW233405   5.485   2.266   0.452
10836SOL     OW33406   6.624   1.432   4.973
10836SOL    HW133407   6.576   1.376   5.041
10836SOL    HW233408   6.560   1.458   4.900
10837SOL     OW33409   6.818   5.181   1.317
10837SOL    HW133410   6.897   5.192   1.256
10837SOL    HW233411   6.739   5.227   1.277
10838SOL     OW33412   6.139   5.673   4.156
10838SOL    HW133413   6.104   5.754   4.108
10838SOL    HW233414   6.194   5.701   4.234
10839SOL     OW33415   4.482   3.061   1.633
10839SOL    HW133416   4.407   2.996   1.631
10839SOL    HW233417   4.517   3.069   1.726
10840SOL     OW33418   2.703   5.860   2.909
10840SOL    HW133419   2.680   5.948   2.868
10840SOL    HW233420   2.643   5.789   2.873
10841SOL     OW33421   6.012   4.895   5.845
10841SOL    HW133422   5.970   4.952   5.774
10841SOL    HW233423   5.945   4.875   5.916
10842SOL     OW33424   4.625   2.394   1.768
10842SOL    HW133425   4.704   2.361   1.717
10842SOL    HW233426   4.585   2.473   1.721
10843SOL     OW33427   0.991   1.907   1.620
10843SOL    HW133428   0.969   1.837   1.688
10843SOL    HW233429   0.949   1.884   1.533
10844SOL     OW33430   0.632   6.916   3.833
10844SOL    HW133431   0.593   7.005   3.857
10844SOL    HW233432   0.580   6.844   3.878
10845SOL     OW33433   3.043   0.131   5.277
10845SOL    HW133434   3.093   0.210   5.243
10845SOL    HW233435   2.996   0.086   5.202
10846SOL     OW33436   5.446   1.169   0.358
10846SOL    HW133437   5.509   1.154   0.281
10846SOL    HW233438   5.475   1.251   0.408
10847SOL     OW33439   3.793   2.981   6.470
10847SOL    HW133440   3.756   3.020   6.554
10847SOL    HW233441   3.738   2.902   6.443
10848SOL     OW33442   3.014   3.437   6.775
10848SOL    HW133443   3.081   3.509   6.759
10848SOL    HW233444   2.958   3.462   6.855
10849SOL     OW33445   1.890   5.205   3.808
10849SOL    HW133446   1.897   5.305   3.817
10849SOL    HW233447   1.920   5.162   3.892
10850SOL     OW33448   2.504   5.514   6.897
10850SOL    HW133449   2.452   5.578   6.840
10850SOL    HW233450   2.579   5.476   6.843
10851SOL     OW33451   1.942   3.534   0.270
10851SOL    HW133452   1.954   3.435   0.270
10851SOL    HW233453   1.929   3.566   0.176
10852SOL     OW33454   1.134   0.363   6.896
10852SOL    HW133455   1.219   0.416   6.894
10852SOL    HW233456   1.057   0.424   6.914
10853SOL     OW33457   1.815   2.420   5.091
10853SOL    HW133458   1.861   2.388   5.174
10853SOL    HW233459   1.882   2.456   5.026
10854SOL     OW33460   4.411   4.929   5.236
10854SOL    HW133461   4.339   4.982   5.282
10854SOL    HW233462   4.384   4.910   5.142
10855SOL     OW33463   3.739   0.385   1.027
10855SOL    HW133464   3.726   0.401   0.929
10855SOL    HW233465   3.724   0.289   1.047
10856SOL     OW33466   5.241   1.244   0.119
10856SOL    HW133467   5.259   1.175   0.190
10856SOL    HW233468   5.328   1.274   0.079
10857SOL     OW33469   6.680   2.527   2.845
10857SOL    HW133470   6.625   2.479   2.913
10857SOL    HW233471   6.662   2.489   2.754
10858SOL     OW33472   0.895   1.624   6.460
10858SOL    HW133473   0.957   1.650   6.534
10858SOL    HW233474   0.899   1.526   6.445
10859SOL     OW33475   1.111   4.411   4.532
10859SOL    HW133476   1.143   4.442   4.442
10859SOL    HW233477   1.090   4.490   4.589
10860SOL     OW33478   7.010   1.519   5.597
10860SOL    HW133479   0.093   1.537   5.593
10860SOL    HW233480   6.984   1.458   5.522
10861SOL     OW33481   3.514   3.374   3.289
10861SOL    HW133482   3.538   3.375   3.192
10861SOL    HW233483   3.564   3.446   3.336
10862SOL     OW33484   2.398   1.900   6.569
10862SOL    HW133485   2.477   1.961   6.573
10862SOL    HW233486   2.399   1.839   6.648
10863SOL     OW33487   3.627   0.982   3.870
10863SOL    HW133488   3.552   1.018   3.816
10863SOL    HW233489   3.638   1.037   3.953
10864SOL     OW33490   2.480   5.807   1.348
10864SOL    HW133491   2.574   5.835   1.328
10864SOL    HW233492   2.425   5.815   1.265
10865SOL     OW33493   6.783   1.205   2.094
10865SOL    HW133494   6.849   1.175   2.025
10865SOL    HW233495   6.690   1.186   2.061
10866SOL     OW33496   4.950   4.553   0.840
10866SOL    HW133497   4.950   4.587   0.934
10866SOL    HW233498   5.037   4.574   0.797
10867SOL     OW33499   3.575   4.173   0.064
10867SOL    HW133500   3.568   4.245   0.133
10867SOL    HW233501   3.522   4.093   0.094
10868SOL     OW33502   4.379   2.014   4.373
10868SOL    HW133503   4.381   1.917   4.395
10868SOL    HW233504   4.418   2.029   4.282
10869NA      NA33505   6.923   2.115   5.214
10870NA      NA33506   4.482   4.446   5.208
10871NA      NA33507   1.996   3.336   2.229
10872NA      NA33508   5.091   3.883   4.786
10873NA      NA33509   4.387   2.463   5.292
10874NA      NA33510   3.196   4.778   1.665
10875NA      NA33511   6.948   4.487   0.464
10876NA      NA33512   3.217   3.680   3.563
10877NA      NA33513   5.297   5.554   0.309
10878NA      NA33514   2.970   0.080   5.496
10879NA      NA33515   5.816   5.655   1.264
10880NA      NA33516   2.101   0.424   4.235
10881NA      NA33517   3.765   5.074   2.532
10882NA      NA33518   3.985   3.701   2.022
   7.01512   7.01512   7.01512
