Generated by trjconv : CNT in water t= 123.00000
33518
    1C        C    1   2.842   2.768   4.748
    1C        C    2   2.897   2.718   4.868
    1C        C    3   2.844   2.771   4.986
    1C        C    4   2.849   2.774   4.260
    1C        C    5   2.901   2.728   4.383
    1C        C    6   2.846   2.773   4.505
    1C        C    7   3.015   2.646   4.625
    1C        C    8   2.899   2.725   4.627
    1C        C    9   3.076   2.606   4.746
    1C        C   10   3.008   2.629   4.867
    1C        C   11   3.182   2.490   4.974
    1C        C   12   3.059   2.557   4.976
    1C        C   13   2.845   2.769   3.770
    1C        C   14   2.898   2.723   3.893
    1C        C   15   2.849   2.773   4.015
    1C        C   16   3.017   2.645   4.138
    1C        C   17   2.903   2.728   4.138
    1C        C   18   3.081   2.615   4.260
    1C        C   19   3.018   2.649   4.382
    1C        C   20   3.214   2.568   4.506
    1C        C   21   3.080   2.613   4.504
    1C        C   22   3.281   2.539   4.626
    1C        C   23   3.209   2.553   4.746
    1C        C   24   3.414   2.484   4.862
    1C        C   25   3.272   2.501   4.863
    1C        C   26   3.491   2.482   4.979
    1C        C   27   2.845   2.764   3.283
    1C        C   28   2.904   2.722   3.405
    1C        C   29   2.851   2.773   3.525
    1C        C   30   3.016   2.644   3.650
    1C        C   31   2.899   2.723   3.648
    1C        C   32   3.077   2.609   3.773
    1C        C   33   3.013   2.641   3.895
    1C        C   34   3.210   2.558   4.016
    1C        C   35   3.078   2.607   4.016
    1C        C   36   3.279   2.543   4.138
    1C        C   37   3.213   2.565   4.261
    1C        C   38   3.419   2.513   4.381
    1C        C   39   3.282   2.545   4.384
    1C        C   40   3.490   2.504   4.503
    1C        C   41   3.418   2.505   4.625
    1C        C   42   3.633   2.478   4.747
    1C        C   43   3.490   2.476   4.743
    1C        C   44   3.709   2.481   4.866
    1C        C   45   3.630   2.475   4.982
    1C        C   46   2.834   2.749   2.793
    1C        C   47   2.892   2.709   2.916
    1C        C   48   2.843   2.761   3.038
    1C        C   49   3.015   2.638   3.159
    1C        C   50   2.899   2.718   3.160
    1C        C   51   3.078   2.607   3.282
    1C        C   52   3.020   2.641   3.406
    1C        C   53   3.210   2.553   3.527
    1C        C   54   3.079   2.606   3.529
    1C        C   55   3.277   2.537   3.650
    1C        C   56   3.208   2.555   3.772
    1C        C   57   3.416   2.514   3.893
    1C        C   58   3.277   2.535   3.893
    1C        C   59   3.487   2.509   4.015
    1C        C   60   3.417   2.514   4.138
    1C        C   61   3.631   2.500   4.259
    1C        C   62   3.490   2.508   4.259
    1C        C   63   3.703   2.505   4.380
    1C        C   64   3.631   2.500   4.501
    1C        C   65   3.836   2.536   4.621
    1C        C   66   3.700   2.497   4.625
    1C        C   67   3.908   2.553   4.742
    1C        C   68   3.844   2.522   4.864
    1C        C   69   4.052   2.586   4.978
    1C        C   70   3.923   2.532   4.979
    1C        C   71   2.821   2.732   2.308
    1C        C   72   2.881   2.689   2.428
    1C        C   73   2.832   2.745   2.548
    1C        C   74   3.006   2.626   2.671
    1C        C   75   2.887   2.701   2.671
    1C        C   76   3.074   2.599   2.792
    1C        C   77   3.013   2.636   2.915
    1C        C   78   3.208   2.551   3.037
    1C        C   79   3.077   2.604   3.037
    1C        C   80   3.276   2.534   3.160
    1C        C   81   3.209   2.555   3.282
    1C        C   82   3.416   2.505   3.404
    1C        C   83   3.277   2.532   3.404
    1C        C   84   3.486   2.498   3.527
    1C        C   85   3.416   2.511   3.649
    1C        C   86   3.628   2.503   3.767
    1C        C   87   3.487   2.503   3.771
    1C        C   88   3.697   2.511   3.890
    1C        C   89   3.628   2.510   4.014
    1C        C   90   3.837   2.544   4.134
    1C        C   91   3.700   2.512   4.136
    1C        C   92   3.907   2.562   4.255
    1C        C   93   3.840   2.539   4.378
    1C        C   94   4.025   2.639   4.499
    1C        C   95   3.901   2.572   4.501
    1C        C   96   4.089   2.672   4.620
    1C        C   97   4.032   2.621   4.739
    1C        C   98   4.192   2.762   4.861
    1C        C   99   4.101   2.651   4.860
    1C        C  100   4.202   2.847   4.972
    1C        C  101   2.825   2.732   2.068
    1C        C  102   2.990   2.595   2.189
    1C        C  103   2.872   2.676   2.187
    1C        C  104   3.063   2.575   2.309
    1C        C  105   3.002   2.617   2.429
    1C        C  106   3.203   2.542   2.551
    1C        C  107   3.072   2.594   2.550
    1C        C  108   3.273   2.526   2.673
    1C        C  109   3.203   2.543   2.795
    1C        C  110   3.413   2.500   2.913
    1C        C  111   3.273   2.520   2.916
    1C        C  112   3.483   2.497   3.036
    1C        C  113   3.415   2.508   3.160
    1C        C  114   3.628   2.501   3.279
    1C        C  115   3.486   2.499   3.282
    1C        C  116   3.697   2.510   3.402
    1C        C  117   3.627   2.500   3.524
    1C        C  118   3.836   2.544   3.644
    1C        C  119   3.700   2.506   3.645
    1C        C  120   3.901   2.569   3.767
    1C        C  121   3.835   2.543   3.889
    1C        C  122   4.029   2.630   4.014
    1C        C  123   3.903   2.568   4.011
    1C        C  124   4.090   2.669   4.136
    1C        C  125   4.032   2.627   4.258
    1C        C  126   4.199   2.764   4.377
    1C        C  127   4.089   2.675   4.378
    1C        C  128   4.244   2.820   4.499
    1C        C  129   4.195   2.765   4.620
    1C        C  130   4.321   2.938   4.737
    1C        C  131   4.246   2.817   4.741
    1C        C  132   4.348   3.004   4.859
    1C        C  133   4.286   2.957   4.976
    1C        C  134   3.174   2.476   2.078
    1C        C  135   3.039   2.513   2.082
    1C        C  136   3.260   2.484   2.188
    1C        C  137   3.194   2.520   2.308
    1C        C  138   3.405   2.487   2.427
    1C        C  139   3.265   2.508   2.429
    1C        C  140   3.482   2.493   2.545
    1C        C  141   3.412   2.503   2.668
    1C        C  142   3.623   2.501   2.791
    1C        C  143   3.482   2.496   2.790
    1C        C  144   3.694   2.508   2.913
    1C        C  145   3.624   2.499   3.035
    1C        C  146   3.836   2.534   3.154
    1C        C  147   3.698   2.504   3.156
    1C        C  148   3.901   2.561   3.276
    1C        C  149   3.835   2.541   3.399
    1C        C  150   4.031   2.623   3.524
    1C        C  151   3.902   2.565   3.521
    1C        C  152   4.089   2.662   3.646
    1C        C  153   4.028   2.629   3.770
    1C        C  154   4.196   2.759   3.887
    1C        C  155   4.089   2.667   3.892
    1C        C  156   4.248   2.807   4.010
    1C        C  157   4.199   2.758   4.133
    1C        C  158   4.340   2.918   4.255
    1C        C  159   4.254   2.807   4.254
    1C        C  160   4.379   2.983   4.374
    1C        C  161   4.332   2.930   4.497
    1C        C  162   4.437   3.117   4.615
    1C        C  163   4.373   2.990   4.617
    1C        C  164   4.462   3.183   4.737
    1C        C  165   4.427   3.121   4.859
    1C        C  166   4.508   3.320   4.972
    1C        C  167   4.477   3.184   4.973
    1C        C  168   3.477   2.439   2.073
    1C        C  169   3.400   2.465   2.187
    1C        C  170   3.618   2.464   2.306
    1C        C  171   3.476   2.470   2.306
    1C        C  172   3.692   2.487   2.424
    1C        C  173   3.623   2.486   2.547
    1C        C  174   3.829   2.540   2.666
    1C        C  175   3.692   2.505   2.668
    1C        C  176   3.899   2.558   2.787
    1C        C  177   3.833   2.533   2.910
    1C        C  178   4.028   2.619   3.034
    1C        C  179   3.901   2.558   3.031
    1C        C  180   4.088   2.660   3.155
    1C        C  181   4.025   2.630   3.278
    1C        C  182   4.197   2.752   3.397
    1C        C  183   4.087   2.663   3.400
    1C        C  184   4.249   2.799   3.520
    1C        C  185   4.202   2.747   3.643
    1C        C  186   4.338   2.911   3.762
    1C        C  187   4.251   2.801   3.764
    1C        C  188   4.370   2.974   3.884
    1C        C  189   4.337   2.917   4.009
    1C        C  190   4.436   3.104   4.126
    1C        C  191   4.377   2.976   4.131
    1C        C  192   4.462   3.174   4.246
    1C        C  193   4.439   3.111   4.371
    1C        C  194   4.503   3.315   4.493
    1C        C  195   4.467   3.179   4.492
    1C        C  196   4.521   3.387   4.613
    1C        C  197   4.508   3.318   4.735
    1C        C  198   4.552   3.534   4.853
    1C        C  199   4.523   3.394   4.854
    1C        C  200   4.582   3.619   4.964
    1C        C  201   3.615   2.418   2.073
    1C        C  202   3.828   2.507   2.183
    1C        C  203   3.694   2.457   2.186
    1C        C  204   3.900   2.541   2.301
    1C        C  205   3.828   2.525   2.421
    1C        C  206   4.023   2.612   2.545
    1C        C  207   3.897   2.549   2.542
    1C        C  208   4.085   2.654   2.664
    1C        C  209   4.024   2.624   2.788
    1C        C  210   4.197   2.744   2.906
    1C        C  211   4.087   2.656   2.911
    1C        C  212   4.250   2.795   3.027
    1C        C  213   4.199   2.748   3.150
    1C        C  214   4.333   2.909   3.270
    1C        C  215   4.246   2.798   3.273
    1C        C  216   4.366   2.969   3.393
    1C        C  217   4.333   2.913   3.518
    1C        C  218   4.429   3.102   3.640
    1C        C  219   4.377   2.971   3.639
    1C        C  220   4.447   3.173   3.761
    1C        C  221   4.427   3.103   3.882
    1C        C  222   4.496   3.305   4.004
    1C        C  223   4.463   3.167   4.003
    1C        C  224   4.507   3.378   4.124
    1C        C  225   4.499   3.310   4.247
    1C        C  226   4.513   3.523   4.366
    1C        C  227   4.510   3.382   4.368
    1C        C  228   4.511   3.597   4.487
    1C        C  229   4.521   3.529   4.610
    1C        C  230   4.500   3.741   4.727
    1C        C  231   4.533   3.603   4.729
    1C        C  232   4.497   3.821   4.844
    1C        C  233   4.543   3.754   4.957
    1C        C  234   4.016   2.614   2.063
    1C        C  235   3.896   2.544   2.066
    1C        C  236   4.088   2.641   2.180
    1C        C  237   4.028   2.603   2.302
    1C        C  238   4.203   2.728   2.418
    1C        C  239   4.087   2.646   2.423
    1C        C  240   4.253   2.781   2.539
    1C        C  241   4.196   2.742   2.662
    1C        C  242   4.339   2.900   2.782
    1C        C  243   4.252   2.789   2.783
    1C        C  244   4.382   2.960   2.902
    1C        C  245   4.339   2.904   3.025
    1C        C  246   4.432   3.095   3.151
    1C        C  247   4.376   2.966   3.147
    1C        C  248   4.452   3.164   3.273
    1C        C  249   4.425   3.098   3.395
    1C        C  250   4.487   3.303   3.515
    1C        C  251   4.450   3.167   3.516
    1C        C  252   4.507   3.372   3.636
    1C        C  253   4.491   3.307   3.761
    1C        C  254   4.518   3.517   3.877
    1C        C  255   4.507   3.377   3.882
    1C        C  256   4.521   3.589   3.999
    1C        C  257   4.517   3.519   4.122
    1C        C  258   4.492   3.731   4.242
    1C        C  259   4.512   3.592   4.243
    1C        C  260   4.472   3.803   4.362
    1C        C  261   4.487   3.736   4.486
    1C        C  262   4.423   3.940   4.603
    1C        C  263   4.477   3.810   4.606
    1C        C  264   4.394   4.007   4.724
    1C        C  265   4.432   3.947   4.845
    1C        C  266   4.321   4.131   4.958
    1C        C  267   4.387   4.008   4.963
    1C        C  268   4.267   2.772   2.064
    1C        C  269   4.202   2.725   2.179
    1C        C  270   4.345   2.890   2.297
    1C        C  271   4.257   2.778   2.297
    1C        C  272   4.385   2.950   2.418
    1C        C  273   4.342   2.890   2.539
    1C        C  274   4.445   3.081   2.660
    1C        C  275   4.382   2.954   2.659
    1C        C  276   4.468   3.151   2.781
    1C        C  277   4.439   3.089   2.904
    1C        C  278   4.499   3.292   3.024
    1C        C  279   4.460   3.156   3.027
    1C        C  280   4.511   3.364   3.145
    1C        C  281   4.492   3.299   3.270
    1C        C  282   4.515   3.510   3.388
    1C        C  283   4.505   3.369   3.392
    1C        C  284   4.516   3.583   3.509
    1C        C  285   4.516   3.513   3.632
    1C        C  286   4.489   3.724   3.752
    1C        C  287   4.516   3.585   3.753
    1C        C  288   4.475   3.794   3.874
    1C        C  289   4.494   3.728   3.997
    1C        C  290   4.426   3.930   4.115
    1C        C  291   4.475   3.798   4.119
    1C        C  292   4.397   3.995   4.237
    1C        C  293   4.425   3.936   4.363
    1C        C  294   4.325   4.130   4.479
    1C        C  295   4.393   4.006   4.482
    1C        C  296   4.284   4.189   4.601
    1C        C  297   4.328   4.133   4.723
    1C        C  298   4.201   4.316   4.835
    1C        C  299   4.283   4.199   4.841
    1C        C  300   4.171   4.407   4.941
    1C        C  301   4.350   2.883   2.058
    1C        C  302   4.469   3.068   2.175
    1C        C  303   4.392   2.947   2.176
    1C        C  304   4.477   3.142   2.296
    1C        C  305   4.447   3.077   2.417
    1C        C  306   4.502   3.284   2.536
    1C        C  307   4.471   3.146   2.538
    1C        C  308   4.507   3.358   2.656
    1C        C  309   4.498   3.289   2.779
    1C        C  310   4.524   3.500   2.899
    1C        C  311   4.516   3.359   2.901
    1C        C  312   4.517   3.573   3.019
    1C        C  313   4.517   3.505   3.143
    1C        C  314   4.488   3.717   3.263
    1C        C  315   4.510   3.577   3.264
    1C        C  316   4.472   3.788   3.384
    1C        C  317   4.489   3.722   3.508
    1C        C  318   4.423   3.925   3.626
    1C        C  319   4.469   3.791   3.630
    1C        C  320   4.391   3.988   3.749
    1C        C  321   4.425   3.926   3.871
    1C        C  322   4.316   4.110   3.992
    1C        C  323   4.394   3.992   3.992
    1C        C  324   4.274   4.168   4.114
    1C        C  325   4.322   4.115   4.235
    1C        C  326   4.183   4.280   4.354
    1C        C  327   4.285   4.182   4.354
    1C        C  328   4.133   4.336   4.474
    1C        C  329   4.193   4.297   4.596
    1C        C  330   4.024   4.437   4.714
    1C        C  331   4.141   4.356   4.713
    1C        C  332   3.969   4.492   4.832
    1C        C  333   4.051   4.480   4.945
    1C        C  334   4.551   3.268   2.059
    1C        C  335   4.532   3.129   2.062
    1C        C  336   4.540   3.350   2.172
    1C        C  337   4.515   3.280   2.292
    1C        C  338   4.526   3.494   2.410
    1C        C  339   4.519   3.353   2.413
    1C        C  340   4.521   3.566   2.531
    1C        C  341   4.520   3.499   2.656
    1C        C  342   4.500   3.711   2.773
    1C        C  343   4.516   3.571   2.777
    1C        C  344   4.475   3.781   2.893
    1C        C  345   4.496   3.713   3.016
    1C        C  346   4.424   3.913   3.137
    1C        C  347   4.476   3.781   3.138
    1C        C  348   4.389   3.978   3.257
    1C        C  349   4.424   3.921   3.381
    1C        C  350   4.322   4.106   3.499
    1C        C  351   4.399   3.988   3.502
    1C        C  352   4.278   4.164   3.621
    1C        C  353   4.319   4.110   3.744
    1C        C  354   4.177   4.264   3.867
    1C        C  355   4.277   4.164   3.868
    1C        C  356   4.124   4.317   3.986
    1C        C  357   4.174   4.267   4.109
    1C        C  358   4.011   4.401   4.231
    1C        C  359   4.129   4.322   4.231
    1C        C  360   3.949   4.438   4.352
    1C        C  361   4.015   4.413   4.474
    1C        C  362   3.827   4.520   4.594
    1C        C  363   3.957   4.464   4.593
    1C        C  364   3.761   4.550   4.715
    1C        C  365   3.838   4.545   4.832
    1C        C  366   3.629   4.604   4.949
    1C        C  367   3.766   4.577   4.948
    1C        C  368   4.502   3.564   2.053
    1C        C  369   4.526   3.490   2.170
    1C        C  370   4.503   3.706   2.288
    1C        C  371   4.522   3.566   2.289
    1C        C  372   4.480   3.776   2.409
    1C        C  373   4.497   3.705   2.530
    1C        C  374   4.432   3.909   2.648
    1C        C  375   4.486   3.779   2.650
    1C        C  376   4.395   3.975   2.768
    1C        C  377   4.423   3.912   2.891
    1C        C  378   4.313   4.091   3.010
    1C        C  379   4.395   3.976   3.014
    1C        C  380   4.268   4.148   3.131
    1C        C  381   4.315   4.099   3.255
    1C        C  382   4.176   4.260   3.377
    1C        C  383   4.274   4.158   3.377
    1C        C  384   4.122   4.305   3.499
    1C        C  385   4.175   4.261   3.622
    1C        C  386   4.003   4.383   3.743
    1C        C  387   4.123   4.309   3.744
    1C        C  388   3.942   4.422   3.864
    1C        C  389   4.007   4.397   3.987
    1C        C  390   3.818   4.487   4.108
    1C        C  391   3.949   4.436   4.109
    1C        C  392   3.750   4.509   4.230
    1C        C  393   3.821   4.498   4.352
    1C        C  394   3.617   4.560   4.474
    1C        C  395   3.755   4.531   4.473
    1C        C  396   3.545   4.570   4.595
    1C        C  397   3.620   4.565   4.715
    1C        C  398   3.411   4.553   4.840
    1C        C  399   3.550   4.578   4.836
    1C        C  400   3.343   4.518   4.958
    1C        C  401   4.505   3.703   2.052
    1C        C  402   4.454   3.914   2.164
    1C        C  403   4.500   3.780   2.168
    1C        C  404   4.413   3.977   2.284
    1C        C  405   4.438   3.911   2.406
    1C        C  406   4.325   4.092   2.525
    1C        C  407   4.407   3.977   2.527
    1C        C  408   4.274   4.149   2.644
    1C        C  409   4.316   4.092   2.766
    1C        C  410   4.179   4.254   2.887
    1C        C  411   4.274   4.150   2.888
    1C        C  412   4.125   4.302   3.009
    1C        C  413   4.175   4.255   3.132
    1C        C  414   4.004   4.382   3.252
    1C        C  415   4.121   4.302   3.253
    1C        C  416   3.943   4.415   3.375
    1C        C  417   4.004   4.383   3.498
    1C        C  418   3.813   4.476   3.619
    1C        C  419   3.942   4.418   3.620
    1C        C  420   3.746   4.499   3.741
    1C        C  421   3.812   4.478   3.865
    1C        C  422   3.609   4.538   3.987
    1C        C  423   3.747   4.507   3.987
    1C        C  424   3.540   4.544   4.110
    1C        C  425   3.612   4.538   4.231
    1C        C  426   3.403   4.560   4.357
    1C        C  427   3.544   4.558   4.353
    1C        C  428   3.330   4.555   4.478
    1C        C  429   3.405   4.556   4.598
    1C        C  430   3.196   4.519   4.724
    1C        C  431   3.336   4.544   4.721
    1C        C  432   3.125   4.495   4.844
    1C        C  433   3.206   4.498   4.959
    1C        C  434   4.381   4.120   2.050
    1C        C  435   4.442   3.994   2.049
    1C        C  436   4.302   4.161   2.162
    1C        C  437   4.338   4.097   2.284
    1C        C  438   4.185   4.251   2.401
    1C        C  439   4.284   4.150   2.403
    1C        C  440   4.126   4.298   2.521
    1C        C  441   4.174   4.248   2.644
    1C        C  442   4.007   4.380   2.766
    1C        C  443   4.121   4.298   2.766
    1C        C  444   3.943   4.414   2.888
    1C        C  445   4.004   4.374   3.009
    1C        C  446   3.809   4.464   3.130
    1C        C  447   3.940   4.409   3.130
    1C        C  448   3.746   4.491   3.253
    1C        C  449   3.814   4.472   3.376
    1C        C  450   3.607   4.524   3.496
    1C        C  451   3.745   4.495   3.497
    1C        C  452   3.540   4.539   3.619
    1C        C  453   3.610   4.535   3.742
    1C        C  454   3.399   4.548   3.866
    1C        C  455   3.540   4.547   3.864
    1C        C  456   3.331   4.539   3.989
    1C        C  457   3.399   4.542   4.113
    1C        C  458   3.195   4.505   4.237
    1C        C  459   3.330   4.545   4.236
    1C        C  460   3.125   4.489   4.359
    1C        C  461   3.195   4.514   4.479
    1C        C  462   3.002   4.431   4.604
    1C        C  463   3.130   4.490   4.602
    1C        C  464   2.937   4.400   4.725
    1C        C  465   2.990   4.447   4.848
    1C        C  466   2.802   4.338   4.959
    1C        C  467   2.904   4.434   4.962
    1C        C  468   4.121   4.285   2.044
    1C        C  469   4.187   4.247   2.161
    1C        C  470   4.010   4.375   2.281
    1C        C  471   4.130   4.298   2.280
    1C        C  472   3.945   4.409   2.401
    1C        C  473   4.006   4.373   2.523
    1C        C  474   3.813   4.468   2.643
    1C        C  475   3.942   4.410   2.643
    1C        C  476   3.744   4.491   2.764
    1C        C  477   3.812   4.467   2.885
    1C        C  478   3.605   4.514   3.008
    1C        C  479   3.744   4.487   3.007
    1C        C  480   3.536   4.526   3.131
    1C        C  481   3.606   4.515   3.253
    1C        C  482   3.394   4.537   3.377
    1C        C  483   3.536   4.532   3.374
    1C        C  484   3.327   4.528   3.501
    1C        C  485   3.399   4.539   3.622
    1C        C  486   3.191   4.503   3.746
    1C        C  487   3.327   4.540   3.744
    1C        C  488   3.125   4.484   3.870
    1C        C  489   3.192   4.509   3.991
    1C        C  490   3.006   4.415   4.117
    1C        C  491   3.128   4.485   4.114
    1C        C  492   2.942   4.382   4.238
    1C        C  493   2.998   4.427   4.360
    1C        C  494   2.829   4.302   4.484
    1C        C  495   2.940   4.390   4.484
    1C        C  496   2.774   4.258   4.606
    1C        C  497   2.823   4.314   4.726
    1C        C  498   2.671   4.160   4.843
    1C        C  499   2.759   4.271   4.844
    1C        C  500   2.594   4.117   4.951
    1C        C  501   4.003   4.358   2.040
    1C        C  502   3.817   4.464   2.159
    1C        C  503   3.944   4.403   2.159
    1C        C  504   3.744   4.484   2.278
    1C        C  505   3.814   4.462   2.399
    1C        C  506   3.606   4.513   2.520
    1C        C  507   3.745   4.486   2.520
    1C        C  508   3.534   4.518   2.642
    1C        C  509   3.605   4.514   2.764
    1C        C  510   3.394   4.530   2.886
    1C        C  511   3.535   4.524   2.886
    1C        C  512   3.323   4.527   3.008
    1C        C  513   3.395   4.536   3.129
    1C        C  514   3.189   4.498   3.255
    1C        C  515   3.327   4.529   3.253
    1C        C  516   3.124   4.474   3.378
    1C        C  517   3.189   4.497   3.502
    1C        C  518   2.999   4.410   3.625
    1C        C  519   3.123   4.477   3.625
    1C        C  520   2.938   4.378   3.749
    1C        C  521   3.000   4.418   3.870
    1C        C  522   2.841   4.282   3.998
    1C        C  523   2.947   4.375   3.994
    1C        C  524   2.791   4.231   4.120
    1C        C  525   2.835   4.289   4.241
    1C        C  526   2.698   4.131   4.364
    1C        C  527   2.781   4.245   4.364
    1C        C  528   2.652   4.076   4.486
    1C        C  529   2.688   4.146   4.603
    1C        C  530   2.582   3.960   4.730
    1C        C  531   2.642   4.090   4.724
    1C        C  532   2.542   3.900   4.852
    1C        C  533   2.527   3.994   4.960
    1C        C  534   3.619   4.559   2.041
    1C        C  535   3.751   4.512   2.045
    1C        C  536   3.537   4.538   2.156
    1C        C  537   3.605   4.514   2.278
    1C        C  538   3.392   4.511   2.398
    1C        C  539   3.533   4.519   2.399
    1C        C  540   3.324   4.511   2.522
    1C        C  541   3.393   4.518   2.645
    1C        C  542   3.182   4.490   2.764
    1C        C  543   3.320   4.517   2.766
    1C        C  544   3.120   4.468   2.889
    1C        C  545   3.187   4.490   3.012
    1C        C  546   2.993   4.409   3.134
    1C        C  547   3.119   4.472   3.135
    1C        C  548   2.938   4.370   3.258
    1C        C  549   2.999   4.409   3.379
    1C        C  550   2.833   4.281   3.507
    1C        C  551   2.939   4.374   3.502
    1C        C  552   2.787   4.228   3.630
    1C        C  553   2.837   4.280   3.751
    1C        C  554   2.701   4.122   3.876
    1C        C  555   2.792   4.231   3.876
    1C        C  556   2.660   4.063   3.997
    1C        C  557   2.703   4.121   4.118
    1C        C  558   2.595   3.945   4.244
    1C        C  559   2.663   4.069   4.243
    1C        C  560   2.568   3.879   4.367
    1C        C  561   2.594   3.947   4.488
    1C        C  562   2.533   3.748   4.615
    1C        C  563   2.567   3.885   4.612
    1C        C  564   2.519   3.679   4.737
    1C        C  565   2.521   3.759   4.855
    1C        C  566   2.534   3.547   4.977
    1C        C  567   2.529   3.686   4.975
    1C        C  568   3.324   4.487   2.039
    1C        C  569   3.397   4.514   2.156
    1C        C  570   3.184   4.474   2.277
    1C        C  571   3.321   4.509   2.276
    1C        C  572   3.117   4.453   2.400
    1C        C  573   3.185   4.482   2.520
    1C        C  574   2.989   4.404   2.648
    1C        C  575   3.115   4.468   2.642
    1C        C  576   2.932   4.363   2.771
    1C        C  577   2.995   4.402   2.891
    1C        C  578   2.828   4.272   3.017
    1C        C  579   2.934   4.365   3.013
    1C        C  580   2.781   4.223   3.140
    1C        C  581   2.832   4.277   3.261
    1C        C  582   2.704   4.112   3.386
    1C        C  583   2.788   4.226   3.385
    1C        C  584   2.661   4.056   3.509
    1C        C  585   2.702   4.115   3.630
    1C        C  586   2.598   3.935   3.755
    1C        C  587   2.665   4.059   3.755
    1C        C  588   2.574   3.870   3.879
    1C        C  589   2.598   3.935   4.002
    1C        C  590   2.533   3.737   4.126
    1C        C  591   2.567   3.874   4.125
    1C        C  592   2.516   3.672   4.250
    1C        C  593   2.526   3.744   4.371
    1C        C  594   2.515   3.534   4.498
    1C        C  595   2.516   3.676   4.494
    1C        C  596   2.522   3.463   4.620
    1C        C  597   2.522   3.537   4.740
    1C        C  598   2.535   3.327   4.861
    1C        C  599   2.524   3.467   4.863
    1C        C  600   2.531   3.248   4.977
    1C        C  601   3.195   4.440   2.041
    1C        C  602   2.980   4.395   2.160
    1C        C  603   3.115   4.442   2.157
    1C        C  604   2.919   4.362   2.284
    1C        C  605   2.987   4.397   2.403
    1C        C  606   2.819   4.275   2.531
    1C        C  607   2.927   4.366   2.527
    1C        C  608   2.771   4.224   2.653
    1C        C  609   2.825   4.272   2.775
    1C        C  610   2.690   4.107   2.896
    1C        C  611   2.775   4.221   2.896
    1C        C  612   2.655   4.050   3.021
    1C        C  613   2.696   4.109   3.142
    1C        C  614   2.598   3.925   3.267
    1C        C  615   2.662   4.050   3.266
    1C        C  616   2.570   3.862   3.390
    1C        C  617   2.598   3.930   3.511
    1C        C  618   2.528   3.732   3.637
    1C        C  619   2.570   3.867   3.634
    1C        C  620   2.520   3.665   3.762
    1C        C  621   2.531   3.736   3.884
    1C        C  622   2.509   3.525   4.010
    1C        C  623   2.519   3.665   4.005
    1C        C  624   2.512   3.457   4.134
    1C        C  625   2.511   3.531   4.254
    1C        C  626   2.542   3.323   4.377
    1C        C  627   2.513   3.461   4.377
    1C        C  628   2.556   3.251   4.498
    1C        C  629   2.540   3.323   4.618
    1C        C  630   2.597   3.119   4.744
    1C        C  631   2.551   3.254   4.740
    1C        C  632   2.618   3.048   4.865
    1C        C  633   2.565   3.113   4.982
    1C        C  634   2.780   4.302   2.054
    1C        C  635   2.891   4.387   2.048
    1C        C  636   2.749   4.227   2.169
    1C        C  637   2.808   4.274   2.288
    1C        C  638   2.678   4.109   2.410
    1C        C  639   2.763   4.222   2.412
    1C        C  640   2.646   4.047   2.532
    1C        C  641   2.686   4.111   2.652
    1C        C  642   2.589   3.922   2.777
    1C        C  643   2.651   4.049   2.774
    1C        C  644   2.566   3.856   2.899
    1C        C  645   2.591   3.924   3.021
    1C        C  646   2.535   3.723   3.148
    1C        C  647   2.569   3.860   3.144
    1C        C  648   2.518   3.656   3.271
    1C        C  649   2.529   3.726   3.393
    1C        C  650   2.515   3.518   3.519
    1C        C  651   2.517   3.659   3.517
    1C        C  652   2.519   3.452   3.644
    1C        C  653   2.516   3.524   3.765
    1C        C  654   2.529   3.314   3.890
    1C        C  655   2.509   3.454   3.888
    1C        C  656   2.552   3.248   4.013
    1C        C  657   2.537   3.318   4.135
    1C        C  658   2.597   3.115   4.258
    1C        C  659   2.552   3.249   4.257
    1C        C  660   2.627   3.051   4.381
    1C        C  661   2.598   3.116   4.503
    1C        C  662   2.706   2.932   4.625
    1C        C  663   2.630   3.052   4.624
    1C        C  664   2.748   2.875   4.747
    1C        C  665   2.695   2.927   4.868
    1C        C  666   2.745   2.869   4.985
    1C        C  667   2.681   4.023   2.055
    1C        C  668   2.678   4.106   2.168
    1C        C  669   2.581   3.916   2.290
    1C        C  670   2.642   4.044   2.290
    1C        C  671   2.560   3.849   2.413
    1C        C  672   2.591   3.917   2.533
    1C        C  673   2.524   3.717   2.660
    1C        C  674   2.564   3.852   2.656
    1C        C  675   2.512   3.649   2.783
    1C        C  676   2.529   3.720   2.904
    1C        C  677   2.508   3.510   3.030
    1C        C  678   2.520   3.651   3.027
    1C        C  679   2.511   3.441   3.153
    1C        C  680   2.512   3.514   3.274
    1C        C  681   2.529   3.306   3.400
    1C        C  682   2.517   3.446   3.398
    1C        C  683   2.548   3.240   3.524
    1C        C  684   2.536   3.311   3.646
    1C        C  685   2.602   3.113   3.771
    1C        C  686   2.546   3.242   3.769
    1C        C  687   2.630   3.049   3.894
    1C        C  688   2.600   3.115   4.015
    1C        C  689   2.707   2.933   4.139
    1C        C  690   2.628   3.050   4.137
    1C        C  691   2.755   2.879   4.260
    1C        C  692   2.707   2.934   4.381
    1C        C  693   2.753   2.880   4.503
    1C        C  694   2.630   3.892   2.057
    1C        C  695   2.522   3.706   2.175
    1C        C  696   2.574   3.837   2.173
    1C        C  697   2.500   3.640   2.298
    1C        C  698   2.523   3.713   2.417
    1C        C  699   2.498   3.505   2.543
    1C        C  700   2.505   3.646   2.540
    1C        C  701   2.507   3.435   2.665
    1C        C  702   2.509   3.508   2.787
    1C        C  703   2.526   3.297   2.912
    1C        C  704   2.508   3.437   2.909
    1C        C  705   2.544   3.230   3.035
    1C        C  706   2.533   3.302   3.156
    1C        C  707   2.597   3.103   3.278
    1C        C  708   2.544   3.234   3.280
    1C        C  709   2.631   3.046   3.403
    1C        C  710   2.600   3.109   3.525
    1C        C  711   2.709   2.930   3.649
    1C        C  712   2.631   3.048   3.649
    1C        C  713   2.751   2.875   3.772
    1C        C  714   2.707   2.930   3.895
    1C        C  715   2.751   2.875   4.017
    1C        C  716   2.453   3.498   2.062
    1C        C  717   2.485   3.634   2.060
    1C        C  718   2.468   3.423   2.182
    1C        C  719   2.480   3.499   2.302
    1C        C  720   2.513   3.290   2.426
    1C        C  721   2.488   3.429   2.424
    1C        C  722   2.529   3.221   2.548
    1C        C  723   2.521   3.295   2.668
    1C        C  724   2.586   3.092   2.791
    1C        C  725   2.541   3.226   2.790
    1C        C  726   2.618   3.029   2.913
    1C        C  727   2.588   3.096   3.034
    1C        C  728   2.706   2.921   3.160
    1C        C  729   2.624   3.036   3.157
    1C        C  730   2.750   2.868   3.283
    1C        C  731   2.711   2.929   3.404
    1C        C  732   2.750   2.872   3.527
    1C        C  733   2.495   3.200   2.073
    1C        C  734   2.486   3.281   2.187
    1C        C  735   2.581   3.085   2.307
    1C        C  736   2.523   3.215   2.307
    1C        C  737   2.611   3.019   2.428
    1C        C  738   2.584   3.090   2.547
    1C        C  739   2.695   2.910   2.671
    1C        C  740   2.615   3.027   2.669
    1C        C  741   2.742   2.856   2.793
    1C        C  742   2.695   2.911   2.914
    1C        C  743   2.746   2.863   3.037
    1C        C  744   2.537   3.067   2.077
    1C        C  745   2.684   2.896   2.185
    1C        C  746   2.603   3.011   2.188
    1C        C  747   2.731   2.842   2.306
    1C        C  748   2.694   2.905   2.427
    1C        C  749   2.736   2.849   2.550
    1C        C  750   2.735   2.838   2.068
    1C        C  751   3.648   2.295   1.997
    1C        O  752   3.627   2.179   2.041
    1C        O  753   3.711   2.290   1.872
    1C        C  754   4.622   3.062   1.964
    1C        O  755   4.617   3.077   1.839
    1C        O  756   4.753   3.021   1.992
    1C        C  757   4.446   4.217   1.959
    1C        O  758   4.531   4.301   2.000
    1C        O  759   4.418   4.214   1.822
    1C        C  760   3.587   4.643   1.923
    1C        O  761   3.638   4.758   1.916
    1C        O  762   3.577   4.575   1.800
    1C        C  763   2.890   4.488   1.940
    1C        O  764   2.950   4.479   1.830
    1C        O  765   2.777   4.570   1.927
    1C        C  766   2.349   3.461   1.964
    1C        O  767   2.375   3.401   1.856
    1C        O  768   2.223   3.522   1.960
    1C        C  769   4.670   3.580   5.076
    1C        O  770   4.629   3.575   5.195
    1C        O  771   4.808   3.604   5.065
    1C        C  772   4.284   4.483   5.000
    1C        O  773   4.342   4.422   5.094
    1C        O  774   4.367   4.571   4.930
    1C        C  775   4.155   2.513   5.055
    1C        O  776   4.196   2.397   5.029
    1C        O  777   4.149   2.515   5.195
    1C        C  778   2.874   4.548   5.051
    1C        O  779   2.763   4.607   5.044
    1C        O  780   2.946   4.573   5.168
    1C        C  781   2.487   3.039   5.083
    1C        O  782   2.401   2.953   5.051
    1C        O  783   2.512   3.050   5.220
    1C        C  784   2.398   4.008   5.030
    1C        O  785   2.290   4.064   4.997
    1C        O  786   2.395   3.959   5.161
    1C        C  787   2.945   2.411   2.030
    1C        O  788   2.899   2.407   1.913
    1C        O  789   2.861   2.347   2.121
    1C        C  790   3.198   2.402   5.092
    1C        O  791   3.208   2.278   5.069
    1C        O  792   3.216   2.449   5.222
    1C        H  793   4.323   2.997   5.068
    1C        H  794   4.199   2.798   5.067
    1C        H  795   4.516   3.123   5.052
    1C        H  796   4.525   3.371   5.065
    1C        H  797   4.578   3.816   5.037
    1C        H  798   4.393   3.956   5.056
    1C        H  799   4.257   4.146   5.042
    1C        H  800   4.002   4.496   5.038
    1C        H  801   3.818   4.590   5.041
    1C        H  802   3.588   4.633   5.043
    1C        H  803   3.385   4.562   5.046
    1C        H  804   3.163   4.470   5.053
    1C        H  805   3.887   2.506   5.076
    1C        H  806   3.679   2.458   5.075
    1C        H  807   2.987   2.526   5.049
    1C        H  808   3.440   2.475   5.073
    1C        H  809   2.863   2.717   5.076
    1C        H  810   2.705   2.899   5.080
    1C        H  811   2.481   3.293   5.060
    1C        H  812   2.595   3.506   5.055
    1C        H  813   2.488   3.729   5.064
    1C        H  814   2.613   4.160   5.048
    1C        H  815   2.723   4.353   5.029
    1C        H  816   2.681   2.855   1.977
    1C        H  817   2.844   2.681   1.976
    1C        H  818   3.216   2.452   1.983
    1C        H  819   3.425   2.413   1.983
    1C        H  820   3.838   2.552   1.976
    1C        H  821   4.066   2.615   1.968
    1C        H  822   4.296   2.694   1.996
    1C        H  823   4.368   2.933   1.965
    1C        H  824   4.563   3.312   1.962
    1C        H  825   4.445   3.510   1.980
    1C        H  826   4.547   3.749   1.965
    1C        H  827   3.813   4.527   1.959
    1C        H  828   3.939   4.332   1.958
    1C        H  829   4.135   4.216   1.963
    1C        H  830   4.455   3.950   1.952
    1C        H  831   2.629   3.846   1.961
    1C        H  832   2.680   4.063   1.956
    1C        H  833   2.731   4.277   1.962
    1C        H  834   3.381   4.494   1.948
    1C        H  835   3.160   4.379   1.960
    1C        H  836   2.512   3.006   1.994
    1C        H  837   2.468   3.236   1.976
    1C        H  838   2.454   3.695   1.977
    2V3OU   H29  839   2.804   3.550   1.580
    2V3OU   C27  840   2.782   3.503   1.679
    2V3OU   H27  841   2.715   3.576   1.731
    2V3OU   H28  842   2.731   3.405   1.663
    2V3OU   O11  843   2.904   3.477   1.749
    2V3OU   C15  844   2.920   3.395   1.859
    2V3OU   C13  845   3.049   3.370   1.910
    2V3OU   C14  846   3.074   3.266   2.001
    2V3OU   C16  847   2.969   3.189   2.049
    2V3OU    H6  848   2.991   3.105   2.117
    2V3OU   C12  849   3.211   3.230   2.041
    2V3OU    O2  850   3.240   3.127   2.107
    2V3OU   C10  851   3.326   3.311   1.998
    2V3OU    C8  852   3.457   3.270   2.019
    2V3OU   O10  853   3.493   3.165   2.098
    2V3OU   H26  854   3.410   3.118   2.115
    2V3OU    C6  855   3.566   3.346   1.969
    2V3OU    C5  856   3.536   3.464   1.902
    2V3OU    C4  857   3.703   3.293   1.993
    2V3OU    H4  858   3.720   3.221   2.078
    2V3OU    H5  859   3.717   3.232   1.898
    2V3OU    C2  860   3.817   3.396   1.996
    2V3OU    O6  861   3.798   3.474   2.114
    2V3OU   H21  862   3.767   3.559   2.078
    2V3OU    C3  863   3.781   3.494   1.884
    2V3OU    H2  864   3.865   3.568   1.882
    2V3OU    H3  865   3.787   3.437   1.787
    2V3OU   C25  866   3.953   3.328   1.983
    2V3OU    O7  867   4.004   3.293   1.877
    2V3OU   C26  868   4.032   3.293   2.108
    2V3OU   H22  869   4.070   3.388   2.152
    2V3OU   H23  870   4.116   3.223   2.083
    2V3OU    O8  871   3.961   3.209   2.197
    2V3OU   H24  872   3.926   3.259   2.272
    2V3OU    C1  873   3.647   3.564   1.890
    2V3OU    H1  874   3.629   3.619   1.793
    2V3OU    O3  875   3.657   3.656   1.999
    2V3OU   C19  876   3.618   3.793   1.992
    2V3OU    H9  877   3.516   3.797   1.942
    2V3OU    O4  878   3.714   3.849   1.905
    2V3OU   C20  879   3.846   3.873   1.955
    2V3OU   H10  880   3.896   3.775   1.981
    2V3OU   C24  881   3.610   3.857   2.131
    2V3OU   H16  882   3.543   3.791   2.191
    2V3OU   H17  883   3.561   3.957   2.122
    2V3OU   C23  884   3.751   3.877   2.186
    2V3OU   H15  885   3.793   3.773   2.201
    2V3OU    N1  886   3.740   3.956   2.308
    2V3OU   H19  887   3.810   3.915   2.366
    2V3OU   H20  888   3.649   3.936   2.343
    2V3OU   C21  889   3.851   3.946   2.089
    2V3OU   H11  890   3.951   3.932   2.139
    2V3OU    O5  891   3.822   4.085   2.084
    2V3OU   H18  892   3.783   4.103   2.171
    2V3OU   C22  893   3.917   3.951   1.845
    2V3OU   H12  894   3.864   4.049   1.828
    2V3OU   H13  895   3.912   3.893   1.749
    2V3OU   H14  896   4.022   3.967   1.878
    2V3OU   C11  897   3.157   3.470   1.906
    2V3OU    O1  898   3.139   3.585   1.860
    2V3OU    C9  899   3.298   3.425   1.917
    2V3OU    C7  900   3.402   3.501   1.866
    2V3OU    O9  901   3.383   3.614   1.790
    2V3OU   H25  902   3.288   3.632   1.798
    2V3OU   C17  903   2.815   3.316   1.910
    2V3OU    H7  904   2.713   3.351   1.894
    2V3OU   C18  905   2.840   3.215   2.002
    2V3OU    H8  906   2.765   3.147   2.043
    3SOL     OW  907   2.243   4.531   1.270
    3SOL    HW1  908   2.289   4.449   1.304
    3SOL    HW2  909   2.164   4.506   1.215
    4SOL     OW  910   6.466   6.814   1.570
    4SOL    HW1  911   6.367   6.815   1.579
    4SOL    HW2  912   6.502   6.729   1.609
    5SOL     OW  913   4.123   1.347   1.774
    5SOL    HW1  914   4.058   1.421   1.754
    5SOL    HW2  915   4.157   1.308   1.689
    6SOL     OW  916   3.468   2.082   2.247
    6SOL    HW1  917   3.526   2.131   2.181
    6SOL    HW2  918   3.383   2.133   2.261
    7SOL     OW  919   6.011   2.249   1.937
    7SOL    HW1  920   6.073   2.263   2.015
    7SOL    HW2  921   5.973   2.157   1.940
    8SOL     OW  922   2.518   6.798   4.653
    8SOL    HW1  923   2.427   6.805   4.692
    8SOL    HW2  924   2.570   6.727   4.702
    9SOL     OW  925   1.732   5.835   5.990
    9SOL    HW1  926   1.670   5.885   6.051
    9SOL    HW2  927   1.722   5.869   5.897
   10SOL     OW  928   0.641   4.675   6.152
   10SOL    HW1  929   0.609   4.768   6.171
   10SOL    HW2  930   0.617   4.615   6.229
   11SOL     OW  931   3.299   0.148   0.306
   11SOL    HW1  932   3.351   0.069   0.338
   11SOL    HW2  933   3.265   0.199   0.385
   12SOL     OW  934   4.804   6.167   3.288
   12SOL    HW1  935   4.893   6.140   3.251
   12SOL    HW2  936   4.757   6.088   3.326
   13SOL     OW  937   2.907   6.449   4.321
   13SOL    HW1  938   2.875   6.427   4.229
   13SOL    HW2  939   2.890   6.372   4.383
   14SOL     OW  940   3.747   5.824   6.336
   14SOL    HW1  941   3.654   5.790   6.325
   14SOL    HW2  942   3.750   5.889   6.412
   15SOL     OW  943   1.216   6.432   0.225
   15SOL    HW1  944   1.160   6.514   0.240
   15SOL    HW2  945   1.265   6.441   0.139
   16SOL     OW  946   6.463   2.104   5.797
   16SOL    HW1  947   6.537   2.043   5.827
   16SOL    HW2  948   6.455   2.100   5.698
   17SOL     OW  949   5.094   6.147   4.436
   17SOL    HW1  950   5.163   6.077   4.419
   17SOL    HW2  951   5.125   6.234   4.399
   18SOL     OW  952   2.618   2.451   6.138
   18SOL    HW1  953   2.554   2.411   6.072
   18SOL    HW2  954   2.711   2.420   6.117
   19SOL     OW  955   0.065   7.021   3.587
   19SOL    HW1  956   0.071   0.063   3.663
   19SOL    HW2  957   0.009   6.943   3.615
   20SOL     OW  958   3.734   0.947   4.266
   20SOL    HW1  959   3.736   1.047   4.257
   20SOL    HW2  960   3.702   0.923   4.358
   21SOL     OW  961   3.143   1.614   2.056
   21SOL    HW1  962   3.128   1.565   2.142
   21SOL    HW2  963   3.093   1.568   1.982
   22SOL     OW  964   1.740   6.940   6.607
   22SOL    HW1  965   1.803   7.015   6.627
   22SOL    HW2  966   1.776   6.856   6.648
   23SOL     OW  967   4.489   6.737   3.638
   23SOL    HW1  968   4.423   6.757   3.566
   23SOL    HW2  969   4.453   6.664   3.697
   24SOL     OW  970   5.238   0.984   4.482
   24SOL    HW1  971   5.315   0.920   4.484
   24SOL    HW2  972   5.254   1.053   4.411
   25SOL     OW  973   2.962   6.026   0.205
   25SOL    HW1  974   3.054   6.012   0.241
   25SOL    HW2  975   2.958   6.113   0.156
   26SOL     OW  976   6.555   1.012   1.773
   26SOL    HW1  977   6.480   1.042   1.832
   26SOL    HW2  978   6.530   1.027   1.677
   27SOL     OW  979   6.925   0.660   2.498
   27SOL    HW1  980   6.980   0.649   2.416
   27SOL    HW2  981   6.935   0.580   2.557
   28SOL     OW  982   4.376   0.356   6.291
   28SOL    HW1  983   4.339   0.418   6.360
   28SOL    HW2  984   4.349   0.262   6.312
   29SOL     OW  985   5.093   2.501   2.080
   29SOL    HW1  986   5.181   2.527   2.040
   29SOL    HW2  987   5.031   2.470   2.009
   30SOL     OW  988   2.863   6.839   5.778
   30SOL    HW1  989   2.873   6.852   5.877
   30SOL    HW2  990   2.829   6.746   5.760
   31SOL     OW  991   0.704   0.792   5.926
   31SOL    HW1  992   0.656   0.821   5.843
   31SOL    HW2  993   0.786   0.741   5.901
   32SOL     OW  994   0.848   2.308   2.854
   32SOL    HW1  995   0.851   2.389   2.912
   32SOL    HW2  996   0.941   2.280   2.830
   33SOL     OW  997   1.855   2.607   6.033
   33SOL    HW1  998   1.853   2.513   6.066
   33SOL    HW2  999   1.768   2.628   5.988
   34SOL     OW 1000   1.872   0.198   4.904
   34SOL    HW1 1001   1.918   0.283   4.880
   34SOL    HW2 1002   1.879   0.134   4.826
   35SOL     OW 1003   4.279   2.228   6.277
   35SOL    HW1 1004   4.234   2.151   6.322
   35SOL    HW2 1005   4.286   2.305   6.340
   36SOL     OW 1006   1.006   0.727   6.583
   36SOL    HW1 1007   0.992   0.801   6.648
   36SOL    HW2 1008   1.081   0.669   6.614
   37SOL     OW 1009   2.165   6.689   1.454
   37SOL    HW1 1010   2.217   6.665   1.372
   37SOL    HW2 1011   2.072   6.714   1.427
   38SOL     OW 1012   6.896   6.258   2.872
   38SOL    HW1 1013   6.905   6.335   2.809
   38SOL    HW2 1014   6.880   6.174   2.820
   39SOL     OW 1015   6.415   4.087   5.938
   39SOL    HW1 1016   6.394   4.076   6.035
   39SOL    HW2 1017   6.514   4.100   5.926
   40SOL     OW 1018   6.116   2.040   2.470
   40SOL    HW1 1019   6.121   2.044   2.569
   40SOL    HW2 1020   6.138   2.130   2.431
   41SOL     OW 1021   2.192   6.219   4.408
   41SOL    HW1 1022   2.156   6.311   4.397
   41SOL    HW2 1023   2.117   6.158   4.437
   42SOL     OW 1024   3.373   6.894   6.006
   42SOL    HW1 1025   3.333   6.831   6.072
   42SOL    HW2 1026   3.472   6.881   6.003
   43SOL     OW 1027   5.859   5.786   5.793
   43SOL    HW1 1028   5.905   5.742   5.716
   43SOL    HW2 1029   5.873   5.732   5.876
   44SOL     OW 1030   6.897   2.848   6.297
   44SOL    HW1 1031   6.870   2.758   6.331
   44SOL    HW2 1032   6.988   2.871   6.332
   45SOL     OW 1033   3.388   0.554   2.825
   45SOL    HW1 1034   3.425   0.471   2.866
   45SOL    HW2 1035   3.289   0.548   2.821
   46SOL     OW 1036   0.843   3.628   4.769
   46SOL    HW1 1037   0.849   3.555   4.700
   46SOL    HW2 1038   0.869   3.715   4.727
   47SOL     OW 1039   6.555   3.454   3.713
   47SOL    HW1 1040   6.492   3.457   3.636
   47SOL    HW2 1041   6.507   3.482   3.796
   48SOL     OW 1042   0.421   2.361   5.014
   48SOL    HW1 1043   0.331   2.404   5.001
   48SOL    HW2 1044   0.478   2.378   4.934
   49SOL     OW 1045   4.851   4.308   1.348
   49SOL    HW1 1046   4.821   4.371   1.276
   49SOL    HW2 1047   4.774   4.289   1.409
   50SOL     OW 1048   6.873   3.218   4.715
   50SOL    HW1 1049   6.875   3.307   4.670
   50SOL    HW2 1050   6.960   3.203   4.762
   51SOL     OW 1051   3.199   4.910   2.671
   51SOL    HW1 1052   3.100   4.904   2.659
   51SOL    HW2 1053   3.226   5.005   2.684
   52SOL     OW 1054   3.103   1.851   3.187
   52SOL    HW1 1055   3.033   1.806   3.131
   52SOL    HW2 1056   3.095   1.820   3.282
   53SOL     OW 1057   4.455   0.274   3.644
   53SOL    HW1 1058   4.476   0.291   3.741
   53SOL    HW2 1059   4.469   0.177   3.623
   54SOL     OW 1060   3.020   4.887   6.421
   54SOL    HW1 1061   3.015   4.962   6.487
   54SOL    HW2 1062   3.062   4.807   6.465
   55SOL     OW 1063   3.890   1.372   5.900
   55SOL    HW1 1064   3.893   1.273   5.884
   55SOL    HW2 1065   3.817   1.393   5.964
   56SOL     OW 1066   1.830   0.344   2.157
   56SOL    HW1 1067   1.846   0.438   2.189
   56SOL    HW2 1068   1.733   0.322   2.166
   57SOL     OW 1069   5.183   0.406   0.656
   57SOL    HW1 1070   5.116   0.386   0.585
   57SOL    HW2 1071   5.155   0.486   0.708
   58SOL     OW 1072   0.208   5.951   6.874
   58SOL    HW1 1073   0.157   5.994   6.948
   58SOL    HW2 1074   0.294   6.000   6.860
   59SOL     OW 1075   1.421   0.642   6.554
   59SOL    HW1 1076   1.521   0.643   6.559
   59SOL    HW2 1077   1.384   0.605   6.640
   60SOL     OW 1078   4.777   0.402   5.661
   60SOL    HW1 1079   4.734   0.483   5.701
   60SOL    HW2 1080   4.786   0.331   5.731
   61SOL     OW 1081   4.945   0.127   4.234
   61SOL    HW1 1082   4.963   0.073   4.151
   61SOL    HW2 1083   4.859   0.177   4.222
   62SOL     OW 1084   0.723   0.624   4.092
   62SOL    HW1 1085   0.712   0.546   4.153
   62SOL    HW2 1086   0.651   0.622   4.022
   63SOL     OW 1087   6.494   2.233   3.304
   63SOL    HW1 1088   6.408   2.182   3.307
   63SOL    HW2 1089   6.533   2.228   3.211
   64SOL     OW 1090   6.799   3.809   5.895
   64SOL    HW1 1091   6.787   3.714   5.924
   64SOL    HW2 1092   6.781   3.816   5.797
   65SOL     OW 1093   6.392   3.989   5.181
   65SOL    HW1 1094   6.418   4.083   5.204
   65SOL    HW2 1095   6.471   3.929   5.193
   66SOL     OW 1096   3.452   0.568   6.619
   66SOL    HW1 1097   3.466   0.478   6.661
   66SOL    HW2 1098   3.532   0.626   6.637
   67SOL     OW 1099   5.729   6.206   5.344
   67SOL    HW1 1100   5.732   6.116   5.386
   67SOL    HW2 1101   5.694   6.199   5.251
   68SOL     OW 1102   6.017   1.529   6.671
   68SOL    HW1 1103   6.038   1.448   6.726
   68SOL    HW2 1104   6.081   1.534   6.594
   69SOL     OW 1105   1.519   4.272   6.741
   69SOL    HW1 1106   1.522   4.367   6.709
   69SOL    HW2 1107   1.456   4.220   6.685
   70SOL     OW 1108   6.641   5.690   2.570
   70SOL    HW1 1109   6.642   5.683   2.670
   70SOL    HW2 1110   6.588   5.770   2.543
   71SOL     OW 1111   3.009   2.245   3.912
   71SOL    HW1 1112   2.934   2.310   3.923
   71SOL    HW2 1113   3.056   2.233   3.999
   72SOL     OW 1114   2.719   5.939   4.037
   72SOL    HW1 1115   2.785   5.866   4.021
   72SOL    HW2 1116   2.767   6.025   4.050
   73SOL     OW 1117   3.318   2.522   6.768
   73SOL    HW1 1118   3.415   2.543   6.778
   73SOL    HW2 1119   3.300   2.431   6.806
   74SOL     OW 1120   5.477   6.699   0.360
   74SOL    HW1 1121   5.486   6.706   0.261
   74SOL    HW2 1122   5.393   6.745   0.389
   75SOL     OW 1123   3.339   5.296   5.121
   75SOL    HW1 1124   3.381   5.385   5.142
   75SOL    HW2 1125   3.341   5.281   5.023
   76SOL     OW 1126   2.042   2.760   1.306
   76SOL    HW1 1127   2.127   2.740   1.255
   76SOL    HW2 1128   1.991   2.675   1.319
   77SOL     OW 1129   5.296   5.744   4.678
   77SOL    HW1 1130   5.282   5.650   4.709
   77SOL    HW2 1131   5.283   5.749   4.579
   78SOL     OW 1132   6.558   6.925   6.219
   78SOL    HW1 1133   6.473   6.885   6.251
   78SOL    HW2 1134   6.636   6.880   6.263
   79SOL     OW 1135   2.819   0.099   0.539
   79SOL    HW1 1136   2.863   0.042   0.610
   79SOL    HW2 1137   2.763   0.041   0.481
   80SOL     OW 1138   6.481   0.877   5.126
   80SOL    HW1 1139   6.567   0.921   5.103
   80SOL    HW2 1140   6.496   0.810   5.199
   81SOL     OW 1141   2.558   0.594   2.879
   81SOL    HW1 1142   2.552   0.494   2.889
   81SOL    HW2 1143   2.548   0.619   2.783
   82SOL     OW 1144   6.754   5.460   0.065
   82SOL    HW1 1145   6.728   5.435   6.995
   82SOL    HW2 1146   6.703   5.404   0.130
   83SOL     OW 1147   6.955   6.871   0.472
   83SOL    HW1 1148   6.965   6.955   0.418
   83SOL    HW2 1149   6.866   6.872   0.517
   84SOL     OW 1150   5.092   3.902   2.555
   84SOL    HW1 1151   5.011   3.853   2.522
   84SOL    HW2 1152   5.062   3.984   2.604
   85SOL     OW 1153   0.644   1.044   5.053
   85SOL    HW1 1154   0.545   1.031   5.040
   85SOL    HW2 1155   0.688   1.051   4.964
   86SOL     OW 1156   0.703   0.393   5.836
   86SOL    HW1 1157   0.610   0.358   5.820
   86SOL    HW2 1158   0.770   0.330   5.796
   87SOL     OW 1159   4.432   2.796   0.116
   87SOL    HW1 1160   4.347   2.793   0.169
   87SOL    HW2 1161   4.413   2.829   0.024
   88SOL     OW 1162   4.972   1.516   0.173
   88SOL    HW1 1163   4.989   1.419   0.159
   88SOL    HW2 1164   4.875   1.531   0.192
   89SOL     OW 1165   1.913   2.932   6.946
   89SOL    HW1 1166   1.958   2.938   0.012
   89SOL    HW2 1167   1.968   2.979   6.877
   90SOL     OW 1168   4.937   7.001   3.992
   90SOL    HW1 1169   4.986   6.995   3.905
   90SOL    HW2 1170   4.845   0.013   3.976
   91SOL     OW 1171   4.719   4.722   3.866
   91SOL    HW1 1172   4.816   4.744   3.852
   91SOL    HW2 1173   4.673   4.721   3.777
   92SOL     OW 1174   2.912   5.707   0.662
   92SOL    HW1 1175   2.855   5.656   0.726
   92SOL    HW2 1176   2.872   5.703   0.571
   93SOL     OW 1177   2.783   4.556   6.111
   93SOL    HW1 1178   2.756   4.467   6.074
   93SOL    HW2 1179   2.849   4.599   6.050
   94SOL     OW 1180   3.038   5.440   6.739
   94SOL    HW1 1181   3.120   5.494   6.759
   94SOL    HW2 1182   2.972   5.497   6.690
   95SOL     OW 1183   0.437   1.767   3.946
   95SOL    HW1 1184   0.374   1.715   3.888
   95SOL    HW2 1185   0.524   1.717   3.954
   96SOL     OW 1186   2.674   0.011   5.784
   96SOL    HW1 1187   2.587   6.987   5.795
   96SOL    HW2 1188   2.744   6.970   5.753
   97SOL     OW 1189   6.914   3.927   4.988
   97SOL    HW1 1190   6.973   3.915   4.907
   97SOL    HW2 1191   6.937   3.858   5.056
   98SOL     OW 1192   6.089   3.440   6.652
   98SOL    HW1 1193   6.158   3.511   6.664
   98SOL    HW2 1194   6.071   3.396   6.739
   99SOL     OW 1195   4.274   3.009   1.148
   99SOL    HW1 1196   4.184   3.010   1.192
   99SOL    HW2 1197   4.344   3.036   1.213
  100SOL     OW 1198   0.503   6.861   6.443
  100SOL    HW1 1199   0.405   6.853   6.423
  100SOL    HW2 1200   0.536   6.777   6.486
  101SOL     OW 1201   0.658   5.762   2.696
  101SOL    HW1 1202   0.690   5.845   2.650
  101SOL    HW2 1203   0.736   5.716   2.738
  102SOL     OW 1204   4.253   0.906   3.025
  102SOL    HW1 1205   4.299   0.983   2.981
  102SOL    HW2 1206   4.266   0.824   2.970
  103SOL     OW 1207   4.449   1.536   1.574
  103SOL    HW1 1208   4.456   1.486   1.660
  103SOL    HW2 1209   4.381   1.493   1.516
  104SOL     OW 1210   6.625   5.708   2.847
  104SOL    HW1 1211   6.529   5.695   2.872
  104SOL    HW2 1212   6.683   5.669   2.918
  105SOL     OW 1213   6.490   1.444   6.894
  105SOL    HW1 1214   6.536   1.472   6.978
  105SOL    HW2 1215   6.391   1.439   6.911
  106SOL     OW 1216   3.006   6.532   6.351
  106SOL    HW1 1217   2.994   6.612   6.410
  106SOL    HW2 1218   2.962   6.548   6.263
  107SOL     OW 1219   1.659   2.419   1.734
  107SOL    HW1 1220   1.735   2.377   1.685
  107SOL    HW2 1221   1.585   2.352   1.745
  108SOL     OW 1222   4.668   4.426   6.903
  108SOL    HW1 1223   4.574   4.459   6.896
  108SOL    HW2 1224   4.729   4.504   6.919
  109SOL     OW 1225   0.639   0.329   1.480
  109SOL    HW1 1226   0.666   0.281   1.563
  109SOL    HW2 1227   0.689   0.415   1.473
  110SOL     OW 1228   4.205   5.577   5.366
  110SOL    HW1 1229   4.131   5.585   5.300
  110SOL    HW2 1230   4.168   5.580   5.459
  111SOL     OW 1231   4.164   0.400   3.786
  111SOL    HW1 1232   4.237   0.337   3.760
  111SOL    HW2 1233   4.078   0.369   3.744
  112SOL     OW 1234   5.604   5.585   5.819
  112SOL    HW1 1235   5.534   5.602   5.750
  112SOL    HW2 1236   5.612   5.665   5.879
  113SOL     OW 1237   6.282   4.721   3.401
  113SOL    HW1 1238   6.209   4.659   3.372
  113SOL    HW2 1239   6.299   4.789   3.329
  114SOL     OW 1240   1.099   0.548   0.865
  114SOL    HW1 1241   1.083   0.627   0.806
  114SOL    HW2 1242   1.084   0.574   0.961
  115SOL     OW 1243   4.583   1.237   4.046
  115SOL    HW1 1244   4.586   1.310   3.976
  115SOL    HW2 1245   4.604   1.276   4.135
  116SOL     OW 1246   5.911   4.975   2.144
  116SOL    HW1 1247   5.984   5.041   2.124
  116SOL    HW2 1248   5.827   5.004   2.100
  117SOL     OW 1249   0.673   1.324   6.581
  117SOL    HW1 1250   0.662   1.225   6.577
  117SOL    HW2 1251   0.750   1.347   6.641
  118SOL     OW 1252   6.962   1.138   2.000
  118SOL    HW1 1253   6.943   1.104   1.907
  118SOL    HW2 1254   6.930   1.071   2.067
  119SOL     OW 1255   0.028   2.569   6.332
  119SOL    HW1 1256   0.007   2.472   6.321
  119SOL    HW2 1257   7.023   2.599   6.423
  120SOL     OW 1258   6.682   6.745   1.285
  120SOL    HW1 1259   6.654   6.814   1.352
  120SOL    HW2 1260   6.781   6.729   1.293
  121SOL     OW 1261   2.475   3.904   6.849
  121SOL    HW1 1262   2.425   3.850   6.781
  121SOL    HW2 1263   2.534   3.845   6.902
  122SOL     OW 1264   1.572   3.813   5.990
  122SOL    HW1 1265   1.660   3.768   6.004
  122SOL    HW2 1266   1.501   3.745   5.979
  123SOL     OW 1267   0.162   2.268   1.141
  123SOL    HW1 1268   0.200   2.307   1.057
  123SOL    HW2 1269   0.235   2.253   1.207
  124SOL     OW 1270   5.353   3.202   0.233
  124SOL    HW1 1271   5.386   3.260   0.307
  124SOL    HW2 1272   5.429   3.150   0.195
  125SOL     OW 1273   2.362   1.913   2.918
  125SOL    HW1 1274   2.437   1.961   2.872
  125SOL    HW2 1275   2.377   1.814   2.911
  126SOL     OW 1276   3.214   4.898   0.906
  126SOL    HW1 1277   3.231   4.843   0.988
  126SOL    HW2 1278   3.298   4.944   0.879
  127SOL     OW 1279   6.920   4.694   6.157
  127SOL    HW1 1280   6.856   4.627   6.194
  127SOL    HW2 1281   7.011   4.653   6.152
  128SOL     OW 1282   4.406   2.796   1.610
  128SOL    HW1 1283   4.480   2.745   1.654
  128SOL    HW2 1284   4.393   2.883   1.656
  129SOL     OW 1285   4.300   3.347   5.798
  129SOL    HW1 1286   4.368   3.348   5.725
  129SOL    HW2 1287   4.346   3.335   5.886
  130SOL     OW 1288   0.660   0.734   4.436
  130SOL    HW1 1289   0.590   0.772   4.375
  130SOL    HW2 1290   0.750   0.767   4.408
  131SOL     OW 1291   4.722   1.367   2.968
  131SOL    HW1 1292   4.709   1.287   3.028
  131SOL    HW2 1293   4.753   1.445   3.023
  132SOL     OW 1294   1.394   3.116   0.701
  132SOL    HW1 1295   1.400   3.018   0.678
  132SOL    HW2 1296   1.454   3.168   0.640
  133SOL     OW 1297   5.915   6.752   3.431
  133SOL    HW1 1298   5.929   6.782   3.336
  133SOL    HW2 1299   5.953   6.660   3.443
  134SOL     OW 1300   5.778   2.683   2.718
  134SOL    HW1 1301   5.709   2.625   2.762
  134SOL    HW2 1302   5.837   2.722   2.788
  135SOL     OW 1303   5.026   1.907   2.838
  135SOL    HW1 1304   4.969   1.906   2.756
  135SOL    HW2 1305   5.066   1.998   2.850
  136SOL     OW 1306   4.641   4.474   6.086
  136SOL    HW1 1307   4.588   4.510   6.163
  136SOL    HW2 1308   4.627   4.375   6.080
  137SOL     OW 1309   4.156   0.157   5.512
  137SOL    HW1 1310   4.256   0.160   5.512
  137SOL    HW2 1311   4.125   0.085   5.575
  138SOL     OW 1312   0.285   4.905   3.979
  138SOL    HW1 1313   0.309   4.906   3.882
  138SOL    HW2 1314   0.253   4.814   4.004
  139SOL     OW 1315   2.377   6.112   5.473
  139SOL    HW1 1316   2.332   6.054   5.405
  139SOL    HW2 1317   2.470   6.079   5.489
  140SOL     OW 1318   6.585   5.044   4.386
  140SOL    HW1 1319   6.643   5.014   4.310
  140SOL    HW2 1320   6.608   4.992   4.468
  141SOL     OW 1321   0.396   1.604   5.478
  141SOL    HW1 1322   0.378   1.552   5.395
  141SOL    HW2 1323   0.323   1.588   5.544
  142SOL     OW 1324   2.097   6.269   1.226
  142SOL    HW1 1325   2.090   6.332   1.149
  142SOL    HW2 1326   2.183   6.284   1.274
  143SOL     OW 1327   5.618   4.289   2.205
  143SOL    HW1 1328   5.584   4.381   2.184
  143SOL    HW2 1329   5.541   4.225   2.204
  144SOL     OW 1330   1.631   6.680   6.147
  144SOL    HW1 1331   1.662   6.645   6.058
  144SOL    HW2 1332   1.612   6.603   6.208
  145SOL     OW 1333   1.354   5.390   0.804
  145SOL    HW1 1334   1.262   5.384   0.841
  145SOL    HW2 1335   1.421   5.380   0.878
  146SOL     OW 1336   4.427   6.053   6.477
  146SOL    HW1 1337   4.479   6.137   6.463
  146SOL    HW2 1338   4.349   6.072   6.537
  147SOL     OW 1339   6.270   2.793   0.556
  147SOL    HW1 1340   6.222   2.758   0.476
  147SOL    HW2 1341   6.216   2.865   0.599
  148SOL     OW 1342   0.309   4.679   5.661
  148SOL    HW1 1343   0.395   4.718   5.694
  148SOL    HW2 1344   0.324   4.632   5.574
  149SOL     OW 1345   2.746   1.066   4.110
  149SOL    HW1 1346   2.785   1.155   4.133
  149SOL    HW2 1347   2.655   1.058   4.152
  150SOL     OW 1348   6.759   4.925   6.071
  150SOL    HW1 1349   6.836   4.989   6.067
  150SOL    HW2 1350   6.792   4.836   6.104
  151SOL     OW 1351   3.606   2.214   1.257
  151SOL    HW1 1352   3.633   2.252   1.346
  151SOL    HW2 1353   3.539   2.142   1.271
  152SOL     OW 1354   1.947   0.896   4.613
  152SOL    HW1 1355   1.937   0.801   4.640
  152SOL    HW2 1356   1.899   0.955   4.677
  153SOL     OW 1357   2.415   0.023   2.198
  153SOL    HW1 1358   2.464   0.005   2.284
  153SOL    HW2 1359   2.383   0.117   2.197
  154SOL     OW 1360   6.690   3.131   1.886
  154SOL    HW1 1361   6.753   3.054   1.900
  154SOL    HW2 1362   6.717   3.181   1.804
  155SOL     OW 1363   0.354   1.221   3.713
  155SOL    HW1 1364   0.403   1.240   3.628
  155SOL    HW2 1365   0.323   1.126   3.712
  156SOL     OW 1366   6.798   1.484   1.576
  156SOL    HW1 1367   6.891   1.495   1.542
  156SOL    HW2 1368   6.800   1.470   1.675
  157SOL     OW 1369   6.308   3.563   2.178
  157SOL    HW1 1370   6.318   3.645   2.122
  157SOL    HW2 1371   6.260   3.493   2.126
  158SOL     OW 1372   2.867   0.348   2.203
  158SOL    HW1 1373   2.946   0.386   2.251
  158SOL    HW2 1374   2.849   0.256   2.237
  159SOL     OW 1375   4.778   4.841   1.158
  159SOL    HW1 1376   4.712   4.810   1.226
  159SOL    HW2 1377   4.758   4.936   1.133
  160SOL     OW 1378   6.708   4.714   6.506
  160SOL    HW1 1379   6.662   4.798   6.533
  160SOL    HW2 1380   6.691   4.643   6.575
  161SOL     OW 1381   1.734   4.908   4.971
  161SOL    HW1 1382   1.649   4.901   4.919
  161SOL    HW2 1383   1.810   4.921   4.907
  162SOL     OW 1384   4.015   6.820   0.280
  162SOL    HW1 1385   4.076   6.773   0.343
  162SOL    HW2 1386   4.052   6.812   0.187
  163SOL     OW 1387   4.525   6.123   1.401
  163SOL    HW1 1388   4.483   6.071   1.476
  163SOL    HW2 1389   4.570   6.061   1.338
  164SOL     OW 1390   6.787   3.729   1.540
  164SOL    HW1 1391   6.759   3.824   1.526
  164SOL    HW2 1392   6.816   3.690   1.453
  165SOL     OW 1393   5.126   2.980   0.855
  165SOL    HW1 1394   5.211   2.961   0.806
  165SOL    HW2 1395   5.061   2.906   0.840
  166SOL     OW 1396   0.040   5.377   3.735
  166SOL    HW1 1397   6.978   5.324   3.734
  166SOL    HW2 1398   0.116   5.320   3.703
  167SOL     OW 1399   5.784   2.055   0.219
  167SOL    HW1 1400   5.860   2.061   0.154
  167SOL    HW2 1401   5.745   1.963   0.217
  168SOL     OW 1402   2.827   3.914   0.752
  168SOL    HW1 1403   2.747   3.895   0.809
  168SOL    HW2 1404   2.887   3.834   0.751
  169SOL     OW 1405   3.078   0.146   1.769
  169SOL    HW1 1406   2.984   0.133   1.801
  169SOL    HW2 1407   3.091   0.099   1.682
  170SOL     OW 1408   0.748   1.969   4.254
  170SOL    HW1 1409   0.662   1.929   4.220
  170SOL    HW2 1410   0.804   1.896   4.293
  171SOL     OW 1411   3.403   3.909   6.875
  171SOL    HW1 1412   3.373   3.819   6.907
  171SOL    HW2 1413   3.390   3.977   6.947
  172SOL     OW 1414   6.248   1.451   4.594
  172SOL    HW1 1415   6.219   1.437   4.499
  172SOL    HW2 1416   6.168   1.446   4.654
  173SOL     OW 1417   6.797   0.283   4.373
  173SOL    HW1 1418   6.845   0.326   4.296
  173SOL    HW2 1419   6.820   0.330   4.458
  174SOL     OW 1420   3.142   5.338   3.676
  174SOL    HW1 1421   3.100   5.280   3.746
  174SOL    HW2 1422   3.078   5.350   3.600
  175SOL     OW 1423   1.674   6.627   1.811
  175SOL    HW1 1424   1.718   6.539   1.830
  175SOL    HW2 1425   1.636   6.663   1.896
  176SOL     OW 1426   2.383   4.122   0.950
  176SOL    HW1 1427   2.336   4.088   1.032
  176SOL    HW2 1428   2.480   4.102   0.957
  177SOL     OW 1429   5.917   2.709   3.238
  177SOL    HW1 1430   5.988   2.718   3.168
  177SOL    HW2 1431   5.936   2.772   3.313
  178SOL     OW 1432   4.572   3.971   6.345
  178SOL    HW1 1433   4.602   3.967   6.440
  178SOL    HW2 1434   4.595   4.061   6.307
  179SOL     OW 1435   2.888   1.478   6.418
  179SOL    HW1 1436   2.800   1.522   6.397
  179SOL    HW2 1437   2.960   1.548   6.417
  180SOL     OW 1438   1.077   1.224   6.549
  180SOL    HW1 1439   1.083   1.244   6.451
  180SOL    HW2 1440   0.996   1.167   6.566
  181SOL     OW 1441   3.513   1.911   6.785
  181SOL    HW1 1442   3.486   1.939   6.877
  181SOL    HW2 1443   3.468   1.971   6.718
  182SOL     OW 1444   4.397   2.470   4.092
  182SOL    HW1 1445   4.297   2.477   4.103
  182SOL    HW2 1446   4.439   2.453   4.180
  183SOL     OW 1447   3.533   6.982   2.142
  183SOL    HW1 1448   3.607   6.936   2.192
  183SOL    HW2 1449   3.507   0.042   2.192
  184SOL     OW 1450   1.613   5.946   3.748
  184SOL    HW1 1451   1.518   5.917   3.763
  184SOL    HW2 1452   1.615   6.045   3.732
  185SOL     OW 1453   1.318   2.893   6.509
  185SOL    HW1 1454   1.370   2.823   6.461
  185SOL    HW2 1455   1.373   2.933   6.582
  186SOL     OW 1456   6.560   0.744   3.373
  186SOL    HW1 1457   6.522   0.816   3.430
  186SOL    HW2 1458   6.649   0.716   3.409
  187SOL     OW 1459   5.323   0.934   3.800
  187SOL    HW1 1460   5.367   1.019   3.773
  187SOL    HW2 1461   5.300   0.880   3.718
  188SOL     OW 1462   6.036   2.447   3.353
  188SOL    HW1 1463   5.959   2.496   3.313
  188SOL    HW2 1464   6.089   2.403   3.281
  189SOL     OW 1465   1.773   5.765   2.767
  189SOL    HW1 1466   1.674   5.778   2.768
  189SOL    HW2 1467   1.800   5.705   2.842
  190SOL     OW 1468   3.577   1.159   4.897
  190SOL    HW1 1469   3.613   1.190   4.985
  190SOL    HW2 1470   3.483   1.191   4.886
  191SOL     OW 1471   5.765   5.117   6.011
  191SOL    HW1 1472   5.677   5.138   6.053
  191SOL    HW2 1473   5.835   5.109   6.082
  192SOL     OW 1474   0.195   6.546   1.804
  192SOL    HW1 1475   0.292   6.564   1.823
  192SOL    HW2 1476   0.182   6.531   1.706
  193SOL     OW 1477   5.017   3.033   6.757
  193SOL    HW1 1478   5.071   3.113   6.783
  193SOL    HW2 1479   5.077   2.953   6.752
  194SOL     OW 1480   3.763   0.873   3.014
  194SOL    HW1 1481   3.837   0.806   3.016
  194SOL    HW2 1482   3.702   0.854   2.937
  195SOL     OW 1483   1.347   6.097   3.541
  195SOL    HW1 1484   1.251   6.096   3.569
  195SOL    HW2 1485   1.382   6.190   3.544
  196SOL     OW 1486   2.433   2.568   0.183
  196SOL    HW1 1487   2.492   2.510   0.238
  196SOL    HW2 1488   2.392   2.639   0.240
  197SOL     OW 1489   2.092   1.975   1.211
  197SOL    HW1 1490   2.182   1.946   1.178
  197SOL    HW2 1491   2.085   2.075   1.207
  198SOL     OW 1492   4.454   0.836   3.419
  198SOL    HW1 1493   4.366   0.880   3.404
  198SOL    HW2 1494   4.524   0.906   3.435
  199SOL     OW 1495   1.870   2.682   4.165
  199SOL    HW1 1496   1.949   2.667   4.106
  199SOL    HW2 1497   1.814   2.599   4.168
  200SOL     OW 1498   0.679   2.105   0.970
  200SOL    HW1 1499   0.689   2.050   1.053
  200SOL    HW2 1500   0.764   2.102   0.917
  201SOL     OW 1501   0.330   0.943   5.792
  201SOL    HW1 1502   0.276   0.910   5.715
  201SOL    HW2 1503   0.427   0.934   5.770
  202SOL     OW 1504   4.550   0.615   6.557
  202SOL    HW1 1505   4.496   0.687   6.600
  202SOL    HW2 1506   4.618   0.657   6.496
  203SOL     OW 1507   5.686   2.625   5.326
  203SOL    HW1 1508   5.707   2.538   5.280
  203SOL    HW2 1509   5.741   2.633   5.409
  204SOL     OW 1510   0.362   0.294   5.757
  204SOL    HW1 1511   0.339   0.202   5.727
  204SOL    HW2 1512   0.328   0.361   5.691
  205SOL     OW 1513   1.093   2.261   2.798
  205SOL    HW1 1514   1.153   2.340   2.809
  205SOL    HW2 1515   1.145   2.184   2.762
  206SOL     OW 1516   0.292   3.064   1.731
  206SOL    HW1 1517   0.353   3.071   1.652
  206SOL    HW2 1518   0.307   2.976   1.777
  207SOL     OW 1519   4.836   1.603   3.090
  207SOL    HW1 1520   4.809   1.685   3.040
  207SOL    HW2 1521   4.926   1.572   3.058
  208SOL     OW 1522   6.922   4.104   5.273
  208SOL    HW1 1523   6.945   4.155   5.355
  208SOL    HW2 1524   6.926   4.164   5.193
  209SOL     OW 1525   6.606   4.657   2.601
  209SOL    HW1 1526   6.522   4.631   2.648
  209SOL    HW2 1527   6.597   4.748   2.562
  210SOL     OW 1528   4.187   2.337   0.293
  210SOL    HW1 1529   4.149   2.352   0.384
  210SOL    HW2 1530   4.246   2.414   0.268
  211SOL     OW 1531   1.908   0.510   2.857
  211SOL    HW1 1532   1.905   0.419   2.900
  211SOL    HW2 1533   1.943   0.577   2.922
  212SOL     OW 1534   1.264   3.727   2.389
  212SOL    HW1 1535   1.182   3.673   2.406
  212SOL    HW2 1536   1.341   3.689   2.441
  213SOL     OW 1537   1.415   6.211   1.071
  213SOL    HW1 1538   1.342   6.152   1.106
  213SOL    HW2 1539   1.434   6.283   1.139
  214SOL     OW 1540   4.166   5.034   2.243
  214SOL    HW1 1541   4.098   4.960   2.246
  214SOL    HW2 1542   4.148   5.098   2.318
  215SOL     OW 1543   2.679   4.728   1.236
  215SOL    HW1 1544   2.622   4.712   1.316
  215SOL    HW2 1545   2.770   4.758   1.264
  216SOL     OW 1546   1.115   0.270   2.759
  216SOL    HW1 1547   1.121   0.211   2.679
  216SOL    HW2 1548   1.083   0.216   2.837
  217SOL     OW 1549   1.057   2.779   5.636
  217SOL    HW1 1550   1.063   2.707   5.566
  217SOL    HW2 1551   1.134   2.770   5.700
  218SOL     OW 1552   0.948   1.818   5.342
  218SOL    HW1 1553   0.953   1.870   5.257
  218SOL    HW2 1554   0.857   1.776   5.351
  219SOL     OW 1555   3.837   0.724   0.128
  219SOL    HW1 1556   3.895   0.695   0.204
  219SOL    HW2 1557   3.748   0.753   0.164
  220SOL     OW 1558   3.205   0.554   0.706
  220SOL    HW1 1559   3.234   0.642   0.666
  220SOL    HW2 1560   3.286   0.503   0.735
  221SOL     OW 1561   6.016   4.999   1.110
  221SOL    HW1 1562   6.034   5.056   1.029
  221SOL    HW2 1563   5.919   5.001   1.131
  222SOL     OW 1564   1.450   4.527   6.793
  222SOL    HW1 1565   1.493   4.549   6.880
  222SOL    HW2 1566   1.351   4.521   6.806
  223SOL     OW 1567   7.011   2.928   5.499
  223SOL    HW1 1568   6.926   2.920   5.447
  223SOL    HW2 1569   0.053   2.860   5.467
  224SOL     OW 1570   3.350   2.195   5.687
  224SOL    HW1 1571   3.275   2.133   5.709
  224SOL    HW2 1572   3.322   2.289   5.705
  225SOL     OW 1573   4.540   3.647   5.888
  225SOL    HW1 1574   4.457   3.699   5.909
  225SOL    HW2 1575   4.592   3.695   5.817
  226SOL     OW 1576   1.027   1.620   6.903
  226SOL    HW1 1577   0.978   1.688   6.848
  226SOL    HW2 1578   0.973   1.597   6.984
  227SOL     OW 1579   2.269   4.139   2.743
  227SOL    HW1 1580   2.176   4.177   2.745
  227SOL    HW2 1581   2.266   4.048   2.701
  228SOL     OW 1582   2.046   0.879   3.374
  228SOL    HW1 1583   1.973   0.833   3.424
  228SOL    HW2 1584   2.007   0.924   3.293
  229SOL     OW 1585   5.095   4.637   6.781
  229SOL    HW1 1586   5.025   4.678   6.722
  229SOL    HW2 1587   5.163   4.706   6.805
  230SOL     OW 1588   4.555   6.106   4.469
  230SOL    HW1 1589   4.634   6.095   4.409
  230SOL    HW2 1590   4.578   6.075   4.562
  231SOL     OW 1591   5.571   1.179   0.207
  231SOL    HW1 1592   5.497   1.244   0.194
  231SOL    HW2 1593   5.570   1.146   0.302
  232SOL     OW 1594   0.229   2.957   6.769
  232SOL    HW1 1595   0.137   2.924   6.749
  232SOL    HW2 1596   0.224   3.038   6.827
  233SOL     OW 1597   3.103   2.139   3.625
  233SOL    HW1 1598   3.088   2.231   3.664
  233SOL    HW2 1599   3.026   2.115   3.566
  234SOL     OW 1600   5.832   1.041   6.066
  234SOL    HW1 1601   5.849   1.114   6.000
  234SOL    HW2 1602   5.850   1.074   6.159
  235SOL     OW 1603   4.819   2.982   2.458
  235SOL    HW1 1604   4.748   2.994   2.528
  235SOL    HW2 1605   4.813   2.889   2.420
  236SOL     OW 1606   4.736   3.670   6.695
  236SOL    HW1 1607   4.728   3.573   6.716
  236SOL    HW2 1608   4.832   3.698   6.703
  237SOL     OW 1609   0.036   4.455   2.354
  237SOL    HW1 1610   0.029   4.545   2.398
  237SOL    HW2 1611   6.987   4.395   2.390
  238SOL     OW 1612   6.517   1.085   0.566
  238SOL    HW1 1613   6.459   1.049   0.639
  238SOL    HW2 1614   6.607   1.107   0.603
  239SOL     OW 1615   0.894   4.192   0.286
  239SOL    HW1 1616   0.907   4.127   0.361
  239SOL    HW2 1617   0.803   4.178   0.246
  240SOL     OW 1618   6.987   3.196   3.496
  240SOL    HW1 1619   6.920   3.187   3.571
  240SOL    HW2 1620   0.019   3.278   3.511
  241SOL     OW 1621   2.908   2.198   4.398
  241SOL    HW1 1622   2.980   2.215   4.466
  241SOL    HW2 1623   2.849   2.123   4.430
  242SOL     OW 1624   3.773   3.707   3.518
  242SOL    HW1 1625   3.703   3.777   3.506
  242SOL    HW2 1626   3.731   3.623   3.553
  243SOL     OW 1627   4.668   1.571   6.869
  243SOL    HW1 1628   4.685   1.476   6.896
  243SOL    HW2 1629   4.589   1.575   6.808
  244SOL     OW 1630   6.054   3.299   6.322
  244SOL    HW1 1631   6.025   3.392   6.344
  244SOL    HW2 1632   6.141   3.279   6.367
  245SOL     OW 1633   3.707   1.813   3.844
  245SOL    HW1 1634   3.761   1.839   3.924
  245SOL    HW2 1635   3.750   1.847   3.761
  246SOL     OW 1636   5.009   1.797   3.451
  246SOL    HW1 1637   5.077   1.726   3.465
  246SOL    HW2 1638   5.021   1.870   3.518
  247SOL     OW 1639   2.549   1.910   0.665
  247SOL    HW1 1640   2.499   1.961   0.734
  247SOL    HW2 1641   2.581   1.823   0.704
  248SOL     OW 1642   2.494   1.210   2.798
  248SOL    HW1 1643   2.447   1.241   2.880
  248SOL    HW2 1644   2.592   1.205   2.815
  249SOL     OW 1645   5.008   6.909   5.136
  249SOL    HW1 1646   5.087   6.852   5.114
  249SOL    HW2 1647   4.930   6.851   5.159
  250SOL     OW 1648   3.933   3.399   0.849
  250SOL    HW1 1649   3.877   3.322   0.818
  250SOL    HW2 1650   4.013   3.364   0.898
  251SOL     OW 1651   4.681   3.415   5.387
  251SOL    HW1 1652   4.627   3.332   5.374
  251SOL    HW2 1653   4.653   3.484   5.320
  252SOL     OW 1654   6.523   7.011   5.672
  252SOL    HW1 1655   6.441   6.997   5.727
  252SOL    HW2 1656   6.550   0.085   5.677
  253SOL     OW 1657   3.729   4.708   5.685
  253SOL    HW1 1658   3.798   4.640   5.659
  253SOL    HW2 1659   3.640   4.679   5.652
  254SOL     OW 1660   6.823   2.208   3.624
  254SOL    HW1 1661   6.795   2.277   3.691
  254SOL    HW2 1662   6.748   2.194   3.559
  255SOL     OW 1663   1.367   5.104   5.834
  255SOL    HW1 1664   1.273   5.078   5.855
  255SOL    HW2 1665   1.423   5.021   5.824
  256SOL     OW 1666   5.640   3.014   6.096
  256SOL    HW1 1667   5.602   3.064   6.018
  256SOL    HW2 1668   5.704   3.074   6.145
  257SOL     OW 1669   5.575   6.921   3.098
  257SOL    HW1 1670   5.505   6.852   3.081
  257SOL    HW2 1671   5.626   6.897   3.181
  258SOL     OW 1672   2.231   4.006   5.465
  258SOL    HW1 1673   2.306   3.948   5.499
  258SOL    HW2 1674   2.264   4.064   5.391
  259SOL     OW 1675   5.266   1.006   2.007
  259SOL    HW1 1676   5.353   1.055   2.013
  259SOL    HW2 1677   5.284   0.911   1.982
  260SOL     OW 1678   3.853   5.109   3.420
  260SOL    HW1 1679   3.760   5.096   3.385
  260SOL    HW2 1680   3.862   5.061   3.507
  261SOL     OW 1681   5.584   4.818   1.541
  261SOL    HW1 1682   5.665   4.858   1.583
  261SOL    HW2 1683   5.599   4.721   1.525
  262SOL     OW 1684   1.847   4.183   1.030
  262SOL    HW1 1685   1.767   4.196   1.089
  262SOL    HW2 1686   1.888   4.271   1.008
  263SOL     OW 1687   1.322   0.302   4.191
  263SOL    HW1 1688   1.344   0.370   4.121
  263SOL    HW2 1689   1.378   0.220   4.177
  264SOL     OW 1690   6.511   2.969   0.465
  264SOL    HW1 1691   6.480   2.946   0.373
  264SOL    HW2 1692   6.447   2.932   0.532
  265SOL     OW 1693   5.986   6.764   3.158
  265SOL    HW1 1694   6.075   6.805   3.178
  265SOL    HW2 1695   5.935   6.823   3.096
  266SOL     OW 1696   4.690   3.077   6.056
  266SOL    HW1 1697   4.694   2.981   6.028
  266SOL    HW2 1698   4.665   3.134   5.977
  267SOL     OW 1699   1.245   0.869   5.347
  267SOL    HW1 1700   1.170   0.802   5.345
  267SOL    HW2 1701   1.284   0.874   5.439
  268SOL     OW 1702   3.403   1.285   6.130
  268SOL    HW1 1703   3.405   1.384   6.145
  268SOL    HW2 1704   3.453   1.239   6.203
  269SOL     OW 1705   3.139   2.383   0.431
  269SOL    HW1 1706   3.239   2.373   0.424
  269SOL    HW2 1707   3.098   2.357   0.343
  270SOL     OW 1708   0.734   6.302   0.204
  270SOL    HW1 1709   0.802   6.229   0.208
  270SOL    HW2 1710   0.779   6.389   0.187
  271SOL     OW 1711   0.452   1.757   6.436
  271SOL    HW1 1712   0.449   1.779   6.534
  271SOL    HW2 1713   0.372   1.796   6.391
  272SOL     OW 1714   3.596   6.303   3.868
  272SOL    HW1 1715   3.579   6.219   3.818
  272SOL    HW2 1716   3.531   6.374   3.838
  273SOL     OW 1717   1.756   5.193   5.489
  273SOL    HW1 1718   1.726   5.152   5.403
  273SOL    HW2 1719   1.820   5.131   5.534
  274SOL     OW 1720   3.821   0.935   3.691
  274SOL    HW1 1721   3.916   0.943   3.659
  274SOL    HW2 1722   3.773   1.021   3.675
  275SOL     OW 1723   0.112   6.475   2.462
  275SOL    HW1 1724   0.199   6.524   2.465
  275SOL    HW2 1725   0.038   6.540   2.448
  276SOL     OW 1726   0.538   6.681   3.800
  276SOL    HW1 1727   0.560   6.738   3.720
  276SOL    HW2 1728   0.440   6.661   3.801
  277SOL     OW 1729   1.498   3.388   6.829
  277SOL    HW1 1730   1.467   3.482   6.840
  277SOL    HW2 1731   1.492   3.340   6.916
  278SOL     OW 1732   0.265   3.246   2.852
  278SOL    HW1 1733   0.303   3.230   2.943
  278SOL    HW2 1734   0.324   3.203   2.783
  279SOL     OW 1735   5.093   2.706   4.345
  279SOL    HW1 1736   5.171   2.763   4.320
  279SOL    HW2 1737   5.078   2.711   4.444
  280SOL     OW 1738   2.470   5.457   1.444
  280SOL    HW1 1739   2.385   5.455   1.390
  280SOL    HW2 1740   2.532   5.524   1.403
  281SOL     OW 1741   2.103   4.575   1.852
  281SOL    HW1 1742   2.117   4.477   1.839
  281SOL    HW2 1743   2.012   4.591   1.891
  282SOL     OW 1744   3.152   0.977   5.020
  282SOL    HW1 1745   3.056   0.996   4.999
  282SOL    HW2 1746   3.157   0.912   5.096
  283SOL     OW 1747   5.697   2.777   6.686
  283SOL    HW1 1748   5.745   2.861   6.659
  283SOL    HW2 1749   5.604   2.780   6.648
  284SOL     OW 1750   0.602   3.465   3.835
  284SOL    HW1 1751   0.623   3.526   3.911
  284SOL    HW2 1752   0.645   3.376   3.849
  285SOL     OW 1753   5.381   4.806   3.927
  285SOL    HW1 1754   5.458   4.764   3.975
  285SOL    HW2 1755   5.413   4.846   3.841
  286SOL     OW 1756   3.266   4.301   6.666
  286SOL    HW1 1757   3.288   4.221   6.722
  286SOL    HW2 1758   3.340   4.318   6.602
  287SOL     OW 1759   1.732   3.345   1.386
  287SOL    HW1 1760   1.750   3.298   1.472
  287SOL    HW2 1761   1.800   3.319   1.318
  288SOL     OW 1762   3.777   1.449   6.374
  288SOL    HW1 1763   3.830   1.364   6.382
  288SOL    HW2 1764   3.813   1.517   6.438
  289SOL     OW 1765   1.748   4.747   5.522
  289SOL    HW1 1766   1.841   4.714   5.540
  289SOL    HW2 1767   1.686   4.669   5.517
  290SOL     OW 1768   0.052   1.627   5.198
  290SOL    HW1 1769   0.151   1.630   5.183
  290SOL    HW2 1770   0.007   1.694   5.138
  291SOL     OW 1771   0.922   1.660   4.056
  291SOL    HW1 1772   0.950   1.572   4.094
  291SOL    HW2 1773   0.826   1.655   4.028
  292SOL     OW 1774   2.240   0.445   3.382
  292SOL    HW1 1775   2.161   0.460   3.322
  292SOL    HW2 1776   2.220   0.480   3.473
  293SOL     OW 1777   4.941   5.851   4.182
  293SOL    HW1 1778   4.901   5.853   4.273
  293SOL    HW2 1779   4.931   5.759   4.144
  294SOL     OW 1780   5.170   5.895   6.781
  294SOL    HW1 1781   5.260   5.936   6.770
  294SOL    HW2 1782   5.107   5.931   6.712
  295SOL     OW 1783   4.866   0.690   3.371
  295SOL    HW1 1784   4.784   0.663   3.320
  295SOL    HW2 1785   4.875   0.633   3.452
  296SOL     OW 1786   3.353   1.468   3.008
  296SOL    HW1 1787   3.262   1.458   2.968
  296SOL    HW2 1788   3.346   1.460   3.108
  297SOL     OW 1789   1.639   4.171   3.057
  297SOL    HW1 1790   1.579   4.206   3.129
  297SOL    HW2 1791   1.728   4.146   3.097
  298SOL     OW 1792   6.175   5.571   0.926
  298SOL    HW1 1793   6.083   5.610   0.920
  298SOL    HW2 1794   6.242   5.636   0.890
  299SOL     OW 1795   6.349   2.390   4.906
  299SOL    HW1 1796   6.258   2.349   4.910
  299SOL    HW2 1797   6.374   2.407   4.811
  300SOL     OW 1798   6.343   0.519   2.928
  300SOL    HW1 1799   6.393   0.570   2.858
  300SOL    HW2 1800   6.248   0.550   2.929
  301SOL     OW 1801   5.860   3.504   0.016
  301SOL    HW1 1802   5.816   3.544   6.958
  301SOL    HW2 1803   5.924   3.569   0.055
  302SOL     OW 1804   0.723   0.340   3.787
  302SOL    HW1 1805   0.760   0.408   3.724
  302SOL    HW2 1806   0.655   0.383   3.847
  303SOL     OW 1807   4.902   0.827   3.008
  303SOL    HW1 1808   4.989   0.863   2.976
  303SOL    HW2 1809   4.912   0.729   3.028
  304SOL     OW 1810   2.484   0.097   3.422
  304SOL    HW1 1811   2.499   0.180   3.475
  304SOL    HW2 1812   2.515   0.112   3.328
  305SOL     OW 1813   1.064   4.208   6.888
  305SOL    HW1 1814   1.056   4.296   6.934
  305SOL    HW2 1815   0.993   4.146   6.921
  306SOL     OW 1816   2.475   0.920   3.587
  306SOL    HW1 1817   2.413   0.852   3.549
  306SOL    HW2 1818   2.427   0.975   3.655
  307SOL     OW 1819   4.393   0.218   0.971
  307SOL    HW1 1820   4.329   0.227   0.895
  307SOL    HW2 1821   4.352   0.257   1.054
  308SOL     OW 1822   1.084   6.279   3.103
  308SOL    HW1 1823   1.168   6.236   3.070
  308SOL    HW2 1824   1.107   6.366   3.148
  309SOL     OW 1825   3.653   4.530   5.424
  309SOL    HW1 1826   3.744   4.566   5.404
  309SOL    HW2 1827   3.587   4.571   5.361
  310SOL     OW 1828   0.380   6.500   5.432
  310SOL    HW1 1829   0.391   6.540   5.523
  310SOL    HW2 1830   0.345   6.407   5.441
  311SOL     OW 1831   0.535   5.841   1.505
  311SOL    HW1 1832   0.618   5.843   1.561
  311SOL    HW2 1833   0.510   5.747   1.485
  312SOL     OW 1834   5.185   1.444   5.093
  312SOL    HW1 1835   5.245   1.438   5.173
  312SOL    HW2 1836   5.239   1.461   5.011
  313SOL     OW 1837   2.152   4.389   2.116
  313SOL    HW1 1838   2.175   4.448   2.193
  313SOL    HW2 1839   2.067   4.421   2.074
  314SOL     OW 1840   3.347   5.663   0.433
  314SOL    HW1 1841   3.306   5.582   0.391
  314SOL    HW2 1842   3.422   5.696   0.376
  315SOL     OW 1843   0.448   2.572   3.362
  315SOL    HW1 1844   0.398   2.657   3.377
  315SOL    HW2 1845   0.505   2.581   3.280
  316SOL     OW 1846   2.217   2.678   3.622
  316SOL    HW1 1847   2.185   2.640   3.709
  316SOL    HW2 1848   2.273   2.609   3.575
  317SOL     OW 1849   6.709   1.681   0.206
  317SOL    HW1 1850   6.803   1.707   0.182
  317SOL    HW2 1851   6.680   1.604   0.149
  318SOL     OW 1852   1.565   4.361   0.509
  318SOL    HW1 1853   1.603   4.373   0.601
  318SOL    HW2 1854   1.579   4.444   0.455
  319SOL     OW 1855   1.549   0.335   1.261
  319SOL    HW1 1856   1.612   0.258   1.270
  319SOL    HW2 1857   1.455   0.301   1.265
  320SOL     OW 1858   6.497   3.195   1.017
  320SOL    HW1 1859   6.484   3.236   0.926
  320SOL    HW2 1860   6.561   3.118   1.010
  321SOL     OW 1861   1.752   2.213   2.030
  321SOL    HW1 1862   1.773   2.158   2.111
  321SOL    HW2 1863   1.764   2.310   2.053
  322SOL     OW 1864   3.606   2.951   4.873
  322SOL    HW1 1865   3.549   2.961   4.792
  322SOL    HW2 1866   3.557   2.896   4.941
  323SOL     OW 1867   6.766   4.210   0.791
  323SOL    HW1 1868   6.815   4.126   0.768
  323SOL    HW2 1869   6.675   4.187   0.825
  324SOL     OW 1870   0.998   3.264   4.660
  324SOL    HW1 1871   0.950   3.188   4.704
  324SOL    HW2 1872   1.086   3.232   4.625
  325SOL     OW 1873   1.963   2.793   1.959
  325SOL    HW1 1874   1.968   2.696   1.934
  325SOL    HW2 1875   1.868   2.824   1.954
  326SOL     OW 1876   1.816   6.193   6.660
  326SOL    HW1 1877   1.891   6.136   6.692
  326SOL    HW2 1878   1.850   6.286   6.644
  327SOL     OW 1879   6.240   4.763   5.262
  327SOL    HW1 1880   6.208   4.674   5.294
  327SOL    HW2 1881   6.162   4.820   5.240
  328SOL     OW 1882   4.443   4.700   1.814
  328SOL    HW1 1883   4.382   4.778   1.803
  328SOL    HW2 1884   4.390   4.615   1.813
  329SOL     OW 1885   3.540   3.857   3.148
  329SOL    HW1 1886   3.609   3.928   3.134
  329SOL    HW2 1887   3.529   3.805   3.064
  330SOL     OW 1888   3.422   6.950   1.358
  330SOL    HW1 1889   3.440   6.853   1.341
  330SOL    HW2 1890   3.327   6.962   1.385
  331SOL     OW 1891   4.932   5.175   5.920
  331SOL    HW1 1892   4.846   5.205   5.880
  331SOL    HW2 1893   4.978   5.112   5.857
  332SOL     OW 1894   3.076   1.566   3.980
  332SOL    HW1 1895   3.058   1.629   4.055
  332SOL    HW2 1896   2.993   1.556   3.924
  333SOL     OW 1897   3.975   6.304   5.800
  333SOL    HW1 1898   4.067   6.319   5.763
  333SOL    HW2 1899   3.913   6.374   5.764
  334SOL     OW 1900   3.356   6.765   2.452
  334SOL    HW1 1901   3.337   6.832   2.380
  334SOL    HW2 1902   3.291   6.777   2.527
  335SOL     OW 1903   3.486   5.663   3.532
  335SOL    HW1 1904   3.409   5.647   3.469
  335SOL    HW2 1905   3.539   5.742   3.500
  336SOL     OW 1906   3.180   1.197   3.478
  336SOL    HW1 1907   3.173   1.189   3.378
  336SOL    HW2 1908   3.104   1.147   3.520
  337SOL     OW 1909   0.239   3.466   1.669
  337SOL    HW1 1910   0.173   3.398   1.702
  337SOL    HW2 1911   0.277   3.515   1.747
  338SOL     OW 1912   2.594   2.975   1.501
  338SOL    HW1 1913   2.539   2.906   1.455
  338SOL    HW2 1914   2.553   2.996   1.590
  339SOL     OW 1915   4.113   6.634   2.909
  339SOL    HW1 1916   4.098   6.732   2.893
  339SOL    HW2 1917   4.048   6.601   2.977
  340SOL     OW 1918   4.864   3.810   4.678
  340SOL    HW1 1919   4.907   3.794   4.767
  340SOL    HW2 1920   4.830   3.723   4.642
  341SOL     OW 1921   5.549   5.380   3.908
  341SOL    HW1 1922   5.585   5.406   3.997
  341SOL    HW2 1923   5.455   5.413   3.899
  342SOL     OW 1924   5.830   5.253   0.561
  342SOL    HW1 1925   5.768   5.217   0.491
  342SOL    HW2 1926   5.923   5.260   0.523
  343SOL     OW 1927   3.611   6.665   1.801
  343SOL    HW1 1928   3.665   6.743   1.771
  343SOL    HW2 1929   3.672   6.590   1.827
  344SOL     OW 1930   1.854   5.243   0.451
  344SOL    HW1 1931   1.953   5.251   0.460
  344SOL    HW2 1932   1.813   5.225   0.541
  345SOL     OW 1933   1.084   0.330   5.413
  345SOL    HW1 1934   1.074   0.399   5.342
  345SOL    HW2 1935   1.177   0.294   5.411
  346SOL     OW 1936   1.458   0.246   3.062
  346SOL    HW1 1937   1.498   0.233   2.971
  346SOL    HW2 1938   1.525   0.222   3.132
  347SOL     OW 1939   5.453   7.012   6.650
  347SOL    HW1 1940   5.534   0.010   6.704
  347SOL    HW2 1941   5.389   0.065   6.653
  348SOL     OW 1942   3.649   5.304   1.071
  348SOL    HW1 1943   3.622   5.341   0.982
  348SOL    HW2 1944   3.597   5.221   1.090
  349SOL     OW 1945   0.383   4.851   2.319
  349SOL    HW1 1946   0.347   4.943   2.300
  349SOL    HW2 1947   0.323   4.783   2.277
  350SOL     OW 1948   3.815   3.472   1.508
  350SOL    HW1 1949   3.791   3.379   1.537
  350SOL    HW2 1950   3.762   3.495   1.427
  351SOL     OW 1951   2.658   1.702   0.171
  351SOL    HW1 1952   2.570   1.735   0.135
  351SOL    HW2 1953   2.730   1.765   0.143
  352SOL     OW 1954   3.310   0.278   5.687
  352SOL    HW1 1955   3.273   0.352   5.743
  352SOL    HW2 1956   3.240   0.208   5.674
  353SOL     OW 1957   1.674   5.946   0.750
  353SOL    HW1 1958   1.643   6.010   0.821
  353SOL    HW2 1959   1.759   5.980   0.709
  354SOL     OW 1960   4.285   1.274   0.220
  354SOL    HW1 1961   4.296   1.175   0.227
  354SOL    HW2 1962   4.222   1.296   0.146
  355SOL     OW 1963   6.984   3.432   2.554
  355SOL    HW1 1964   6.924   3.422   2.475
  355SOL    HW2 1965   6.949   3.504   2.614
  356SOL     OW 1966   4.193   5.129   3.685
  356SOL    HW1 1967   4.169   5.052   3.743
  356SOL    HW2 1968   4.266   5.102   3.622
  357SOL     OW 1969   0.391   5.632   5.298
  357SOL    HW1 1970   0.333   5.619   5.378
  357SOL    HW2 1971   0.454   5.708   5.314
  358SOL     OW 1972   5.508   0.481   1.851
  358SOL    HW1 1973   5.437   0.506   1.786
  358SOL    HW2 1974   5.597   0.482   1.804
  359SOL     OW 1975   1.557   2.058   2.306
  359SOL    HW1 1976   1.627   2.045   2.236
  359SOL    HW2 1977   1.592   2.027   2.395
  360SOL     OW 1978   4.447   6.855   0.300
  360SOL    HW1 1979   4.375   6.790   0.323
  360SOL    HW2 1980   4.496   6.823   0.219
  361SOL     OW 1981   5.267   6.253   2.658
  361SOL    HW1 1982   5.310   6.163   2.660
  361SOL    HW2 1983   5.226   6.268   2.568
  362SOL     OW 1984   3.243   3.731   1.121
  362SOL    HW1 1985   3.240   3.632   1.113
  362SOL    HW2 1986   3.201   3.773   1.041
  363SOL     OW 1987   4.421   5.364   3.865
  363SOL    HW1 1988   4.342   5.408   3.823
  363SOL    HW2 1989   4.467   5.307   3.797
  364SOL     OW 1990   1.596   5.423   6.169
  364SOL    HW1 1991   1.539   5.341   6.178
  364SOL    HW2 1992   1.687   5.396   6.138
  365SOL     OW 1993   5.350   6.383   1.856
  365SOL    HW1 1994   5.444   6.391   1.822
  365SOL    HW2 1995   5.293   6.338   1.788
  366SOL     OW 1996   5.694   0.914   6.952
  366SOL    HW1 1997   5.733   0.868   6.872
  366SOL    HW2 1998   5.728   0.871   0.012
  367SOL     OW 1999   5.349   3.118   1.281
  367SOL    HW1 2000   5.373   3.199   1.335
  367SOL    HW2 2001   5.401   3.117   1.196
  368SOL     OW 2002   1.430   4.652   5.235
  368SOL    HW1 2003   1.452   4.610   5.147
  368SOL    HW2 2004   1.474   4.600   5.309
  369SOL     OW 2005   0.614   4.286   1.873
  369SOL    HW1 2006   0.572   4.354   1.814
  369SOL    HW2 2007   0.547   4.254   1.940
  370SOL     OW 2008   3.206   1.787   5.233
  370SOL    HW1 2009   3.237   1.881   5.217
  370SOL    HW2 2010   3.113   1.776   5.197
  371SOL     OW 2011   3.100   3.772   0.065
  371SOL    HW1 2012   3.072   3.860   0.026
  371SOL    HW2 2013   3.173   3.733   0.008
  372SOL     OW 2014   0.167   6.771   5.834
  372SOL    HW1 2015   0.142   6.746   5.928
  372SOL    HW2 2016   0.109   6.721   5.770
  373SOL     OW 2017   0.212   6.335   0.619
  373SOL    HW1 2018   0.166   6.279   0.688
  373SOL    HW2 2019   0.233   6.279   0.539
  374SOL     OW 2020   3.438   0.551   1.658
  374SOL    HW1 2021   3.494   0.503   1.726
  374SOL    HW2 2022   3.392   0.484   1.600
  375SOL     OW 2023   6.732   5.111   3.653
  375SOL    HW1 2024   6.634   5.091   3.649
  375SOL    HW2 2025   6.781   5.032   3.691
  376SOL     OW 2026   2.139   2.913   4.024
  376SOL    HW1 2027   2.147   2.822   3.983
  376SOL    HW2 2028   2.050   2.953   4.000
  377SOL     OW 2029   4.906   2.171   3.123
  377SOL    HW1 2030   4.833   2.138   3.183
  377SOL    HW2 2031   4.967   2.230   3.175
  378SOL     OW 2032   4.510   3.193   5.372
  378SOL    HW1 2033   4.425   3.223   5.328
  378SOL    HW2 2034   4.520   3.094   5.362
  379SOL     OW 2035   5.461   3.804   0.921
  379SOL    HW1 2036   5.433   3.737   0.852
  379SOL    HW2 2037   5.430   3.895   0.893
  380SOL     OW 2038   1.673   1.793   1.227
  380SOL    HW1 2039   1.574   1.797   1.215
  380SOL    HW2 2040   1.694   1.752   1.316
  381SOL     OW 2041   3.300   4.126   0.765
  381SOL    HW1 2042   3.202   4.106   0.759
  381SOL    HW2 2043   3.344   4.100   0.679
  382SOL     OW 2044   3.205   5.972   0.812
  382SOL    HW1 2045   3.179   5.905   0.743
  382SOL    HW2 2046   3.132   5.980   0.880
  383SOL     OW 2047   6.477   2.628   0.334
  383SOL    HW1 2048   6.466   2.652   0.431
  383SOL    HW2 2049   6.449   2.704   0.277
  384SOL     OW 2050   1.065   5.404   4.574
  384SOL    HW1 2051   1.023   5.369   4.490
  384SOL    HW2 2052   1.163   5.383   4.573
  385SOL     OW 2053   4.440   6.253   0.271
  385SOL    HW1 2054   4.426   6.249   0.172
  385SOL    HW2 2055   4.352   6.239   0.317
  386SOL     OW 2056   3.611   6.349   5.602
  386SOL    HW1 2057   3.516   6.321   5.596
  386SOL    HW2 2058   3.641   6.388   5.515
  387SOL     OW 2059   0.294   0.802   5.566
  387SOL    HW1 2060   0.202   0.808   5.528
  387SOL    HW2 2061   0.348   0.738   5.512
  388SOL     OW 2062   0.001   2.448   5.148
  388SOL    HW1 2063   6.947   2.392   5.117
  388SOL    HW2 2064   6.992   2.541   5.166
  389SOL     OW 2065   4.347   4.774   1.342
  389SOL    HW1 2066   4.347   4.821   1.431
  389SOL    HW2 2067   4.259   4.785   1.298
  390SOL     OW 2068   3.335   1.925   0.509
  390SOL    HW1 2069   3.354   1.828   0.494
  390SOL    HW2 2070   3.316   1.970   0.421
  391SOL     OW 2071   2.892   4.045   6.141
  391SOL    HW1 2072   2.948   4.122   6.108
  391SOL    HW2 2073   2.870   3.984   6.065
  392SOL     OW 2074   1.199   3.438   1.724
  392SOL    HW1 2075   1.292   3.405   1.708
  392SOL    HW2 2076   1.161   3.393   1.805
  393SOL     OW 2077   1.026   4.543   1.298
  393SOL    HW1 2078   0.984   4.480   1.363
  393SOL    HW2 2079   1.101   4.497   1.250
  394SOL     OW 2080   6.673   1.213   6.305
  394SOL    HW1 2081   6.580   1.216   6.269
  394SOL    HW2 2082   6.693   1.297   6.356
  395SOL     OW 2083   5.563   4.664   1.117
  395SOL    HW1 2084   5.643   4.633   1.168
  395SOL    HW2 2085   5.551   4.762   1.129
  396SOL     OW 2086   2.813   1.379   2.679
  396SOL    HW1 2087   2.829   1.311   2.751
  396SOL    HW2 2088   2.750   1.449   2.713
  397SOL     OW 2089   4.154   1.751   5.252
  397SOL    HW1 2090   4.144   1.660   5.211
  397SOL    HW2 2091   4.073   1.806   5.230
  398SOL     OW 2092   2.405   1.097   4.326
  398SOL    HW1 2093   2.503   1.113   4.341
  398SOL    HW2 2094   2.385   1.105   4.228
  399SOL     OW 2095   5.803   6.246   3.908
  399SOL    HW1 2096   5.721   6.272   3.959
  399SOL    HW2 2097   5.788   6.261   3.811
  400SOL     OW 2098   6.704   0.680   4.782
  400SOL    HW1 2099   6.609   0.710   4.790
  400SOL    HW2 2100   6.714   0.590   4.824
  401SOL     OW 2101   6.822   5.531   5.842
  401SOL    HW1 2102   6.849   5.489   5.929
  401SOL    HW2 2103   6.850   5.627   5.840
  402SOL     OW 2104   0.002   0.607   2.266
  402SOL    HW1 2105   0.058   0.548   2.207
  402SOL    HW2 2106   6.955   0.652   2.211
  403SOL     OW 2107   2.527   0.963   5.573
  403SOL    HW1 2108   2.483   1.051   5.590
  403SOL    HW2 2109   2.507   0.933   5.479
  404SOL     OW 2110   4.047   4.937   3.900
  404SOL    HW1 2111   4.085   4.883   3.825
  404SOL    HW2 2112   4.113   4.943   3.975
  405SOL     OW 2113   2.879   4.865   3.892
  405SOL    HW1 2114   2.978   4.871   3.905
  405SOL    HW2 2115   2.859   4.799   3.820
  406SOL     OW 2116   0.569   5.665   6.179
  406SOL    HW1 2117   0.627   5.713   6.113
  406SOL    HW2 2118   0.551   5.572   6.146
  407SOL     OW 2119   2.045   3.117   4.737
  407SOL    HW1 2120   2.032   3.216   4.741
  407SOL    HW2 2121   2.074   3.084   4.827
  408SOL     OW 2122   3.002   1.247   3.786
  408SOL    HW1 2123   2.904   1.256   3.767
  408SOL    HW2 2124   3.050   1.327   3.750
  409SOL     OW 2125   1.052   3.631   2.668
  409SOL    HW1 2126   1.136   3.651   2.719
  409SOL    HW2 2127   0.989   3.707   2.677
  410SOL     OW 2128   1.842   2.122   1.463
  410SOL    HW1 2129   1.756   2.102   1.415
  410SOL    HW2 2130   1.909   2.051   1.443
  411SOL     OW 2131   0.872   2.390   1.266
  411SOL    HW1 2132   0.892   2.371   1.170
  411SOL    HW2 2133   0.958   2.394   1.317
  412SOL     OW 2134   1.805   4.900   1.616
  412SOL    HW1 2135   1.737   4.924   1.547
  412SOL    HW2 2136   1.798   4.803   1.636
  413SOL     OW 2137   5.039   5.293   2.962
  413SOL    HW1 2138   5.112   5.356   2.936
  413SOL    HW2 2139   5.071   5.199   2.949
  414SOL     OW 2140   2.519   6.212   3.530
  414SOL    HW1 2141   2.552   6.257   3.613
  414SOL    HW2 2142   2.586   6.145   3.499
  415SOL     OW 2143   6.679   0.834   0.767
  415SOL    HW1 2144   6.756   0.781   0.802
  415SOL    HW2 2145   6.607   0.771   0.737
  416SOL     OW 2146   4.914   3.222   4.782
  416SOL    HW1 2147   4.861   3.193   4.862
  416SOL    HW2 2148   4.898   3.157   4.707
  417SOL     OW 2149   3.522   2.095   5.919
  417SOL    HW1 2150   3.424   2.098   5.941
  417SOL    HW2 2151   3.533   2.103   5.820
  418SOL     OW 2152   3.915   5.639   4.671
  418SOL    HW1 2153   3.984   5.590   4.618
  418SOL    HW2 2154   3.825   5.626   4.630
  419SOL     OW 2155   1.021   6.716   1.457
  419SOL    HW1 2156   1.105   6.721   1.511
  419SOL    HW2 2157   1.042   6.728   1.360
  420SOL     OW 2158   5.132   1.476   6.082
  420SOL    HW1 2159   5.207   1.503   6.021
  420SOL    HW2 2160   5.066   1.422   6.031
  421SOL     OW 2161   5.369   3.313   2.250
  421SOL    HW1 2162   5.350   3.407   2.222
  421SOL    HW2 2163   5.397   3.311   2.346
  422SOL     OW 2164   4.977   3.256   1.653
  422SOL    HW1 2165   4.968   3.208   1.740
  422SOL    HW2 2166   4.890   3.252   1.603
  423SOL     OW 2167   3.505   1.460   6.543
  423SOL    HW1 2168   3.550   1.398   6.607
  423SOL    HW2 2169   3.546   1.449   6.452
  424SOL     OW 2170   1.166   3.582   3.247
  424SOL    HW1 2171   1.208   3.654   3.303
  424SOL    HW2 2172   1.237   3.529   3.202
  425SOL     OW 2173   2.435   0.877   5.029
  425SOL    HW1 2174   2.503   0.873   5.103
  425SOL    HW2 2175   2.422   0.972   5.001
  426SOL     OW 2176   2.502   2.514   4.379
  426SOL    HW1 2177   2.547   2.532   4.291
  426SOL    HW2 2178   2.440   2.590   4.401
  427SOL     OW 2179   3.564   2.066   3.185
  427SOL    HW1 2180   3.544   2.097   3.278
  427SOL    HW2 2181   3.491   2.005   3.154
  428SOL     OW 2182   2.494   1.793   5.969
  428SOL    HW1 2183   2.433   1.828   6.040
  428SOL    HW2 2184   2.515   1.867   5.904
  429SOL     OW 2185   1.342   5.844   3.761
  429SOL    HW1 2186   1.284   5.924   3.774
  429SOL    HW2 2187   1.313   5.795   3.678
  430SOL     OW 2188   1.770   0.167   3.690
  430SOL    HW1 2189   1.857   0.195   3.649
  430SOL    HW2 2190   1.697   0.175   3.622
  431SOL     OW 2191   3.109   1.672   1.735
  431SOL    HW1 2192   3.155   1.716   1.812
  431SOL    HW2 2193   3.148   1.706   1.649
  432SOL     OW 2194   4.138   2.156   2.166
  432SOL    HW1 2195   4.222   2.151   2.112
  432SOL    HW2 2196   4.062   2.179   2.105
  433SOL     OW 2197   2.411   5.703   0.482
  433SOL    HW1 2198   2.488   5.644   0.460
  433SOL    HW2 2199   2.396   5.767   0.406
  434SOL     OW 2200   4.039   6.191   3.565
  434SOL    HW1 2201   4.107   6.258   3.596
  434SOL    HW2 2202   4.086   6.116   3.518
  435SOL     OW 2203   3.090   1.649   6.369
  435SOL    HW1 2204   3.170   1.671   6.425
  435SOL    HW2 2205   3.119   1.595   6.290
  436SOL     OW 2206   5.154   0.166   2.787
  436SOL    HW1 2207   5.062   0.186   2.754
  436SOL    HW2 2208   5.149   0.126   2.879
  437SOL     OW 2209   6.959   0.546   5.056
  437SOL    HW1 2210   6.950   0.447   5.053
  437SOL    HW2 2211   0.027   0.572   5.025
  438SOL     OW 2212   0.296   4.587   2.833
  438SOL    HW1 2213   0.337   4.571   2.922
  438SOL    HW2 2214   0.358   4.556   2.761
  439SOL     OW 2215   6.469   0.279   4.085
  439SOL    HW1 2216   6.524   0.210   4.133
  439SOL    HW2 2217   6.376   0.245   4.074
  440SOL     OW 2218   4.142   0.902   0.775
  440SOL    HW1 2219   4.158   0.803   0.776
  440SOL    HW2 2220   4.063   0.923   0.717
  441SOL     OW 2221   0.205   4.106   2.508
  441SOL    HW1 2222   0.237   4.044   2.436
  441SOL    HW2 2223   0.148   4.177   2.467
  442SOL     OW 2224   5.419   3.223   5.944
  442SOL    HW1 2225   5.400   3.170   5.861
  442SOL    HW2 2226   5.516   3.249   5.944
  443SOL     OW 2227   5.063   3.330   2.361
  443SOL    HW1 2228   5.005   3.248   2.358
  443SOL    HW2 2229   5.156   3.304   2.387
  444SOL     OW 2230   4.009   0.779   1.447
  444SOL    HW1 2231   3.943   0.713   1.483
  444SOL    HW2 2232   3.982   0.871   1.473
  445SOL     OW 2233   1.411   5.902   2.155
  445SOL    HW1 2234   1.483   5.931   2.093
  445SOL    HW2 2235   1.440   5.819   2.204
  446SOL     OW 2236   5.470   0.139   1.414
  446SOL    HW1 2237   5.413   0.218   1.438
  446SOL    HW2 2238   5.536   0.165   1.344
  447SOL     OW 2239   6.477   4.170   0.542
  447SOL    HW1 2240   6.437   4.259   0.561
  447SOL    HW2 2241   6.438   4.133   0.458
  448SOL     OW 2242   2.969   6.863   3.227
  448SOL    HW1 2243   3.049   6.810   3.199
  448SOL    HW2 2244   2.927   6.821   3.307
  449SOL     OW 2245   1.769   3.644   5.126
  449SOL    HW1 2246   1.789   3.632   5.223
  449SOL    HW2 2247   1.687   3.700   5.115
  450SOL     OW 2248   0.690   5.024   3.457
  450SOL    HW1 2249   0.667   5.077   3.539
  450SOL    HW2 2250   0.731   4.937   3.483
  451SOL     OW 2251   0.556   2.281   2.476
  451SOL    HW1 2252   0.648   2.243   2.474
  451SOL    HW2 2253   0.519   2.275   2.569
  452SOL     OW 2254   4.929   5.531   2.107
  452SOL    HW1 2255   4.954   5.564   2.016
  452SOL    HW2 2256   4.844   5.478   2.101
  453SOL     OW 2257   3.570   0.302   6.323
  453SOL    HW1 2258   3.566   0.386   6.269
  453SOL    HW2 2259   3.584   0.224   6.262
  454SOL     OW 2260   6.664   3.331   6.685
  454SOL    HW1 2261   6.750   3.281   6.679
  454SOL    HW2 2262   6.667   3.408   6.621
  455SOL     OW 2263   6.077   4.525   6.558
  455SOL    HW1 2264   6.107   4.578   6.637
  455SOL    HW2 2265   6.073   4.584   6.477
  456SOL     OW 2266   3.145   0.804   2.366
  456SOL    HW1 2267   3.137   0.767   2.274
  456SOL    HW2 2268   3.092   0.889   2.373
  457SOL     OW 2269   2.608   0.502   6.992
  457SOL    HW1 2270   2.546   0.478   6.917
  457SOL    HW2 2271   2.687   0.440   6.991
  458SOL     OW 2272   3.027   0.949   3.449
  458SOL    HW1 2273   3.071   0.874   3.400
  458SOL    HW2 2274   2.969   1.000   3.386
  459SOL     OW 2275   3.325   0.248   4.151
  459SOL    HW1 2276   3.378   0.238   4.234
  459SOL    HW2 2277   3.285   0.160   4.125
  460SOL     OW 2278   1.312   1.452   5.991
  460SOL    HW1 2279   1.389   1.459   5.928
  460SOL    HW2 2280   1.326   1.374   6.053
  461SOL     OW 2281   0.680   4.860   5.832
  461SOL    HW1 2282   0.623   4.783   5.859
  461SOL    HW2 2283   0.645   4.899   5.746
  462SOL     OW 2284   2.989   3.884   5.133
  462SOL    HW1 2285   2.952   3.972   5.103
  462SOL    HW2 2286   3.089   3.886   5.127
  463SOL     OW 2287   5.569   6.642   2.786
  463SOL    HW1 2288   5.561   6.689   2.698
  463SOL    HW2 2289   5.517   6.557   2.784
  464SOL     OW 2290   3.830   5.297   5.989
  464SOL    HW1 2291   3.887   5.371   5.954
  464SOL    HW2 2292   3.804   5.237   5.914
  465SOL     OW 2293   0.843   3.576   0.896
  465SOL    HW1 2294   0.764   3.602   0.953
  465SOL    HW2 2295   0.905   3.654   0.889
  466SOL     OW 2296   4.151   5.273   4.680
  466SOL    HW1 2297   4.130   5.359   4.632
  466SOL    HW2 2298   4.228   5.288   4.742
  467SOL     OW 2299   6.533   0.246   1.548
  467SOL    HW1 2300   6.536   0.167   1.610
  467SOL    HW2 2301   6.618   0.249   1.494
  468SOL     OW 2302   3.252   0.027   6.339
  468SOL    HW1 2303   3.283   0.120   6.357
  468SOL    HW2 2304   3.276   0.002   6.245
  469SOL     OW 2305   2.984   4.924   5.982
  469SOL    HW1 2306   2.984   4.824   5.975
  469SOL    HW2 2307   3.078   4.958   5.971
  470SOL     OW 2308   2.030   5.084   2.809
  470SOL    HW1 2309   1.957   5.016   2.814
  470SOL    HW2 2310   2.063   5.105   2.901
  471SOL     OW 2311   1.895   2.300   4.424
  471SOL    HW1 2312   1.899   2.398   4.443
  471SOL    HW2 2313   1.830   2.284   4.349
  472SOL     OW 2314   5.865   3.887   6.431
  472SOL    HW1 2315   5.930   3.899   6.507
  472SOL    HW2 2316   5.795   3.821   6.457
  473SOL     OW 2317   6.710   2.807   2.006
  473SOL    HW1 2318   6.771   2.728   2.013
  473SOL    HW2 2319   6.756   2.888   2.045
  474SOL     OW 2320   5.218   6.187   3.689
  474SOL    HW1 2321   5.192   6.236   3.772
  474SOL    HW2 2322   5.212   6.089   3.706
  475SOL     OW 2323   5.862   1.852   0.625
  475SOL    HW1 2324   5.794   1.834   0.696
  475SOL    HW2 2325   5.843   1.941   0.583
  476SOL     OW 2326   0.875   4.785   1.511
  476SOL    HW1 2327   0.869   4.858   1.579
  476SOL    HW2 2328   0.971   4.762   1.495
  477SOL     OW 2329   1.765   4.298   3.958
  477SOL    HW1 2330   1.670   4.282   3.983
  477SOL    HW2 2331   1.786   4.395   3.967
  478SOL     OW 2332   5.377   6.093   2.121
  478SOL    HW1 2333   5.298   6.154   2.125
  478SOL    HW2 2334   5.358   6.010   2.174
  479SOL     OW 2335   3.373   3.847   3.636
  479SOL    HW1 2336   3.435   3.806   3.703
  479SOL    HW2 2337   3.306   3.780   3.606
  480SOL     OW 2338   2.256   0.644   2.908
  480SOL    HW1 2339   2.271   0.545   2.907
  480SOL    HW2 2340   2.326   0.688   2.964
  481SOL     OW 2341   0.064   6.941   0.696
  481SOL    HW1 2342   0.001   6.934   0.619
  481SOL    HW2 2343   0.107   0.008   0.695
  482SOL     OW 2344   4.115   5.266   1.359
  482SOL    HW1 2345   4.027   5.296   1.323
  482SOL    HW2 2346   4.152   5.193   1.303
  483SOL     OW 2347   5.315   2.039   3.749
  483SOL    HW1 2348   5.400   2.074   3.789
  483SOL    HW2 2349   5.330   1.946   3.716
  484SOL     OW 2350   1.949   4.967   4.777
  484SOL    HW1 2351   2.024   4.971   4.844
  484SOL    HW2 2352   1.974   5.019   4.696
  485SOL     OW 2353   5.340   3.412   1.907
  485SOL    HW1 2354   5.369   3.353   1.832
  485SOL    HW2 2355   5.240   3.404   1.918
  486SOL     OW 2356   6.222   6.383   6.800
  486SOL    HW1 2357   6.204   6.385   6.702
  486SOL    HW2 2358   6.244   6.476   6.831
  487SOL     OW 2359   6.794   6.853   6.001
  487SOL    HW1 2360   6.804   6.757   5.974
  487SOL    HW2 2361   6.703   6.867   6.041
  488SOL     OW 2362   1.935   6.386   2.794
  488SOL    HW1 2363   1.988   6.343   2.721
  488SOL    HW2 2364   1.959   6.483   2.799
  489SOL     OW 2365   1.212   5.919   6.333
  489SOL    HW1 2366   1.179   5.854   6.264
  489SOL    HW2 2367   1.278   5.873   6.393
  490SOL     OW 2368   1.016   3.893   4.948
  490SOL    HW1 2369   1.017   3.962   4.876
  490SOL    HW2 2370   1.085   3.823   4.928
  491SOL     OW 2371   0.514   2.510   0.898
  491SOL    HW1 2372   0.566   2.526   0.982
  491SOL    HW2 2373   0.576   2.514   0.820
  492SOL     OW 2374   1.583   2.294   5.986
  492SOL    HW1 2375   1.570   2.393   5.980
  492SOL    HW2 2376   1.641   2.264   5.910
  493SOL     OW 2377   2.462   5.641   4.808
  493SOL    HW1 2378   2.371   5.674   4.786
  493SOL    HW2 2379   2.456   5.572   4.880
  494SOL     OW 2380   2.509   6.388   4.909
  494SOL    HW1 2381   2.433   6.372   4.847
  494SOL    HW2 2382   2.566   6.462   4.873
  495SOL     OW 2383   3.812   4.130   5.853
  495SOL    HW1 2384   3.739   4.142   5.786
  495SOL    HW2 2385   3.891   4.088   5.808
  496SOL     OW 2386   4.699   1.430   3.302
  496SOL    HW1 2387   4.671   1.347   3.253
  496SOL    HW2 2388   4.795   1.450   3.282
  497SOL     OW 2389   4.201   1.901   0.148
  497SOL    HW1 2390   4.237   1.814   0.114
  497SOL    HW2 2391   4.262   1.976   0.120
  498SOL     OW 2392   0.783   6.669   1.613
  498SOL    HW1 2393   0.867   6.692   1.562
  498SOL    HW2 2394   0.703   6.687   1.555
  499SOL     OW 2395   3.185   5.913   6.688
  499SOL    HW1 2396   3.276   5.953   6.693
  499SOL    HW2 2397   3.142   5.914   6.778
  500SOL     OW 2398   5.960   2.170   0.686
  500SOL    HW1 2399   5.929   2.123   0.603
  500SOL    HW2 2400   6.055   2.144   0.706
  501SOL     OW 2401   0.990   1.048   4.228
  501SOL    HW1 2402   1.076   1.047   4.279
  501SOL    HW2 2403   0.986   1.131   4.172
  502SOL     OW 2404   1.977   5.155   6.627
  502SOL    HW1 2405   1.937   5.179   6.716
  502SOL    HW2 2406   2.053   5.091   6.641
  503SOL     OW 2407   3.732   4.928   6.908
  503SOL    HW1 2408   3.711   4.831   6.910
  503SOL    HW2 2409   3.656   4.978   6.867
  504SOL     OW 2410   6.062   6.608   1.544
  504SOL    HW1 2411   6.124   6.672   1.589
  504SOL    HW2 2412   6.107   6.520   1.534
  505SOL     OW 2413   4.805   6.551   4.870
  505SOL    HW1 2414   4.732   6.583   4.810
  505SOL    HW2 2415   4.776   6.561   4.965
  506SOL     OW 2416   4.188   5.035   2.708
  506SOL    HW1 2417   4.183   4.936   2.692
  506SOL    HW2 2418   4.187   5.053   2.806
  507SOL     OW 2419   3.168   1.195   0.687
  507SOL    HW1 2420   3.119   1.119   0.730
  507SOL    HW2 2421   3.262   1.167   0.666
  508SOL     OW 2422   7.021   4.682   3.261
  508SOL    HW1 2423   6.976   4.647   3.343
  508SOL    HW2 2424   6.954   4.687   3.187
  509SOL     OW 2425   4.539   6.749   6.454
  509SOL    HW1 2426   4.631   6.766   6.490
  509SOL    HW2 2427   4.532   6.786   6.361
  510SOL     OW 2428   6.645   3.863   0.554
  510SOL    HW1 2429   6.581   3.857   0.630
  510SOL    HW2 2430   6.597   3.845   0.468
  511SOL     OW 2431   0.926   2.097   0.839
  511SOL    HW1 2432   0.943   2.137   0.749
  511SOL    HW2 2433   1.001   2.035   0.862
  512SOL     OW 2434   0.223   1.960   5.203
  512SOL    HW1 2435   0.178   2.039   5.246
  512SOL    HW2 2436   0.284   1.917   5.269
  513SOL     OW 2437   5.454   1.099   3.111
  513SOL    HW1 2438   5.381   1.031   3.106
  513SOL    HW2 2439   5.496   1.097   3.202
  514SOL     OW 2440   6.375   6.996   4.683
  514SOL    HW1 2441   6.441   6.960   4.748
  514SOL    HW2 2442   6.367   6.933   4.605
  515SOL     OW 2443   4.013   0.716   5.797
  515SOL    HW1 2444   4.088   0.669   5.750
  515SOL    HW2 2445   3.949   0.649   5.834
  516SOL     OW 2446   2.272   6.105   1.425
  516SOL    HW1 2447   2.315   6.195   1.418
  516SOL    HW2 2448   2.338   6.040   1.463
  517SOL     OW 2449   3.797   5.758   0.907
  517SOL    HW1 2450   3.701   5.768   0.880
  517SOL    HW2 2451   3.820   5.827   0.975
  518SOL     OW 2452   2.115   3.469   3.792
  518SOL    HW1 2453   2.017   3.471   3.810
  518SOL    HW2 2454   2.133   3.508   3.702
  519SOL     OW 2455   0.329   0.273   2.893
  519SOL    HW1 2456   0.263   0.309   2.828
  519SOL    HW2 2457   0.289   0.196   2.943
  520SOL     OW 2458   0.922   3.272   0.512
  520SOL    HW1 2459   1.022   3.277   0.514
  520SOL    HW2 2460   0.889   3.245   0.603
  521SOL     OW 2461   6.440   6.059   5.271
  521SOL    HW1 2462   6.357   6.040   5.220
  521SOL    HW2 2463   6.502   5.981   5.265
  522SOL     OW 2464   3.666   3.949   1.628
  522SOL    HW1 2465   3.684   4.045   1.644
  522SOL    HW2 2466   3.680   3.897   1.712
  523SOL     OW 2467   1.026   0.205   1.127
  523SOL    HW1 2468   0.984   0.133   1.073
  523SOL    HW2 2469   1.100   0.166   1.183
  524SOL     OW 2470   6.951   2.277   1.893
  524SOL    HW1 2471   7.012   2.241   1.822
  524SOL    HW2 2472   6.871   2.319   1.850
  525SOL     OW 2473   1.389   3.153   5.562
  525SOL    HW1 2474   1.326   3.163   5.639
  525SOL    HW2 2475   1.483   3.168   5.593
  526SOL     OW 2476   3.003   6.735   4.458
  526SOL    HW1 2477   2.986   6.637   4.448
  526SOL    HW2 2478   2.971   6.784   4.377
  527SOL     OW 2479   0.476   0.898   0.573
  527SOL    HW1 2480   0.499   0.884   0.669
  527SOL    HW2 2481   0.508   0.820   0.519
  528SOL     OW 2482   6.747   3.276   3.973
  528SOL    HW1 2483   6.724   3.293   3.877
  528SOL    HW2 2484   6.756   3.177   3.988
  529SOL     OW 2485   1.651   1.050   0.269
  529SOL    HW1 2486   1.720   1.020   0.334
  529SOL    HW2 2487   1.687   1.126   0.215
  530SOL     OW 2488   4.437   3.832   0.739
  530SOL    HW1 2489   4.469   3.868   0.826
  530SOL    HW2 2490   4.430   3.906   0.673
  531SOL     OW 2491   1.165   0.940   1.037
  531SOL    HW1 2492   1.246   0.880   1.035
  531SOL    HW2 2493   1.091   0.893   1.086
  532SOL     OW 2494   2.057   2.423   0.644
  532SOL    HW1 2495   2.008   2.495   0.594
  532SOL    HW2 2496   2.079   2.455   0.736
  533SOL     OW 2497   4.049   0.462   4.334
  533SOL    HW1 2498   4.036   0.561   4.326
  533SOL    HW2 2499   4.054   0.436   4.430
  534SOL     OW 2500   1.808   5.093   1.134
  534SOL    HW1 2501   1.847   5.100   1.226
  534SOL    HW2 2502   1.710   5.111   1.138
  535SOL     OW 2503   5.229   3.461   3.639
  535SOL    HW1 2504   5.166   3.431   3.711
  535SOL    HW2 2505   5.209   3.556   3.616
  536SOL     OW 2506   6.916   6.604   2.385
  536SOL    HW1 2507   6.854   6.675   2.419
  536SOL    HW2 2508   6.951   6.630   2.295
  537SOL     OW 2509   3.998   1.565   4.136
  537SOL    HW1 2510   3.927   1.558   4.206
  537SOL    HW2 2511   4.062   1.488   4.145
  538SOL     OW 2512   2.840   4.674   5.676
  538SOL    HW1 2513   2.871   4.644   5.586
  538SOL    HW2 2514   2.749   4.715   5.668
  539SOL     OW 2515   1.246   0.108   0.559
  539SOL    HW1 2516   1.172   0.128   0.624
  539SOL    HW2 2517   1.237   0.169   0.480
  540SOL     OW 2518   0.912   0.398   4.307
  540SOL    HW1 2519   0.835   0.422   4.366
  540SOL    HW2 2520   0.883   0.399   4.212
  541SOL     OW 2521   4.406   5.612   4.654
  541SOL    HW1 2522   4.399   5.632   4.752
  541SOL    HW2 2523   4.478   5.545   4.639
  542SOL     OW 2524   3.278   0.506   5.893
  542SOL    HW1 2525   3.352   0.572   5.882
  542SOL    HW2 2526   3.279   0.471   5.987
  543SOL     OW 2527   6.154   2.198   4.133
  543SOL    HW1 2528   6.056   2.213   4.147
  543SOL    HW2 2529   6.195   2.159   4.215
  544SOL     OW 2530   1.553   3.882   1.375
  544SOL    HW1 2531   1.562   3.981   1.370
  544SOL    HW2 2532   1.514   3.848   1.289
  545SOL     OW 2533   5.526   1.220   0.935
  545SOL    HW1 2534   5.448   1.160   0.951
  545SOL    HW2 2535   5.603   1.191   0.992
  546SOL     OW 2536   0.398   4.195   2.737
  546SOL    HW1 2537   0.367   4.127   2.671
  546SOL    HW2 2538   0.320   4.243   2.776
  547SOL     OW 2539   4.596   1.287   5.965
  547SOL    HW1 2540   4.606   1.376   5.920
  547SOL    HW2 2541   4.637   1.291   6.056
  548SOL     OW 2542   3.638   2.587   6.739
  548SOL    HW1 2543   3.620   2.528   6.660
  548SOL    HW2 2544   3.736   2.587   6.759
  549SOL     OW 2545   6.119   1.475   1.389
  549SOL    HW1 2546   6.210   1.506   1.363
  549SOL    HW2 2547   6.050   1.535   1.349
  550SOL     OW 2548   0.004   5.270   3.392
  550SOL    HW1 2549   0.079   5.271   3.459
  550SOL    HW2 2550   0.038   5.301   3.303
  551SOL     OW 2551   6.381   0.780   0.404
  551SOL    HW1 2552   6.415   0.686   0.395
  551SOL    HW2 2553   6.291   0.779   0.448
  552SOL     OW 2554   6.101   5.148   5.562
  552SOL    HW1 2555   6.163   5.072   5.578
  552SOL    HW2 2556   6.116   5.218   5.632
  553SOL     OW 2557   3.105   1.047   6.079
  553SOL    HW1 2558   3.064   1.131   6.042
  553SOL    HW2 2559   3.156   1.001   6.007
  554SOL     OW 2560   5.958   6.189   0.931
  554SOL    HW1 2561   6.017   6.223   0.857
  554SOL    HW2 2562   6.010   6.125   0.988
  555SOL     OW 2563   1.466   3.970   5.688
  555SOL    HW1 2564   1.519   3.888   5.670
  555SOL    HW2 2565   1.382   3.946   5.737
  556SOL     OW 2566   5.290   0.294   4.107
  556SOL    HW1 2567   5.254   0.269   4.197
  556SOL    HW2 2568   5.357   0.368   4.118
  557SOL     OW 2569   6.651   4.457   6.703
  557SOL    HW1 2570   6.734   4.404   6.718
  557SOL    HW2 2571   6.582   4.433   6.771
  558SOL     OW 2572   3.062   3.994   2.365
  558SOL    HW1 2573   3.030   3.900   2.376
  558SOL    HW2 2574   3.081   4.034   2.455
  559SOL     OW 2575   6.244   6.526   5.670
  559SOL    HW1 2576   6.257   6.625   5.657
  559SOL    HW2 2577   6.147   6.507   5.687
  560SOL     OW 2578   6.332   3.278   3.034
  560SOL    HW1 2579   6.239   3.278   3.072
  560SOL    HW2 2580   6.375   3.189   3.049
  561SOL     OW 2581   0.691   2.965   6.959
  561SOL    HW1 2582   0.713   2.993   0.030
  561SOL    HW2 2583   0.613   3.018   6.926
  562SOL     OW 2584   4.287   0.506   5.333
  562SOL    HW1 2585   4.203   0.476   5.377
  562SOL    HW2 2586   4.295   0.462   5.244
  563SOL     OW 2587   2.166   1.634   4.306
  563SOL    HW1 2588   2.245   1.608   4.362
  563SOL    HW2 2589   2.085   1.588   4.340
  564SOL     OW 2590   6.860   2.137   5.453
  564SOL    HW1 2591   6.795   2.205   5.419
  564SOL    HW2 2592   6.877   2.154   5.550
  565SOL     OW 2593   4.059   3.367   3.438
  565SOL    HW1 2594   4.120   3.430   3.486
  565SOL    HW2 2595   4.024   3.299   3.503
  566SOL     OW 2596   3.512   6.831   3.085
  566SOL    HW1 2597   3.565   6.828   3.000
  566SOL    HW2 2598   3.464   6.918   3.091
  567SOL     OW 2599   2.006   3.145   6.786
  567SOL    HW1 2600   2.090   3.170   6.737
  567SOL    HW2 2601   1.930   3.142   6.722
  568SOL     OW 2602   6.803   6.412   0.430
  568SOL    HW1 2603   6.777   6.471   0.506
  568SOL    HW2 2604   6.737   6.338   0.420
  569SOL     OW 2605   6.312   2.433   0.746
  569SOL    HW1 2606   6.408   2.429   0.773
  569SOL    HW2 2607   6.255   2.407   0.825
  570SOL     OW 2608   2.230   0.558   5.525
  570SOL    HW1 2609   2.291   0.629   5.558
  570SOL    HW2 2610   2.281   0.494   5.466
  571SOL     OW 2611   2.335   5.092   2.365
  571SOL    HW1 2612   2.282   5.045   2.435
  571SOL    HW2 2613   2.430   5.061   2.368
  572SOL     OW 2614   2.667   6.710   3.786
  572SOL    HW1 2615   2.643   6.613   3.781
  572SOL    HW2 2616   2.611   6.762   3.721
  573SOL     OW 2617   0.040   0.683   5.809
  573SOL    HW1 2618   0.117   0.627   5.840
  573SOL    HW2 2619   0.024   0.666   5.712
  574SOL     OW 2620   2.535   2.021   5.841
  574SOL    HW1 2621   2.497   1.996   5.752
  574SOL    HW2 2622   2.622   2.070   5.827
  575SOL     OW 2623   3.041   3.572   0.553
  575SOL    HW1 2624   3.066   3.628   0.474
  575SOL    HW2 2625   3.119   3.516   0.581
  576SOL     OW 2626   2.155   2.920   2.494
  576SOL    HW1 2627   2.176   2.980   2.416
  576SOL    HW2 2628   2.135   2.976   2.574
  577SOL     OW 2629   0.930   1.138   2.010
  577SOL    HW1 2630   0.843   1.182   2.034
  577SOL    HW2 2631   0.967   1.180   1.927
  578SOL     OW 2632   2.209   6.433   6.737
  578SOL    HW1 2633   2.247   6.519   6.769
  578SOL    HW2 2634   2.140   6.401   6.801
  579SOL     OW 2635   2.394   4.789   1.941
  579SOL    HW1 2636   2.320   4.776   2.007
  579SOL    HW2 2637   2.444   4.703   1.930
  580SOL     OW 2638   4.366   5.324   4.855
  580SOL    HW1 2639   4.332   5.284   4.940
  580SOL    HW2 2640   4.449   5.376   4.875
  581SOL     OW 2641   1.754   2.885   4.384
  581SOL    HW1 2642   1.770   2.845   4.294
  581SOL    HW2 2643   1.836   2.934   4.413
  582SOL     OW 2644   6.055   5.636   3.589
  582SOL    HW1 2645   6.016   5.628   3.680
  582SOL    HW2 2646   5.995   5.690   3.531
  583SOL     OW 2647   3.562   5.372   5.832
  583SOL    HW1 2648   3.570   5.436   5.909
  583SOL    HW2 2649   3.639   5.309   5.834
  584SOL     OW 2650   4.455   0.940   6.035
  584SOL    HW1 2651   4.448   1.009   5.964
  584SOL    HW2 2652   4.472   0.985   6.123
  585SOL     OW 2653   2.973   6.842   1.769
  585SOL    HW1 2654   2.935   6.932   1.792
  585SOL    HW2 2655   3.049   6.821   1.831
  586SOL     OW 2656   4.614   0.079   0.898
  586SOL    HW1 2657   4.679   0.084   0.973
  586SOL    HW2 2658   4.531   0.130   0.922
  587SOL     OW 2659   5.109   1.943   2.264
  587SOL    HW1 2660   5.200   1.985   2.259
  587SOL    HW2 2661   5.094   1.888   2.182
  588SOL     OW 2662   0.927   5.638   2.257
  588SOL    HW1 2663   0.829   5.649   2.274
  588SOL    HW2 2664   0.947   5.541   2.242
  589SOL     OW 2665   3.568   6.020   1.179
  589SOL    HW1 2666   3.495   6.074   1.137
  589SOL    HW2 2667   3.539   5.990   1.270
  590SOL     OW 2668   4.675   1.574   0.243
  590SOL    HW1 2669   4.706   1.575   0.338
  590SOL    HW2 2670   4.644   1.665   0.216
  591SOL     OW 2671   4.168   6.051   4.565
  591SOL    HW1 2672   4.217   5.994   4.630
  591SOL    HW2 2673   4.097   5.997   4.520
  592SOL     OW 2674   4.280   2.322   3.559
  592SOL    HW1 2675   4.244   2.330   3.652
  592SOL    HW2 2676   4.206   2.293   3.497
  593SOL     OW 2677   3.420   1.144   5.901
  593SOL    HW1 2678   3.437   1.199   5.819
  593SOL    HW2 2679   3.400   1.205   5.978
  594SOL     OW 2680   5.842   1.235   2.223
  594SOL    HW1 2681   5.752   1.275   2.240
  594SOL    HW2 2682   5.907   1.269   2.291
  595SOL     OW 2683   5.172   6.031   2.462
  595SOL    HW1 2684   5.210   5.946   2.425
  595SOL    HW2 2685   5.077   6.015   2.490
  596SOL     OW 2686   6.758   4.733   4.424
  596SOL    HW1 2687   6.659   4.732   4.405
  596SOL    HW2 2688   6.792   4.639   4.430
  597SOL     OW 2689   2.762   0.648   6.286
  597SOL    HW1 2690   2.836   0.705   6.322
  597SOL    HW2 2691   2.767   0.647   6.186
  598SOL     OW 2692   3.069   3.145   4.187
  598SOL    HW1 2693   3.151   3.125   4.239
  598SOL    HW2 2694   3.027   3.230   4.221
  599SOL     OW 2695   1.139   6.005   1.858
  599SOL    HW1 2696   1.238   6.012   1.847
  599SOL    HW2 2697   1.118   5.938   1.930
  600SOL     OW 2698   0.006   3.873   4.749
  600SOL    HW1 2699   0.099   3.895   4.776
  600SOL    HW2 2700   7.021   3.880   4.649
  601SOL     OW 2701   1.581   0.172   4.965
  601SOL    HW1 2702   1.664   0.169   4.908
  601SOL    HW2 2703   1.605   0.149   5.059
  602SOL     OW 2704   2.982   6.061   3.780
  602SOL    HW1 2705   3.066   6.099   3.819
  602SOL    HW2 2706   2.970   5.968   3.812
  603SOL     OW 2707   1.759   1.242   5.529
  603SOL    HW1 2708   1.747   1.211   5.623
  603SOL    HW2 2709   1.719   1.333   5.518
  604SOL     OW 2710   6.337   2.537   1.309
  604SOL    HW1 2711   6.295   2.447   1.321
  604SOL    HW2 2712   6.376   2.568   1.395
  605SOL     OW 2713   0.047   5.473   2.565
  605SOL    HW1 2714   0.082   5.564   2.590
  605SOL    HW2 2715   0.011   5.428   2.647
  606SOL     OW 2716   3.856   6.665   5.011
  606SOL    HW1 2717   3.934   6.613   4.976
  606SOL    HW2 2718   3.882   6.761   5.023
  607SOL     OW 2719   0.852   4.756   6.348
  607SOL    HW1 2720   0.888   4.818   6.278
  607SOL    HW2 2721   0.854   4.663   6.313
  608SOL     OW 2722   2.964   0.833   5.244
  608SOL    HW1 2723   3.048   0.783   5.224
  608SOL    HW2 2724   2.915   0.851   5.158
  609SOL     OW 2725   3.825   2.718   1.639
  609SOL    HW1 2726   3.849   2.810   1.669
  609SOL    HW2 2727   3.908   2.662   1.633
  610SOL     OW 2728   4.881   3.474   0.413
  610SOL    HW1 2729   4.955   3.407   0.410
  610SOL    HW2 2730   4.915   3.560   0.451
  611SOL     OW 2731   3.938   0.296   2.415
  611SOL    HW1 2732   3.880   0.373   2.442
  611SOL    HW2 2733   4.023   0.331   2.377
  612SOL     OW 2734   4.044   4.494   6.038
  612SOL    HW1 2735   3.964   4.441   6.068
  612SOL    HW2 2736   4.058   4.480   5.940
  613SOL     OW 2737   4.528   5.187   5.533
  613SOL    HW1 2738   4.482   5.259   5.586
  613SOL    HW2 2739   4.584   5.230   5.462
  614SOL     OW 2740   4.712   5.480   5.980
  614SOL    HW1 2741   4.656   5.562   5.992
  614SOL    HW2 2742   4.686   5.434   5.894
  615SOL     OW 2743   0.380   4.988   1.537
  615SOL    HW1 2744   0.285   4.960   1.547
  615SOL    HW2 2745   0.412   5.028   1.623
  616SOL     OW 2746   5.674   3.551   2.878
  616SOL    HW1 2747   5.581   3.523   2.901
  616SOL    HW2 2748   5.694   3.525   2.783
  617SOL     OW 2749   2.366   5.311   6.226
  617SOL    HW1 2750   2.396   5.218   6.250
  617SOL    HW2 2751   2.434   5.353   6.166
  618SOL     OW 2752   1.455   0.860   2.314
  618SOL    HW1 2753   1.520   0.870   2.238
  618SOL    HW2 2754   1.458   0.766   2.347
  619SOL     OW 2755   1.353   1.292   6.556
  619SOL    HW1 2756   1.262   1.305   6.594
  619SOL    HW2 2757   1.352   1.215   6.492
  620SOL     OW 2758   4.594   3.654   0.324
  620SOL    HW1 2759   4.688   3.681   0.301
  620SOL    HW2 2760   4.580   3.668   0.422
  621SOL     OW 2761   0.400   4.695   1.592
  621SOL    HW1 2762   0.434   4.760   1.661
  621SOL    HW2 2763   0.394   4.741   1.503
  622SOL     OW 2764   2.027   1.567   0.165
  622SOL    HW1 2765   2.080   1.486   0.191
  622SOL    HW2 2766   1.977   1.548   0.080
  623SOL     OW 2767   0.561   4.633   6.540
  623SOL    HW1 2768   0.638   4.569   6.531
  623SOL    HW2 2769   0.595   4.722   6.568
  624SOL     OW 2770   1.288   2.743   3.059
  624SOL    HW1 2771   1.244   2.716   2.974
  624SOL    HW2 2772   1.226   2.800   3.113
  625SOL     OW 2773   2.563   1.492   2.470
  625SOL    HW1 2774   2.582   1.544   2.553
  625SOL    HW2 2775   2.633   1.511   2.401
  626SOL     OW 2776   2.747   6.260   4.512
  626SOL    HW1 2777   2.699   6.202   4.446
  626SOL    HW2 2778   2.832   6.216   4.540
  627SOL     OW 2779   5.573   0.499   0.224
  627SOL    HW1 2780   5.521   0.437   0.282
  627SOL    HW2 2781   5.572   0.591   0.264
  628SOL     OW 2782   5.086   4.127   3.657
  628SOL    HW1 2783   4.995   4.107   3.622
  628SOL    HW2 2784   5.150   4.141   3.581
  629SOL     OW 2785   0.781   0.300   1.175
  629SOL    HW1 2786   0.785   0.364   1.251
  629SOL    HW2 2787   0.873   0.276   1.146
  630SOL     OW 2788   4.252   1.845   0.913
  630SOL    HW1 2789   4.162   1.848   0.956
  630SOL    HW2 2790   4.276   1.936   0.879
  631SOL     OW 2791   2.352   0.153   5.550
  631SOL    HW1 2792   2.417   0.182   5.619
  631SOL    HW2 2793   2.330   0.230   5.490
  632SOL     OW 2794   2.031   1.302   1.213
  632SOL    HW1 2795   2.007   1.388   1.168
  632SOL    HW2 2796   1.985   1.226   1.168
  633SOL     OW 2797   2.516   6.861   6.373
  633SOL    HW1 2798   2.531   6.930   6.444
  633SOL    HW2 2799   2.605   6.834   6.335
  634SOL     OW 2800   3.532   5.823   0.620
  634SOL    HW1 2801   3.458   5.804   0.556
  634SOL    HW2 2802   3.509   5.787   0.710
  635SOL     OW 2803   3.204   0.124   2.366
  635SOL    HW1 2804   3.228   0.035   2.327
  635SOL    HW2 2805   3.107   0.124   2.390
  636SOL     OW 2806   5.422   4.923   0.084
  636SOL    HW1 2807   5.339   4.868   0.089
  636SOL    HW2 2808   5.494   4.880   0.138
  637SOL     OW 2809   4.641   4.423   1.057
  637SOL    HW1 2810   4.721   4.452   1.005
  637SOL    HW2 2811   4.573   4.497   1.059
  638SOL     OW 2812   4.919   1.554   2.031
  638SOL    HW1 2813   4.943   1.495   1.954
  638SOL    HW2 2814   4.887   1.497   2.107
  639SOL     OW 2815   4.260   4.706   2.080
  639SOL    HW1 2816   4.318   4.625   2.087
  639SOL    HW2 2817   4.184   4.686   2.017
  640SOL     OW 2818   2.971   4.364   5.304
  640SOL    HW1 2819   3.043   4.380   5.372
  640SOL    HW2 2820   2.956   4.448   5.251
  641SOL     OW 2821   6.917   6.063   4.931
  641SOL    HW1 2822   6.857   6.049   5.010
  641SOL    HW2 2823   6.891   6.001   4.858
  642SOL     OW 2824   0.734   5.151   4.875
  642SOL    HW1 2825   0.817   5.164   4.928
  642SOL    HW2 2826   0.659   5.202   4.917
  643SOL     OW 2827   5.909   5.694   6.023
  643SOL    HW1 2828   5.980   5.631   6.055
  643SOL    HW2 2829   5.946   5.786   6.016
  644SOL     OW 2830   1.132   6.582   2.462
  644SOL    HW1 2831   1.160   6.489   2.487
  644SOL    HW2 2832   1.160   6.600   2.368
  645SOL     OW 2833   5.911   2.625   3.636
  645SOL    HW1 2834   6.005   2.655   3.654
  645SOL    HW2 2835   5.910   2.525   3.627
  646SOL     OW 2836   1.982   1.595   4.515
  646SOL    HW1 2837   1.939   1.527   4.455
  646SOL    HW2 2838   1.911   1.656   4.551
  647SOL     OW 2839   6.050   3.351   0.440
  647SOL    HW1 2840   6.103   3.270   0.464
  647SOL    HW2 2841   6.073   3.380   0.347
  648SOL     OW 2842   6.109   3.670   1.742
  648SOL    HW1 2843   6.088   3.661   1.645
  648SOL    HW2 2844   6.208   3.655   1.756
  649SOL     OW 2845   4.123   4.545   0.664
  649SOL    HW1 2846   4.038   4.548   0.613
  649SOL    HW2 2847   4.155   4.450   0.670
  650SOL     OW 2848   4.700   4.442   0.678
  650SOL    HW1 2849   4.798   4.425   0.666
  650SOL    HW2 2850   4.686   4.529   0.724
  651SOL     OW 2851   0.944   6.265   6.940
  651SOL    HW1 2852   0.978   6.264   0.011
  651SOL    HW2 2853   1.018   6.241   6.877
  652SOL     OW 2854   4.170   1.211   2.269
  652SOL    HW1 2855   4.212   1.237   2.182
  652SOL    HW2 2856   4.237   1.221   2.342
  653SOL     OW 2857   3.750   4.946   3.878
  653SOL    HW1 2858   3.698   4.940   3.964
  653SOL    HW2 2859   3.843   4.979   3.898
  654SOL     OW 2860   6.740   4.658   0.350
  654SOL    HW1 2861   6.651   4.701   0.337
  654SOL    HW2 2862   6.789   4.656   0.262
  655SOL     OW 2863   0.743   0.581   1.441
  655SOL    HW1 2864   0.793   0.653   1.488
  655SOL    HW2 2865   0.669   0.621   1.388
  656SOL     OW 2866   2.861   6.437   1.992
  656SOL    HW1 2867   2.849   6.359   2.054
  656SOL    HW2 2868   2.794   6.431   1.918
  657SOL     OW 2869   3.577   1.501   0.323
  657SOL    HW1 2870   3.604   1.408   0.347
  657SOL    HW2 2871   3.640   1.566   0.366
  658SOL     OW 2872   2.907   4.138   6.398
  658SOL    HW1 2873   2.854   4.223   6.389
  658SOL    HW2 2874   2.864   4.066   6.343
  659SOL     OW 2875   2.490   6.970   0.024
  659SOL    HW1 2876   2.493   6.963   6.948
  659SOL    HW2 2877   2.531   0.033   0.053
  660SOL     OW 2878   3.551   5.118   2.703
  660SOL    HW1 2879   3.567   5.028   2.662
  660SOL    HW2 2880   3.633   5.175   2.692
  661SOL     OW 2881   4.795   5.438   3.030
  661SOL    HW1 2882   4.717   5.378   3.045
  661SOL    HW2 2883   4.878   5.383   3.019
  662SOL     OW 2884   3.242   1.209   6.596
  662SOL    HW1 2885   3.169   1.249   6.650
  662SOL    HW2 2886   3.264   1.269   6.519
  663SOL     OW 2887   2.260   4.489   5.220
  663SOL    HW1 2888   2.256   4.578   5.176
  663SOL    HW2 2889   2.242   4.417   5.153
  664SOL     OW 2890   6.244   0.942   6.732
  664SOL    HW1 2891   6.181   0.966   6.806
  664SOL    HW2 2892   6.336   0.933   6.769
  665SOL     OW 2893   2.375   5.750   2.998
  665SOL    HW1 2894   2.466   5.711   3.012
  665SOL    HW2 2895   2.312   5.680   2.966
  666SOL     OW 2896   4.084   0.850   1.740
  666SOL    HW1 2897   4.014   0.875   1.674
  666SOL    HW2 2898   4.072   0.903   1.824
  667SOL     OW 2899   0.704   6.627   2.667
  667SOL    HW1 2900   0.690   6.531   2.643
  667SOL    HW2 2901   0.784   6.635   2.726
  668SOL     OW 2902   5.587   3.783   6.634
  668SOL    HW1 2903   5.645   3.713   6.592
  668SOL    HW2 2904   5.492   3.753   6.632
  669SOL     OW 2905   5.075   1.541   3.294
  669SOL    HW1 2906   5.034   1.455   3.263
  669SOL    HW2 2907   5.016   1.617   3.268
  670SOL     OW 2908   1.613   2.269   3.317
  670SOL    HW1 2909   1.629   2.171   3.305
  670SOL    HW2 2910   1.565   2.285   3.404
  671SOL     OW 2911   2.664   6.552   1.351
  671SOL    HW1 2912   2.636   6.492   1.426
  671SOL    HW2 2913   2.638   6.511   1.264
  672SOL     OW 2914   1.008   6.834   2.634
  672SOL    HW1 2915   1.051   6.918   2.602
  672SOL    HW2 2916   1.045   6.756   2.582
  673SOL     OW 2917   5.263   6.726   0.724
  673SOL    HW1 2918   5.229   6.681   0.807
  673SOL    HW2 2919   5.344   6.678   0.692
  674SOL     OW 2920   0.255   0.367   4.868
  674SOL    HW1 2921   0.286   0.384   4.774
  674SOL    HW2 2922   0.218   0.451   4.907
  675SOL     OW 2923   6.271   3.252   2.586
  675SOL    HW1 2924   6.351   3.193   2.582
  675SOL    HW2 2925   6.198   3.206   2.637
  676SOL     OW 2926   2.212   5.911   6.060
  676SOL    HW1 2927   2.240   5.839   6.123
  676SOL    HW2 2928   2.118   5.938   6.080
  677SOL     OW 2929   4.627   0.736   0.886
  677SOL    HW1 2930   4.573   0.799   0.831
  677SOL    HW2 2931   4.620   0.644   0.848
  678SOL     OW 2932   1.733   4.363   5.198
  678SOL    HW1 2933   1.740   4.383   5.100
  678SOL    HW2 2934   1.824   4.365   5.239
  679SOL     OW 2935   5.066   1.854   5.204
  679SOL    HW1 2936   5.074   1.852   5.105
  679SOL    HW2 2937   5.119   1.779   5.244
  680SOL     OW 2938   4.672   6.521   3.996
  680SOL    HW1 2939   4.687   6.592   4.065
  680SOL    HW2 2940   4.731   6.538   3.916
  681SOL     OW 2941   5.047   5.230   2.216
  681SOL    HW1 2942   5.048   5.327   2.241
  681SOL    HW2 2943   5.019   5.220   2.121
  682SOL     OW 2944   0.600   0.796   3.229
  682SOL    HW1 2945   0.628   0.834   3.317
  682SOL    HW2 2946   0.601   0.696   3.234
  683SOL     OW 2947   4.158   3.545   1.352
  683SOL    HW1 2948   4.229   3.579   1.290
  683SOL    HW2 2949   4.131   3.619   1.414
  684SOL     OW 2950   6.528   0.276   5.660
  684SOL    HW1 2951   6.536   0.342   5.586
  684SOL    HW2 2952   6.434   0.242   5.664
  685SOL     OW 2953   3.725   0.521   3.179
  685SOL    HW1 2954   3.690   0.489   3.268
  685SOL    HW2 2955   3.648   0.538   3.117
  686SOL     OW 2956   4.173   1.076   4.673
  686SOL    HW1 2957   4.252   1.126   4.638
  686SOL    HW2 2958   4.113   1.051   4.596
  687SOL     OW 2959   1.438   1.717   4.285
  687SOL    HW1 2960   1.351   1.758   4.258
  687SOL    HW2 2961   1.500   1.716   4.207
  688SOL     OW 2962   6.002   1.279   6.834
  688SOL    HW1 2963   5.935   1.206   6.825
  688SOL    HW2 2964   6.054   1.267   6.919
  689SOL     OW 2965   1.445   5.381   5.749
  689SOL    HW1 2966   1.402   5.294   5.772
  689SOL    HW2 2967   1.543   5.367   5.732
  690SOL     OW 2968   5.557   3.732   2.628
  690SOL    HW1 2969   5.507   3.748   2.543
  690SOL    HW2 2970   5.580   3.635   2.636
  691SOL     OW 2971   4.346   1.776   6.771
  691SOL    HW1 2972   4.382   1.867   6.748
  691SOL    HW2 2973   4.374   1.710   6.702
  692SOL     OW 2974   2.905   1.403   4.416
  692SOL    HW1 2975   2.816   1.383   4.457
  692SOL    HW2 2976   2.977   1.368   4.475
  693SOL     OW 2977   5.474   6.337   3.735
  693SOL    HW1 2978   5.512   6.247   3.718
  693SOL    HW2 2979   5.389   6.348   3.684
  694SOL     OW 2980   4.366   5.702   4.910
  694SOL    HW1 2981   4.352   5.617   4.960
  694SOL    HW2 2982   4.415   5.767   4.968
  695SOL     OW 2983   3.436   6.683   4.619
  695SOL    HW1 2984   3.479   6.644   4.700
  695SOL    HW2 2985   3.341   6.707   4.640
  696SOL     OW 2986   4.735   4.669   3.026
  696SOL    HW1 2987   4.688   4.732   3.087
  696SOL    HW2 2988   4.815   4.630   3.074
  697SOL     OW 2989   0.255   5.109   2.288
  697SOL    HW1 2990   0.178   5.073   2.235
  697SOL    HW2 2991   0.230   5.197   2.327
  698SOL     OW 2992   5.501   0.214   1.108
  698SOL    HW1 2993   5.515   0.312   1.098
  698SOL    HW2 2994   5.404   0.192   1.097
  699SOL     OW 2995   2.299   2.311   0.922
  699SOL    HW1 2996   2.394   2.282   0.933
  699SOL    HW2 2997   2.243   2.233   0.895
  700SOL     OW 2998   3.809   6.757   2.654
  700SOL    HW1 2999   3.786   6.762   2.557
  700SOL    HW2 3000   3.865   6.836   2.679
  701SOL     OW 3001   6.044   5.205   0.948
  701SOL    HW1 3002   5.969   5.270   0.965
  701SOL    HW2 3003   6.084   5.224   0.859
  702SOL     OW 3004   2.811   0.689   4.076
  702SOL    HW1 3005   2.792   0.626   4.151
  702SOL    HW2 3006   2.848   0.774   4.113
  703SOL     OW 3007   2.982   2.710   6.059
  703SOL    HW1 3008   3.044   2.761   5.999
  703SOL    HW2 3009   3.001   2.732   6.154
  704SOL     OW 3010   1.205   2.907   6.026
  704SOL    HW1 3011   1.236   2.845   5.953
  704SOL    HW2 3012   1.120   2.871   6.066
  705SOL     OW 3013   0.022   6.216   4.468
  705SOL    HW1 3014   6.987   6.135   4.463
  705SOL    HW2 3015   0.034   6.242   4.563
  706SOL     OW 3016   4.430   1.142   4.975
  706SOL    HW1 3017   4.447   1.068   4.910
  706SOL    HW2 3018   4.483   1.126   5.058
  707SOL     OW 3019   3.589   4.972   3.523
  707SOL    HW1 3020   3.527   4.959   3.446
  707SOL    HW2 3021   3.663   4.906   3.518
  708SOL     OW 3022   3.297   0.616   3.530
  708SOL    HW1 3023   3.351   0.598   3.612
  708SOL    HW2 3024   3.325   0.703   3.490
  709SOL     OW 3025   2.300   0.409   1.644
  709SOL    HW1 3026   2.299   0.358   1.730
  709SOL    HW2 3027   2.207   0.420   1.611
  710SOL     OW 3028   4.797   2.989   1.690
  710SOL    HW1 3029   4.724   3.037   1.739
  710SOL    HW2 3030   4.877   2.981   1.749
  711SOL     OW 3031   0.096   2.392   5.870
  711SOL    HW1 3032   0.066   2.464   5.933
  711SOL    HW2 3033   0.191   2.407   5.844
  712SOL     OW 3034   5.105   2.866   0.499
  712SOL    HW1 3035   5.150   2.955   0.493
  712SOL    HW2 3036   5.173   2.796   0.521
  713SOL     OW 3037   4.042   2.728   5.355
  713SOL    HW1 3038   4.063   2.649   5.299
  713SOL    HW2 3039   3.969   2.781   5.313
  714SOL     OW 3040   5.491   4.914   3.461
  714SOL    HW1 3041   5.471   5.012   3.460
  714SOL    HW2 3042   5.556   4.892   3.389
  715SOL     OW 3043   6.143   5.288   6.046
  715SOL    HW1 3044   6.110   5.376   6.082
  715SOL    HW2 3045   6.227   5.263   6.094
  716SOL     OW 3046   1.919   1.319   2.553
  716SOL    HW1 3047   2.007   1.311   2.601
  716SOL    HW2 3048   1.857   1.376   2.606
  717SOL     OW 3049   5.538   4.862   3.701
  717SOL    HW1 3050   5.502   4.892   3.613
  717SOL    HW2 3051   5.621   4.914   3.724
  718SOL     OW 3052   5.494   2.037   4.272
  718SOL    HW1 3053   5.453   2.002   4.357
  718SOL    HW2 3054   5.484   2.136   4.268
  719SOL     OW 3055   5.575   0.170   3.223
  719SOL    HW1 3056   5.641   0.175   3.298
  719SOL    HW2 3057   5.585   0.083   3.175
  720SOL     OW 3058   1.977   1.144   0.125
  720SOL    HW1 3059   2.023   1.160   0.038
  720SOL    HW2 3060   1.986   1.048   0.151
  721SOL     OW 3061   0.117   2.418   2.754
  721SOL    HW1 3062   0.034   2.367   2.730
  721SOL    HW2 3063   0.100   2.516   2.745
  722SOL     OW 3064   4.441   6.569   0.219
  722SOL    HW1 3065   4.436   6.515   0.303
  722SOL    HW2 3066   4.367   6.542   0.158
  723SOL     OW 3067   2.305   5.689   3.945
  723SOL    HW1 3068   2.368   5.667   4.020
  723SOL    HW2 3069   2.211   5.688   3.980
  724SOL     OW 3070   1.081   0.451   3.798
  724SOL    HW1 3071   1.030   0.377   3.842
  724SOL    HW2 3072   1.033   0.479   3.715
  725SOL     OW 3073   1.397   4.228   2.239
  725SOL    HW1 3074   1.398   4.161   2.164
  725SOL    HW2 3075   1.371   4.182   2.324
  726SOL     OW 3076   1.970   4.458   0.643
  726SOL    HW1 3077   2.042   4.438   0.576
  726SOL    HW2 3078   2.003   4.526   0.708
  727SOL     OW 3079   4.425   5.030   5.305
  727SOL    HW1 3080   4.436   5.102   5.374
  727SOL    HW2 3081   4.500   4.964   5.314
  728SOL     OW 3082   6.730   2.968   4.310
  728SOL    HW1 3083   6.636   2.938   4.297
  728SOL    HW2 3084   6.735   3.031   4.387
  729SOL     OW 3085   0.638   3.902   1.372
  729SOL    HW1 3086   0.663   3.982   1.317
  729SOL    HW2 3087   0.702   3.828   1.353
  730SOL     OW 3088   4.984   0.593   3.128
  730SOL    HW1 3089   5.026   0.506   3.151
  730SOL    HW2 3090   4.970   0.647   3.211
  731SOL     OW 3091   4.301   4.397   6.036
  731SOL    HW1 3092   4.362   4.474   6.020
  731SOL    HW2 3093   4.212   4.431   6.066
  732SOL     OW 3094   4.731   1.828   3.461
  732SOL    HW1 3095   4.822   1.800   3.490
  732SOL    HW2 3096   4.667   1.821   3.537
  733SOL     OW 3097   6.272   6.674   3.520
  733SOL    HW1 3098   6.309   6.631   3.602
  733SOL    HW2 3099   6.328   6.648   3.441
  734SOL     OW 3100   5.432   6.034   2.685
  734SOL    HW1 3101   5.470   6.091   2.612
  734SOL    HW2 3102   5.402   5.947   2.647
  735SOL     OW 3103   5.200   0.447   2.203
  735SOL    HW1 3104   5.193   0.544   2.227
  735SOL    HW2 3105   5.137   0.426   2.129
  736SOL     OW 3106   1.324   1.462   4.351
  736SOL    HW1 3107   1.342   1.547   4.302
  736SOL    HW2 3108   1.408   1.409   4.359
  737SOL     OW 3109   5.246   1.483   6.521
  737SOL    HW1 3110   5.318   1.538   6.564
  737SOL    HW2 3111   5.261   1.387   6.542
  738SOL     OW 3112   2.738   4.470   1.175
  738SOL    HW1 3113   2.719   4.413   1.255
  738SOL    HW2 3114   2.730   4.566   1.200
  739SOL     OW 3115   3.074   7.016   4.833
  739SOL    HW1 3116   3.011   7.000   4.757
  739SOL    HW2 3117   3.075   6.936   4.893
  740SOL     OW 3118   5.667   2.698   3.098
  740SOL    HW1 3119   5.584   2.679   3.151
  740SOL    HW2 3120   5.745   2.703   3.160
  741SOL     OW 3121   2.869   0.399   3.428
  741SOL    HW1 3122   2.935   0.428   3.497
  741SOL    HW2 3123   2.895   0.310   3.391
  742SOL     OW 3124   1.778   0.221   1.529
  742SOL    HW1 3125   1.877   0.206   1.525
  742SOL    HW2 3126   1.759   0.311   1.568
  743SOL     OW 3127   0.910   6.190   3.410
  743SOL    HW1 3128   0.888   6.141   3.325
  743SOL    HW2 3129   0.871   6.282   3.405
  744SOL     OW 3130   4.849   1.167   0.281
  744SOL    HW1 3131   4.826   1.252   0.329
  744SOL    HW2 3132   4.825   1.089   0.339
  745SOL     OW 3133   2.732   5.975   5.097
  745SOL    HW1 3134   2.829   5.989   5.120
  745SOL    HW2 3135   2.676   6.029   5.159
  746SOL     OW 3136   6.013   4.547   5.783
  746SOL    HW1 3137   5.985   4.570   5.877
  746SOL    HW2 3138   6.056   4.627   5.741
  747SOL     OW 3139   5.657   5.717   3.259
  747SOL    HW1 3140   5.593   5.666   3.317
  747SOL    HW2 3141   5.647   5.815   3.278
  748SOL     OW 3142   5.387   5.457   2.527
  748SOL    HW1 3143   5.298   5.411   2.534
  748SOL    HW2 3144   5.374   5.551   2.498
  749SOL     OW 3145   5.529   4.101   3.480
  749SOL    HW1 3146   5.542   4.176   3.545
  749SOL    HW2 3147   5.571   4.126   3.392
  750SOL     OW 3148   2.306   1.683   2.086
  750SOL    HW1 3149   2.397   1.643   2.101
  750SOL    HW2 3150   2.237   1.622   2.124
  751SOL     OW 3151   4.727   0.250   0.035
  751SOL    HW1 3152   4.720   0.172   0.097
  751SOL    HW2 3153   4.653   0.247   6.991
  752SOL     OW 3154   3.512   2.738   5.430
  752SOL    HW1 3155   3.551   2.814   5.483
  752SOL    HW2 3156   3.436   2.772   5.374
  753SOL     OW 3157   3.644   4.197   5.130
  753SOL    HW1 3158   3.701   4.181   5.050
  753SOL    HW2 3159   3.548   4.184   5.105
  754SOL     OW 3160   5.412   0.479   6.312
  754SOL    HW1 3161   5.499   0.479   6.263
  754SOL    HW2 3162   5.353   0.551   6.274
  755SOL     OW 3163   3.897   4.612   5.329
  755SOL    HW1 3164   3.928   4.532   5.279
  755SOL    HW2 3165   3.965   4.637   5.398
  756SOL     OW 3166   2.013   4.869   6.342
  756SOL    HW1 3167   2.085   4.879   6.273
  756SOL    HW2 3168   1.952   4.948   6.337
  757SOL     OW 3169   2.339   6.944   2.555
  757SOL    HW1 3170   2.394   0.003   2.539
  757SOL    HW2 3171   2.287   6.922   2.473
  758SOL     OW 3172   3.024   1.751   4.153
  758SOL    HW1 3173   3.101   1.801   4.194
  758SOL    HW2 3174   2.953   1.815   4.126
  759SOL     OW 3175   0.391   2.771   4.619
  759SOL    HW1 3176   0.332   2.852   4.622
  759SOL    HW2 3177   0.421   2.755   4.525
  760SOL     OW 3178   6.759   6.255   3.845
  760SOL    HW1 3179   6.851   6.252   3.884
  760SOL    HW2 3180   6.725   6.162   3.832
  761SOL     OW 3181   4.693   4.094   5.446
  761SOL    HW1 3182   4.713   4.114   5.350
  761SOL    HW2 3183   4.690   3.995   5.460
  762SOL     OW 3184   3.170   5.826   4.576
  762SOL    HW1 3185   3.078   5.858   4.600
  762SOL    HW2 3186   3.163   5.744   4.518
  763SOL     OW 3187   5.698   0.503   6.734
  763SOL    HW1 3188   5.657   0.465   6.651
  763SOL    HW2 3189   5.637   0.487   6.812
  764SOL     OW 3190   5.166   6.728   5.029
  764SOL    HW1 3191   5.220   6.777   4.961
  764SOL    HW2 3192   5.137   6.640   4.991
  765SOL     OW 3193   0.319   6.803   0.641
  765SOL    HW1 3194   0.253   6.868   0.679
  765SOL    HW2 3195   0.285   6.768   0.554
  766SOL     OW 3196   1.567   2.352   5.323
  766SOL    HW1 3197   1.579   2.380   5.418
  766SOL    HW2 3198   1.539   2.256   5.320
  767SOL     OW 3199   0.607   0.010   4.036
  767SOL    HW1 3200   0.697   0.028   3.996
  767SOL    HW2 3201   0.606   6.942   4.076
  768SOL     OW 3202   2.641   5.653   2.570
  768SOL    HW1 3203   2.604   5.736   2.614
  768SOL    HW2 3204   2.692   5.679   2.489
  769SOL     OW 3205   3.054   2.037   5.049
  769SOL    HW1 3206   2.965   2.069   5.015
  769SOL    HW2 3207   3.118   2.114   5.048
  770SOL     OW 3208   1.742   4.724   4.596
  770SOL    HW1 3209   1.703   4.815   4.585
  770SOL    HW2 3210   1.811   4.726   4.669
  771SOL     OW 3211   1.119   5.963   3.359
  771SOL    HW1 3212   1.103   6.027   3.434
  771SOL    HW2 3213   1.214   5.931   3.361
  772SOL     OW 3214   5.481   4.434   0.303
  772SOL    HW1 3215   5.540   4.413   0.225
  772SOL    HW2 3216   5.387   4.449   0.270
  773SOL     OW 3217   0.300   3.481   3.702
  773SOL    HW1 3218   0.258   3.498   3.612
  773SOL    HW2 3219   0.389   3.525   3.706
  774SOL     OW 3220   2.548   0.365   3.011
  774SOL    HW1 3221   2.483   0.306   2.963
  774SOL    HW2 3222   2.504   0.406   3.091
  775SOL     OW 3223   1.968   4.213   3.742
  775SOL    HW1 3224   1.953   4.114   3.748
  775SOL    HW2 3225   1.901   4.260   3.799
  776SOL     OW 3226   2.427   5.713   6.805
  776SOL    HW1 3227   2.508   5.654   6.799
  776SOL    HW2 3228   2.355   5.675   6.747
  777SOL     OW 3229   1.728   3.703   6.990
  777SOL    HW1 3230   1.778   3.783   6.956
  777SOL    HW2 3231   1.753   3.623   6.935
  778SOL     OW 3232   3.154   7.016   1.455
  778SOL    HW1 3233   3.101   6.937   1.423
  778SOL    HW2 3234   3.110   0.077   1.423
  779SOL     OW 3235   0.522   1.667   3.159
  779SOL    HW1 3236   0.457   1.736   3.129
  779SOL    HW2 3237   0.579   1.704   3.232
  780SOL     OW 3238   1.220   1.558   5.202
  780SOL    HW1 3239   1.308   1.590   5.167
  780SOL    HW2 3240   1.197   1.608   5.286
  781SOL     OW 3241   0.875   4.251   1.015
  781SOL    HW1 3242   0.856   4.349   1.022
  781SOL    HW2 3243   0.860   4.221   0.920
  782SOL     OW 3244   1.696   3.327   5.778
  782SOL    HW1 3245   1.766   3.293   5.841
  782SOL    HW2 3246   1.662   3.251   5.722
  783SOL     OW 3247   5.777   4.764   6.702
  783SOL    HW1 3248   5.696   4.812   6.668
  783SOL    HW2 3249   5.797   4.794   6.795
  784SOL     OW 3250   3.369   6.533   0.300
  784SOL    HW1 3251   3.457   6.516   0.344
  784SOL    HW2 3252   3.297   6.533   0.370
  785SOL     OW 3253   0.903   6.732   4.651
  785SOL    HW1 3254   0.874   6.703   4.560
  785SOL    HW2 3255   0.933   6.653   4.704
  786SOL     OW 3256   0.149   1.268   3.461
  786SOL    HW1 3257   0.138   1.170   3.475
  786SOL    HW2 3258   0.242   1.295   3.483
  787SOL     OW 3259   2.883   0.352   0.567
  787SOL    HW1 3260   2.858   0.261   0.536
  787SOL    HW2 3261   2.979   0.369   0.549
  788SOL     OW 3262   3.626   3.276   1.409
  788SOL    HW1 3263   3.675   3.238   1.331
  788SOL    HW2 3264   3.627   3.210   1.484
  789SOL     OW 3265   4.383   5.305   1.598
  789SOL    HW1 3266   4.457   5.317   1.665
  789SOL    HW2 3267   4.422   5.270   1.513
  790SOL     OW 3268   0.881   2.980   2.822
  790SOL    HW1 3269   0.874   2.910   2.752
  790SOL    HW2 3270   0.865   3.070   2.781
  791SOL     OW 3271   3.142   5.100   4.878
  791SOL    HW1 3272   3.103   5.105   4.969
  791SOL    HW2 3273   3.117   5.013   4.836
  792SOL     OW 3274   0.706   1.006   1.172
  792SOL    HW1 3275   0.765   1.086   1.185
  792SOL    HW2 3276   0.757   0.934   1.124
  793SOL     OW 3277   3.243   6.134   3.860
  793SOL    HW1 3278   3.275   6.074   3.933
  793SOL    HW2 3279   3.245   6.086   3.773
  794SOL     OW 3280   3.191   3.646   3.510
  794SOL    HW1 3281   3.093   3.667   3.512
  794SOL    HW2 3282   3.207   3.556   3.550
  795SOL     OW 3283   4.160   0.004   6.127
  795SOL    HW1 3284   4.137   7.017   6.224
  795SOL    HW2 3285   4.195   6.940   6.092
  796SOL     OW 3286   1.211   3.286   6.670
  796SOL    HW1 3287   1.273   3.327   6.602
  796SOL    HW2 3288   1.118   3.285   6.633
  797SOL     OW 3289   5.098   6.371   0.954
  797SOL    HW1 3290   5.099   6.281   0.910
  797SOL    HW2 3291   5.068   6.361   1.048
  798SOL     OW 3292   3.779   6.739   0.445
  798SOL    HW1 3293   3.745   6.808   0.508
  798SOL    HW2 3294   3.862   6.772   0.401
  799SOL     OW 3295   1.367   2.137   6.318
  799SOL    HW1 3296   1.351   2.224   6.271
  799SOL    HW2 3297   1.279   2.094   6.339
  800SOL     OW 3298   5.997   2.437   1.431
  800SOL    HW1 3299   5.947   2.451   1.516
  800SOL    HW2 3300   5.933   2.438   1.354
  801SOL     OW 3301   2.077   5.524   5.628
  801SOL    HW1 3302   2.099   5.528   5.531
  801SOL    HW2 3303   1.977   5.521   5.640
  802SOL     OW 3304   5.894   2.775   6.887
  802SOL    HW1 3305   5.856   2.800   6.976
  802SOL    HW2 3306   5.820   2.767   6.820
  803SOL     OW 3307   2.606   1.476   5.342
  803SOL    HW1 3308   2.612   1.573   5.319
  803SOL    HW2 3309   2.526   1.435   5.298
  804SOL     OW 3310   6.054   0.645   1.924
  804SOL    HW1 3311   6.092   0.554   1.941
  804SOL    HW2 3312   6.084   0.707   1.997
  805SOL     OW 3313   3.710   0.536   3.652
  805SOL    HW1 3314   3.804   0.538   3.619
  805SOL    HW2 3315   3.692   0.618   3.706
  806SOL     OW 3316   1.884   6.123   5.445
  806SOL    HW1 3317   1.912   6.205   5.395
  806SOL    HW2 3318   1.844   6.149   5.532
  807SOL     OW 3319   0.726   5.785   5.943
  807SOL    HW1 3320   0.774   5.813   6.026
  807SOL    HW2 3321   0.698   5.866   5.892
  808SOL     OW 3322   5.605   3.003   0.418
  808SOL    HW1 3323   5.593   3.025   0.322
  808SOL    HW2 3324   5.703   2.999   0.439
  809SOL     OW 3325   1.557   4.916   0.122
  809SOL    HW1 3326   1.599   4.830   0.095
  809SOL    HW2 3327   1.597   4.991   0.069
  810SOL     OW 3328   3.474   3.613   0.197
  810SOL    HW1 3329   3.554   3.575   0.151
  810SOL    HW2 3330   3.466   3.574   0.289
  811SOL     OW 3331   5.173   4.645   4.007
  811SOL    HW1 3332   5.126   4.684   4.087
  811SOL    HW2 3333   5.259   4.693   3.992
  812SOL     OW 3334   0.600   2.681   1.727
  812SOL    HW1 3335   0.647   2.593   1.720
  812SOL    HW2 3336   0.502   2.668   1.711
  813SOL     OW 3337   1.161   1.996   4.945
  813SOL    HW1 3338   1.247   1.946   4.928
  813SOL    HW2 3339   1.087   1.952   4.894
  814SOL     OW 3340   1.108   5.284   3.150
  814SOL    HW1 3341   1.035   5.260   3.215
  814SOL    HW2 3342   1.166   5.204   3.135
  815SOL     OW 3343   4.682   1.860   3.761
  815SOL    HW1 3344   4.765   1.804   3.755
  815SOL    HW2 3345   4.607   1.813   3.715
  816SOL     OW 3346   5.462   3.960   0.000
  816SOL    HW1 3347   5.411   4.031   0.049
  816SOL    HW2 3348   5.402   3.917   6.956
  817SOL     OW 3349   0.921   4.829   6.878
  817SOL    HW1 3350   0.956   4.824   6.785
  817SOL    HW2 3351   0.879   4.742   6.903
  818SOL     OW 3352   6.308   2.459   4.359
  818SOL    HW1 3353   6.400   2.455   4.322
  818SOL    HW2 3354   6.243   2.476   4.285
  819SOL     OW 3355   5.181   2.849   2.314
  819SOL    HW1 3356   5.120   2.770   2.321
  819SOL    HW2 3357   5.126   2.931   2.293
  820SOL     OW 3358   2.108   1.798   5.019
  820SOL    HW1 3359   2.011   1.807   5.038
  820SOL    HW2 3360   2.156   1.881   5.048
  821SOL     OW 3361   5.675   3.598   5.066
  821SOL    HW1 3362   5.610   3.531   5.030
  821SOL    HW2 3363   5.767   3.562   5.060
  822SOL     OW 3364   0.624   4.211   3.344
  822SOL    HW1 3365   0.564   4.195   3.422
  822SOL    HW2 3366   0.615   4.135   3.280
  823SOL     OW 3367   0.860   3.690   5.632
  823SOL    HW1 3368   0.868   3.788   5.649
  823SOL    HW2 3369   0.906   3.666   5.547
  824SOL     OW 3370   5.751   1.478   5.804
  824SOL    HW1 3371   5.727   1.568   5.840
  824SOL    HW2 3372   5.817   1.488   5.730
  825SOL     OW 3373   0.011   5.662   0.925
  825SOL    HW1 3374   0.000   5.733   0.995
  825SOL    HW2 3375   7.015   5.700   0.835
  826SOL     OW 3376   3.714   1.083   5.371
  826SOL    HW1 3377   3.721   1.166   5.427
  826SOL    HW2 3378   3.740   1.105   5.277
  827SOL     OW 3379   3.394   4.154   4.282
  827SOL    HW1 3380   3.485   4.111   4.278
  827SOL    HW2 3381   3.378   4.190   4.373
  828SOL     OW 3382   6.561   5.804   5.213
  828SOL    HW1 3383   6.600   5.770   5.128
  828SOL    HW2 3384   6.503   5.733   5.253
  829SOL     OW 3385   3.511   2.861   2.662
  829SOL    HW1 3386   3.415   2.845   2.640
  829SOL    HW2 3387   3.520   2.949   2.708
  830SOL     OW 3388   6.481   4.789   0.255
  830SOL    HW1 3389   6.470   4.698   0.215
  830SOL    HW2 3390   6.504   4.855   0.183
  831SOL     OW 3391   5.456   6.127   1.301
  831SOL    HW1 3392   5.417   6.212   1.335
  831SOL    HW2 3393   5.402   6.050   1.334
  832SOL     OW 3394   3.207   2.174   4.793
  832SOL    HW1 3395   3.128   2.113   4.798
  832SOL    HW2 3396   3.209   2.233   4.874
  833SOL     OW 3397   1.938   3.317   6.306
  833SOL    HW1 3398   2.029   3.334   6.271
  833SOL    HW2 3399   1.879   3.284   6.231
  834SOL     OW 3400   5.020   3.720   6.710
  834SOL    HW1 3401   5.037   3.622   6.718
  834SOL    HW2 3402   5.079   3.770   6.774
  835SOL     OW 3403   0.430   6.509   4.632
  835SOL    HW1 3404   0.505   6.546   4.577
  835SOL    HW2 3405   0.355   6.481   4.571
  836SOL     OW 3406   3.330   1.335   4.663
  836SOL    HW1 3407   3.364   1.422   4.698
  836SOL    HW2 3408   3.321   1.270   4.738
  837SOL     OW 3409   1.510   0.808   0.791
  837SOL    HW1 3410   1.425   0.832   0.744
  837SOL    HW2 3411   1.501   0.827   0.888
  838SOL     OW 3412   2.159   5.791   3.162
  838SOL    HW1 3413   2.170   5.712   3.222
  838SOL    HW2 3414   2.237   5.796   3.100
  839SOL     OW 3415   1.360   1.850   0.323
  839SOL    HW1 3416   1.449   1.894   0.316
  839SOL    HW2 3417   1.360   1.765   0.269
  840SOL     OW 3418   5.216   5.821   0.013
  840SOL    HW1 3419   5.202   5.817   6.937
  840SOL    HW2 3420   5.199   5.730   0.052
  841SOL     OW 3421   3.809   4.909   5.879
  841SOL    HW1 3422   3.758   4.853   5.814
  841SOL    HW2 3423   3.744   4.954   5.942
  842SOL     OW 3424   3.285   0.151   0.029
  842SOL    HW1 3425   3.190   0.181   0.021
  842SOL    HW2 3426   3.316   0.162   0.123
  843SOL     OW 3427   1.379   1.664   2.484
  843SOL    HW1 3428   1.464   1.614   2.472
  843SOL    HW2 3429   1.369   1.691   2.580
  844SOL     OW 3430   6.120   0.125   1.299
  844SOL    HW1 3431   6.201   0.181   1.315
  844SOL    HW2 3432   6.135   0.068   1.218
  845SOL     OW 3433   3.551   1.712   2.709
  845SOL    HW1 3434   3.513   1.621   2.696
  845SOL    HW2 3435   3.566   1.755   2.620
  846SOL     OW 3436   2.974   2.299   0.210
  846SOL    HW1 3437   2.979   2.203   0.181
  846SOL    HW2 3438   2.956   2.357   0.131
  847SOL     OW 3439   2.503   4.615   1.416
  847SOL    HW1 3440   2.422   4.620   1.357
  847SOL    HW2 3441   2.474   4.602   1.511
  848SOL     OW 3442   6.821   5.779   6.918
  848SOL    HW1 3443   6.735   5.728   6.916
  848SOL    HW2 3444   6.897   5.715   6.923
  849SOL     OW 3445   5.939   3.918   6.959
  849SOL    HW1 3446   5.994   3.978   7.017
  849SOL    HW2 3447   5.920   3.833   7.009
  850SOL     OW 3448   0.582   0.867   5.675
  850SOL    HW1 3449   0.618   0.784   5.631
  850SOL    HW2 3450   0.552   0.932   5.604
  851SOL     OW 3451   6.672   3.152   6.201
  851SOL    HW1 3452   6.720   3.064   6.196
  851SOL    HW2 3453   6.608   3.159   6.126
  852SOL     OW 3454   0.368   3.959   2.273
  852SOL    HW1 3455   0.329   3.984   2.184
  852SOL    HW2 3456   0.408   3.867   2.267
  853SOL     OW 3457   2.453   4.443   0.118
  853SOL    HW1 3458   2.376   4.388   0.150
  853SOL    HW2 3459   2.537   4.413   0.163
  854SOL     OW 3460   5.473   6.394   6.689
  854SOL    HW1 3461   5.524   6.309   6.701
  854SOL    HW2 3462   5.389   6.376   6.637
  855SOL     OW 3463   6.028   0.918   0.315
  855SOL    HW1 3464   6.047   0.870   0.400
  855SOL    HW2 3465   6.060   1.013   0.322
  856SOL     OW 3466   1.978   6.236   0.289
  856SOL    HW1 3467   1.917   6.165   0.324
  856SOL    HW2 3468   1.981   6.231   0.189
  857SOL     OW 3469   6.412   5.097   5.009
  857SOL    HW1 3470   6.355   5.140   5.078
  857SOL    HW2 3471   6.418   4.999   5.027
  858SOL     OW 3472   3.823   3.862   0.117
  858SOL    HW1 3473   3.760   3.872   0.194
  858SOL    HW2 3474   3.901   3.923   0.129
  859SOL     OW 3475   4.167   6.729   5.335
  859SOL    HW1 3476   4.245   6.750   5.394
  859SOL    HW2 3477   4.125   6.643   5.364
  860SOL     OW 3478   5.678   3.270   5.896
  860SOL    HW1 3479   5.707   3.357   5.858
  860SOL    HW2 3480   5.731   3.196   5.854
  861SOL     OW 3481   2.461   6.302   2.297
  861SOL    HW1 3482   2.403   6.247   2.358
  861SOL    HW2 3483   2.406   6.377   2.258
  862SOL     OW 3484   1.190   4.334   3.773
  862SOL    HW1 3485   1.278   4.307   3.734
  862SOL    HW2 3486   1.129   4.364   3.700
  863SOL     OW 3487   7.004   0.677   6.774
  863SOL    HW1 3488   6.995   0.773   6.798
  863SOL    HW2 3489   0.078   0.652   6.774
  864SOL     OW 3490   5.739   0.099   4.909
  864SOL    HW1 3491   5.741   0.143   4.999
  864SOL    HW2 3492   5.663   0.136   4.856
  865SOL     OW 3493   2.252   5.874   4.530
  865SOL    HW1 3494   2.288   5.822   4.453
  865SOL    HW2 3495   2.171   5.925   4.502
  866SOL     OW 3496   2.829   6.131   2.128
  866SOL    HW1 3497   2.909   6.152   2.184
  866SOL    HW2 3498   2.750   6.115   2.187
  867SOL     OW 3499   5.968   1.647   0.089
  867SOL    HW1 3500   5.875   1.626   0.119
  867SOL    HW2 3501   6.031   1.641   0.167
  868SOL     OW 3502   7.019   2.492   2.253
  868SOL    HW1 3503   0.085   2.465   2.216
  868SOL    HW2 3504   0.006   2.574   2.308
  869SOL     OW 3505   0.057   3.902   3.506
  869SOL    HW1 3506   0.156   3.892   3.498
  869SOL    HW2 3507   0.030   3.894   3.602
  870SOL     OW 3508   3.560   5.391   1.591
  870SOL    HW1 3509   3.514   5.304   1.607
  870SOL    HW2 3510   3.629   5.407   1.662
  871SOL     OW 3511   4.460   2.091   3.296
  871SOL    HW1 3512   4.408   2.062   3.376
  871SOL    HW2 3513   4.398   2.109   3.220
  872SOL     OW 3514   6.965   2.860   4.228
  872SOL    HW1 3515   6.888   2.906   4.272
  872SOL    HW2 3516   0.009   2.833   4.297
  873SOL     OW 3517   4.532   6.420   6.172
  873SOL    HW1 3518   4.563   6.403   6.265
  873SOL    HW2 3519   4.562   6.345   6.113
  874SOL     OW 3520   4.807   3.964   0.569
  874SOL    HW1 3521   4.772   4.031   0.503
  874SOL    HW2 3522   4.737   3.896   0.587
  875SOL     OW 3523   4.973   5.433   0.346
  875SOL    HW1 3524   4.925   5.381   0.275
  875SOL    HW2 3525   4.925   5.422   0.433
  876SOL     OW 3526   0.475   6.092   1.781
  876SOL    HW1 3527   0.414   6.036   1.725
  876SOL    HW2 3528   0.535   6.033   1.835
  877SOL     OW 3529   2.758   4.603   6.938
  877SOL    HW1 3530   2.829   4.618   6.868
  877SOL    HW2 3531   2.708   4.688   6.953
  878SOL     OW 3532   3.966   6.785   4.486
  878SOL    HW1 3533   3.876   6.745   4.506
  878SOL    HW2 3534   4.037   6.717   4.506
  879SOL     OW 3535   5.339   0.541   0.439
  879SOL    HW1 3536   5.240   0.529   0.445
  879SOL    HW2 3537   5.385   0.459   0.474
  880SOL     OW 3538   2.948   3.368   2.952
  880SOL    HW1 3539   2.996   3.448   2.916
  880SOL    HW2 3540   2.910   3.314   2.877
  881SOL     OW 3541   4.598   2.340   5.975
  881SOL    HW1 3542   4.503   2.327   5.945
  881SOL    HW2 3543   4.611   2.293   6.063
  882SOL     OW 3544   0.846   3.354   4.911
  882SOL    HW1 3545   0.874   3.371   4.817
  882SOL    HW2 3546   0.921   3.314   4.963
  883SOL     OW 3547   3.193   0.311   2.597
  883SOL    HW1 3548   3.242   0.269   2.521
  883SOL    HW2 3549   3.180   0.243   2.669
  884SOL     OW 3550   4.793   2.586   5.119
  884SOL    HW1 3551   4.805   2.583   5.219
  884SOL    HW2 3552   4.804   2.680   5.087
  885SOL     OW 3553   3.151   1.488   6.149
  885SOL    HW1 3554   3.088   1.423   6.108
  885SOL    HW2 3555   3.225   1.507   6.084
  886SOL     OW 3556   3.321   0.838   6.993
  886SOL    HW1 3557   3.410   0.868   0.005
  886SOL    HW2 3558   3.286   0.765   0.029
  887SOL     OW 3559   4.311   1.004   3.759
  887SOL    HW1 3560   4.398   0.954   3.754
  887SOL    HW2 3561   4.243   0.956   3.704
  888SOL     OW 3562   0.475   0.550   3.332
  888SOL    HW1 3563   0.489   0.525   3.236
  888SOL    HW2 3564   0.492   0.470   3.390
  889SOL     OW 3565   0.729   4.055   6.764
  889SOL    HW1 3566   0.776   4.058   6.676
  889SOL    HW2 3567   0.653   3.991   6.759
  890SOL     OW 3568   2.322   5.877   3.511
  890SOL    HW1 3569   2.311   5.788   3.468
  890SOL    HW2 3570   2.266   5.945   3.463
  891SOL     OW 3571   5.497   5.601   0.866
  891SOL    HW1 3572   5.436   5.658   0.811
  891SOL    HW2 3573   5.591   5.633   0.853
  892SOL     OW 3574   2.420   3.871   5.665
  892SOL    HW1 3575   2.436   3.934   5.741
  892SOL    HW2 3576   2.498   3.874   5.603
  893SOL     OW 3577   2.666   6.372   2.970
  893SOL    HW1 3578   2.761   6.402   2.975
  893SOL    HW2 3579   2.619   6.396   3.054
  894SOL     OW 3580   1.617   4.159   1.708
  894SOL    HW1 3581   1.522   4.144   1.681
  894SOL    HW2 3582   1.675   4.088   1.667
  895SOL     OW 3583   0.417   5.867   3.086
  895SOL    HW1 3584   0.326   5.844   3.119
  895SOL    HW2 3585   0.435   5.964   3.102
  896SOL     OW 3586   6.669   5.742   6.351
  896SOL    HW1 3587   6.606   5.687   6.296
  896SOL    HW2 3588   6.631   5.756   6.442
  897SOL     OW 3589   5.627   0.781   0.360
  897SOL    HW1 3590   5.671   0.801   0.272
  897SOL    HW2 3591   5.531   0.807   0.356
  898SOL     OW 3592   3.594   5.342   3.233
  898SOL    HW1 3593   3.571   5.246   3.214
  898SOL    HW2 3594   3.616   5.352   3.330
  899SOL     OW 3595   0.948   5.337   6.043
  899SOL    HW1 3596   0.910   5.401   5.976
  899SOL    HW2 3597   0.914   5.245   6.024
  900SOL     OW 3598   6.089   6.885   0.331
  900SOL    HW1 3599   6.007   6.830   0.346
  900SOL    HW2 3600   6.075   6.944   0.251
  901SOL     OW 3601   2.095   1.034   2.487
  901SOL    HW1 3602   2.158   0.957   2.480
  901SOL    HW2 3603   2.050   1.049   2.399
  902SOL     OW 3604   6.030   3.687   1.022
  902SOL    HW1 3605   6.081   3.725   0.945
  902SOL    HW2 3606   5.950   3.744   1.040
  903SOL     OW 3607   6.849   1.943   0.383
  903SOL    HW1 3608   6.771   1.901   0.337
  903SOL    HW2 3609   6.816   2.006   0.453
  904SOL     OW 3610   3.185   1.991   3.966
  904SOL    HW1 3611   3.126   1.988   3.886
  904SOL    HW2 3612   3.156   2.065   4.026
  905SOL     OW 3613   5.851   2.794   0.141
  905SOL    HW1 3614   5.894   2.882   0.164
  905SOL    HW2 3615   5.857   2.733   0.220
  906SOL     OW 3616   0.244   2.505   5.335
  906SOL    HW1 3617   0.160   2.469   5.295
  906SOL    HW2 3618   0.300   2.429   5.370
  907SOL     OW 3619   4.947   3.684   0.105
  907SOL    HW1 3620   4.912   3.592   0.091
  907SOL    HW2 3621   4.901   3.726   0.184
  908SOL     OW 3622   2.670   4.708   2.169
  908SOL    HW1 3623   2.728   4.674   2.094
  908SOL    HW2 3624   2.617   4.787   2.137
  909SOL     OW 3625   4.504   4.925   6.051
  909SOL    HW1 3626   4.510   4.828   6.030
  909SOL    HW2 3627   4.589   4.971   6.026
  910SOL     OW 3628   2.523   2.649   1.566
  910SOL    HW1 3629   2.436   2.624   1.610
  910SOL    HW2 3630   2.599   2.623   1.625
  911SOL     OW 3631   1.752   6.158   6.177
  911SOL    HW1 3632   1.790   6.250   6.171
  911SOL    HW2 3633   1.697   6.150   6.260
  912SOL     OW 3634   5.156   3.045   3.630
  912SOL    HW1 3635   5.056   3.051   3.624
  912SOL    HW2 3636   5.197   3.081   3.547
  913SOL     OW 3637   5.380   6.647   2.995
  913SOL    HW1 3638   5.434   6.670   2.914
  913SOL    HW2 3639   5.298   6.597   2.968
  914SOL     OW 3640   2.455   0.088   6.596
  914SOL    HW1 3641   2.386   0.160   6.598
  914SOL    HW2 3642   2.540   0.124   6.558
  915SOL     OW 3643   5.752   5.656   0.841
  915SOL    HW1 3644   5.813   5.735   0.843
  915SOL    HW2 3645   5.804   5.574   0.818
  916SOL     OW 3646   0.921   2.287   2.467
  916SOL    HW1 3647   0.990   2.258   2.400
  916SOL    HW2 3648   0.883   2.206   2.511
  917SOL     OW 3649   0.575   0.108   0.637
  917SOL    HW1 3650   0.483   0.131   0.607
  917SOL    HW2 3651   0.571   0.069   0.729
  918SOL     OW 3652   1.578   6.514   0.936
  918SOL    HW1 3653   1.648   6.465   0.988
  918SOL    HW2 3654   1.491   6.465   0.943
  919SOL     OW 3655   5.709   1.819   3.483
  919SOL    HW1 3656   5.729   1.792   3.577
  919SOL    HW2 3657   5.623   1.776   3.454
  920SOL     OW 3658   2.608   4.979   2.032
  920SOL    HW1 3659   2.657   5.016   1.953
  920SOL    HW2 3660   2.538   4.914   2.000
  921SOL     OW 3661   5.254   5.742   4.384
  921SOL    HW1 3662   5.316   5.728   4.307
  921SOL    HW2 3663   5.163   5.706   4.360
  922SOL     OW 3664   3.784   4.041   3.777
  922SOL    HW1 3665   3.748   3.995   3.858
  922SOL    HW2 3666   3.713   4.099   3.737
  923SOL     OW 3667   2.055   2.769   5.663
  923SOL    HW1 3668   2.096   2.687   5.701
  923SOL    HW2 3669   2.126   2.826   5.621
  924SOL     OW 3670   6.607   3.824   2.484
  924SOL    HW1 3671   6.533   3.816   2.551
  924SOL    HW2 3672   6.611   3.741   2.428
  925SOL     OW 3673   6.143   1.600   0.321
  925SOL    HW1 3674   6.106   1.672   0.380
  925SOL    HW2 3675   6.241   1.614   0.309
  926SOL     OW 3676   0.450   1.387   2.012
  926SOL    HW1 3677   0.371   1.329   1.997
  926SOL    HW2 3678   0.420   1.480   2.033
  927SOL     OW 3679   5.599   3.690   3.694
  927SOL    HW1 3680   5.517   3.745   3.679
  927SOL    HW2 3681   5.577   3.593   3.679
  928SOL     OW 3682   3.472   5.968   6.547
  928SOL    HW1 3683   3.484   5.947   6.644
  928SOL    HW2 3684   3.559   5.994   6.506
  929SOL     OW 3685   6.699   1.084   5.751
  929SOL    HW1 3686   6.767   1.157   5.739
  929SOL    HW2 3687   6.745   1.001   5.781
  930SOL     OW 3688   5.026   4.951   6.622
  930SOL    HW1 3689   5.001   4.925   6.529
  930SOL    HW2 3690   4.982   4.890   6.688
  931SOL     OW 3691   6.559   2.620   3.001
  931SOL    HW1 3692   6.507   2.590   3.082
  931SOL    HW2 3693   6.516   2.702   2.963
  932SOL     OW 3694   4.185   0.659   3.754
  932SOL    HW1 3695   4.194   0.562   3.774
  932SOL    HW2 3696   4.273   0.695   3.722
  933SOL     OW 3697   1.431   5.143   2.708
  933SOL    HW1 3698   1.528   5.156   2.690
  933SOL    HW2 3699   1.392   5.085   2.636
  934SOL     OW 3700   1.678   5.286   6.474
  934SOL    HW1 3701   1.753   5.278   6.409
  934SOL    HW2 3702   1.702   5.350   6.546
  935SOL     OW 3703   5.252   3.427   3.153
  935SOL    HW1 3704   5.249   3.527   3.150
  935SOL    HW2 3705   5.329   3.397   3.210
  936SOL     OW 3706   1.662   0.331   6.884
  936SOL    HW1 3707   1.564   0.312   6.890
  936SOL    HW2 3708   1.685   0.410   6.941
  937SOL     OW 3709   5.114   1.034   5.477
  937SOL    HW1 3710   5.149   0.941   5.489
  937SOL    HW2 3711   5.122   1.061   5.381
  938SOL     OW 3712   6.273   5.311   4.746
  938SOL    HW1 3713   6.299   5.306   4.843
  938SOL    HW2 3714   6.191   5.367   4.737
  939SOL     OW 3715   0.267   6.794   4.824
  939SOL    HW1 3716   0.333   6.806   4.751
  939SOL    HW2 3717   0.287   6.857   4.899
  940SOL     OW 3718   2.233   5.034   0.617
  940SOL    HW1 3719   2.202   5.087   0.696
  940SOL    HW2 3720   2.328   5.006   0.632
  941SOL     OW 3721   3.834   0.112   6.576
  941SOL    HW1 3722   3.887   0.131   6.658
  941SOL    HW2 3723   3.738   0.138   6.591
  942SOL     OW 3724   0.089   5.384   0.263
  942SOL    HW1 3725   0.185   5.383   0.290
  942SOL    HW2 3726   0.032   5.350   0.338
  943SOL     OW 3727   3.216   4.933   3.091
  943SOL    HW1 3728   3.266   5.005   3.043
  943SOL    HW2 3729   3.217   4.849   3.035
  944SOL     OW 3730   0.772   6.321   4.430
  944SOL    HW1 3731   0.688   6.300   4.380
  944SOL    HW2 3732   0.769   6.278   4.520
  945SOL     OW 3733   0.821   5.558   6.375
  945SOL    HW1 3734   0.880   5.497   6.429
  945SOL    HW2 3735   0.878   5.613   6.314
  946SOL     OW 3736   4.813   3.932   3.654
  946SOL    HW1 3737   4.840   3.932   3.750
  946SOL    HW2 3738   4.845   3.848   3.610
  947SOL     OW 3739   3.668   4.046   4.312
  947SOL    HW1 3740   3.746   4.055   4.375
  947SOL    HW2 3741   3.695   4.079   4.222
  948SOL     OW 3742   4.624   1.385   2.676
  948SOL    HW1 3743   4.641   1.474   2.636
  948SOL    HW2 3744   4.622   1.393   2.776
  949SOL     OW 3745   3.255   6.413   6.690
  949SOL    HW1 3746   3.318   6.456   6.626
  949SOL    HW2 3747   3.198   6.347   6.642
  950SOL     OW 3748   0.124   6.302   2.225
  950SOL    HW1 3749   0.195   6.350   2.173
  950SOL    HW2 3750   0.114   6.345   2.315
  951SOL     OW 3751   1.908   0.053   3.268
  951SOL    HW1 3752   1.961   7.009   3.216
  951SOL    HW2 3753   1.909   0.028   3.365
  952SOL     OW 3754   3.477   1.497   1.756
  952SOL    HW1 3755   3.569   1.509   1.793
  952SOL    HW2 3756   3.420   1.574   1.783
  953SOL     OW 3757   6.642   4.871   5.215
  953SOL    HW1 3758   6.581   4.812   5.267
  953SOL    HW2 3759   6.631   4.852   5.117
  954SOL     OW 3760   4.917   5.821   2.743
  954SOL    HW1 3761   4.950   5.891   2.807
  954SOL    HW2 3762   4.920   5.856   2.650
  955SOL     OW 3763   1.416   4.498   0.084
  955SOL    HW1 3764   1.391   4.411   0.041
  955SOL    HW2 3765   1.333   4.548   0.108
  956SOL     OW 3766   6.363   0.778   1.532
  956SOL    HW1 3767   6.304   0.819   1.463
  956SOL    HW2 3768   6.307   0.740   1.606
  957SOL     OW 3769   6.435   2.669   3.968
  957SOL    HW1 3770   6.449   2.570   3.971
  957SOL    HW2 3771   6.337   2.689   3.978
  958SOL     OW 3772   5.147   6.920   2.091
  958SOL    HW1 3773   5.062   6.948   2.047
  958SOL    HW2 3774   5.184   6.840   2.044
  959SOL     OW 3775   3.731   6.711   4.215
  959SOL    HW1 3776   3.638   6.748   4.221
  959SOL    HW2 3777   3.797   6.785   4.230
  960SOL     OW 3778   0.885   0.347   0.218
  960SOL    HW1 3779   0.809   0.372   0.158
  960SOL    HW2 3780   0.852   0.333   0.311
  961SOL     OW 3781   3.347   6.366   2.761
  961SOL    HW1 3782   3.267   6.391   2.816
  961SOL    HW2 3783   3.353   6.428   2.682
  962SOL     OW 3784   6.573   0.258   4.692
  962SOL    HW1 3785   6.475   0.249   4.676
  962SOL    HW2 3786   6.614   0.167   4.706
  963SOL     OW 3787   4.734   2.996   0.913
  963SOL    HW1 3788   4.745   3.028   1.007
  963SOL    HW2 3789   4.753   2.898   0.909
  964SOL     OW 3790   4.722   4.442   5.103
  964SOL    HW1 3791   4.751   4.394   5.185
  964SOL    HW2 3792   4.757   4.394   5.022
  965SOL     OW 3793   5.587   2.477   3.674
  965SOL    HW1 3794   5.608   2.419   3.595
  965SOL    HW2 3795   5.489   2.498   3.675
  966SOL     OW 3796   4.957   2.080   3.844
  966SOL    HW1 3797   4.968   2.179   3.833
  966SOL    HW2 3798   4.888   2.047   3.780
  967SOL     OW 3799   5.330   4.035   6.334
  967SOL    HW1 3800   5.407   4.065   6.391
  967SOL    HW2 3801   5.246   4.039   6.387
  968SOL     OW 3802   3.564   0.337   1.279
  968SOL    HW1 3803   3.603   0.415   1.230
  968SOL    HW2 3804   3.502   0.287   1.219
  969SOL     OW 3805   3.336   4.225   5.828
  969SOL    HW1 3806   3.392   4.201   5.749
  969SOL    HW2 3807   3.243   4.190   5.814
  970SOL     OW 3808   5.793   0.293   5.955
  970SOL    HW1 3809   5.881   0.264   5.992
  970SOL    HW2 3810   5.806   0.328   5.862
  971SOL     OW 3811   6.032   3.975   2.605
  971SOL    HW1 3812   6.086   4.018   2.677
  971SOL    HW2 3813   5.995   3.888   2.639
  972SOL     OW 3814   0.462   2.848   1.078
  972SOL    HW1 3815   0.409   2.792   1.014
  972SOL    HW2 3816   0.559   2.833   1.062
  973SOL     OW 3817   6.766   3.554   5.981
  973SOL    HW1 3818   6.859   3.525   6.004
  973SOL    HW2 3819   6.726   3.489   5.917
  974SOL     OW 3820   6.807   5.114   4.234
  974SOL    HW1 3821   6.862   5.145   4.311
  974SOL    HW2 3822   6.854   5.039   4.187
  975SOL     OW 3823   2.301   6.636   1.914
  975SOL    HW1 3824   2.227   6.598   1.859
  975SOL    HW2 3825   2.387   6.589   1.892
  976SOL     OW 3826   6.563   3.794   2.089
  976SOL    HW1 3827   6.640   3.841   2.046
  976SOL    HW2 3828   6.477   3.827   2.048
  977SOL     OW 3829   6.982   1.233   2.522
  977SOL    HW1 3830   7.002   1.282   2.607
  977SOL    HW2 3831   6.978   1.135   2.541
  978SOL     OW 3832   5.579   2.531   1.905
  978SOL    HW1 3833   5.616   2.594   1.974
  978SOL    HW2 3834   5.597   2.436   1.934
  979SOL     OW 3835   6.470   3.883   6.960
  979SOL    HW1 3836   6.519   3.917   0.017
  979SOL    HW2 3837   6.435   3.961   6.908
  980SOL     OW 3838   3.594   1.794   4.935
  980SOL    HW1 3839   3.678   1.842   4.959
  980SOL    HW2 3840   3.540   1.778   5.018
  981SOL     OW 3841   6.588   6.624   5.521
  981SOL    HW1 3842   6.549   6.532   5.530
  981SOL    HW2 3843   6.534   6.676   5.455
  982SOL     OW 3844   0.079   1.371   5.065
  982SOL    HW1 3845   0.035   1.451   5.106
  982SOL    HW2 3846   0.082   1.381   4.965
  983SOL     OW 3847   0.132   4.138   4.104
  983SOL    HW1 3848   0.143   4.184   4.192
  983SOL    HW2 3849   0.213   4.083   4.084
  984SOL     OW 3850   1.620   1.942   2.946
  984SOL    HW1 3851   1.597   1.850   2.915
  984SOL    HW2 3852   1.711   1.941   2.989
  985SOL     OW 3853   6.407   3.622   4.487
  985SOL    HW1 3854   6.310   3.623   4.463
  985SOL    HW2 3855   6.431   3.708   4.533
  986SOL     OW 3856   5.350   4.528   1.210
  986SOL    HW1 3857   5.432   4.568   1.169
  986SOL    HW2 3858   5.328   4.443   1.163
  987SOL     OW 3859   5.743   5.035   3.704
  987SOL    HW1 3860   5.833   5.006   3.737
  987SOL    HW2 3861   5.755   5.098   3.627
  988SOL     OW 3862   2.950   4.088   1.546
  988SOL    HW1 3863   3.007   4.126   1.619
  988SOL    HW2 3864   2.884   4.024   1.585
  989SOL     OW 3865   0.315   1.316   1.156
  989SOL    HW1 3866   0.354   1.406   1.138
  989SOL    HW2 3867   0.304   1.304   1.255
  990SOL     OW 3868   4.275   0.296   3.410
  990SOL    HW1 3869   4.181   0.313   3.440
  990SOL    HW2 3870   4.336   0.302   3.489
  991SOL     OW 3871   6.754   4.443   3.864
  991SOL    HW1 3872   6.711   4.366   3.815
  991SOL    HW2 3873   6.807   4.408   3.941
  992SOL     OW 3874   0.351   2.545   1.289
  992SOL    HW1 3875   0.372   2.494   1.373
  992SOL    HW2 3876   0.433   2.548   1.231
  993SOL     OW 3877   1.962   5.489   0.936
  993SOL    HW1 3878   2.008   5.424   0.997
  993SOL    HW2 3879   2.029   5.531   0.875
  994SOL     OW 3880   2.963   6.828   0.447
  994SOL    HW1 3881   3.013   6.869   0.371
  994SOL    HW2 3882   2.864   6.840   0.433
  995SOL     OW 3883   5.545   3.187   5.561
  995SOL    HW1 3884   5.621   3.136   5.600
  995SOL    HW2 3885   5.464   3.177   5.618
  996SOL     OW 3886   3.622   6.167   5.841
  996SOL    HW1 3887   3.714   6.141   5.872
  996SOL    HW2 3888   3.630   6.239   5.772
  997SOL     OW 3889   1.794   5.848   3.979
  997SOL    HW1 3890   1.719   5.843   3.913
  997SOL    HW2 3891   1.804   5.760   4.026
  998SOL     OW 3892   5.822   6.995   6.241
  998SOL    HW1 3893   5.900   6.933   6.229
  998SOL    HW2 3894   5.763   6.989   6.161
  999SOL     OW 3895   4.785   3.885   2.014
  999SOL    HW1 3896   4.812   3.933   2.097
  999SOL    HW2 3897   4.807   3.788   2.021
 1000SOL     OW 3898   3.989   1.843   1.368
 1000SOL    HW1 3899   4.043   1.879   1.444
 1000SOL    HW2 3900   3.907   1.899   1.355
 1001SOL     OW 3901   2.613   6.613   2.183
 1001SOL    HW1 3902   2.663   6.668   2.117
 1001SOL    HW2 3903   2.593   6.523   2.144
 1002SOL     OW 3904   5.365   2.861   1.446
 1002SOL    HW1 3905   5.434   2.865   1.519
 1002SOL    HW2 3906   5.390   2.925   1.373
 1003SOL     OW 3907   0.529   6.571   2.877
 1003SOL    HW1 3908   0.575   6.622   2.804
 1003SOL    HW2 3909   0.461   6.510   2.838
 1004SOL     OW 3910   5.246   1.347   3.690
 1004SOL    HW1 3911   5.295   1.262   3.711
 1004SOL    HW2 3912   5.213   1.388   3.775
 1005SOL     OW 3913   1.421   4.634   4.055
 1005SOL    HW1 3914   1.482   4.653   4.132
 1005SOL    HW2 3915   1.456   4.680   3.973
 1006SOL     OW 3916   2.105   3.989   0.905
 1006SOL    HW1 3917   2.029   4.024   0.960
 1006SOL    HW2 3918   2.115   4.044   0.822
 1007SOL     OW 3919   4.585   1.770   6.447
 1007SOL    HW1 3920   4.663   1.830   6.431
 1007SOL    HW2 3921   4.618   1.679   6.473
 1008SOL     OW 3922   0.531   4.626   4.917
 1008SOL    HW1 3923   0.485   4.633   4.829
 1008SOL    HW2 3924   0.630   4.620   4.904
 1009SOL     OW 3925   6.451   5.151   5.832
 1009SOL    HW1 3926   6.420   5.205   5.910
 1009SOL    HW2 3927   6.532   5.194   5.792
 1010SOL     OW 3928   2.397   3.754   1.176
 1010SOL    HW1 3929   2.326   3.691   1.209
 1010SOL    HW2 3930   2.459   3.705   1.115
 1011SOL     OW 3931   0.195   5.079   2.989
 1011SOL    HW1 3932   0.278   5.038   3.025
 1011SOL    HW2 3933   0.212   5.111   2.896
 1012SOL     OW 3934   5.584   0.377   2.560
 1012SOL    HW1 3935   5.509   0.422   2.512
 1012SOL    HW2 3936   5.594   0.283   2.526
 1013SOL     OW 3937   6.629   1.174   6.620
 1013SOL    HW1 3938   6.531   1.160   6.607
 1013SOL    HW2 3939   6.680   1.120   6.553
 1014SOL     OW 3940   1.348   4.831   4.739
 1014SOL    HW1 3941   1.406   4.750   4.742
 1014SOL    HW2 3942   1.389   4.903   4.794
 1015SOL     OW 3943   3.738   6.630   6.679
 1015SOL    HW1 3944   3.778   6.704   6.625
 1015SOL    HW2 3945   3.678   6.668   6.750
 1016SOL     OW 3946   5.508   3.872   1.685
 1016SOL    HW1 3947   5.439   3.831   1.745
 1016SOL    HW2 3948   5.561   3.939   1.737
 1017SOL     OW 3949   2.399   1.580   2.931
 1017SOL    HW1 3950   2.325   1.606   2.869
 1017SOL    HW2 3951   2.482   1.563   2.878
 1018SOL     OW 3952   0.275   4.979   3.405
 1018SOL    HW1 3953   0.232   4.946   3.321
 1018SOL    HW2 3954   0.209   5.031   3.458
 1019SOL     OW 3955   0.171   5.122   0.817
 1019SOL    HW1 3956   0.177   5.123   0.717
 1019SOL    HW2 3957   0.094   5.178   0.846
 1020SOL     OW 3958   6.970   6.743   0.858
 1020SOL    HW1 3959   6.994   6.838   0.838
 1020SOL    HW2 3960   0.011   6.682   0.811
 1021SOL     OW 3961   6.176   6.037   1.760
 1021SOL    HW1 3962   6.240   5.962   1.746
 1021SOL    HW2 3963   6.124   6.053   1.676
 1022SOL     OW 3964   2.601   6.456   6.394
 1022SOL    HW1 3965   2.514   6.406   6.396
 1022SOL    HW2 3966   2.676   6.391   6.385
 1023SOL     OW 3967   0.615   1.815   3.370
 1023SOL    HW1 3968   0.563   1.889   3.326
 1023SOL    HW2 3969   0.624   1.834   3.468
 1024SOL     OW 3970   1.397   2.113   5.026
 1024SOL    HW1 3971   1.408   2.035   4.963
 1024SOL    HW2 3972   1.405   2.198   4.974
 1025SOL     OW 3973   4.522   3.708   6.890
 1025SOL    HW1 3974   4.500   3.615   6.917
 1025SOL    HW2 3975   4.613   3.710   6.849
 1026SOL     OW 3976   2.704   2.738   1.326
 1026SOL    HW1 3977   2.756   2.819   1.354
 1026SOL    HW2 3978   2.653   2.703   1.404
 1027SOL     OW 3979   0.599   6.418   1.118
 1027SOL    HW1 3980   0.617   6.468   1.202
 1027SOL    HW2 3981   0.531   6.347   1.135
 1028SOL     OW 3982   0.440   6.024   2.783
 1028SOL    HW1 3983   0.499   6.091   2.827
 1028SOL    HW2 3984   0.464   5.932   2.815
 1029SOL     OW 3985   1.150   1.724   5.904
 1029SOL    HW1 3986   1.244   1.706   5.876
 1029SOL    HW2 3987   1.088   1.700   5.829
 1030SOL     OW 3988   3.214   3.497   1.488
 1030SOL    HW1 3989   3.170   3.408   1.500
 1030SOL    HW2 3990   3.206   3.550   1.572
 1031SOL     OW 3991   3.067   3.269   1.545
 1031SOL    HW1 3992   2.989   3.330   1.559
 1031SOL    HW2 3993   3.045   3.178   1.579
 1032SOL     OW 3994   1.792   1.603   5.976
 1032SOL    HW1 3995   1.809   1.519   5.923
 1032SOL    HW2 3996   1.846   1.678   5.938
 1033SOL     OW 3997   0.748   6.136   2.193
 1033SOL    HW1 3998   0.795   6.146   2.105
 1033SOL    HW2 3999   0.671   6.073   2.182
 1034SOL     OW 4000   3.562   6.986   4.870
 1034SOL    HW1 4001   3.526   0.053   4.894
 1034SOL    HW2 4002   3.662   6.987   4.877
 1035SOL     OW 4003   0.489   1.686   5.747
 1035SOL    HW1 4004   0.535   1.768   5.780
 1035SOL    HW2 4005   0.492   1.683   5.647
 1036SOL     OW 4006   4.894   1.616   0.896
 1036SOL    HW1 4007   4.967   1.548   0.889
 1036SOL    HW2 4008   4.805   1.570   0.890
 1037SOL     OW 4009   1.261   2.476   2.823
 1037SOL    HW1 4010   1.299   2.495   2.913
 1037SOL    HW2 4011   1.334   2.443   2.762
 1038SOL     OW 4012   2.832   0.333   0.005
 1038SOL    HW1 4013   2.872   0.362   0.092
 1038SOL    HW2 4014   2.904   0.302   6.966
 1039SOL     OW 4015   3.514   3.240   3.765
 1039SOL    HW1 4016   3.512   3.231   3.666
 1039SOL    HW2 4017   3.576   3.172   3.804
 1040SOL     OW 4018   4.039   0.876   2.645
 1040SOL    HW1 4019   4.017   0.961   2.694
 1040SOL    HW2 4020   4.138   0.869   2.633
 1041SOL     OW 4021   6.908   6.328   5.931
 1041SOL    HW1 4022   6.906   6.418   5.975
 1041SOL    HW2 4023   6.907   6.256   6.001
 1042SOL     OW 4024   5.072   4.612   2.304
 1042SOL    HW1 4025   5.081   4.674   2.226
 1042SOL    HW2 4026   5.135   4.535   2.293
 1043SOL     OW 4027   3.524   1.311   3.954
 1043SOL    HW1 4028   3.457   1.378   3.986
 1043SOL    HW2 4029   3.616   1.341   3.978
 1044SOL     OW 4030   5.861   5.177   1.405
 1044SOL    HW1 4031   5.838   5.144   1.314
 1044SOL    HW2 4032   5.958   5.161   1.422
 1045SOL     OW 4033   2.413   0.400   4.071
 1045SOL    HW1 4034   2.490   0.345   4.039
 1045SOL    HW2 4035   2.373   0.448   3.994
 1046SOL     OW 4036   3.244   1.421   0.813
 1046SOL    HW1 4037   3.204   1.352   0.754
 1046SOL    HW2 4038   3.182   1.439   0.890
 1047SOL     OW 4039   3.708   6.830   2.897
 1047SOL    HW1 4040   3.692   6.781   2.812
 1047SOL    HW2 4041   3.742   6.922   2.877
 1048SOL     OW 4042   1.486   6.228   2.157
 1048SOL    HW1 4043   1.535   6.308   2.123
 1048SOL    HW2 4044   1.450   6.175   2.079
 1049SOL     OW 4045   4.293   6.624   5.112
 1049SOL    HW1 4046   4.246   6.651   5.195
 1049SOL    HW2 4047   4.374   6.682   5.099
 1050SOL     OW 4048   3.395   5.410   3.764
 1050SOL    HW1 4049   3.299   5.397   3.740
 1050SOL    HW2 4050   3.438   5.321   3.780
 1051SOL     OW 4051   0.117   0.326   0.315
 1051SOL    HW1 4052   0.134   0.285   0.226
 1051SOL    HW2 4053   0.047   0.397   0.307
 1052SOL     OW 4054   3.811   0.542   6.641
 1052SOL    HW1 4055   3.884   0.497   6.590
 1052SOL    HW2 4056   3.744   0.474   6.671
 1053SOL     OW 4057   5.919   3.420   2.650
 1053SOL    HW1 4058   5.909   3.322   2.631
 1053SOL    HW2 4059   6.016   3.444   2.649
 1054SOL     OW 4060   3.217   4.261   0.017
 1054SOL    HW1 4061   3.251   4.353   0.041
 1054SOL    HW2 4062   3.144   4.235   0.080
 1055SOL     OW 4063   4.479   5.782   6.440
 1055SOL    HW1 4064   4.450   5.875   6.464
 1055SOL    HW2 4065   4.465   5.767   6.343
 1056SOL     OW 4066   2.311   4.244   6.693
 1056SOL    HW1 4067   2.334   4.243   6.790
 1056SOL    HW2 4068   2.384   4.199   6.641
 1057SOL     OW 4069   3.242   1.723   1.519
 1057SOL    HW1 4070   3.231   1.768   1.430
 1057SOL    HW2 4071   3.270   1.628   1.506
 1058SOL     OW 4072   2.921   1.760   2.968
 1058SOL    HW1 4073   2.881   1.846   2.937
 1058SOL    HW2 4074   3.012   1.749   2.927
 1059SOL     OW 4075   2.411   5.933   1.629
 1059SOL    HW1 4076   2.415   5.967   1.723
 1059SOL    HW2 4077   2.504   5.925   1.592
 1060SOL     OW 4078   6.558   6.211   5.773
 1060SOL    HW1 4079   6.653   6.196   5.744
 1060SOL    HW2 4080   6.514   6.275   5.710
 1061SOL     OW 4081   6.556   3.960   0.190
 1061SOL    HW1 4082   6.642   4.011   0.198
 1061SOL    HW2 4083   6.569   3.867   0.227
 1062SOL     OW 4084   3.633   6.457   5.357
 1062SOL    HW1 4085   3.698   6.519   5.314
 1062SOL    HW2 4086   3.595   6.396   5.288
 1063SOL     OW 4087   1.636   6.204   5.607
 1063SOL    HW1 4088   1.554   6.220   5.662
 1063SOL    HW2 4089   1.680   6.291   5.586
 1064SOL     OW 4090   0.770   4.801   0.997
 1064SOL    HW1 4091   0.860   4.814   1.039
 1064SOL    HW2 4092   0.723   4.725   1.042
 1065SOL     OW 4093   4.223   0.298   4.629
 1065SOL    HW1 4094   4.129   0.320   4.656
 1065SOL    HW2 4095   4.223   0.261   4.536
 1066SOL     OW 4096   4.971   0.212   2.110
 1066SOL    HW1 4097   5.051   0.194   2.167
 1066SOL    HW2 4098   4.935   0.303   2.130
 1067SOL     OW 4099   2.776   1.085   0.363
 1067SOL    HW1 4100   2.785   1.180   0.331
 1067SOL    HW2 4101   2.679   1.061   0.367
 1068SOL     OW 4102   6.259   3.147   1.405
 1068SOL    HW1 4103   6.352   3.176   1.380
 1068SOL    HW2 4104   6.250   3.049   1.391
 1069SOL     OW 4105   6.493   4.018   1.892
 1069SOL    HW1 4106   6.586   3.984   1.879
 1069SOL    HW2 4107   6.497   4.109   1.934
 1070SOL     OW 4108   1.075   0.796   2.378
 1070SOL    HW1 4109   1.128   0.789   2.294
 1070SOL    HW2 4110   1.004   0.725   2.379
 1071SOL     OW 4111   6.882   2.701   5.203
 1071SOL    HW1 4112   6.803   2.745   5.245
 1071SOL    HW2 4113   6.917   2.758   5.129
 1072SOL     OW 4114   2.995   1.319   2.496
 1072SOL    HW1 4115   3.072   1.373   2.531
 1072SOL    HW2 4116   2.919   1.323   2.561
 1073SOL     OW 4117   5.185   1.620   3.563
 1073SOL    HW1 4118   5.186   1.565   3.479
 1073SOL    HW2 4119   5.171   1.561   3.642
 1074SOL     OW 4120   3.225   4.996   2.142
 1074SOL    HW1 4121   3.134   4.956   2.146
 1074SOL    HW2 4122   3.232   5.058   2.065
 1075SOL     OW 4123   5.899   2.788   5.206
 1075SOL    HW1 4124   5.963   2.728   5.156
 1075SOL    HW2 4125   5.834   2.732   5.257
 1076SOL     OW 4126   2.052   3.991   5.027
 1076SOL    HW1 4127   2.150   4.008   5.016
 1076SOL    HW2 4128   2.004   4.013   4.942
 1077SOL     OW 4129   6.557   0.154   0.304
 1077SOL    HW1 4130   6.458   0.162   0.292
 1077SOL    HW2 4131   6.604   0.206   0.233
 1078SOL     OW 4132   6.594   6.036   4.034
 1078SOL    HW1 4133   6.575   5.957   4.093
 1078SOL    HW2 4134   6.597   6.007   3.939
 1079SOL     OW 4135   0.956   5.832   2.681
 1079SOL    HW1 4136   1.023   5.900   2.711
 1079SOL    HW2 4137   0.935   5.845   2.584
 1080SOL     OW 4138   1.921   5.009   5.638
 1080SOL    HW1 4139   2.007   4.969   5.605
 1080SOL    HW2 4140   1.857   4.935   5.660
 1081SOL     OW 4141   6.210   5.704   4.565
 1081SOL    HW1 4142   6.300   5.693   4.607
 1081SOL    HW2 4143   6.177   5.797   4.582
 1082SOL     OW 4144   5.573   6.964   6.116
 1082SOL    HW1 4145   5.531   6.877   6.094
 1082SOL    HW2 4146   5.561   0.005   6.040
 1083SOL     OW 4147   5.248   4.225   0.797
 1083SOL    HW1 4148   5.277   4.260   0.707
 1083SOL    HW2 4149   5.149   4.219   0.799
 1084SOL     OW 4150   0.241   0.053   6.396
 1084SOL    HW1 4151   0.312   0.094   6.454
 1084SOL    HW2 4152   0.250   0.087   6.303
 1085SOL     OW 4153   2.025   4.260   4.346
 1085SOL    HW1 4154   2.125   4.252   4.340
 1085SOL    HW2 4155   1.984   4.173   4.318
 1086SOL     OW 4156   6.244   4.687   7.007
 1086SOL    HW1 4157   6.264   4.627   0.062
 1086SOL    HW2 4158   6.195   4.768   0.016
 1087SOL     OW 4159   2.041   0.580   5.297
 1087SOL    HW1 4160   1.956   0.631   5.312
 1087SOL    HW2 4161   2.096   0.583   5.381
 1088SOL     OW 4162   6.759   4.858   3.336
 1088SOL    HW1 4163   6.740   4.787   3.404
 1088SOL    HW2 4164   6.829   4.826   3.272
 1089SOL     OW 4165   6.330   4.067   4.833
 1089SOL    HW1 4166   6.242   4.032   4.864
 1089SOL    HW2 4167   6.403   4.013   4.874
 1090SOL     OW 4168   5.031   1.491   4.308
 1090SOL    HW1 4169   5.105   1.550   4.340
 1090SOL    HW2 4170   4.943   1.528   4.340
 1091SOL     OW 4171   2.127   2.833   3.374
 1091SOL    HW1 4172   2.189   2.769   3.328
 1091SOL    HW2 4173   2.139   2.826   3.473
 1092SOL     OW 4174   0.677   5.161   0.464
 1092SOL    HW1 4175   0.704   5.107   0.544
 1092SOL    HW2 4176   0.585   5.134   0.436
 1093SOL     OW 4177   2.507   0.189   1.315
 1093SOL    HW1 4178   2.491   0.103   1.266
 1093SOL    HW2 4179   2.501   0.173   1.413
 1094SOL     OW 4180   1.198   0.195   3.121
 1094SOL    HW1 4181   1.294   0.219   3.107
 1094SOL    HW2 4182   1.162   0.152   3.038
 1095SOL     OW 4183   6.971   3.200   0.124
 1095SOL    HW1 4184   6.999   3.194   0.220
 1095SOL    HW2 4185   0.005   3.267   0.077
 1096SOL     OW 4186   2.967   5.654   1.526
 1096SOL    HW1 4187   3.052   5.631   1.572
 1096SOL    HW2 4188   2.890   5.624   1.582
 1097SOL     OW 4189   2.644   5.090   3.695
 1097SOL    HW1 4190   2.587   5.114   3.774
 1097SOL    HW2 4191   2.738   5.076   3.726
 1098SOL     OW 4192   6.080   4.991   0.555
 1098SOL    HW1 4193   6.167   4.988   0.604
 1098SOL    HW2 4194   6.014   4.933   0.602
 1099SOL     OW 4195   4.813   1.000   6.490
 1099SOL    HW1 4196   4.813   0.994   6.590
 1099SOL    HW2 4197   4.747   1.070   6.461
 1100SOL     OW 4198   3.482   1.286   3.518
 1100SOL    HW1 4199   3.498   1.385   3.525
 1100SOL    HW2 4200   3.387   1.266   3.541
 1101SOL     OW 4201   6.108   2.961   5.831
 1101SOL    HW1 4202   6.053   2.958   5.914
 1101SOL    HW2 4203   6.181   3.029   5.842
 1102SOL     OW 4204   2.165   0.547   4.588
 1102SOL    HW1 4205   2.116   0.626   4.624
 1102SOL    HW2 4206   2.103   0.491   4.535
 1103SOL     OW 4207   3.130   0.577   6.406
 1103SOL    HW1 4208   3.168   0.594   6.497
 1103SOL    HW2 4209   3.065   0.649   6.382
 1104SOL     OW 4210   0.508   3.564   3.460
 1104SOL    HW1 4211   0.560   3.479   3.466
 1104SOL    HW2 4212   0.463   3.569   3.371
 1105SOL     OW 4213   5.380   1.364   4.857
 1105SOL    HW1 4214   5.385   1.286   4.796
 1105SOL    HW2 4215   5.456   1.361   4.922
 1106SOL     OW 4216   0.517   1.536   0.415
 1106SOL    HW1 4217   0.493   1.574   0.505
 1106SOL    HW2 4218   0.529   1.610   0.350
 1107SOL     OW 4219   0.512   0.568   0.140
 1107SOL    HW1 4220   0.533   0.647   0.084
 1107SOL    HW2 4221   0.579   0.496   0.122
 1108SOL     OW 4222   2.786   6.436   4.019
 1108SOL    HW1 4223   2.839   6.480   3.946
 1108SOL    HW2 4224   2.690   6.462   4.011
 1109SOL     OW 4225   5.208   1.655   4.411
 1109SOL    HW1 4226   5.253   1.741   4.438
 1109SOL    HW2 4227   5.218   1.589   4.485
 1110SOL     OW 4228   3.569   0.461   2.297
 1110SOL    HW1 4229   3.614   0.454   2.386
 1110SOL    HW2 4230   3.470   0.471   2.310
 1111SOL     OW 4231   4.724   3.506   6.251
 1111SOL    HW1 4232   4.668   3.492   6.169
 1111SOL    HW2 4233   4.684   3.579   6.306
 1112SOL     OW 4234   5.522   0.652   2.235
 1112SOL    HW1 4235   5.551   0.559   2.213
 1112SOL    HW2 4236   5.505   0.659   2.333
 1113SOL     OW 4237   6.321   4.588   2.220
 1113SOL    HW1 4238   6.242   4.630   2.176
 1113SOL    HW2 4239   6.303   4.579   2.318
 1114SOL     OW 4240   4.561   3.141   5.795
 1114SOL    HW1 4241   4.529   3.232   5.768
 1114SOL    HW2 4242   4.503   3.071   5.752
 1115SOL     OW 4243   3.133   4.001   5.839
 1115SOL    HW1 4244   3.135   3.916   5.890
 1115SOL    HW2 4245   3.054   4.002   5.777
 1116SOL     OW 4246   5.061   0.296   6.016
 1116SOL    HW1 4247   5.057   0.393   5.991
 1116SOL    HW2 4248   5.156   0.270   6.033
 1117SOL     OW 4249   1.000   2.572   1.813
 1117SOL    HW1 4250   0.998   2.580   1.912
 1117SOL    HW2 4251   0.923   2.622   1.773
 1118SOL     OW 4252   2.936   4.854   0.036
 1118SOL    HW1 4253   2.847   4.849   7.014
 1118SOL    HW2 4254   3.009   4.838   6.992
 1119SOL     OW 4255   4.041   5.286   3.957
 1119SOL    HW1 4256   4.121   5.228   3.971
 1119SOL    HW2 4257   4.054   5.342   3.875
 1120SOL     OW 4258   6.951   5.246   0.863
 1120SOL    HW1 4259   6.865   5.274   0.907
 1120SOL    HW2 4260   6.931   5.177   0.793
 1121SOL     OW 4261   0.379   4.800   4.462
 1121SOL    HW1 4262   0.380   4.822   4.364
 1121SOL    HW2 4263   0.364   4.884   4.514
 1122SOL     OW 4264   5.528   2.565   1.635
 1122SOL    HW1 4265   5.523   2.534   1.730
 1122SOL    HW2 4266   5.538   2.664   1.632
 1123SOL     OW 4267   4.063   2.189   3.073
 1123SOL    HW1 4268   4.104   2.161   2.986
 1123SOL    HW2 4269   3.978   2.139   3.087
 1124SOL     OW 4270   2.162   3.053   4.990
 1124SOL    HW1 4271   2.248   3.031   5.036
 1124SOL    HW2 4272   2.136   3.147   5.011
 1125SOL     OW 4273   0.852   4.066   3.976
 1125SOL    HW1 4274   0.946   4.089   3.950
 1125SOL    HW2 4275   0.853   4.019   4.065
 1126SOL     OW 4276   3.998   5.231   5.370
 1126SOL    HW1 4277   4.008   5.326   5.340
 1126SOL    HW2 4278   4.008   5.226   5.469
 1127SOL     OW 4279   5.967   6.502   3.222
 1127SOL    HW1 4280   5.948   6.600   3.210
 1127SOL    HW2 4281   5.944   6.475   3.315
 1128SOL     OW 4282   6.448   1.872   3.526
 1128SOL    HW1 4283   6.452   1.917   3.615
 1128SOL    HW2 4284   6.353   1.856   3.501
 1129SOL     OW 4285   1.950   0.649   1.325
 1129SOL    HW1 4286   1.964   0.557   1.289
 1129SOL    HW2 4287   2.038   0.691   1.346
 1130SOL     OW 4288   2.172   5.593   2.880
 1130SOL    HW1 4289   2.093   5.642   2.918
 1130SOL    HW2 4290   2.142   5.536   2.803
 1131SOL     OW 4291   1.506   6.537   4.315
 1131SOL    HW1 4292   1.599   6.506   4.297
 1131SOL    HW2 4293   1.482   6.517   4.410
 1132SOL     OW 4294   3.613   1.396   2.954
 1132SOL    HW1 4295   3.520   1.423   2.980
 1132SOL    HW2 4296   3.669   1.478   2.942
 1133SOL     OW 4297   0.881   6.526   4.834
 1133SOL    HW1 4298   0.787   6.505   4.862
 1133SOL    HW2 4299   0.919   6.449   4.783
 1134SOL     OW 4300   4.173   0.143   1.514
 1134SOL    HW1 4301   4.147   0.050   1.539
 1134SOL    HW2 4302   4.105   0.181   1.451
 1135SOL     OW 4303   1.973   6.114   3.742
 1135SOL    HW1 4304   1.895   6.165   3.778
 1135SOL    HW2 4305   2.046   6.112   3.809
 1136SOL     OW 4306   2.938   5.694   2.113
 1136SOL    HW1 4307   2.844   5.668   2.094
 1136SOL    HW2 4308   2.999   5.655   2.044
 1137SOL     OW 4309   0.467   5.406   6.518
 1137SOL    HW1 4310   0.489   5.399   6.420
 1137SOL    HW2 4311   0.430   5.497   6.537
 1138SOL     OW 4312   1.935   2.916   5.065
 1138SOL    HW1 4313   1.897   2.864   4.988
 1138SOL    HW2 4314   2.022   2.957   5.038
 1139SOL     OW 4315   2.937   5.187   4.253
 1139SOL    HW1 4316   2.978   5.096   4.255
 1139SOL    HW2 4317   2.983   5.243   4.184
 1140SOL     OW 4318   1.492   1.380   2.067
 1140SOL    HW1 4319   1.487   1.479   2.068
 1140SOL    HW2 4320   1.480   1.344   2.159
 1141SOL     OW 4321   5.924   4.823   5.822
 1141SOL    HW1 4322   5.971   4.850   5.906
 1141SOL    HW2 4323   5.991   4.789   5.756
 1142SOL     OW 4324   2.776   6.985   3.030
 1142SOL    HW1 4325   2.842   6.968   3.103
 1142SOL    HW2 4326   2.730   6.899   3.006
 1143SOL     OW 4327   0.671   3.624   1.839
 1143SOL    HW1 4328   0.637   3.679   1.916
 1143SOL    HW2 4329   0.687   3.683   1.760
 1144SOL     OW 4330   5.738   4.309   2.459
 1144SOL    HW1 4331   5.780   4.221   2.480
 1144SOL    HW2 4332   5.693   4.304   2.370
 1145SOL     OW 4333   0.801   1.819   0.103
 1145SOL    HW1 4334   0.709   1.841   0.071
 1145SOL    HW2 4335   0.816   1.720   0.098
 1146SOL     OW 4336   0.669   0.942   1.903
 1146SOL    HW1 4337   0.712   0.912   1.988
 1146SOL    HW2 4338   0.612   1.022   1.921
 1147SOL     OW 4339   3.323   6.663   0.994
 1147SOL    HW1 4340   3.352   6.580   1.042
 1147SOL    HW2 4341   3.398   6.729   0.994
 1148SOL     OW 4342   3.663   5.826   2.507
 1148SOL    HW1 4343   3.737   5.795   2.567
 1148SOL    HW2 4344   3.690   5.911   2.463
 1149SOL     OW 4345   5.103   2.137   1.419
 1149SOL    HW1 4346   5.192   2.162   1.380
 1149SOL    HW2 4347   5.031   2.188   1.373
 1150SOL     OW 4348   1.340   4.281   6.963
 1150SOL    HW1 4349   1.269   4.245   6.902
 1150SOL    HW2 4350   1.420   4.308   6.910
 1151SOL     OW 4351   6.264   5.422   3.542
 1151SOL    HW1 4352   6.242   5.516   3.515
 1151SOL    HW2 4353   6.321   5.424   3.624
 1152SOL     OW 4354   4.840   0.196   6.723
 1152SOL    HW1 4355   4.758   0.140   6.726
 1152SOL    HW2 4356   4.817   0.288   6.692
 1153SOL     OW 4357   6.386   0.521   1.228
 1153SOL    HW1 4358   6.461   0.507   1.163
 1153SOL    HW2 4359   6.328   0.440   1.230
 1154SOL     OW 4360   1.304   3.292   1.943
 1154SOL    HW1 4361   1.357   3.219   1.901
 1154SOL    HW2 4362   1.361   3.341   2.009
 1155SOL     OW 4363   2.694   6.540   4.525
 1155SOL    HW1 4364   2.698   6.442   4.541
 1155SOL    HW2 4365   2.719   6.589   4.608
 1156SOL     OW 4366   4.207   1.960   4.563
 1156SOL    HW1 4367   4.145   1.891   4.599
 1156SOL    HW2 4368   4.301   1.932   4.578
 1157SOL     OW 4369   3.829   0.524   5.888
 1157SOL    HW1 4370   3.856   0.505   5.793
 1157SOL    HW2 4371   3.761   0.456   5.917
 1158SOL     OW 4372   6.108   6.194   2.966
 1158SOL    HW1 4373   6.144   6.105   2.994
 1158SOL    HW2 4374   6.041   6.226   3.033
 1159SOL     OW 4375   6.708   6.184   2.472
 1159SOL    HW1 4376   6.664   6.229   2.550
 1159SOL    HW2 4377   6.667   6.093   2.459
 1160SOL     OW 4378   4.477   0.676   0.601
 1160SOL    HW1 4379   4.569   0.703   0.569
 1160SOL    HW2 4380   4.425   0.641   0.523
 1161SOL     OW 4381   0.468   5.363   6.999
 1161SOL    HW1 4382   0.452   5.315   6.913
 1161SOL    HW2 4383   0.566   5.374   7.013
 1162SOL     OW 4384   1.984   3.156   5.279
 1162SOL    HW1 4385   1.925   3.098   5.223
 1162SOL    HW2 4386   2.003   3.241   5.230
 1163SOL     OW 4387   6.227   4.313   1.396
 1163SOL    HW1 4388   6.225   4.347   1.491
 1163SOL    HW2 4389   6.134   4.300   1.363
 1164SOL     OW 4390   4.894   1.770   4.274
 1164SOL    HW1 4391   4.870   1.802   4.366
 1164SOL    HW2 4392   4.891   1.847   4.210
 1165SOL     OW 4393   3.764   6.172   3.626
 1165SOL    HW1 4394   3.857   6.169   3.590
 1165SOL    HW2 4395   3.733   6.267   3.632
 1166SOL     OW 4396   2.734   6.337   6.719
 1166SOL    HW1 4397   2.667   6.337   6.793
 1166SOL    HW2 4398   2.688   6.353   6.632
 1167SOL     OW 4399   5.343   4.678   2.374
 1167SOL    HW1 4400   5.370   4.752   2.435
 1167SOL    HW2 4401   5.244   4.679   2.363
 1168SOL     OW 4402   6.131   2.426   2.911
 1168SOL    HW1 4403   6.192   2.462   2.840
 1168SOL    HW2 4404   6.049   2.388   2.869
 1169SOL     OW 4405   5.622   0.877   4.723
 1169SOL    HW1 4406   5.598   0.960   4.774
 1169SOL    HW2 4407   5.711   0.844   4.754
 1170SOL     OW 4408   4.869   6.950   3.373
 1170SOL    HW1 4409   4.792   6.887   3.360
 1170SOL    HW2 4410   4.871   6.981   3.467
 1171SOL     OW 4411   1.547   0.619   1.186
 1171SOL    HW1 4412   1.568   0.522   1.176
 1171SOL    HW2 4413   1.459   0.630   1.232
 1172SOL     OW 4414   6.784   3.864   6.712
 1172SOL    HW1 4415   6.863   3.867   6.773
 1172SOL    HW2 4416   6.812   3.893   6.620
 1173SOL     OW 4417   3.210   1.458   1.431
 1173SOL    HW1 4418   3.261   1.498   1.355
 1173SOL    HW2 4419   3.214   1.358   1.426
 1174SOL     OW 4420   3.808   3.918   0.956
 1174SOL    HW1 4421   3.717   3.907   0.994
 1174SOL    HW2 4422   3.867   3.844   0.988
 1175SOL     OW 4423   3.548   3.188   5.065
 1175SOL    HW1 4424   3.634   3.213   5.021
 1175SOL    HW2 4425   3.524   3.094   5.040
 1176SOL     OW 4426   5.557   3.837   6.355
 1176SOL    HW1 4427   5.544   3.915   6.417
 1176SOL    HW2 4428   5.476   3.779   6.358
 1177SOL     OW 4429   6.531   2.180   4.669
 1177SOL    HW1 4430   6.458   2.133   4.718
 1177SOL    HW2 4431   6.510   2.277   4.661
 1178SOL     OW 4432   3.171   4.771   0.415
 1178SOL    HW1 4433   3.176   4.856   0.363
 1178SOL    HW2 4434   3.252   4.763   0.474
 1179SOL     OW 4435   2.485   5.283   0.692
 1179SOL    HW1 4436   2.413   5.327   0.747
 1179SOL    HW2 4437   2.494   5.187   0.720
 1180SOL     OW 4438   2.793   5.946   1.138
 1180SOL    HW1 4439   2.870   5.936   1.200
 1180SOL    HW2 4440   2.826   5.971   1.047
 1181SOL     OW 4441   0.155   5.633   6.468
 1181SOL    HW1 4442   0.154   5.537   6.439
 1181SOL    HW2 4443   0.092   5.685   6.410
 1182SOL     OW 4444   3.666   5.187   2.955
 1182SOL    HW1 4445   3.623   5.276   2.968
 1182SOL    HW2 4446   3.611   5.132   2.892
 1183SOL     OW 4447   1.986   3.904   6.357
 1183SOL    HW1 4448   1.903   3.951   6.326
 1183SOL    HW2 4449   2.066   3.943   6.310
 1184SOL     OW 4450   1.466   0.383   5.115
 1184SOL    HW1 4451   1.370   0.387   5.140
 1184SOL    HW2 4452   1.475   0.342   5.024
 1185SOL     OW 4453   6.867   1.193   6.805
 1185SOL    HW1 4454   6.893   1.289   6.807
 1185SOL    HW2 4455   6.792   1.180   6.740
 1186SOL     OW 4456   4.850   5.896   4.459
 1186SOL    HW1 4457   4.841   5.986   4.416
 1186SOL    HW2 4458   4.890   5.907   4.550
 1187SOL     OW 4459   6.543   0.114   6.049
 1187SOL    HW1 4460   6.636   0.138   6.020
 1187SOL    HW2 4461   6.544   0.025   6.094
 1188SOL     OW 4462   2.893   6.448   4.738
 1188SOL    HW1 4463   2.904   6.400   4.651
 1188SOL    HW2 4464   2.983   6.457   4.783
 1189SOL     OW 4465   6.479   3.486   2.940
 1189SOL    HW1 4466   6.422   3.409   2.968
 1189SOL    HW2 4467   6.491   3.548   3.018
 1190SOL     OW 4468   2.008   6.331   3.219
 1190SOL    HW1 4469   1.995   6.357   3.315
 1190SOL    HW2 4470   2.104   6.305   3.204
 1191SOL     OW 4471   4.143   5.427   3.025
 1191SOL    HW1 4472   4.056   5.388   2.995
 1191SOL    HW2 4473   4.196   5.357   3.072
 1192SOL     OW 4474   4.097   5.751   2.923
 1192SOL    HW1 4475   4.092   5.847   2.894
 1192SOL    HW2 4476   4.162   5.702   2.865
 1193SOL     OW 4477   5.935   4.499   4.412
 1193SOL    HW1 4478   6.028   4.499   4.448
 1193SOL    HW2 4479   5.889   4.584   4.436
 1194SOL     OW 4480   5.238   0.645   1.244
 1194SOL    HW1 4481   5.141   0.666   1.254
 1194SOL    HW2 4482   5.291   0.704   1.305
 1195SOL     OW 4483   6.000   4.223   1.734
 1195SOL    HW1 4484   6.070   4.152   1.727
 1195SOL    HW2 4485   5.954   4.215   1.823
 1196SOL     OW 4486   6.685   6.516   3.769
 1196SOL    HW1 4487   6.694   6.447   3.841
 1196SOL    HW2 4488   6.754   6.588   3.783
 1197SOL     OW 4489   3.498   0.353   6.761
 1197SOL    HW1 4490   3.530   0.284   6.696
 1197SOL    HW2 4491   3.437   0.309   6.828
 1198SOL     OW 4492   1.495   2.001   0.730
 1198SOL    HW1 4493   1.455   1.910   0.719
 1198SOL    HW2 4494   1.594   1.993   0.741
 1199SOL     OW 4495   4.903   5.179   1.398
 1199SOL    HW1 4496   4.943   5.247   1.337
 1199SOL    HW2 4497   4.964   5.100   1.406
 1200SOL     OW 4498   3.339   3.361   2.853
 1200SOL    HW1 4499   3.327   3.428   2.779
 1200SOL    HW2 4500   3.355   3.409   2.939
 1201SOL     OW 4501   1.421   1.420   4.893
 1201SOL    HW1 4502   1.472   1.381   4.969
 1201SOL    HW2 4503   1.348   1.478   4.928
 1202SOL     OW 4504   0.831   5.260   6.774
 1202SOL    HW1 4505   0.780   5.285   6.856
 1202SOL    HW2 4506   0.768   5.226   6.704
 1203SOL     OW 4507   4.891   5.989   6.039
 1203SOL    HW1 4508   4.982   5.982   5.997
 1203SOL    HW2 4509   4.838   5.907   6.016
 1204SOL     OW 4510   2.381   0.692   1.665
 1204SOL    HW1 4511   2.444   0.732   1.599
 1204SOL    HW2 4512   2.340   0.610   1.626
 1205SOL     OW 4513   5.109   4.170   1.688
 1205SOL    HW1 4514   5.015   4.200   1.703
 1205SOL    HW2 4515   5.114   4.119   1.602
 1206SOL     OW 4516   2.888   3.472   4.497
 1206SOL    HW1 4517   2.884   3.446   4.593
 1206SOL    HW2 4518   2.820   3.543   4.479
 1207SOL     OW 4519   2.366   6.860   1.529
 1207SOL    HW1 4520   2.283   6.817   1.493
 1207SOL    HW2 4521   2.446   6.828   1.477
 1208SOL     OW 4522   3.661   3.890   0.340
 1208SOL    HW1 4523   3.684   3.980   0.377
 1208SOL    HW2 4524   3.562   3.879   0.339
 1209SOL     OW 4525   3.485   0.391   5.513
 1209SOL    HW1 4526   3.442   0.480   5.528
 1209SOL    HW2 4527   3.425   0.319   5.548
 1210SOL     OW 4528   2.941   6.655   3.615
 1210SOL    HW1 4529   3.002   6.733   3.629
 1210SOL    HW2 4530   2.889   6.668   3.531
 1211SOL     OW 4531   1.235   4.039   1.015
 1211SOL    HW1 4532   1.231   4.092   0.930
 1211SOL    HW2 4533   1.180   4.084   1.085
 1212SOL     OW 4534   0.100   0.262   6.696
 1212SOL    HW1 4535   0.179   0.268   6.635
 1212SOL    HW2 4536   0.025   0.316   6.659
 1213SOL     OW 4537   6.102   2.947   0.697
 1213SOL    HW1 4538   6.049   2.864   0.711
 1213SOL    HW2 4539   6.105   2.998   0.783
 1214SOL     OW 4540   7.021   1.782   1.032
 1214SOL    HW1 4541   7.009   1.843   0.954
 1214SOL    HW2 4542   0.044   1.699   1.003
 1215SOL     OW 4543   1.349   4.469   4.555
 1215SOL    HW1 4544   1.310   4.407   4.624
 1215SOL    HW2 4545   1.388   4.415   4.480
 1216SOL     OW 4546   4.263   0.642   6.754
 1216SOL    HW1 4547   4.247   0.606   6.662
 1216SOL    HW2 4548   4.176   0.675   6.792
 1217SOL     OW 4549   2.112   4.671   0.425
 1217SOL    HW1 4550   2.081   4.577   0.437
 1217SOL    HW2 4551   2.043   4.734   0.461
 1218SOL     OW 4552   0.964   4.830   4.097
 1218SOL    HW1 4553   1.047   4.828   4.042
 1218SOL    HW2 4554   0.981   4.882   4.181
 1219SOL     OW 4555   4.722   6.400   1.774
 1219SOL    HW1 4556   4.730   6.310   1.816
 1219SOL    HW2 4557   4.745   6.394   1.677
 1220SOL     OW 4558   1.122   5.174   2.863
 1220SOL    HW1 4559   1.085   5.127   2.783
 1220SOL    HW2 4560   1.047   5.210   2.918
 1221SOL     OW 4561   5.836   3.002   5.351
 1221SOL    HW1 4562   5.747   2.959   5.362
 1221SOL    HW2 4563   5.902   2.934   5.318
 1222SOL     OW 4564   6.472   6.697   6.876
 1222SOL    HW1 4565   6.555   6.680   6.823
 1222SOL    HW2 4566   6.435   6.610   6.909
 1223SOL     OW 4567   3.737   0.292   0.805
 1223SOL    HW1 4568   3.780   0.279   0.894
 1223SOL    HW2 4569   3.792   0.247   0.734
 1224SOL     OW 4570   2.434   0.659   1.088
 1224SOL    HW1 4571   2.412   0.563   1.104
 1224SOL    HW2 4572   2.350   0.713   1.092
 1225SOL     OW 4573   3.110   3.869   6.231
 1225SOL    HW1 4574   3.036   3.936   6.236
 1225SOL    HW2 4575   3.072   3.779   6.209
 1226SOL     OW 4576   2.276   4.782   1.260
 1226SOL    HW1 4577   2.242   4.818   1.346
 1226SOL    HW2 4578   2.266   4.682   1.260
 1227SOL     OW 4579   6.941   3.616   7.002
 1227SOL    HW1 4580   6.851   3.617   0.021
 1227SOL    HW2 4581   6.954   3.698   6.947
 1228SOL     OW 4582   3.487   2.385   6.099
 1228SOL    HW1 4583   3.562   2.451   6.095
 1228SOL    HW2 4584   3.405   2.426   6.059
 1229SOL     OW 4585   4.270   4.739   6.472
 1229SOL    HW1 4586   4.223   4.702   6.392
 1229SOL    HW2 4587   4.339   4.805   6.442
 1230SOL     OW 4588   4.289   6.811   3.451
 1230SOL    HW1 4589   4.202   6.763   3.444
 1230SOL    HW2 4590   4.274   6.909   3.434
 1231SOL     OW 4591   2.000   3.584   4.963
 1231SOL    HW1 4592   1.915   3.612   5.009
 1231SOL    HW2 4593   2.073   3.575   5.030
 1232SOL     OW 4594   1.388   2.567   5.275
 1232SOL    HW1 4595   1.454   2.501   5.311
 1232SOL    HW2 4596   1.391   2.566   5.175
 1233SOL     OW 4597   1.046   2.231   5.664
 1233SOL    HW1 4598   1.131   2.228   5.716
 1233SOL    HW2 4599   1.000   2.143   5.670
 1234SOL     OW 4600   6.348   4.260   4.618
 1234SOL    HW1 4601   6.334   4.184   4.554
 1234SOL    HW2 4602   6.365   4.224   4.709
 1235SOL     OW 4603   6.452   6.007   3.320
 1235SOL    HW1 4604   6.543   5.976   3.291
 1235SOL    HW2 4605   6.428   5.965   3.407
 1236SOL     OW 4606   5.180   0.637   6.280
 1236SOL    HW1 4607   5.155   0.626   6.184
 1236SOL    HW2 4608   5.191   0.735   6.300
 1237SOL     OW 4609   2.553   4.770   6.697
 1237SOL    HW1 4610   2.535   4.674   6.676
 1237SOL    HW2 4611   2.647   4.793   6.673
 1238SOL     OW 4612   1.888   1.543   1.137
 1238SOL    HW1 4613   1.794   1.528   1.104
 1238SOL    HW2 4614   1.890   1.625   1.195
 1239SOL     OW 4615   6.916   6.192   6.549
 1239SOL    HW1 4616   6.843   6.166   6.612
 1239SOL    HW2 4617   6.993   6.129   6.558
 1240SOL     OW 4618   5.601   6.094   1.949
 1240SOL    HW1 4619   5.644   6.180   1.920
 1240SOL    HW2 4620   5.502   6.107   1.955
 1241SOL     OW 4621   6.492   3.336   4.538
 1241SOL    HW1 4622   6.520   3.271   4.467
 1241SOL    HW2 4623   6.466   3.423   4.494
 1242SOL     OW 4624   1.366   3.785   0.771
 1242SOL    HW1 4625   1.402   3.775   0.678
 1242SOL    HW2 4626   1.440   3.809   0.833
 1243SOL     OW 4627   2.260   5.314   5.322
 1243SOL    HW1 4628   2.190   5.259   5.278
 1243SOL    HW2 4629   2.220   5.399   5.357
 1244SOL     OW 4630   0.546   1.076   3.486
 1244SOL    HW1 4631   0.606   1.090   3.408
 1244SOL    HW2 4632   0.601   1.060   3.568
 1245SOL     OW 4633   2.805   3.908   6.861
 1245SOL    HW1 4634   2.830   3.815   6.885
 1245SOL    HW2 4635   2.834   3.927   6.767
 1246SOL     OW 4636   2.401   6.385   1.810
 1246SOL    HW1 4637   2.490   6.399   1.766
 1246SOL    HW2 4638   2.328   6.421   1.751
 1247SOL     OW 4639   2.243   6.718   6.238
 1247SOL    HW1 4640   2.319   6.761   6.189
 1247SOL    HW2 4641   2.261   6.722   6.336
 1248SOL     OW 4642   1.927   5.638   2.992
 1248SOL    HW1 4643   1.912   5.703   3.067
 1248SOL    HW2 4644   1.952   5.549   3.030
 1249SOL     OW 4645   5.795   3.285   3.178
 1249SOL    HW1 4646   5.857   3.286   3.257
 1249SOL    HW2 4647   5.821   3.359   3.115
 1250SOL     OW 4648   1.163   4.882   3.880
 1250SOL    HW1 4649   1.081   4.928   3.845
 1250SOL    HW2 4650   1.214   4.844   3.803
 1251SOL     OW 4651   3.957   0.715   4.357
 1251SOL    HW1 4652   3.991   0.785   4.294
 1251SOL    HW2 4653   3.952   0.754   4.449
 1252SOL     OW 4654   3.226   4.097   5.539
 1252SOL    HW1 4655   3.246   4.171   5.476
 1252SOL    HW2 4656   3.212   4.012   5.488
 1253SOL     OW 4657   3.623   5.240   2.000
 1253SOL    HW1 4658   3.565   5.173   2.046
 1253SOL    HW2 4659   3.661   5.303   2.067
 1254SOL     OW 4660   6.119   2.037   2.748
 1254SOL    HW1 4661   6.189   1.987   2.799
 1254SOL    HW2 4662   6.030   1.992   2.760
 1255SOL     OW 4663   0.314   0.083   5.587
 1255SOL    HW1 4664   0.249   0.103   5.514
 1255SOL    HW2 4665   0.337   7.009   5.587
 1256SOL     OW 4666   6.245   0.097   3.173
 1256SOL    HW1 4667   6.320   0.072   3.112
 1256SOL    HW2 4668   6.214   0.016   3.223
 1257SOL     OW 4669   6.825   0.716   3.466
 1257SOL    HW1 4670   6.911   0.747   3.426
 1257SOL    HW2 4671   6.826   0.731   3.565
 1258SOL     OW 4672   0.520   6.792   3.340
 1258SOL    HW1 4673   0.465   6.751   3.267
 1258SOL    HW2 4674   0.550   6.883   3.312
 1259SOL     OW 4675   4.145   1.872   4.910
 1259SOL    HW1 4676   4.244   1.881   4.905
 1259SOL    HW2 4677   4.105   1.961   4.933
 1260SOL     OW 4678   0.981   1.156   7.015
 1260SOL    HW1 4679   1.074   1.189   7.000
 1260SOL    HW2 4680   0.935   1.215   0.057
 1261SOL     OW 4681   0.347   5.408   0.355
 1261SOL    HW1 4682   0.392   5.320   0.339
 1261SOL    HW2 4683   0.401   5.481   0.312
 1262SOL     OW 4684   5.554   5.848   1.849
 1262SOL    HW1 4685   5.527   5.810   1.938
 1262SOL    HW2 4686   5.599   5.936   1.862
 1263SOL     OW 4687   1.361   2.399   3.601
 1263SOL    HW1 4688   1.323   2.467   3.664
 1263SOL    HW2 4689   1.416   2.446   3.531
 1264SOL     OW 4690   0.902   2.549   5.242
 1264SOL    HW1 4691   0.934   2.520   5.332
 1264SOL    HW2 4692   0.847   2.632   5.251
 1265SOL     OW 4693   6.075   6.124   5.297
 1265SOL    HW1 4694   5.987   6.076   5.297
 1265SOL    HW2 4695   6.133   6.085   5.225
 1266SOL     OW 4696   1.606   0.592   4.966
 1266SOL    HW1 4697   1.564   0.682   4.978
 1266SOL    HW2 4698   1.551   0.523   5.012
 1267SOL     OW 4699   4.601   0.203   2.309
 1267SOL    HW1 4700   4.528   0.136   2.320
 1267SOL    HW2 4701   4.689   0.159   2.322
 1268SOL     OW 4702   4.247   2.403   5.436
 1268SOL    HW1 4703   4.254   2.304   5.419
 1268SOL    HW2 4704   4.217   2.449   5.354
 1269SOL     OW 4705   6.133   2.164   3.806
 1269SOL    HW1 4706   6.041   2.193   3.833
 1269SOL    HW2 4707   6.195   2.173   3.883
 1270SOL     OW 4708   0.751   4.735   2.749
 1270SOL    HW1 4709   0.702   4.702   2.669
 1270SOL    HW2 4710   0.689   4.741   2.827
 1271SOL     OW 4711   1.217   1.335   1.723
 1271SOL    HW1 4712   1.210   1.295   1.631
 1271SOL    HW2 4713   1.130   1.322   1.771
 1272SOL     OW 4714   6.781   4.113   0.200
 1272SOL    HW1 4715   6.852   4.045   0.217
 1272SOL    HW2 4716   6.768   4.169   0.282
 1273SOL     OW 4717   1.588   4.191   5.375
 1273SOL    HW1 4718   1.625   4.098   5.381
 1273SOL    HW2 4719   1.663   4.256   5.364
 1274SOL     OW 4720   0.627   4.909   2.203
 1274SOL    HW1 4721   0.629   4.991   2.261
 1274SOL    HW2 4722   0.537   4.867   2.208
 1275SOL     OW 4723   3.076   0.409   3.001
 1275SOL    HW1 4724   3.089   0.450   2.911
 1275SOL    HW2 4725   3.000   0.455   3.047
 1276SOL     OW 4726   4.996   4.451   3.931
 1276SOL    HW1 4727   5.069   4.513   3.959
 1276SOL    HW2 4728   5.035   4.364   3.902
 1277SOL     OW 4729   0.365   5.957   0.367
 1277SOL    HW1 4730   0.400   5.935   0.276
 1277SOL    HW2 4731   0.266   5.940   0.370
 1278SOL     OW 4732   1.570   6.238   2.683
 1278SOL    HW1 4733   1.529   6.267   2.597
 1278SOL    HW2 4734   1.613   6.317   2.728
 1279SOL     OW 4735   2.893   2.138   6.621
 1279SOL    HW1 4736   2.896   2.045   6.585
 1279SOL    HW2 4737   2.807   2.181   6.596
 1280SOL     OW 4738   3.086   1.513   3.515
 1280SOL    HW1 4739   3.149   1.460   3.571
 1280SOL    HW2 4740   3.002   1.461   3.501
 1281SOL     OW 4741   4.078   5.964   3.909
 1281SOL    HW1 4742   4.031   6.022   3.975
 1281SOL    HW2 4743   4.125   6.021   3.842
 1282SOL     OW 4744   0.166   2.582   1.074
 1282SOL    HW1 4745   0.084   2.537   1.110
 1282SOL    HW2 4746   0.244   2.562   1.133
 1283SOL     OW 4747   6.449   3.013   5.268
 1283SOL    HW1 4748   6.373   3.001   5.204
 1283SOL    HW2 4749   6.469   3.111   5.278
 1284SOL     OW 4750   4.025   1.864   1.104
 1284SOL    HW1 4751   3.986   1.787   1.055
 1284SOL    HW2 4752   4.047   1.836   1.198
 1285SOL     OW 4753   3.603   1.578   4.588
 1285SOL    HW1 4754   3.520   1.620   4.624
 1285SOL    HW2 4755   3.588   1.549   4.494
 1286SOL     OW 4756   4.763   2.156   2.043
 1286SOL    HW1 4757   4.833   2.148   2.113
 1286SOL    HW2 4758   4.673   2.143   2.084
 1287SOL     OW 4759   6.642   4.061   4.731
 1287SOL    HW1 4760   6.555   4.016   4.711
 1287SOL    HW2 4761   6.640   4.099   4.823
 1288SOL     OW 4762   4.375   4.237   6.417
 1288SOL    HW1 4763   4.322   4.220   6.334
 1288SOL    HW2 4764   4.473   4.242   6.395
 1289SOL     OW 4765   0.052   0.093   1.764
 1289SOL    HW1 4766   0.005   0.071   1.849
 1289SOL    HW2 4767   0.106   0.176   1.777
 1290SOL     OW 4768   1.285   6.977   6.815
 1290SOL    HW1 4769   1.247   6.965   6.907
 1290SOL    HW2 4770   1.222   6.939   6.747
 1291SOL     OW 4771   6.780   5.561   3.033
 1291SOL    HW1 4772   6.830   5.598   3.112
 1291SOL    HW2 4773   6.733   5.477   3.060
 1292SOL     OW 4774   1.104   6.106   2.674
 1292SOL    HW1 4775   1.166   6.036   2.639
 1292SOL    HW2 4776   1.082   6.171   2.601
 1293SOL     OW 4777   2.901   1.267   6.637
 1293SOL    HW1 4778   2.957   1.315   6.705
 1293SOL    HW2 4779   2.892   1.324   6.556
 1294SOL     OW 4780   2.101   3.778   5.477
 1294SOL    HW1 4781   2.133   3.749   5.386
 1294SOL    HW2 4782   2.134   3.870   5.496
 1295SOL     OW 4783   6.839   3.749   0.776
 1295SOL    HW1 4784   6.742   3.731   0.796
 1295SOL    HW2 4785   6.891   3.745   0.861
 1296SOL     OW 4786   5.605   6.789   5.868
 1296SOL    HW1 4787   5.661   6.774   5.950
 1296SOL    HW2 4788   5.665   6.798   5.788
 1297SOL     OW 4789   0.416   0.409   2.228
 1297SOL    HW1 4790   0.492   0.411   2.292
 1297SOL    HW2 4791   0.330   0.422   2.277
 1298SOL     OW 4792   5.658   5.387   2.200
 1298SOL    HW1 4793   5.678   5.306   2.145
 1298SOL    HW2 4794   5.559   5.395   2.211
 1299SOL     OW 4795   1.654   3.494   4.693
 1299SOL    HW1 4796   1.616   3.489   4.785
 1299SOL    HW2 4797   1.659   3.589   4.663
 1300SOL     OW 4798   1.287   4.511   1.565
 1300SOL    HW1 4799   1.275   4.446   1.640
 1300SOL    HW2 4800   1.302   4.602   1.603
 1301SOL     OW 4801   1.148   0.831   1.667
 1301SOL    HW1 4802   1.126   0.868   1.757
 1301SOL    HW2 4803   1.224   0.882   1.627
 1302SOL     OW 4804   5.582   6.300   5.576
 1302SOL    HW1 4805   5.616   6.324   5.667
 1302SOL    HW2 4806   5.659   6.275   5.517
 1303SOL     OW 4807   4.198   6.586   1.726
 1303SOL    HW1 4808   4.228   6.589   1.631
 1303SOL    HW2 4809   4.105   6.549   1.730
 1304SOL     OW 4810   0.406   1.072   1.516
 1304SOL    HW1 4811   0.444   1.048   1.427
 1304SOL    HW2 4812   0.344   1.150   1.506
 1305SOL     OW 4813   5.186   4.074   0.325
 1305SOL    HW1 4814   5.249   4.023   0.384
 1305SOL    HW2 4815   5.238   4.122   0.254
 1306SOL     OW 4816   1.813   5.676   4.650
 1306SOL    HW1 4817   1.735   5.630   4.605
 1306SOL    HW2 4818   1.822   5.769   4.614
 1307SOL     OW 4819   2.106   2.546   4.046
 1307SOL    HW1 4820   2.073   2.466   4.096
 1307SOL    HW2 4821   2.096   2.530   3.947
 1308SOL     OW 4822   6.978   5.388   6.056
 1308SOL    HW1 4823   0.027   5.401   5.988
 1308SOL    HW2 4824   7.019   5.375   6.146
 1309SOL     OW 4825   5.198   4.446   6.635
 1309SOL    HW1 4826   5.295   4.433   6.656
 1309SOL    HW2 4827   5.161   4.519   6.692
 1310SOL     OW 4828   0.869   4.089   4.401
 1310SOL    HW1 4829   0.895   4.016   4.338
 1310SOL    HW2 4830   0.951   4.137   4.431
 1311SOL     OW 4831   6.659   5.561   0.419
 1311SOL    HW1 4832   6.754   5.591   0.428
 1311SOL    HW2 4833   6.655   5.462   0.427
 1312SOL     OW 4834   1.817   0.719   5.799
 1312SOL    HW1 4835   1.798   0.650   5.869
 1312SOL    HW2 4836   1.897   0.691   5.746
 1313SOL     OW 4837   6.412   5.276   3.152
 1313SOL    HW1 4838   6.479   5.329   3.099
 1313SOL    HW2 4839   6.461   5.221   3.221
 1314SOL     OW 4840   2.543   1.727   4.910
 1314SOL    HW1 4841   2.579   1.795   4.975
 1314SOL    HW2 4842   2.517   1.774   4.825
 1315SOL     OW 4843   5.869   0.639   4.586
 1315SOL    HW1 4844   5.801   0.660   4.655
 1315SOL    HW2 4845   5.930   0.567   4.619
 1316SOL     OW 4846   4.506   0.687   5.075
 1316SOL    HW1 4847   4.472   0.659   4.985
 1316SOL    HW2 4848   4.429   0.716   5.132
 1317SOL     OW 4849   2.660   3.221   5.625
 1317SOL    HW1 4850   2.585   3.209   5.560
 1317SOL    HW2 4851   2.694   3.315   5.619
 1318SOL     OW 4852   1.837   2.538   6.615
 1318SOL    HW1 4853   1.815   2.443   6.636
 1318SOL    HW2 4854   1.821   2.595   6.696
 1319SOL     OW 4855   6.875   6.247   0.758
 1319SOL    HW1 4856   6.884   6.280   0.664
 1319SOL    HW2 4857   6.965   6.221   0.793
 1320SOL     OW 4858   3.195   2.792   5.900
 1320SOL    HW1 4859   3.166   2.874   5.851
 1320SOL    HW2 4860   3.292   2.798   5.922
 1321SOL     OW 4861   5.852   2.287   6.627
 1321SOL    HW1 4862   5.888   2.279   6.535
 1321SOL    HW2 4863   5.752   2.276   6.625
 1322SOL     OW 4864   3.346   1.339   0.072
 1322SOL    HW1 4865   3.383   1.431   0.085
 1322SOL    HW2 4866   3.247   1.346   0.054
 1323SOL     OW 4867   3.629   0.299   0.354
 1323SOL    HW1 4868   3.601   0.301   0.258
 1323SOL    HW2 4869   3.558   0.342   0.410
 1324SOL     OW 4870   1.006   3.588   0.198
 1324SOL    HW1 4871   0.921   3.639   0.205
 1324SOL    HW2 4872   0.994   3.513   0.132
 1325SOL     OW 4873   2.653   5.508   6.813
 1325SOL    HW1 4874   2.713   5.476   6.886
 1325SOL    HW2 4875   2.592   5.433   6.785
 1326SOL     OW 4876   4.842   3.908   3.935
 1326SOL    HW1 4877   4.844   3.852   4.018
 1326SOL    HW2 4878   4.810   4.000   3.957
 1327SOL     OW 4879   0.208   6.578   1.102
 1327SOL    HW1 4880   0.246   6.593   1.011
 1327SOL    HW2 4881   0.270   6.614   1.171
 1328SOL     OW 4882   0.764   3.557   6.093
 1328SOL    HW1 4883   0.775   3.600   6.004
 1328SOL    HW2 4884   0.852   3.524   6.126
 1329SOL     OW 4885   0.293   2.769   2.984
 1329SOL    HW1 4886   0.348   2.691   2.955
 1329SOL    HW2 4887   0.351   2.833   3.035
 1330SOL     OW 4888   6.390   2.806   1.193
 1330SOL    HW1 4889   6.400   2.717   1.237
 1330SOL    HW2 4890   6.465   2.865   1.219
 1331SOL     OW 4891   4.307   1.887   2.597
 1331SOL    HW1 4892   4.330   1.924   2.687
 1331SOL    HW2 4893   4.209   1.903   2.579
 1332SOL     OW 4894   1.830   0.379   0.820
 1332SOL    HW1 4895   1.859   0.459   0.768
 1332SOL    HW2 4896   1.733   0.387   0.844
 1333SOL     OW 4897   3.332   4.006   2.983
 1333SOL    HW1 4898   3.342   4.101   2.956
 1333SOL    HW2 4899   3.384   3.947   2.921
 1334SOL     OW 4900   0.034   1.856   2.603
 1334SOL    HW1 4901   0.082   1.808   2.677
 1334SOL    HW2 4902   6.970   1.811   2.585
 1335SOL     OW 4903   1.899   4.220   2.091
 1335SOL    HW1 4904   1.967   4.206   2.019
 1335SOL    HW2 4905   1.940   4.201   2.180
 1336SOL     OW 4906   3.439   0.662   5.501
 1336SOL    HW1 4907   3.366   0.711   5.548
 1336SOL    HW2 4908   3.524   0.715   5.506
 1337SOL     OW 4909   6.516   1.537   3.881
 1337SOL    HW1 4910   6.446   1.603   3.854
 1337SOL    HW2 4911   6.596   1.547   3.821
 1338SOL     OW 4912   5.862   3.737   4.773
 1338SOL    HW1 4913   5.808   3.719   4.690
 1338SOL    HW2 4914   5.918   3.657   4.794
 1339SOL     OW 4915   0.286   0.400   6.517
 1339SOL    HW1 4916   0.227   0.471   6.477
 1339SOL    HW2 4917   0.351   0.442   6.580
 1340SOL     OW 4918   5.277   1.911   1.900
 1340SOL    HW1 4919   5.200   1.893   1.961
 1340SOL    HW2 4920   5.258   1.872   1.810
 1341SOL     OW 4921   5.214   6.548   6.525
 1341SOL    HW1 4922   5.123   6.535   6.563
 1341SOL    HW2 4923   5.211   6.618   6.453
 1342SOL     OW 4924   3.186   6.270   1.214
 1342SOL    HW1 4925   3.217   6.176   1.207
 1342SOL    HW2 4926   3.228   6.314   1.293
 1343SOL     OW 4927   5.636   5.406   2.567
 1343SOL    HW1 4928   5.540   5.415   2.539
 1343SOL    HW2 4929   5.694   5.458   2.505
 1344SOL     OW 4930   0.023   6.903   4.485
 1344SOL    HW1 4931   0.043   6.816   4.530
 1344SOL    HW2 4932   0.060   6.978   4.538
 1345SOL     OW 4933   0.638   5.337   1.955
 1345SOL    HW1 4934   0.584   5.416   1.985
 1345SOL    HW2 4935   0.664   5.348   1.859
 1346SOL     OW 4936   2.465   5.051   6.189
 1346SOL    HW1 4937   2.513   5.056   6.101
 1346SOL    HW2 4938   2.520   5.001   6.255
 1347SOL     OW 4939   1.711   0.178   0.242
 1347SOL    HW1 4940   1.726   0.173   0.341
 1347SOL    HW2 4941   1.620   0.216   0.225
 1348SOL     OW 4942   0.012   5.850   5.401
 1348SOL    HW1 4943   6.974   5.855   5.322
 1348SOL    HW2 4944   6.982   5.857   5.485
 1349SOL     OW 4945   5.337   3.657   3.866
 1349SOL    HW1 4946   5.298   3.626   3.953
 1349SOL    HW2 4947   5.263   3.686   3.805
 1350SOL     OW 4948   2.943   3.908   0.253
 1350SOL    HW1 4949   2.996   3.878   0.173
 1350SOL    HW2 4950   2.896   3.829   0.293
 1351SOL     OW 4951   6.802   2.929   4.745
 1351SOL    HW1 4952   6.747   3.006   4.777
 1351SOL    HW2 4953   6.880   2.964   4.693
 1352SOL     OW 4954   0.003   6.982   2.683
 1352SOL    HW1 4955   0.077   6.984   2.617
 1352SOL    HW2 4956   7.009   6.887   2.711
 1353SOL     OW 4957   0.822   1.284   1.227
 1353SOL    HW1 4958   0.755   1.351   1.257
 1353SOL    HW2 4959   0.849   1.227   1.305
 1354SOL     OW 4960   6.101   4.207   2.091
 1354SOL    HW1 4961   6.009   4.205   2.051
 1354SOL    HW2 4962   6.130   4.113   2.110
 1355SOL     OW 4963   6.309   3.334   4.763
 1355SOL    HW1 4964   6.362   3.307   4.683
 1355SOL    HW2 4965   6.364   3.319   4.846
 1356SOL     OW 4966   3.453   3.082   1.630
 1356SOL    HW1 4967   3.393   3.161   1.631
 1356SOL    HW2 4968   3.419   3.013   1.694
 1357SOL     OW 4969   6.764   2.922   5.361
 1357SOL    HW1 4970   6.788   2.968   5.275
 1357SOL    HW2 4971   6.667   2.937   5.381
 1358SOL     OW 4972   1.508   6.695   0.228
 1358SOL    HW1 4973   1.551   6.785   0.214
 1358SOL    HW2 4974   1.447   6.699   0.307
 1359SOL     OW 4975   6.248   4.055   1.715
 1359SOL    HW1 4976   6.316   4.009   1.772
 1359SOL    HW2 4977   6.295   4.121   1.655
 1360SOL     OW 4978   2.865   2.579   6.602
 1360SOL    HW1 4979   2.828   2.637   6.530
 1360SOL    HW2 4980   2.964   2.571   6.590
 1361SOL     OW 4981   6.998   4.551   4.222
 1361SOL    HW1 4982   0.066   4.565   4.262
 1361SOL    HW2 4983   6.978   4.626   4.158
 1362SOL     OW 4984   3.755   2.915   2.791
 1362SOL    HW1 4985   3.727   2.839   2.733
 1362SOL    HW2 4986   3.685   2.987   2.788
 1363SOL     OW 4987   0.375   5.355   5.470
 1363SOL    HW1 4988   0.335   5.409   5.396
 1363SOL    HW2 4989   0.467   5.327   5.444
 1364SOL     OW 4990   4.556   4.210   0.778
 1364SOL    HW1 4991   4.599   4.301   0.775
 1364SOL    HW2 4992   4.603   4.153   0.845
 1365SOL     OW 4993   0.832   3.544   6.721
 1365SOL    HW1 4994   0.732   3.544   6.728
 1365SOL    HW2 4995   0.871   3.535   6.813
 1366SOL     OW 4996   1.701   6.893   4.783
 1366SOL    HW1 4997   1.681   6.841   4.699
 1366SOL    HW2 4998   1.623   6.886   4.845
 1367SOL     OW 4999   2.509   0.941   2.460
 1367SOL    HW1 5000   2.494   1.040   2.463
 1367SOL    HW2 5001   2.437   0.898   2.406
 1368SOL     OW 5002   6.126   6.508   4.795
 1368SOL    HW1 5003   6.122   6.451   4.713
 1368SOL    HW2 5004   6.214   6.556   4.798
 1369SOL     OW 5005   0.996   0.615   3.427
 1369SOL    HW1 5006   0.997   0.621   3.327
 1369SOL    HW2 5007   0.940   0.689   3.465
 1370SOL     OW 5008   3.020   1.115   1.741
 1370SOL    HW1 5009   3.051   1.210   1.748
 1370SOL    HW2 5010   3.091   1.054   1.774
 1371SOL     OW 5011   3.554   0.682   5.923
 1371SOL    HW1 5012   3.506   0.768   5.906
 1371SOL    HW2 5013   3.653   0.697   5.917
 1372SOL     OW 5014   2.882   1.983   2.264
 1372SOL    HW1 5015   2.849   2.019   2.352
 1372SOL    HW2 5016   2.845   2.039   2.190
 1373SOL     OW 5017   0.741   6.451   0.898
 1373SOL    HW1 5018   0.728   6.373   0.836
 1373SOL    HW2 5019   0.671   6.449   0.969
 1374SOL     OW 5020   4.438   2.506   0.270
 1374SOL    HW1 5021   4.463   2.601   0.293
 1374SOL    HW2 5022   4.452   2.492   0.172
 1375SOL     OW 5023   0.504   4.201   5.945
 1375SOL    HW1 5024   0.578   4.201   6.012
 1375SOL    HW2 5025   0.516   4.125   5.881
 1376SOL     OW 5026   4.846   2.436   2.663
 1376SOL    HW1 5027   4.895   2.523   2.666
 1376SOL    HW2 5028   4.808   2.422   2.571
 1377SOL     OW 5029   6.877   5.535   4.600
 1377SOL    HW1 5030   6.807   5.593   4.559
 1377SOL    HW2 5031   6.839   5.445   4.620
 1378SOL     OW 5032   1.233   2.091   0.683
 1378SOL    HW1 5033   1.222   2.185   0.714
 1378SOL    HW2 5034   1.330   2.073   0.666
 1379SOL     OW 5035   3.920   6.285   2.162
 1379SOL    HW1 5036   3.827   6.308   2.135
 1379SOL    HW2 5037   3.924   6.272   2.261
 1380SOL     OW 5038   6.445   6.463   2.522
 1380SOL    HW1 5039   6.435   6.553   2.564
 1380SOL    HW2 5040   6.469   6.473   2.426
 1381SOL     OW 5041   5.996   1.745   1.017
 1381SOL    HW1 5042   5.991   1.838   0.980
 1381SOL    HW2 5043   5.905   1.714   1.042
 1382SOL     OW 5044   5.540   4.428   6.592
 1382SOL    HW1 5045   5.637   4.451   6.594
 1382SOL    HW2 5046   5.522   4.356   6.660
 1383SOL     OW 5047   2.692   0.568   0.631
 1383SOL    HW1 5048   2.648   0.588   0.719
 1383SOL    HW2 5049   2.753   0.490   0.642
 1384SOL     OW 5050   3.172   2.093   2.855
 1384SOL    HW1 5051   3.197   1.996   2.850
 1384SOL    HW2 5052   3.219   2.143   2.782
 1385SOL     OW 5053   6.515   3.127   2.528
 1385SOL    HW1 5054   6.539   3.092   2.438
 1385SOL    HW2 5055   6.595   3.121   2.589
 1386SOL     OW 5056   2.088   2.330   4.222
 1386SOL    HW1 5057   2.018   2.343   4.293
 1386SOL    HW2 5058   2.179   2.346   4.261
 1387SOL     OW 5059   2.160   0.221   5.046
 1387SOL    HW1 5060   2.171   0.138   4.991
 1387SOL    HW2 5061   2.235   0.284   5.026
 1388SOL     OW 5062   6.191   0.985   4.549
 1388SOL    HW1 5063   6.231   1.046   4.618
 1388SOL    HW2 5064   6.231   0.893   4.559
 1389SOL     OW 5065   6.206   0.539   4.645
 1389SOL    HW1 5066   6.174   0.544   4.550
 1389SOL    HW2 5067   6.264   0.458   4.657
 1390SOL     OW 5068   4.722   2.756   2.735
 1390SOL    HW1 5069   4.695   2.848   2.763
 1390SOL    HW2 5070   4.696   2.690   2.805
 1391SOL     OW 5071   5.178   1.110   4.940
 1391SOL    HW1 5072   5.136   1.167   5.010
 1391SOL    HW2 5073   5.144   1.017   4.947
 1392SOL     OW 5074   4.599   5.538   6.482
 1392SOL    HW1 5075   4.680   5.535   6.423
 1392SOL    HW2 5076   4.555   5.627   6.474
 1393SOL     OW 5077   6.261   0.550   6.784
 1393SOL    HW1 5078   6.293   0.456   6.780
 1393SOL    HW2 5079   6.334   0.609   6.820
 1394SOL     OW 5080   4.429   6.529   3.845
 1394SOL    HW1 5081   4.331   6.518   3.861
 1394SOL    HW2 5082   4.473   6.558   3.930
 1395SOL     OW 5083   1.196   5.486   1.880
 1395SOL    HW1 5084   1.222   5.483   1.976
 1395SOL    HW2 5085   1.274   5.457   1.823
 1396SOL     OW 5086   1.952   1.653   3.981
 1396SOL    HW1 5087   1.976   1.570   4.030
 1396SOL    HW2 5088   2.035   1.707   3.965
 1397SOL     OW 5089   0.052   5.316   4.767
 1397SOL    HW1 5090   0.082   5.400   4.813
 1397SOL    HW2 5091   0.131   5.264   4.737
 1398SOL     OW 5092   0.292   0.097   0.492
 1398SOL    HW1 5093   0.277   0.114   0.590
 1398SOL    HW2 5094   0.217   0.136   0.440
 1399SOL     OW 5095   4.395   0.512   0.365
 1399SOL    HW1 5096   4.327   0.441   0.382
 1399SOL    HW2 5097   4.476   0.472   0.322
 1400SOL     OW 5098   6.715   0.422   4.875
 1400SOL    HW1 5099   6.795   0.371   4.907
 1400SOL    HW2 5100   6.673   0.374   4.799
 1401SOL     OW 5101   5.422   0.339   3.565
 1401SOL    HW1 5102   5.452   0.389   3.483
 1401SOL    HW2 5103   5.501   0.297   3.609
 1402SOL     OW 5104   0.143   4.795   2.081
 1402SOL    HW1 5105   0.067   4.851   2.113
 1402SOL    HW2 5106   0.201   4.849   2.020
 1403SOL     OW 5107   3.001   3.099   6.563
 1403SOL    HW1 5108   3.077   3.035   6.550
 1403SOL    HW2 5109   2.975   3.102   6.659
 1404SOL     OW 5110   4.166   6.724   0.467
 1404SOL    HW1 5111   4.144   6.796   0.533
 1404SOL    HW2 5112   4.224   6.655   0.511
 1405SOL     OW 5113   1.352   3.847   1.178
 1405SOL    HW1 5114   1.306   3.921   1.129
 1405SOL    HW2 5115   1.303   3.761   1.161
 1406SOL     OW 5116   2.278   3.141   0.729
 1406SOL    HW1 5117   2.207   3.207   0.706
 1406SOL    HW2 5118   2.274   3.120   0.827
 1407SOL     OW 5119   0.628   3.124   1.211
 1407SOL    HW1 5120   0.627   3.222   1.193
 1407SOL    HW2 5121   0.599   3.075   1.129
 1408SOL     OW 5122   5.903   6.764   1.146
 1408SOL    HW1 5123   5.999   6.751   1.172
 1408SOL    HW2 5124   5.848   6.774   1.229
 1409SOL     OW 5125   6.695   1.738   5.981
 1409SOL    HW1 5126   6.712   1.815   5.918
 1409SOL    HW2 5127   6.621   1.682   5.945
 1410SOL     OW 5128   4.195   1.051   5.847
 1410SOL    HW1 5129   4.203   1.019   5.942
 1410SOL    HW2 5130   4.102   1.082   5.830
 1411SOL     OW 5131   3.228   5.228   0.181
 1411SOL    HW1 5132   3.208   5.311   0.232
 1411SOL    HW2 5133   3.163   5.219   0.105
 1412SOL     OW 5134   2.099   3.201   0.205
 1412SOL    HW1 5135   2.155   3.203   0.122
 1412SOL    HW2 5136   2.062   3.293   0.223
 1413SOL     OW 5137   1.076   1.352   5.103
 1413SOL    HW1 5138   1.116   1.272   5.147
 1413SOL    HW2 5139   1.116   1.435   5.142
 1414SOL     OW 5140   1.095   4.041   2.538
 1414SOL    HW1 5141   1.121   4.136   2.524
 1414SOL    HW2 5142   0.997   4.030   2.522
 1415SOL     OW 5143   2.054   1.881   4.276
 1415SOL    HW1 5144   2.104   1.960   4.313
 1415SOL    HW2 5145   2.110   1.799   4.284
 1416SOL     OW 5146   4.418   0.723   4.774
 1416SOL    HW1 5147   4.516   0.745   4.777
 1416SOL    HW2 5148   4.397   0.675   4.689
 1417SOL     OW 5149   3.401   3.378   5.980
 1417SOL    HW1 5150   3.341   3.391   5.901
 1417SOL    HW2 5151   3.422   3.467   6.021
 1418SOL     OW 5152   3.651   4.408   5.840
 1418SOL    HW1 5153   3.595   4.460   5.775
 1418SOL    HW2 5154   3.638   4.310   5.826
 1419SOL     OW 5155   1.749   5.439   2.284
 1419SOL    HW1 5156   1.844   5.458   2.308
 1419SOL    HW2 5157   1.734   5.457   2.187
 1420SOL     OW 5158   2.850   6.530   3.048
 1420SOL    HW1 5159   2.897   6.552   3.133
 1420SOL    HW2 5160   2.866   6.604   2.981
 1421SOL     OW 5161   1.158   4.748   5.659
 1421SOL    HW1 5162   1.162   4.703   5.570
 1421SOL    HW2 5163   1.206   4.693   5.727
 1422SOL     OW 5164   2.351   3.409   6.039
 1422SOL    HW1 5165   2.428   3.367   5.990
 1422SOL    HW2 5166   2.316   3.487   5.987
 1423SOL     OW 5167   4.703   0.457   4.935
 1423SOL    HW1 5168   4.735   0.370   4.974
 1423SOL    HW2 5169   4.675   0.518   5.009
 1424SOL     OW 5170   6.248   3.087   0.124
 1424SOL    HW1 5171   6.279   3.162   0.183
 1424SOL    HW2 5172   6.271   3.108   0.029
 1425SOL     OW 5173   5.185   6.854   3.542
 1425SOL    HW1 5174   5.181   6.779   3.476
 1425SOL    HW2 5175   5.213   6.938   3.496
 1426SOL     OW 5176   3.209   2.088   0.325
 1426SOL    HW1 5177   3.175   2.113   0.415
 1426SOL    HW2 5178   3.133   2.089   0.259
 1427SOL     OW 5179   1.749   0.329   4.179
 1427SOL    HW1 5180   1.830   0.315   4.122
 1427SOL    HW2 5181   1.679   0.261   4.156
 1428SOL     OW 5182   1.154   3.054   4.139
 1428SOL    HW1 5183   1.056   3.033   4.142
 1428SOL    HW2 5184   1.171   3.139   4.189
 1429SOL     OW 5185   6.488   1.062   1.512
 1429SOL    HW1 5186   6.463   0.966   1.512
 1429SOL    HW2 5187   6.449   1.107   1.432
 1430SOL     OW 5188   2.143   3.496   4.320
 1430SOL    HW1 5189   2.084   3.437   4.375
 1430SOL    HW2 5190   2.153   3.584   4.365
 1431SOL     OW 5191   2.587   1.611   6.443
 1431SOL    HW1 5192   2.547   1.531   6.399
 1431SOL    HW2 5193   2.552   1.620   6.536
 1432SOL     OW 5194   3.405   0.901   2.101
 1432SOL    HW1 5195   3.402   0.904   2.201
 1432SOL    HW2 5196   3.421   0.808   2.071
 1433SOL     OW 5197   2.533   0.026   3.981
 1433SOL    HW1 5198   2.495   0.051   4.070
 1433SOL    HW2 5199   2.566   0.108   3.935
 1434SOL     OW 5200   0.067   3.289   0.624
 1434SOL    HW1 5201   0.016   3.362   0.669
 1434SOL    HW2 5202   0.165   3.304   0.638
 1435SOL     OW 5203   1.702   6.818   4.321
 1435SOL    HW1 5204   1.692   6.736   4.376
 1435SOL    HW2 5205   1.788   6.813   4.270
 1436SOL     OW 5206   5.360   1.342   0.144
 1436SOL    HW1 5207   5.321   1.432   0.158
 1436SOL    HW2 5208   5.297   1.285   0.091
 1437SOL     OW 5209   3.937   0.403   6.207
 1437SOL    HW1 5210   3.982   0.483   6.167
 1437SOL    HW2 5211   3.843   0.397   6.174
 1438SOL     OW 5212   2.748   0.478   2.004
 1438SOL    HW1 5213   2.776   0.448   2.095
 1438SOL    HW2 5214   2.714   0.572   2.008
 1439SOL     OW 5215   0.317   4.653   6.902
 1439SOL    HW1 5216   0.411   4.661   6.935
 1439SOL    HW2 5217   0.253   4.673   6.976
 1440SOL     OW 5218   3.650   3.143   3.192
 1440SOL    HW1 5219   3.709   3.209   3.238
 1440SOL    HW2 5220   3.702   3.059   3.174
 1441SOL     OW 5221   6.416   2.919   3.835
 1441SOL    HW1 5222   6.440   2.829   3.871
 1441SOL    HW2 5223   6.404   2.983   3.911
 1442SOL     OW 5224   5.682   6.273   6.829
 1442SOL    HW1 5225   5.600   6.293   6.882
 1442SOL    HW2 5226   5.758   6.254   6.892
 1443SOL     OW 5227   0.775   2.909   3.053
 1443SOL    HW1 5228   0.815   2.935   2.965
 1443SOL    HW2 5229   0.837   2.937   3.126
 1444SOL     OW 5230   5.009   0.848   4.221
 1444SOL    HW1 5231   4.946   0.915   4.261
 1444SOL    HW2 5232   5.050   0.887   4.138
 1445SOL     OW 5233   6.147   2.372   0.931
 1445SOL    HW1 5234   6.055   2.345   0.904
 1445SOL    HW2 5235   6.148   2.397   1.028
 1446SOL     OW 5236   4.353   0.535   1.370
 1446SOL    HW1 5237   4.438   0.581   1.344
 1446SOL    HW2 5238   4.300   0.596   1.429
 1447SOL     OW 5239   5.663   1.104   5.623
 1447SOL    HW1 5240   5.762   1.118   5.618
 1447SOL    HW2 5241   5.636   1.030   5.561
 1448SOL     OW 5242   5.315   0.249   6.701
 1448SOL    HW1 5243   5.384   0.283   6.638
 1448SOL    HW2 5244   5.230   0.302   6.689
 1449SOL     OW 5245   4.826   5.583   1.395
 1449SOL    HW1 5246   4.858   5.670   1.432
 1449SOL    HW2 5247   4.757   5.545   1.457
 1450SOL     OW 5248   5.603   2.622   3.915
 1450SOL    HW1 5249   5.660   2.699   3.884
 1450SOL    HW2 5250   5.607   2.548   3.847
 1451SOL     OW 5251   1.606   6.872   2.789
 1451SOL    HW1 5252   1.639   6.830   2.705
 1451SOL    HW2 5253   1.607   6.805   2.863
 1452SOL     OW 5254   4.458   0.882   5.267
 1452SOL    HW1 5255   4.455   0.880   5.367
 1452SOL    HW2 5256   4.553   0.881   5.236
 1453SOL     OW 5257   4.911   4.545   4.261
 1453SOL    HW1 5258   4.962   4.492   4.193
 1453SOL    HW2 5259   4.814   4.521   4.255
 1454SOL     OW 5260   4.396   3.867   1.342
 1454SOL    HW1 5261   4.385   3.768   1.333
 1454SOL    HW2 5262   4.492   3.891   1.335
 1455SOL     OW 5263   1.987   2.620   1.656
 1455SOL    HW1 5264   1.960   2.715   1.672
 1455SOL    HW2 5265   1.948   2.562   1.728
 1456SOL     OW 5266   6.538   5.605   3.847
 1456SOL    HW1 5267   6.523   5.590   3.945
 1456SOL    HW2 5268   6.634   5.587   3.825
 1457SOL     OW 5269   1.989   6.870   3.112
 1457SOL    HW1 5270   1.908   6.839   3.163
 1457SOL    HW2 5271   1.961   6.900   3.021
 1458SOL     OW 5272   6.601   5.626   6.856
 1458SOL    HW1 5273   6.610   5.580   6.768
 1458SOL    HW2 5274   6.508   5.616   6.890
 1459SOL     OW 5275   2.459   0.211   0.799
 1459SOL    HW1 5276   2.466   0.113   0.816
 1459SOL    HW2 5277   2.440   0.259   0.885
 1460SOL     OW 5278   0.754   6.546   7.010
 1460SOL    HW1 5279   0.746   6.606   6.931
 1460SOL    HW2 5280   0.792   6.458   6.982
 1461SOL     OW 5281   5.385   5.190   1.431
 1461SOL    HW1 5282   5.325   5.141   1.367
 1461SOL    HW2 5283   5.379   5.146   1.521
 1462SOL     OW 5284   5.114   0.579   5.949
 1462SOL    HW1 5285   5.097   0.611   5.856
 1462SOL    HW2 5286   5.213   0.571   5.964
 1463SOL     OW 5287   0.643   0.880   5.268
 1463SOL    HW1 5288   0.711   0.807   5.256
 1463SOL    HW2 5289   0.625   0.923   5.180
 1464SOL     OW 5290   0.152   6.320   1.070
 1464SOL    HW1 5291   0.182   6.415   1.078
 1464SOL    HW2 5292   0.055   6.313   1.095
 1465SOL     OW 5293   0.415   6.995   4.605
 1465SOL    HW1 5294   0.395   0.021   4.520
 1465SOL    HW2 5295   0.513   6.996   4.622
 1466SOL     OW 5296   5.942   5.254   4.099
 1466SOL    HW1 5297   5.885   5.264   4.018
 1466SOL    HW2 5298   5.923   5.166   4.143
 1467SOL     OW 5299   0.052   3.369   3.059
 1467SOL    HW1 5300   0.029   3.279   3.096
 1467SOL    HW2 5301   0.146   3.367   3.025
 1468SOL     OW 5302   5.376   6.141   2.932
 1468SOL    HW1 5303   5.377   6.083   2.851
 1468SOL    HW2 5304   5.414   6.231   2.910
 1469SOL     OW 5305   0.346   0.974   3.216
 1469SOL    HW1 5306   0.387   1.065   3.216
 1469SOL    HW2 5307   0.418   0.905   3.211
 1470SOL     OW 5308   6.993   0.813   3.112
 1470SOL    HW1 5309   0.035   0.886   3.089
 1470SOL    HW2 5310   0.017   0.725   3.114
 1471SOL     OW 5311   6.782   0.300   6.863
 1471SOL    HW1 5312   6.825   0.247   6.790
 1471SOL    HW2 5313   6.759   0.391   6.830
 1472SOL     OW 5314   4.422   6.981   5.308
 1472SOL    HW1 5315   4.441   6.892   5.349
 1472SOL    HW2 5316   4.401   0.024   5.380
 1473SOL     OW 5317   5.914   4.302   4.234
 1473SOL    HW1 5318   5.886   4.357   4.313
 1473SOL    HW2 5319   5.992   4.245   4.259
 1474SOL     OW 5320   5.095   5.228   3.328
 1474SOL    HW1 5321   5.034   5.217   3.406
 1474SOL    HW2 5322   5.190   5.223   3.360
 1475SOL     OW 5323   6.900   0.833   2.771
 1475SOL    HW1 5324   6.990   0.874   2.786
 1475SOL    HW2 5325   6.882   0.826   2.673
 1476SOL     OW 5326   6.261   2.086   1.846
 1476SOL    HW1 5327   6.315   2.024   1.903
 1476SOL    HW2 5328   6.321   2.151   1.800
 1477SOL     OW 5329   2.996   6.418   3.286
 1477SOL    HW1 5330   2.980   6.362   3.368
 1477SOL    HW2 5331   3.027   6.509   3.314
 1478SOL     OW 5332   6.615   4.554   1.860
 1478SOL    HW1 5333   6.708   4.522   1.876
 1478SOL    HW2 5334   6.616   4.629   1.793
 1479SOL     OW 5335   1.795   5.252   0.736
 1479SOL    HW1 5336   1.805   5.325   0.805
 1479SOL    HW2 5337   1.701   5.219   0.736
 1480SOL     OW 5338   2.789   1.012   6.972
 1480SOL    HW1 5339   2.714   1.076   6.954
 1480SOL    HW2 5340   2.857   1.018   6.899
 1481SOL     OW 5341   6.321   2.140   6.223
 1481SOL    HW1 5342   6.414   2.174   6.239
 1481SOL    HW2 5343   6.258   2.186   6.286
 1482SOL     OW 5344   5.897   0.580   6.377
 1482SOL    HW1 5345   5.808   0.625   6.364
 1482SOL    HW2 5346   5.887   0.482   6.358
 1483SOL     OW 5347   6.154   2.251   6.429
 1483SOL    HW1 5348   6.100   2.320   6.381
 1483SOL    HW2 5349   6.101   2.166   6.434
 1484SOL     OW 5350   6.288   6.032   2.783
 1484SOL    HW1 5351   6.249   6.102   2.724
 1484SOL    HW2 5352   6.321   6.074   2.868
 1485SOL     OW 5353   5.309   2.914   4.053
 1485SOL    HW1 5354   5.322   2.817   4.069
 1485SOL    HW2 5355   5.254   2.953   4.127
 1486SOL     OW 5356   4.737   2.357   2.409
 1486SOL    HW1 5357   4.784   2.310   2.334
 1486SOL    HW2 5358   4.644   2.380   2.380
 1487SOL     OW 5359   6.384   1.337   5.471
 1487SOL    HW1 5360   6.297   1.333   5.421
 1487SOL    HW2 5361   6.405   1.433   5.492
 1488SOL     OW 5362   3.778   1.829   2.822
 1488SOL    HW1 5363   3.695   1.803   2.771
 1488SOL    HW2 5364   3.764   1.917   2.865
 1489SOL     OW 5365   3.885   5.239   4.700
 1489SOL    HW1 5366   3.845   5.150   4.725
 1489SOL    HW2 5367   3.984   5.237   4.719
 1490SOL     OW 5368   1.969   2.765   0.555
 1490SOL    HW1 5369   1.989   2.720   0.468
 1490SOL    HW2 5370   2.046   2.823   0.581
 1491SOL     OW 5371   0.195   2.486   4.965
 1491SOL    HW1 5372   0.144   2.470   5.049
 1491SOL    HW2 5373   0.131   2.507   4.891
 1492SOL     OW 5374   5.326   2.820   2.526
 1492SOL    HW1 5375   5.277   2.816   2.439
 1492SOL    HW2 5376   5.422   2.843   2.508
 1493SOL     OW 5377   5.128   0.845   4.965
 1493SOL    HW1 5378   5.172   0.790   5.036
 1493SOL    HW2 5379   5.081   0.785   4.900
 1494SOL     OW 5380   4.819   2.870   5.210
 1494SOL    HW1 5381   4.720   2.885   5.209
 1494SOL    HW2 5382   4.842   2.810   5.287
 1495SOL     OW 5383   2.044   2.978   2.758
 1495SOL    HW1 5384   1.966   2.952   2.815
 1495SOL    HW2 5385   2.129   2.953   2.804
 1496SOL     OW 5386   0.791   0.932   2.876
 1496SOL    HW1 5387   0.864   0.920   2.944
 1496SOL    HW2 5388   0.810   1.012   2.820
 1497SOL     OW 5389   5.273   4.462   5.508
 1497SOL    HW1 5390   5.229   4.380   5.546
 1497SOL    HW2 5391   5.239   4.477   5.415
 1498SOL     OW 5392   2.459   6.283   0.526
 1498SOL    HW1 5393   2.495   6.318   0.440
 1498SOL    HW2 5394   2.527   6.297   0.598
 1499SOL     OW 5395   0.387   4.315   5.393
 1499SOL    HW1 5396   0.354   4.242   5.333
 1499SOL    HW2 5397   0.451   4.276   5.460
 1500SOL     OW 5398   4.788   6.697   5.681
 1500SOL    HW1 5399   4.734   6.637   5.739
 1500SOL    HW2 5400   4.845   6.757   5.738
 1501SOL     OW 5401   4.138   0.009   6.418
 1501SOL    HW1 5402   4.187   6.989   6.494
 1501SOL    HW2 5403   4.081   0.083   6.453
 1502SOL     OW 5404   6.450   5.952   0.283
 1502SOL    HW1 5405   6.548   5.970   0.276
 1502SOL    HW2 5406   6.422   5.955   0.379
 1503SOL     OW 5407   2.971   3.471   5.968
 1503SOL    HW1 5408   2.907   3.416   6.022
 1503SOL    HW2 5409   3.042   3.412   5.929
 1504SOL     OW 5410   2.662   5.808   4.456
 1504SOL    HW1 5411   2.694   5.755   4.378
 1504SOL    HW2 5412   2.637   5.900   4.426
 1505SOL     OW 5413   4.707   5.238   0.957
 1505SOL    HW1 5414   4.640   5.227   0.883
 1505SOL    HW2 5415   4.797   5.255   0.917
 1506SOL     OW 5416   0.480   6.111   3.183
 1506SOL    HW1 5417   0.517   6.108   3.276
 1506SOL    HW2 5418   0.550   6.148   3.121
 1507SOL     OW 5419   1.656   1.301   6.208
 1507SOL    HW1 5420   1.711   1.221   6.231
 1507SOL    HW2 5421   1.589   1.319   6.280
 1508SOL     OW 5422   5.191   6.842   0.236
 1508SOL    HW1 5423   5.095   6.852   0.211
 1508SOL    HW2 5424   5.237   6.786   0.168
 1509SOL     OW 5425   5.320   2.033   0.340
 1509SOL    HW1 5426   5.255   2.008   0.411
 1509SOL    HW2 5427   5.293   1.992   0.253
 1510SOL     OW 5428   7.010   1.447   4.056
 1510SOL    HW1 5429   6.929   1.408   4.012
 1510SOL    HW2 5430   0.068   1.424   4.004
 1511SOL     OW 5431   2.084   2.755   0.920
 1511SOL    HW1 5432   2.069   2.660   0.946
 1511SOL    HW2 5433   2.178   2.767   0.889
 1512SOL     OW 5434   6.238   0.307   2.191
 1512SOL    HW1 5435   6.227   0.212   2.162
 1512SOL    HW2 5436   6.149   0.344   2.218
 1513SOL     OW 5437   3.721   1.556   1.867
 1513SOL    HW1 5438   3.757   1.517   1.951
 1513SOL    HW2 5439   3.687   1.649   1.885
 1514SOL     OW 5440   5.273   1.693   5.332
 1514SOL    HW1 5441   5.321   1.607   5.319
 1514SOL    HW2 5442   5.338   1.769   5.326
 1515SOL     OW 5443   6.875   4.605   4.750
 1515SOL    HW1 5444   6.965   4.612   4.708
 1515SOL    HW2 5445   6.836   4.515   4.732
 1516SOL     OW 5446   0.809   1.760   0.985
 1516SOL    HW1 5447   0.813   1.841   1.044
 1516SOL    HW2 5448   0.873   1.691   1.018
 1517SOL     OW 5449   3.835   5.513   3.209
 1517SOL    HW1 5450   3.745   5.471   3.216
 1517SOL    HW2 5451   3.903   5.444   3.185
 1518SOL     OW 5452   1.015   4.786   1.155
 1518SOL    HW1 5453   1.049   4.701   1.195
 1518SOL    HW2 5454   0.986   4.847   1.229
 1519SOL     OW 5455   6.786   4.683   0.674
 1519SOL    HW1 5456   6.706   4.733   0.706
 1519SOL    HW2 5457   6.809   4.712   0.582
 1520SOL     OW 5458   1.424   3.499   3.487
 1520SOL    HW1 5459   1.431   3.550   3.402
 1520SOL    HW2 5460   1.388   3.408   3.469
 1521SOL     OW 5461   2.481   4.131   5.801
 1521SOL    HW1 5462   2.386   4.144   5.831
 1521SOL    HW2 5463   2.511   4.211   5.749
 1522SOL     OW 5464   6.357   2.358   6.769
 1522SOL    HW1 5465   6.330   2.264   6.747
 1522SOL    HW2 5466   6.376   2.365   6.867
 1523SOL     OW 5467   6.851   1.780   0.777
 1523SOL    HW1 5468   6.884   1.686   0.765
 1523SOL    HW2 5469   6.757   1.787   0.745
 1524SOL     OW 5470   6.752   1.189   2.767
 1524SOL    HW1 5471   6.732   1.102   2.813
 1524SOL    HW2 5472   6.765   1.173   2.669
 1525SOL     OW 5473   4.123   2.009   6.266
 1525SOL    HW1 5474   4.192   1.952   6.309
 1525SOL    HW2 5475   4.040   1.955   6.250
 1526SOL     OW 5476   0.149   2.169   1.758
 1526SOL    HW1 5477   0.218   2.105   1.791
 1526SOL    HW2 5478   0.181   2.212   1.673
 1527SOL     OW 5479   2.874   1.332   5.297
 1527SOL    HW1 5480   2.813   1.411   5.309
 1527SOL    HW2 5481   2.821   1.254   5.263
 1528SOL     OW 5482   5.224   6.454   3.513
 1528SOL    HW1 5483   5.234   6.373   3.456
 1528SOL    HW2 5484   5.178   6.526   3.461
 1529SOL     OW 5485   2.916   0.314   5.857
 1529SOL    HW1 5486   2.902   0.303   5.759
 1529SOL    HW2 5487   2.857   0.251   5.907
 1530SOL     OW 5488   3.716   6.619   1.328
 1530SOL    HW1 5489   3.739   6.657   1.239
 1530SOL    HW2 5490   3.787   6.556   1.357
 1531SOL     OW 5491   6.652   6.992   4.783
 1531SOL    HW1 5492   6.672   7.005   4.880
 1531SOL    HW2 5493   6.736   7.002   4.730
 1532SOL     OW 5494   3.219   1.616   4.976
 1532SOL    HW1 5495   3.210   1.708   5.014
 1532SOL    HW2 5496   3.257   1.554   5.044
 1533SOL     OW 5497   6.009   3.041   6.927
 1533SOL    HW1 5498   6.003   2.944   6.902
 1533SOL    HW2 5499   6.061   3.050   7.011
 1534SOL     OW 5500   0.652   6.278   1.566
 1534SOL    HW1 5501   0.636   6.195   1.512
 1534SOL    HW2 5502   0.663   6.255   1.662
 1535SOL     OW 5503   5.156   5.351   4.577
 1535SOL    HW1 5504   5.212   5.269   4.588
 1535SOL    HW2 5505   5.067   5.326   4.539
 1536SOL     OW 5506   2.552   5.705   4.108
 1536SOL    HW1 5507   2.612   5.668   4.180
 1536SOL    HW2 5508   2.583   5.796   4.083
 1537SOL     OW 5509   1.934   5.309   4.739
 1537SOL    HW1 5510   2.009   5.370   4.714
 1537SOL    HW2 5511   1.936   5.228   4.681
 1538SOL     OW 5512   2.313   5.435   6.448
 1538SOL    HW1 5513   2.326   5.363   6.516
 1538SOL    HW2 5514   2.333   5.400   6.357
 1539SOL     OW 5515   3.206   4.770   1.868
 1539SOL    HW1 5516   3.179   4.686   1.821
 1539SOL    HW2 5517   3.247   4.747   1.956
 1540SOL     OW 5518   0.215   6.528   4.802
 1540SOL    HW1 5519   0.222   6.627   4.809
 1540SOL    HW2 5520   0.302   6.490   4.769
 1541SOL     OW 5521   5.105   2.522   1.293
 1541SOL    HW1 5522   5.152   2.479   1.370
 1541SOL    HW2 5523   5.021   2.566   1.325
 1542SOL     OW 5524   0.832   6.755   1.115
 1542SOL    HW1 5525   0.811   6.756   1.018
 1542SOL    HW2 5526   0.931   6.746   1.128
 1543SOL     OW 5527   3.149   4.037   4.218
 1543SOL    HW1 5528   3.124   4.032   4.122
 1543SOL    HW2 5529   3.230   4.095   4.228
 1544SOL     OW 5530   3.655   4.056   2.691
 1544SOL    HW1 5531   3.717   4.089   2.762
 1544SOL    HW2 5532   3.562   4.088   2.709
 1545SOL     OW 5533   6.084   0.716   4.870
 1545SOL    HW1 5534   6.125   0.807   4.877
 1545SOL    HW2 5535   6.156   0.647   4.867
 1546SOL     OW 5536   0.847   6.579   5.884
 1546SOL    HW1 5537   0.808   6.487   5.896
 1546SOL    HW2 5538   0.909   6.599   5.959
 1547SOL     OW 5539   3.746   6.155   6.870
 1547SOL    HW1 5540   3.813   6.227   6.853
 1547SOL    HW2 5541   3.793   6.071   6.895
 1548SOL     OW 5542   5.838   3.981   4.509
 1548SOL    HW1 5543   5.858   4.071   4.548
 1548SOL    HW2 5544   5.893   3.968   4.427
 1549SOL     OW 5545   6.762   1.792   1.618
 1549SOL    HW1 5546   6.749   1.781   1.520
 1549SOL    HW2 5547   6.730   1.711   1.666
 1550SOL     OW 5548   2.474   5.638   4.543
 1550SOL    HW1 5549   2.474   5.610   4.639
 1550SOL    HW2 5550   2.544   5.708   4.529
 1551SOL     OW 5551   1.315   2.925   0.178
 1551SOL    HW1 5552   1.411   2.898   0.169
 1551SOL    HW2 5553   1.277   2.884   0.260
 1552SOL     OW 5554   0.584   0.422   0.824
 1552SOL    HW1 5555   0.552   0.343   0.770
 1552SOL    HW2 5556   0.683   0.417   0.834
 1553SOL     OW 5557   5.813   1.221   6.374
 1553SOL    HW1 5558   5.840   1.315   6.356
 1553SOL    HW2 5559   5.717   1.218   6.401
 1554SOL     OW 5560   3.229   1.742   1.013
 1554SOL    HW1 5561   3.296   1.740   0.939
 1554SOL    HW2 5562   3.138   1.721   0.977
 1555SOL     OW 5563   4.267   1.360   5.398
 1555SOL    HW1 5564   4.258   1.450   5.440
 1555SOL    HW2 5565   4.319   1.300   5.459
 1556SOL     OW 5566   3.968   1.907   0.496
 1556SOL    HW1 5567   3.993   1.977   0.429
 1556SOL    HW2 5568   3.905   1.947   0.564
 1557SOL     OW 5569   1.754   3.033   0.497
 1557SOL    HW1 5570   1.786   2.939   0.504
 1557SOL    HW2 5571   1.832   3.096   0.510
 1558SOL     OW 5572   5.505   2.922   6.371
 1558SOL    HW1 5573   5.412   2.919   6.335
 1558SOL    HW2 5574   5.560   2.986   6.318
 1559SOL     OW 5575   2.243   4.919   3.538
 1559SOL    HW1 5576   2.284   4.831   3.563
 1559SOL    HW2 5577   2.152   4.926   3.579
 1560SOL     OW 5578   3.904   1.631   0.956
 1560SOL    HW1 5579   3.911   1.552   1.018
 1560SOL    HW2 5580   3.848   1.607   0.877
 1561SOL     OW 5581   6.066   5.962   1.073
 1561SOL    HW1 5582   6.142   6.006   1.122
 1561SOL    HW2 5583   6.032   5.886   1.129
 1562SOL     OW 5584   4.115   6.781   2.296
 1562SOL    HW1 5585   4.088   6.690   2.266
 1562SOL    HW2 5586   4.174   6.774   2.376
 1563SOL     OW 5587   3.560   2.047   4.417
 1563SOL    HW1 5588   3.557   1.977   4.488
 1563SOL    HW2 5589   3.637   2.109   4.433
 1564SOL     OW 5590   1.062   2.234   3.245
 1564SOL    HW1 5591   1.082   2.330   3.229
 1564SOL    HW2 5592   1.100   2.205   3.333
 1565SOL     OW 5593   3.753   1.422   4.022
 1565SOL    HW1 5594   3.802   1.461   3.944
 1565SOL    HW2 5595   3.779   1.471   4.105
 1566SOL     OW 5596   4.923   4.809   3.306
 1566SOL    HW1 5597   4.946   4.884   3.245
 1566SOL    HW2 5598   4.851   4.838   3.369
 1567SOL     OW 5599   5.250   0.454   4.873
 1567SOL    HW1 5600   5.265   0.519   4.948
 1567SOL    HW2 5601   5.184   0.385   4.902
 1568SOL     OW 5602   2.545   5.278   2.041
 1568SOL    HW1 5603   2.581   5.186   2.026
 1568SOL    HW2 5604   2.448   5.274   2.065
 1569SOL     OW 5605   3.251   0.260   3.147
 1569SOL    HW1 5606   3.171   0.301   3.102
 1569SOL    HW2 5607   3.281   0.320   3.222
 1570SOL     OW 5608   3.321   6.203   6.299
 1570SOL    HW1 5609   3.389   6.251   6.354
 1570SOL    HW2 5610   3.301   6.114   6.340
 1571SOL     OW 5611   0.412   2.708   4.355
 1571SOL    HW1 5612   0.435   2.784   4.294
 1571SOL    HW2 5613   0.465   2.627   4.330
 1572SOL     OW 5614   2.096   4.988   1.949
 1572SOL    HW1 5615   2.125   5.022   1.860
 1572SOL    HW2 5616   2.055   4.898   1.939
 1573SOL     OW 5617   5.769   5.582   0.325
 1573SOL    HW1 5618   5.863   5.555   0.346
 1573SOL    HW2 5619   5.756   5.678   0.350
 1574SOL     OW 5620   0.077   3.497   3.521
 1574SOL    HW1 5621   0.040   3.577   3.474
 1574SOL    HW2 5622   0.012   3.466   3.590
 1575SOL     OW 5623   6.501   1.786   0.397
 1575SOL    HW1 5624   6.465   1.877   0.377
 1575SOL    HW2 5625   6.574   1.764   0.332
 1576SOL     OW 5626   1.004   0.449   2.127
 1576SOL    HW1 5627   0.958   0.513   2.189
 1576SOL    HW2 5628   1.057   0.501   2.060
 1577SOL     OW 5629   4.034   5.470   5.571
 1577SOL    HW1 5630   3.946   5.512   5.593
 1577SOL    HW2 5631   4.038   5.378   5.610
 1578SOL     OW 5632   4.877   1.350   1.253
 1578SOL    HW1 5633   4.847   1.367   1.346
 1578SOL    HW2 5634   4.800   1.362   1.190
 1579SOL     OW 5635   1.891   2.999   1.260
 1579SOL    HW1 5636   1.933   2.908   1.267
 1579SOL    HW2 5637   1.931   3.060   1.329
 1580SOL     OW 5638   3.161   3.549   2.633
 1580SOL    HW1 5639   3.070   3.590   2.626
 1580SOL    HW2 5640   3.211   3.592   2.707
 1581SOL     OW 5641   5.891   4.172   5.856
 1581SOL    HW1 5642   5.823   4.218   5.914
 1581SOL    HW2 5643   5.885   4.207   5.763
 1582SOL     OW 5644   4.578   6.255   5.361
 1582SOL    HW1 5645   4.578   6.296   5.270
 1582SOL    HW2 5646   4.662   6.281   5.410
 1583SOL     OW 5647   1.570   5.806   5.103
 1583SOL    HW1 5648   1.554   5.872   5.029
 1583SOL    HW2 5649   1.651   5.833   5.154
 1584SOL     OW 5650   0.195   5.006   0.355
 1584SOL    HW1 5651   0.126   4.995   0.283
 1584SOL    HW2 5652   0.229   4.917   0.384
 1585SOL     OW 5653   4.190   6.391   3.378
 1585SOL    HW1 5654   4.093   6.418   3.376
 1585SOL    HW2 5655   4.204   6.316   3.315
 1586SOL     OW 5656   3.562   5.193   3.713
 1586SOL    HW1 5657   3.579   5.120   3.647
 1586SOL    HW2 5658   3.605   5.277   3.681
 1587SOL     OW 5659   2.755   6.003   6.377
 1587SOL    HW1 5660   2.845   6.007   6.419
 1587SOL    HW2 5661   2.697   5.940   6.429
 1588SOL     OW 5662   6.094   1.548   3.384
 1588SOL    HW1 5663   6.076   1.464   3.434
 1588SOL    HW2 5664   6.011   1.579   3.338
 1589SOL     OW 5665   6.213   4.561   4.025
 1589SOL    HW1 5666   6.170   4.513   3.949
 1589SOL    HW2 5667   6.302   4.521   4.045
 1590SOL     OW 5668   6.225   2.563   3.526
 1590SOL    HW1 5669   6.240   2.660   3.505
 1590SOL    HW2 5670   6.146   2.530   3.475
 1591SOL     OW 5671   1.585   6.730   2.044
 1591SOL    HW1 5672   1.586   6.723   2.144
 1591SOL    HW2 5673   1.547   6.818   2.017
 1592SOL     OW 5674   0.049   4.177   6.130
 1592SOL    HW1 5675   0.119   4.179   6.058
 1592SOL    HW2 5676   6.989   4.222   6.097
 1593SOL     OW 5677   3.354   0.646   0.321
 1593SOL    HW1 5678   3.353   0.558   0.369
 1593SOL    HW2 5679   3.355   0.631   0.222
 1594SOL     OW 5680   6.392   6.997   2.275
 1594SOL    HW1 5681   6.304   0.011   2.303
 1594SOL    HW2 5682   6.464   0.040   2.297
 1595SOL     OW 5683   0.205   3.974   7.016
 1595SOL    HW1 5684   0.282   4.025   6.977
 1595SOL    HW2 5685   0.235   3.927   0.076
 1596SOL     OW 5686   4.451   4.882   2.799
 1596SOL    HW1 5687   4.439   4.943   2.721
 1596SOL    HW2 5688   4.468   4.789   2.766
 1597SOL     OW 5689   3.738   6.368   6.564
 1597SOL    HW1 5690   3.796   6.386   6.485
 1597SOL    HW2 5691   3.711   6.455   6.605
 1598SOL     OW 5692   1.946   5.258   0.177
 1598SOL    HW1 5693   1.874   5.281   0.111
 1598SOL    HW2 5694   1.913   5.277   0.269
 1599SOL     OW 5695   4.683   5.714   3.490
 1599SOL    HW1 5696   4.651   5.706   3.585
 1599SOL    HW2 5697   4.615   5.674   3.428
 1600SOL     OW 5698   4.840   6.826   2.341
 1600SOL    HW1 5699   4.741   6.828   2.331
 1600SOL    HW2 5700   4.875   6.920   2.348
 1601SOL     OW 5701   6.856   6.562   4.213
 1601SOL    HW1 5702   6.895   6.646   4.249
 1601SOL    HW2 5703   6.771   6.541   4.262
 1602SOL     OW 5704   3.521   5.208   3.994
 1602SOL    HW1 5705   3.547   5.180   3.902
 1602SOL    HW2 5706   3.590   5.270   4.031
 1603SOL     OW 5707   3.271   5.155   2.680
 1603SOL    HW1 5708   3.362   5.192   2.660
 1603SOL    HW2 5709   3.212   5.227   2.715
 1604SOL     OW 5710   4.256   5.178   2.033
 1604SOL    HW1 5711   4.266   5.274   2.056
 1604SOL    HW2 5712   4.215   5.129   2.110
 1605SOL     OW 5713   4.649   5.742   0.930
 1605SOL    HW1 5714   4.606   5.831   0.919
 1605SOL    HW2 5715   4.676   5.730   1.025
 1606SOL     OW 5716   3.533   6.163   4.807
 1606SOL    HW1 5717   3.601   6.093   4.783
 1606SOL    HW2 5718   3.538   6.239   4.742
 1607SOL     OW 5719   4.662   6.231   3.065
 1607SOL    HW1 5720   4.729   6.224   3.139
 1607SOL    HW2 5721   4.707   6.214   2.977
 1608SOL     OW 5722   5.899   0.907   3.196
 1608SOL    HW1 5723   5.969   0.906   3.125
 1608SOL    HW2 5724   5.900   0.820   3.245
 1609SOL     OW 5725   2.884   6.810   0.119
 1609SOL    HW1 5726   2.879   6.822   0.020
 1609SOL    HW2 5727   2.956   6.869   0.157
 1610SOL     OW 5728   5.367   0.197   0.677
 1610SOL    HW1 5729   5.324   0.124   0.729
 1610SOL    HW2 5730   5.304   0.274   0.668
 1611SOL     OW 5731   1.377   4.062   1.608
 1611SOL    HW1 5732   1.433   4.081   1.527
 1611SOL    HW2 5733   1.324   3.979   1.593
 1612SOL     OW 5734   3.819   7.001   1.949
 1612SOL    HW1 5735   3.874   0.041   1.896
 1612SOL    HW2 5736   3.722   0.003   1.942
 1613SOL     OW 5737   6.711   5.157   2.411
 1613SOL    HW1 5738   6.705   5.232   2.477
 1613SOL    HW2 5739   6.800   5.112   2.419
 1614SOL     OW 5740   6.791   1.856   6.212
 1614SOL    HW1 5741   6.734   1.891   6.287
 1614SOL    HW2 5742   6.735   1.799   6.152
 1615SOL     OW 5743   1.252   5.008   6.267
 1615SOL    HW1 5744   1.176   4.981   6.208
 1615SOL    HW2 5745   1.218   5.067   6.340
 1616SOL     OW 5746   2.162   1.399   4.587
 1616SOL    HW1 5747   2.107   1.480   4.566
 1616SOL    HW2 5748   2.181   1.349   4.502
 1617SOL     OW 5749   5.670   5.991   3.257
 1617SOL    HW1 5750   5.641   6.073   3.305
 1617SOL    HW2 5751   5.765   6.002   3.226
 1618SOL     OW 5752   2.973   5.169   3.060
 1618SOL    HW1 5753   2.876   5.165   3.038
 1618SOL    HW2 5754   3.001   5.086   3.108
 1619SOL     OW 5755   1.212   5.070   6.644
 1619SOL    HW1 5756   1.293   5.118   6.611
 1619SOL    HW2 5757   1.184   5.108   6.732
 1620SOL     OW 5758   3.498   5.375   6.267
 1620SOL    HW1 5759   3.512   5.439   6.192
 1620SOL    HW2 5760   3.400   5.363   6.284
 1621SOL     OW 5761   5.269   5.999   1.073
 1621SOL    HW1 5762   5.217   6.009   1.158
 1621SOL    HW2 5763   5.224   5.932   1.014
 1622SOL     OW 5764   0.572   4.406   4.410
 1622SOL    HW1 5765   0.648   4.466   4.435
 1622SOL    HW2 5766   0.540   4.429   4.319
 1623SOL     OW 5767   0.496   2.210   4.087
 1623SOL    HW1 5768   0.461   2.131   4.136
 1623SOL    HW2 5769   0.547   2.179   4.006
 1624SOL     OW 5770   4.294   1.652   0.698
 1624SOL    HW1 5771   4.270   1.730   0.755
 1624SOL    HW2 5772   4.379   1.672   0.649
 1625SOL     OW 5773   0.999   5.795   0.857
 1625SOL    HW1 5774   0.903   5.810   0.832
 1625SOL    HW2 5775   1.037   5.722   0.799
 1626SOL     OW 5776   2.939   1.808   1.340
 1626SOL    HW1 5777   2.937   1.810   1.240
 1626SOL    HW2 5778   3.013   1.867   1.373
 1627SOL     OW 5779   4.280   1.755   4.282
 1627SOL    HW1 5780   4.280   1.681   4.215
 1627SOL    HW2 5781   4.221   1.829   4.249
 1628SOL     OW 5782   5.428   6.558   0.589
 1628SOL    HW1 5783   5.473   6.588   0.504
 1628SOL    HW2 5784   5.463   6.468   0.614
 1629SOL     OW 5785   1.844   0.702   3.459
 1629SOL    HW1 5786   1.831   0.606   3.432
 1629SOL    HW2 5787   1.803   0.717   3.549
 1630SOL     OW 5788   0.244   3.741   0.146
 1630SOL    HW1 5789   0.162   3.705   0.190
 1630SOL    HW2 5790   0.274   3.677   0.075
 1631SOL     OW 5791   6.725   3.283   0.186
 1631SOL    HW1 5792   6.722   3.251   0.281
 1631SOL    HW2 5793   6.815   3.264   0.148
 1632SOL     OW 5794   6.509   4.915   2.749
 1632SOL    HW1 5795   6.483   4.994   2.805
 1632SOL    HW2 5796   6.529   4.945   2.656
 1633SOL     OW 5797   5.327   3.086   3.822
 1633SOL    HW1 5798   5.246   3.094   3.764
 1633SOL    HW2 5799   5.311   3.017   3.892
 1634SOL     OW 5800   5.761   0.883   4.419
 1634SOL    HW1 5801   5.814   0.805   4.451
 1634SOL    HW2 5802   5.805   0.968   4.448
 1635SOL     OW 5803   3.543   5.818   4.018
 1635SOL    HW1 5804   3.545   5.755   3.940
 1635SOL    HW2 5805   3.561   5.767   4.102
 1636SOL     OW 5806   5.822   6.767   1.582
 1636SOL    HW1 5807   5.895   6.699   1.579
 1636SOL    HW2 5808   5.774   6.760   1.670
 1637SOL     OW 5809   0.346   0.210   2.065
 1637SOL    HW1 5810   0.364   0.289   2.125
 1637SOL    HW2 5811   0.387   0.227   1.976
 1638SOL     OW 5812   6.429   3.148   1.813
 1638SOL    HW1 5813   6.523   3.122   1.835
 1638SOL    HW2 5814   6.403   3.230   1.864
 1639SOL     OW 5815   5.309   2.523   2.458
 1639SOL    HW1 5816   5.244   2.548   2.530
 1639SOL    HW2 5817   5.263   2.470   2.387
 1640SOL     OW 5818   6.329   0.258   6.703
 1640SOL    HW1 5819   6.403   0.194   6.683
 1640SOL    HW2 5820   6.245   0.228   6.659
 1641SOL     OW 5821   6.414   2.515   3.181
 1641SOL    HW1 5822   6.448   2.448   3.247
 1641SOL    HW2 5823   6.325   2.485   3.146
 1642SOL     OW 5824   6.220   2.286   5.734
 1642SOL    HW1 5825   6.303   2.237   5.706
 1642SOL    HW2 5826   6.213   2.371   5.681
 1643SOL     OW 5827   2.645   5.862   3.383
 1643SOL    HW1 5828   2.721   5.924   3.367
 1643SOL    HW2 5829   2.612   5.873   3.477
 1644SOL     OW 5830   6.239   2.857   1.418
 1644SOL    HW1 5831   6.214   2.802   1.338
 1644SOL    HW2 5832   6.161   2.860   1.481
 1645SOL     OW 5833   2.183   0.856   5.840
 1645SOL    HW1 5834   2.143   0.946   5.861
 1645SOL    HW2 5835   2.157   0.792   5.912
 1646SOL     OW 5836   1.087   5.642   1.098
 1646SOL    HW1 5837   1.103   5.674   1.192
 1646SOL    HW2 5838   1.053   5.718   1.043
 1647SOL     OW 5839   6.066   2.780   4.176
 1647SOL    HW1 5840   5.969   2.795   4.159
 1647SOL    HW2 5841   6.108   2.864   4.209
 1648SOL     OW 5842   5.748   6.084   1.193
 1648SOL    HW1 5843   5.764   6.178   1.165
 1648SOL    HW2 5844   5.670   6.081   1.256
 1649SOL     OW 5845   3.750   0.198   3.519
 1649SOL    HW1 5846   3.712   0.274   3.467
 1649SOL    HW2 5847   3.743   0.114   3.466
 1650SOL     OW 5848   2.865   4.502   6.541
 1650SOL    HW1 5849   2.832   4.572   6.477
 1650SOL    HW2 5850   2.794   4.481   6.607
 1651SOL     OW 5851   1.164   3.038   3.755
 1651SOL    HW1 5852   1.090   2.978   3.724
 1651SOL    HW2 5853   1.244   2.983   3.778
 1652SOL     OW 5854   0.779   2.241   1.463
 1652SOL    HW1 5855   0.742   2.282   1.380
 1652SOL    HW2 5856   0.879   2.241   1.459
 1653SOL     OW 5857   0.315   4.451   3.346
 1653SOL    HW1 5858   0.232   4.409   3.309
 1653SOL    HW2 5859   0.348   4.397   3.424
 1654SOL     OW 5860   0.475   3.057   1.984
 1654SOL    HW1 5861   0.417   3.082   2.062
 1654SOL    HW2 5862   0.442   2.972   1.944
 1655SOL     OW 5863   0.005   6.645   4.608
 1655SOL    HW1 5864   6.957   6.593   4.561
 1655SOL    HW2 5865   0.063   6.582   4.659
 1656SOL     OW 5866   1.736   4.453   3.633
 1656SOL    HW1 5867   1.735   4.453   3.733
 1656SOL    HW2 5868   1.821   4.494   3.601
 1657SOL     OW 5869   1.384   6.839   5.415
 1657SOL    HW1 5870   1.427   6.868   5.329
 1657SOL    HW2 5871   1.417   6.897   5.489
 1658SOL     OW 5872   6.552   0.063   6.645
 1658SOL    HW1 5873   6.650   0.063   6.665
 1658SOL    HW2 5874   6.514   6.996   6.663
 1659SOL     OW 5875   4.941   6.505   6.567
 1659SOL    HW1 5876   4.841   6.495   6.573
 1659SOL    HW2 5877   4.967   6.520   6.472
 1660SOL     OW 5878   2.521   0.105   2.498
 1660SOL    HW1 5879   2.507   0.199   2.469
 1660SOL    HW2 5880   2.611   0.095   2.539
 1661SOL     OW 5881   4.144   4.781   2.609
 1661SOL    HW1 5882   4.172   4.737   2.523
 1661SOL    HW2 5883   4.052   4.819   2.598
 1662SOL     OW 5884   0.120   1.095   5.123
 1662SOL    HW1 5885   0.123   1.194   5.114
 1662SOL    HW2 5886   0.044   1.058   5.069
 1663SOL     OW 5887   4.230   4.944   0.639
 1663SOL    HW1 5888   4.161   4.988   0.695
 1663SOL    HW2 5889   4.316   4.938   0.690
 1664SOL     OW 5890   1.377   0.330   5.720
 1664SOL    HW1 5891   1.378   0.302   5.624
 1664SOL    HW2 5892   1.409   0.424   5.727
 1665SOL     OW 5893   2.367   3.942   0.287
 1665SOL    HW1 5894   2.357   3.843   0.279
 1665SOL    HW2 5895   2.429   3.964   0.362
 1666SOL     OW 5896   5.677   6.586   6.270
 1666SOL    HW1 5897   5.626   6.586   6.356
 1666SOL    HW2 5898   5.737   6.506   6.267
 1667SOL     OW 5899   1.133   6.309   1.265
 1667SOL    HW1 5900   1.095   6.234   1.319
 1667SOL    HW2 5901   1.080   6.320   1.181
 1668SOL     OW 5902   5.434   4.451   3.263
 1668SOL    HW1 5903   5.411   4.542   3.296
 1668SOL    HW2 5904   5.458   4.455   3.166
 1669SOL     OW 5905   6.355   3.273   5.267
 1669SOL    HW1 5906   6.389   3.357   5.310
 1669SOL    HW2 5907   6.261   3.255   5.298
 1670SOL     OW 5908   2.209   5.019   5.965
 1670SOL    HW1 5909   2.200   5.107   6.010
 1670SOL    HW2 5910   2.165   4.948   6.020
 1671SOL     OW 5911   6.152   2.055   1.156
 1671SOL    HW1 5912   6.225   2.012   1.210
 1671SOL    HW2 5913   6.064   2.023   1.189
 1672SOL     OW 5914   0.772   3.702   0.020
 1672SOL    HW1 5915   0.783   3.603   0.022
 1672SOL    HW2 5916   0.862   3.745   0.011
 1673SOL     OW 5917   2.142   1.340   4.845
 1673SOL    HW1 5918   2.172   1.401   4.918
 1673SOL    HW2 5919   2.193   1.360   4.761
 1674SOL     OW 5920   4.794   1.861   3.049
 1674SOL    HW1 5921   4.836   1.930   2.989
 1674SOL    HW2 5922   4.756   1.906   3.130
 1675SOL     OW 5923   5.379   0.888   1.083
 1675SOL    HW1 5924   5.425   0.931   1.160
 1675SOL    HW2 5925   5.403   0.792   1.079
 1676SOL     OW 5926   1.586   1.683   2.863
 1676SOL    HW1 5927   1.597   1.647   2.770
 1676SOL    HW2 5928   1.581   1.607   2.928
 1677SOL     OW 5929   3.913   3.967   3.246
 1677SOL    HW1 5930   3.952   3.897   3.187
 1677SOL    HW2 5931   3.958   3.967   3.334
 1678SOL     OW 5932   1.299   0.364   0.995
 1678SOL    HW1 5933   1.305   0.334   1.090
 1678SOL    HW2 5934   1.203   0.386   0.974
 1679SOL     OW 5935   1.201   2.457   5.947
 1679SOL    HW1 5936   1.256   2.397   6.004
 1679SOL    HW2 5937   1.121   2.488   5.997
 1680SOL     OW 5938   4.935   2.365   3.835
 1680SOL    HW1 5939   4.955   2.398   3.927
 1680SOL    HW2 5940   4.836   2.359   3.823
 1681SOL     OW 5941   2.041   6.241   4.160
 1681SOL    HW1 5942   2.100   6.242   4.241
 1681SOL    HW2 5943   2.058   6.156   4.109
 1682SOL     OW 5944   3.258   0.470   5.287
 1682SOL    HW1 5945   3.284   0.566   5.295
 1682SOL    HW2 5946   3.174   0.462   5.233
 1683SOL     OW 5947   5.668   4.812   2.638
 1683SOL    HW1 5948   5.645   4.715   2.627
 1683SOL    HW2 5949   5.765   4.826   2.616
 1684SOL     OW 5950   2.506   4.551   1.949
 1684SOL    HW1 5951   2.455   4.488   1.891
 1684SOL    HW2 5952   2.604   4.541   1.931
 1685SOL     OW 5953   0.211   1.044   5.364
 1685SOL    HW1 5954   0.151   1.006   5.434
 1685SOL    HW2 5955   0.157   1.072   5.285
 1686SOL     OW 5956   4.984   5.951   2.992
 1686SOL    HW1 5957   4.894   5.928   3.030
 1686SOL    HW2 5958   5.033   6.011   3.056
 1687SOL     OW 5959   5.946   3.736   2.721
 1687SOL    HW1 5960   5.990   3.648   2.703
 1687SOL    HW2 5961   5.922   3.741   2.818
 1688SOL     OW 5962   2.032   1.478   3.610
 1688SOL    HW1 5963   2.092   1.555   3.630
 1688SOL    HW2 5964   2.046   1.448   3.516
 1689SOL     OW 5965   4.726   0.833   1.556
 1689SOL    HW1 5966   4.636   0.866   1.527
 1689SOL    HW2 5967   4.772   0.903   1.611
 1690SOL     OW 5968   0.951   4.452   4.332
 1690SOL    HW1 5969   0.997   4.398   4.261
 1690SOL    HW2 5970   0.979   4.419   4.422
 1691SOL     OW 5971   4.551   2.918   5.310
 1691SOL    HW1 5972   4.566   2.908   5.409
 1691SOL    HW2 5973   4.482   2.852   5.280
 1692SOL     OW 5974   5.587   5.277   1.258
 1692SOL    HW1 5975   5.529   5.242   1.332
 1692SOL    HW2 5976   5.542   5.353   1.213
 1693SOL     OW 5977   5.443   6.903   5.347
 1693SOL    HW1 5978   5.446   6.885   5.445
 1693SOL    HW2 5979   5.453   7.001   5.330
 1694SOL     OW 5980   4.779   1.501   5.160
 1694SOL    HW1 5981   4.689   1.461   5.174
 1694SOL    HW2 5982   4.835   1.487   5.242
 1695SOL     OW 5983   3.895   0.895   6.384
 1695SOL    HW1 5984   3.847   0.810   6.363
 1695SOL    HW2 5985   3.900   0.952   6.302
 1696SOL     OW 5986   4.733   6.068   0.627
 1696SOL    HW1 5987   4.664   6.048   0.696
 1696SOL    HW2 5988   4.698   6.136   0.563
 1697SOL     OW 5989   5.765   2.443   2.216
 1697SOL    HW1 5990   5.705   2.478   2.287
 1697SOL    HW2 5991   5.801   2.354   2.243
 1698SOL     OW 5992   3.948   1.039   1.531
 1698SOL    HW1 5993   3.861   1.082   1.556
 1698SOL    HW2 5994   4.014   1.109   1.506
 1699SOL     OW 5995   2.449   0.383   6.804
 1699SOL    HW1 5996   2.375   0.443   6.776
 1699SOL    HW2 5997   2.414   0.291   6.822
 1700SOL     OW 5998   6.360   2.765   2.643
 1700SOL    HW1 5999   6.316   2.824   2.576
 1700SOL    HW2 6000   6.342   2.669   2.620
 1701SOL     OW 6001   0.286   5.791   4.250
 1701SOL    HW1 6002   0.288   5.718   4.319
 1701SOL    HW2 6003   0.191   5.819   4.234
 1702SOL     OW 6004   2.195   2.482   6.000
 1702SOL    HW1 6005   2.216   2.567   6.049
 1702SOL    HW2 6006   2.171   2.410   6.065
 1703SOL     OW 6007   3.408   2.029   0.749
 1703SOL    HW1 6008   3.354   2.107   0.781
 1703SOL    HW2 6009   3.362   1.986   0.672
 1704SOL     OW 6010   2.547   2.220   1.295
 1704SOL    HW1 6011   2.626   2.171   1.332
 1704SOL    HW2 6012   2.463   2.178   1.329
 1705SOL     OW 6013   4.072   2.341   0.545
 1705SOL    HW1 6014   4.003   2.268   0.534
 1705SOL    HW2 6015   4.061   2.383   0.635
 1706SOL     OW 6016   4.372   2.271   6.570
 1706SOL    HW1 6017   4.426   2.187   6.568
 1706SOL    HW2 6018   4.311   2.269   6.650
 1707SOL     OW 6019   4.575   2.107   2.235
 1707SOL    HW1 6020   4.534   2.018   2.253
 1707SOL    HW2 6021   4.510   2.179   2.258
 1708SOL     OW 6022   3.502   5.137   1.615
 1708SOL    HW1 6023   3.480   5.069   1.685
 1708SOL    HW2 6024   3.580   5.106   1.562
 1709SOL     OW 6025   4.609   5.311   0.432
 1709SOL    HW1 6026   4.626   5.315   0.334
 1709SOL    HW2 6027   4.695   5.327   0.481
 1710SOL     OW 6028   4.304   5.234   3.202
 1710SOL    HW1 6029   4.297   5.154   3.143
 1710SOL    HW2 6030   4.245   5.222   3.282
 1711SOL     OW 6031   3.845   4.572   6.339
 1711SOL    HW1 6032   3.816   4.539   6.249
 1711SOL    HW2 6033   3.833   4.671   6.344
 1712SOL     OW 6034   0.276   1.742   3.403
 1712SOL    HW1 6035   0.189   1.713   3.443
 1712SOL    HW2 6036   0.351   1.688   3.443
 1713SOL     OW 6037   4.143   0.673   3.188
 1713SOL    HW1 6038   4.172   0.763   3.156
 1713SOL    HW2 6039   4.060   0.682   3.243
 1714SOL     OW 6040   3.868   3.609   0.474
 1714SOL    HW1 6041   3.941   3.668   0.506
 1714SOL    HW2 6042   3.881   3.588   0.377
 1715SOL     OW 6043   1.933   6.993   2.864
 1715SOL    HW1 6044   1.835   7.001   2.847
 1715SOL    HW2 6045   1.981   6.974   2.778
 1716SOL     OW 6046   4.893   0.494   3.548
 1716SOL    HW1 6047   4.992   0.502   3.561
 1716SOL    HW2 6048   4.874   0.416   3.489
 1717SOL     OW 6049   3.564   6.062   5.372
 1717SOL    HW1 6050   3.632   6.074   5.445
 1717SOL    HW2 6051   3.573   6.136   5.306
 1718SOL     OW 6052   1.377   2.890   1.669
 1718SOL    HW1 6053   1.323   2.951   1.611
 1718SOL    HW2 6054   1.316   2.838   1.729
 1719SOL     OW 6055   1.244   5.576   2.185
 1719SOL    HW1 6056   1.317   5.531   2.133
 1719SOL    HW2 6057   1.197   5.508   2.241
 1720SOL     OW 6058   6.810   3.108   5.905
 1720SOL    HW1 6059   6.891   3.110   5.963
 1720SOL    HW2 6060   6.789   3.201   5.874
 1721SOL     OW 6061   1.624   1.751   0.515
 1721SOL    HW1 6062   1.586   1.826   0.461
 1721SOL    HW2 6063   1.567   1.736   0.596
 1722SOL     OW 6064   2.721   2.422   3.359
 1722SOL    HW1 6065   2.721   2.397   3.456
 1722SOL    HW2 6066   2.788   2.365   3.310
 1723SOL     OW 6067   5.100   2.994   0.216
 1723SOL    HW1 6068   5.101   2.932   0.295
 1723SOL    HW2 6069   5.152   2.953   0.141
 1724SOL     OW 6070   6.728   2.037   1.247
 1724SOL    HW1 6071   6.676   2.086   1.317
 1724SOL    HW2 6072   6.811   1.999   1.288
 1725SOL     OW 6073   1.590   6.053   0.046
 1725SOL    HW1 6074   1.567   6.025   0.139
 1725SOL    HW2 6075   1.671   6.003   0.015
 1726SOL     OW 6076   5.618   4.265   3.258
 1726SOL    HW1 6077   5.584   4.235   3.169
 1726SOL    HW2 6078   5.560   4.339   3.293
 1727SOL     OW 6079   2.939   3.535   3.474
 1727SOL    HW1 6080   2.921   3.450   3.424
 1727SOL    HW2 6081   2.872   3.545   3.548
 1728SOL     OW 6082   4.595   2.070   4.040
 1728SOL    HW1 6083   4.587   2.047   3.944
 1728SOL    HW2 6084   4.519   2.028   4.091
 1729SOL     OW 6085   1.703   4.067   2.463
 1729SOL    HW1 6086   1.631   4.135   2.472
 1729SOL    HW2 6087   1.716   4.020   2.551
 1730SOL     OW 6088   2.502   4.811   5.085
 1730SOL    HW1 6089   2.422   4.792   5.142
 1730SOL    HW2 6090   2.483   4.889   5.026
 1731SOL     OW 6091   6.056   4.439   3.830
 1731SOL    HW1 6092   5.982   4.372   3.827
 1731SOL    HW2 6093   6.035   4.515   3.769
 1732SOL     OW 6094   1.806   3.860   5.780
 1732SOL    HW1 6095   1.819   3.765   5.754
 1732SOL    HW2 6096   1.708   3.880   5.785
 1733SOL     OW 6097   2.658   4.129   6.881
 1733SOL    HW1 6098   2.594   4.057   6.855
 1733SOL    HW2 6099   2.750   4.090   6.888
 1734SOL     OW 6100   0.133   2.781   1.458
 1734SOL    HW1 6101   0.186   2.846   1.403
 1734SOL    HW2 6102   0.163   2.688   1.437
 1735SOL     OW 6103   3.768   5.164   5.759
 1735SOL    HW1 6104   3.721   5.144   5.673
 1735SOL    HW2 6105   3.782   5.079   5.810
 1736SOL     OW 6106   4.783   3.261   0.922
 1736SOL    HW1 6107   4.772   3.170   0.882
 1736SOL    HW2 6108   4.880   3.282   0.932
 1737SOL     OW 6109   4.454   1.658   5.553
 1737SOL    HW1 6110   4.549   1.646   5.581
 1737SOL    HW2 6111   4.444   1.630   5.458
 1738SOL     OW 6112   1.657   3.357   4.467
 1738SOL    HW1 6113   1.629   3.264   4.489
 1738SOL    HW2 6114   1.683   3.405   4.551
 1739SOL     OW 6115   5.872   0.509   3.974
 1739SOL    HW1 6116   5.775   0.499   3.954
 1739SOL    HW2 6117   5.888   0.597   4.020
 1740SOL     OW 6118   6.274   2.737   4.573
 1740SOL    HW1 6119   6.336   2.727   4.495
 1740SOL    HW2 6120   6.258   2.834   4.591
 1741SOL     OW 6121   0.912   1.914   4.781
 1741SOL    HW1 6122   0.941   1.895   4.687
 1741SOL    HW2 6123   0.813   1.908   4.787
 1742SOL     OW 6124   5.811   6.727   6.084
 1742SOL    HW1 6125   5.774   6.733   6.177
 1742SOL    HW2 6126   5.861   6.641   6.074
 1743SOL     OW 6127   1.497   0.886   2.856
 1743SOL    HW1 6128   1.526   0.957   2.793
 1743SOL    HW2 6129   1.435   0.925   2.925
 1744SOL     OW 6130   3.804   1.876   4.272
 1744SOL    HW1 6131   3.739   1.952   4.276
 1744SOL    HW2 6132   3.777   1.806   4.338
 1745SOL     OW 6133   6.605   0.005   1.689
 1745SOL    HW1 6134   6.553   6.967   1.629
 1745SOL    HW2 6135   6.680   6.979   1.732
 1746SOL     OW 6136   2.312   4.662   3.613
 1746SOL    HW1 6137   2.376   4.670   3.689
 1746SOL    HW2 6138   2.243   4.592   3.635
 1747SOL     OW 6139   4.454   7.010   2.330
 1747SOL    HW1 6140   4.405   6.984   2.247
 1747SOL    HW2 6141   4.389   0.000   2.404
 1748SOL     OW 6142   6.578   2.671   4.622
 1748SOL    HW1 6143   6.552   2.767   4.614
 1748SOL    HW2 6144   6.592   2.648   4.718
 1749SOL     OW 6145   1.573   4.674   0.880
 1749SOL    HW1 6146   1.653   4.728   0.909
 1749SOL    HW2 6147   1.577   4.584   0.922
 1750SOL     OW 6148   4.017   6.984   5.660
 1750SOL    HW1 6149   3.938   6.947   5.611
 1750SOL    HW2 6150   4.047   6.918   5.729
 1751SOL     OW 6151   5.153   2.752   5.490
 1751SOL    HW1 6152   5.120   2.763   5.396
 1751SOL    HW2 6153   5.080   2.712   5.546
 1752SOL     OW 6154   0.036   0.707   1.895
 1752SOL    HW1 6155   0.101   0.783   1.893
 1752SOL    HW2 6156   0.078   0.628   1.939
 1753SOL     OW 6157   6.113   1.622   1.832
 1753SOL    HW1 6158   6.121   1.681   1.753
 1753SOL    HW2 6159   6.142   1.529   1.807
 1754SOL     OW 6160   2.981   5.794   4.273
 1754SOL    HW1 6161   3.000   5.760   4.181
 1754SOL    HW2 6162   3.056   5.767   4.334
 1755SOL     OW 6163   6.669   6.660   5.024
 1755SOL    HW1 6164   6.708   6.731   5.083
 1755SOL    HW2 6165   6.655   6.696   4.932
 1756SOL     OW 6166   5.221   6.492   5.952
 1756SOL    HW1 6167   5.241   6.521   6.046
 1756SOL    HW2 6168   5.292   6.527   5.891
 1757SOL     OW 6169   2.225   4.666   4.966
 1757SOL    HW1 6170   2.133   4.675   5.004
 1757SOL    HW2 6171   2.224   4.599   4.891
 1758SOL     OW 6172   1.652   6.579   4.952
 1758SOL    HW1 6173   1.741   6.583   4.998
 1758SOL    HW2 6174   1.664   6.597   4.854
 1759SOL     OW 6175   2.114   6.720   0.530
 1759SOL    HW1 6176   2.117   6.634   0.480
 1759SOL    HW2 6177   2.019   6.744   0.552
 1760SOL     OW 6178   6.649   1.117   4.569
 1760SOL    HW1 6179   6.670   1.212   4.595
 1760SOL    HW2 6180   6.608   1.070   4.647
 1761SOL     OW 6181   5.966   1.402   2.432
 1761SOL    HW1 6182   5.999   1.436   2.520
 1761SOL    HW2 6183   6.022   1.324   2.403
 1762SOL     OW 6184   0.638   1.822   5.961
 1762SOL    HW1 6185   0.674   1.734   5.930
 1762SOL    HW2 6186   0.694   1.896   5.924
 1763SOL     OW 6187   0.703   3.822   3.860
 1763SOL    HW1 6188   0.754   3.903   3.887
 1763SOL    HW2 6189   0.722   3.748   3.925
 1764SOL     OW 6190   0.804   5.587   2.843
 1764SOL    HW1 6191   0.754   5.504   2.868
 1764SOL    HW2 6192   0.899   5.564   2.820
 1765SOL     OW 6193   5.549   3.096   2.629
 1765SOL    HW1 6194   5.576   3.005   2.599
 1765SOL    HW2 6195   5.497   3.089   2.715
 1766SOL     OW 6196   4.543   4.773   4.077
 1766SOL    HW1 6197   4.633   4.758   4.036
 1766SOL    HW2 6198   4.486   4.824   4.012
 1767SOL     OW 6199   0.874   4.485   2.296
 1767SOL    HW1 6200   0.929   4.546   2.352
 1767SOL    HW2 6201   0.826   4.419   2.355
 1768SOL     OW 6202   5.202   6.378   2.085
 1768SOL    HW1 6203   5.268   6.392   2.011
 1768SOL    HW2 6204   5.164   6.466   2.113
 1769SOL     OW 6205   5.254   0.234   0.107
 1769SOL    HW1 6206   5.311   0.200   0.182
 1769SOL    HW2 6207   5.275   0.184   0.023
 1770SOL     OW 6208   1.883   5.705   6.853
 1770SOL    HW1 6209   1.840   5.707   6.762
 1770SOL    HW2 6210   1.825   5.653   6.916
 1771SOL     OW 6211   1.500   3.059   5.844
 1771SOL    HW1 6212   1.419   3.115   5.828
 1771SOL    HW2 6213   1.501   2.984   5.778
 1772SOL     OW 6214   1.971   4.508   3.234
 1772SOL    HW1 6215   2.056   4.463   3.207
 1772SOL    HW2 6216   1.900   4.487   3.166
 1773SOL     OW 6217   1.228   6.805   6.126
 1773SOL    HW1 6218   1.146   6.753   6.102
 1773SOL    HW2 6219   1.260   6.777   6.216
 1774SOL     OW 6220   4.836   5.375   0.591
 1774SOL    HW1 6221   4.892   5.295   0.613
 1774SOL    HW2 6222   4.780   5.399   0.670
 1775SOL     OW 6223   2.211   5.578   6.697
 1775SOL    HW1 6224   2.177   5.506   6.758
 1775SOL    HW2 6225   2.194   5.551   6.602
 1776SOL     OW 6226   4.810   1.807   5.856
 1776SOL    HW1 6227   4.818   1.906   5.851
 1776SOL    HW2 6228   4.814   1.778   5.952
 1777SOL     OW 6229   5.046   6.367   6.227
 1777SOL    HW1 6230   5.132   6.407   6.259
 1777SOL    HW2 6231   5.017   6.412   6.143
 1778SOL     OW 6232   5.583   6.987   4.066
 1778SOL    HW1 6233   5.652   0.005   4.006
 1778SOL    HW2 6234   5.593   6.887   4.064
 1779SOL     OW 6235   5.781   5.754   4.478
 1779SOL    HW1 6236   5.745   5.845   4.502
 1779SOL    HW2 6237   5.866   5.765   4.425
 1780SOL     OW 6238   2.209   5.743   4.764
 1780SOL    HW1 6239   2.117   5.748   4.802
 1780SOL    HW2 6240   2.219   5.811   4.692
 1781SOL     OW 6241   4.181   0.738   4.046
 1781SOL    HW1 6242   4.096   0.778   4.079
 1781SOL    HW2 6243   4.164   0.686   3.962
 1782SOL     OW 6244   0.534   1.455   2.904
 1782SOL    HW1 6245   0.590   1.474   2.985
 1782SOL    HW2 6246   0.498   1.362   2.909
 1783SOL     OW 6247   2.124   4.007   6.620
 1783SOL    HW1 6248   2.028   4.021   6.645
 1783SOL    HW2 6249   2.178   4.085   6.650
 1784SOL     OW 6250   2.748   0.104   1.571
 1784SOL    HW1 6251   2.785   0.194   1.546
 1784SOL    HW2 6252   2.650   0.113   1.591
 1785SOL     OW 6253   1.344   6.570   4.588
 1785SOL    HW1 6254   1.265   6.627   4.610
 1785SOL    HW2 6255   1.332   6.479   4.628
 1786SOL     OW 6256   0.996   6.909   0.792
 1786SOL    HW1 6257   1.068   6.849   0.829
 1786SOL    HW2 6258   0.946   6.861   0.720
 1787SOL     OW 6259   2.698   3.662   6.177
 1787SOL    HW1 6260   2.797   3.652   6.180
 1787SOL    HW2 6261   2.669   3.690   6.086
 1788SOL     OW 6262   4.693   3.671   0.985
 1788SOL    HW1 6263   4.667   3.624   1.070
 1788SOL    HW2 6264   4.676   3.769   0.995
 1789SOL     OW 6265   5.694   4.076   1.625
 1789SOL    HW1 6266   5.761   4.003   1.640
 1789SOL    HW2 6267   5.699   4.107   1.530
 1790SOL     OW 6268   2.247   2.388   4.421
 1790SOL    HW1 6269   2.250   2.360   4.517
 1790SOL    HW2 6270   2.338   2.418   4.393
 1791SOL     OW 6271   5.154   6.992   2.982
 1791SOL    HW1 6272   5.235   0.020   3.010
 1791SOL    HW2 6273   5.171   6.945   2.895
 1792SOL     OW 6274   6.869   1.308   5.303
 1792SOL    HW1 6275   6.905   1.387   5.355
 1792SOL    HW2 6276   6.804   1.259   5.360
 1793SOL     OW 6277   7.001   1.000   5.958
 1793SOL    HW1 6278   6.995   1.074   5.891
 1793SOL    HW2 6279   0.043   1.025   6.030
 1794SOL     OW 6280   1.341   0.265   6.705
 1794SOL    HW1 6281   1.402   0.209   6.651
 1794SOL    HW2 6282   1.272   0.307   6.646
 1795SOL     OW 6283   5.879   4.241   1.292
 1795SOL    HW1 6284   5.934   4.250   1.209
 1795SOL    HW2 6285   5.808   4.171   1.277
 1796SOL     OW 6286   0.856   0.585   6.897
 1796SOL    HW1 6287   0.933   0.630   6.943
 1796SOL    HW2 6288   0.867   0.594   6.798
 1797SOL     OW 6289   1.954   5.630   5.974
 1797SOL    HW1 6290   1.935   5.724   6.000
 1797SOL    HW2 6291   2.051   5.611   5.987
 1798SOL     OW 6292   2.887   3.425   5.129
 1798SOL    HW1 6293   2.939   3.509   5.119
 1798SOL    HW2 6294   2.839   3.425   5.216
 1799SOL     OW 6295   3.301   1.627   0.602
 1799SOL    HW1 6296   3.222   1.653   0.547
 1799SOL    HW2 6297   3.278   1.551   0.662
 1800SOL     OW 6298   6.127   3.627   5.127
 1800SOL    HW1 6299   6.042   3.591   5.088
 1800SOL    HW2 6300   6.115   3.724   5.149
 1801SOL     OW 6301   1.156   0.943   2.898
 1801SOL    HW1 6302   1.146   1.030   2.948
 1801SOL    HW2 6303   1.179   0.963   2.803
 1802SOL     OW 6304   7.004   4.647   3.542
 1802SOL    HW1 6305   0.034   4.564   3.532
 1802SOL    HW2 6306   0.042   4.723   3.566
 1803SOL     OW 6307   0.092   6.888   3.323
 1803SOL    HW1 6308   0.023   6.911   3.255
 1803SOL    HW2 6309   0.085   6.951   3.400
 1804SOL     OW 6310   2.138   3.281   5.929
 1804SOL    HW1 6311   2.164   3.208   5.866
 1804SOL    HW2 6312   2.216   3.303   5.988
 1805SOL     OW 6313   0.179   5.705   6.743
 1805SOL    HW1 6314   0.175   5.797   6.783
 1805SOL    HW2 6315   0.190   5.712   6.644
 1806SOL     OW 6316   6.982   1.871   1.874
 1806SOL    HW1 6317   6.919   1.936   1.831
 1806SOL    HW2 6318   6.944   1.779   1.870
 1807SOL     OW 6319   0.164   2.328   2.482
 1807SOL    HW1 6320   0.186   2.380   2.564
 1807SOL    HW2 6321   0.126   2.390   2.413
 1808SOL     OW 6322   4.783   2.532   6.077
 1808SOL    HW1 6323   4.792   2.502   6.172
 1808SOL    HW2 6324   4.733   2.462   6.025
 1809SOL     OW 6325   4.555   0.517   5.384
 1809SOL    HW1 6326   4.585   0.472   5.468
 1809SOL    HW2 6327   4.458   0.499   5.368
 1810SOL     OW 6328   0.254   0.433   4.092
 1810SOL    HW1 6329   0.233   0.336   4.085
 1810SOL    HW2 6330   0.200   0.474   4.165
 1811SOL     OW 6331   4.114   5.531   1.572
 1811SOL    HW1 6332   4.029   5.512   1.522
 1811SOL    HW2 6333   4.101   5.611   1.631
 1812SOL     OW 6334   4.763   6.245   6.031
 1812SOL    HW1 6335   4.814   6.165   6.000
 1812SOL    HW2 6336   4.819   6.327   6.018
 1813SOL     OW 6337   4.890   4.270   2.478
 1813SOL    HW1 6338   4.837   4.354   2.473
 1813SOL    HW2 6339   4.832   4.192   2.452
 1814SOL     OW 6340   6.702   6.126   0.406
 1814SOL    HW1 6341   6.624   6.155   0.461
 1814SOL    HW2 6342   6.703   6.026   0.399
 1815SOL     OW 6343   5.857   6.440   1.365
 1815SOL    HW1 6344   5.932   6.485   1.413
 1815SOL    HW2 6345   5.889   6.409   1.275
 1816SOL     OW 6346   3.882   4.941   5.582
 1816SOL    HW1 6347   3.786   4.932   5.556
 1816SOL    HW2 6348   3.909   4.863   5.639
 1817SOL     OW 6349   0.462   1.608   3.627
 1817SOL    HW1 6350   0.501   1.700   3.634
 1817SOL    HW2 6351   0.402   1.591   3.705
 1818SOL     OW 6352   2.319   1.053   0.335
 1818SOL    HW1 6353   2.361   0.964   0.319
 1818SOL    HW2 6354   2.332   1.111   0.255
 1819SOL     OW 6355   2.037   4.760   3.326
 1819SOL    HW1 6356   2.081   4.807   3.250
 1819SOL    HW2 6357   2.001   4.672   3.294
 1820SOL     OW 6358   3.517   0.045   5.399
 1820SOL    HW1 6359   3.497   7.018   5.482
 1820SOL    HW2 6360   3.507   0.143   5.416
 1821SOL     OW 6361   2.894   2.013   2.846
 1821SOL    HW1 6362   2.848   2.087   2.895
 1821SOL    HW2 6363   2.991   2.035   2.835
 1822SOL     OW 6364   6.924   2.932   2.499
 1822SOL    HW1 6365   6.966   3.014   2.461
 1822SOL    HW2 6366   6.843   2.957   2.552
 1823SOL     OW 6367   4.028   5.858   2.161
 1823SOL    HW1 6368   3.949   5.876   2.103
 1823SOL    HW2 6369   4.108   5.842   2.104
 1824SOL     OW 6370   4.471   3.092   1.636
 1824SOL    HW1 6371   4.430   3.183   1.647
 1824SOL    HW2 6372   4.541   3.079   1.706
 1825SOL     OW 6373   1.413   1.895   4.870
 1825SOL    HW1 6374   1.375   1.803   4.875
 1825SOL    HW2 6375   1.474   1.902   4.792
 1826SOL     OW 6376   3.784   2.286   1.493
 1826SOL    HW1 6377   3.733   2.239   1.565
 1826SOL    HW2 6378   3.836   2.362   1.533
 1827SOL     OW 6379   5.368   4.935   0.991
 1827SOL    HW1 6380   5.310   5.007   0.953
 1827SOL    HW2 6381   5.365   4.939   1.091
 1828SOL     OW 6382   1.268   3.238   4.828
 1828SOL    HW1 6383   1.250   3.336   4.836
 1828SOL    HW2 6384   1.328   3.209   4.902
 1829SOL     OW 6385   4.195   0.525   2.707
 1829SOL    HW1 6386   4.101   0.546   2.679
 1829SOL    HW2 6387   4.251   0.508   2.626
 1830SOL     OW 6388   5.497   0.204   5.255
 1830SOL    HW1 6389   5.533   0.198   5.162
 1830SOL    HW2 6390   5.416   0.262   5.255
 1831SOL     OW 6391   4.086   5.071   0.853
 1831SOL    HW1 6392   4.110   5.119   0.937
 1831SOL    HW2 6393   4.038   5.134   0.792
 1832SOL     OW 6394   2.373   3.011   0.226
 1832SOL    HW1 6395   2.358   3.105   0.258
 1832SOL    HW2 6396   2.467   3.002   0.194
 1833SOL     OW 6397   5.809   0.806   0.150
 1833SOL    HW1 6398   5.861   0.744   0.092
 1833SOL    HW2 6399   5.870   0.850   0.216
 1834SOL     OW 6400   0.783   2.821   5.680
 1834SOL    HW1 6401   0.876   2.786   5.674
 1834SOL    HW2 6402   0.777   2.911   5.636
 1835SOL     OW 6403   0.230   6.532   1.496
 1835SOL    HW1 6404   0.325   6.531   1.528
 1835SOL    HW2 6405   0.209   6.623   1.460
 1836SOL     OW 6406   5.003   2.605   2.316
 1836SOL    HW1 6407   5.012   2.561   2.226
 1836SOL    HW2 6408   4.922   2.663   2.316
 1837SOL     OW 6409   3.256   2.525   6.029
 1837SOL    HW1 6410   3.220   2.605   5.980
 1837SOL    HW2 6411   3.226   2.528   6.124
 1838SOL     OW 6412   5.237   0.823   0.606
 1838SOL    HW1 6413   5.329   0.800   0.637
 1838SOL    HW2 6414   5.172   0.805   0.680
 1839SOL     OW 6415   6.750   0.747   7.019
 1839SOL    HW1 6416   6.831   0.801   6.995
 1839SOL    HW2 6417   6.744   0.667   6.959
 1840SOL     OW 6418   4.714   6.496   3.396
 1840SOL    HW1 6419   4.752   6.548   3.473
 1840SOL    HW2 6420   4.627   6.454   3.423
 1841SOL     OW 6421   2.305   0.568   2.621
 1841SOL    HW1 6422   2.284   0.606   2.712
 1841SOL    HW2 6423   2.382   0.505   2.629
 1842SOL     OW 6424   1.332   5.558   0.599
 1842SOL    HW1 6425   1.384   5.641   0.579
 1842SOL    HW2 6426   1.365   5.517   0.683
 1843SOL     OW 6427   2.328   1.174   5.301
 1843SOL    HW1 6428   2.296   1.215   5.387
 1843SOL    HW2 6429   2.250   1.153   5.243
 1844SOL     OW 6430   5.951   2.390   5.989
 1844SOL    HW1 6431   5.964   2.380   6.087
 1844SOL    HW2 6432   5.988   2.310   5.942
 1845SOL     OW 6433   1.393   1.795   3.545
 1845SOL    HW1 6434   1.418   1.717   3.487
 1845SOL    HW2 6435   1.312   1.840   3.507
 1846SOL     OW 6436   4.087   1.858   1.805
 1846SOL    HW1 6437   4.038   1.846   1.891
 1846SOL    HW2 6438   4.034   1.915   1.743
 1847SOL     OW 6439   1.849   5.873   5.293
 1847SOL    HW1 6440   1.878   5.817   5.371
 1847SOL    HW2 6441   1.830   5.966   5.325
 1848SOL     OW 6442   3.231   6.147   3.148
 1848SOL    HW1 6443   3.281   6.181   3.068
 1848SOL    HW2 6444   3.133   6.150   3.129
 1849SOL     OW 6445   4.925   2.831   1.925
 1849SOL    HW1 6446   5.021   2.859   1.929
 1849SOL    HW2 6447   4.867   2.909   1.949
 1850SOL     OW 6448   4.647   1.406   1.099
 1850SOL    HW1 6449   4.637   1.503   1.116
 1850SOL    HW2 6450   4.630   1.387   1.002
 1851SOL     OW 6451   0.582   4.508   5.161
 1851SOL    HW1 6452   0.572   4.551   5.071
 1851SOL    HW2 6453   0.528   4.424   5.164
 1852SOL     OW 6454   6.993   0.166   3.184
 1852SOL    HW1 6455   6.992   0.093   3.116
 1852SOL    HW2 6456   6.918   0.230   3.166
 1853SOL     OW 6457   0.067   2.362   5.584
 1853SOL    HW1 6458   0.053   2.388   5.679
 1853SOL    HW2 6459   0.016   2.425   5.525
 1854SOL     OW 6460   0.664   0.019   3.368
 1854SOL    HW1 6461   0.761   0.002   3.348
 1854SOL    HW2 6462   0.653   0.110   3.408
 1855SOL     OW 6463   4.758   2.999   4.209
 1855SOL    HW1 6464   4.702   3.002   4.126
 1855SOL    HW2 6465   4.741   2.914   4.257
 1856SOL     OW 6466   3.265   2.655   1.075
 1856SOL    HW1 6467   3.287   2.591   1.148
 1856SOL    HW2 6468   3.323   2.736   1.083
 1857SOL     OW 6469   4.266   1.646   7.022
 1857SOL    HW1 6470   4.296   1.665   6.929
 1857SOL    HW2 6471   4.343   1.612   0.052
 1858SOL     OW 6472   4.605   2.447   3.915
 1858SOL    HW1 6473   4.611   2.354   3.877
 1858SOL    HW2 6474   4.512   2.463   3.948
 1859SOL     OW 6475   6.964   1.712   3.968
 1859SOL    HW1 6476   0.002   1.635   3.986
 1859SOL    HW2 6477   6.987   1.788   4.029
 1860SOL     OW 6478   1.662   1.491   5.490
 1860SOL    HW1 6479   1.723   1.521   5.417
 1860SOL    HW2 6480   1.618   1.571   5.531
 1861SOL     OW 6481   7.005   6.924   3.941
 1861SOL    HW1 6482   0.074   6.955   3.917
 1861SOL    HW2 6483   6.945   7.004   3.952
 1862SOL     OW 6484   2.996   5.741   5.662
 1862SOL    HW1 6485   3.053   5.760   5.743
 1862SOL    HW2 6486   2.972   5.644   5.661
 1863SOL     OW 6487   0.325   2.783   0.760
 1863SOL    HW1 6488   0.296   2.879   0.758
 1863SOL    HW2 6489   0.247   2.725   0.780
 1864SOL     OW 6490   4.063   5.493   2.122
 1864SOL    HW1 6491   4.160   5.472   2.111
 1864SOL    HW2 6492   4.053   5.585   2.159
 1865SOL     OW 6493   6.106   1.787   5.700
 1865SOL    HW1 6494   6.047   1.866   5.715
 1865SOL    HW2 6495   6.191   1.799   5.751
 1866SOL     OW 6496   1.111   5.102   3.541
 1866SOL    HW1 6497   1.101   5.143   3.632
 1866SOL    HW2 6498   1.025   5.111   3.491
 1867SOL     OW 6499   1.809   2.569   1.449
 1867SOL    HW1 6500   1.865   2.582   1.530
 1867SOL    HW2 6501   1.727   2.625   1.456
 1868SOL     OW 6502   5.956   3.527   6.420
 1868SOL    HW1 6503   5.987   3.500   6.511
 1868SOL    HW2 6504   5.861   3.558   6.425
 1869SOL     OW 6505   3.978   0.905   4.172
 1869SOL    HW1 6506   3.881   0.898   4.195
 1869SOL    HW2 6507   3.990   0.976   4.102
 1870SOL     OW 6508   6.923   5.838   4.757
 1870SOL    HW1 6509   6.939   5.818   4.660
 1870SOL    HW2 6510   6.974   5.773   4.813
 1871SOL     OW 6511   0.169   6.752   6.883
 1871SOL    HW1 6512   0.176   6.662   6.841
 1871SOL    HW2 6513   0.226   6.817   6.832
 1872SOL     OW 6514   2.726   2.579   1.718
 1872SOL    HW1 6515   2.755   2.540   1.806
 1872SOL    HW2 6516   2.747   2.677   1.717
 1873SOL     OW 6517   6.371   1.796   0.767
 1873SOL    HW1 6518   6.452   1.806   0.709
 1873SOL    HW2 6519   6.350   1.699   0.778
 1874SOL     OW 6520   0.451   5.128   0.322
 1874SOL    HW1 6521   0.361   5.088   0.334
 1874SOL    HW2 6522   0.468   5.144   0.224
 1875SOL     OW 6523   6.555   5.335   0.249
 1875SOL    HW1 6524   6.511   5.327   0.339
 1875SOL    HW2 6525   6.509   5.273   0.185
 1876SOL     OW 6526   0.305   5.691   0.526
 1876SOL    HW1 6527   0.217   5.650   0.504
 1876SOL    HW2 6528   0.350   5.721   0.442
 1877SOL     OW 6529   0.805   1.516   3.042
 1877SOL    HW1 6530   0.769   1.425   3.020
 1877SOL    HW2 6531   0.816   1.569   2.958
 1878SOL     OW 6532   6.136   3.655   3.727
 1878SOL    HW1 6533   6.043   3.624   3.746
 1878SOL    HW2 6534   6.176   3.599   3.655
 1879SOL     OW 6535   4.886   5.876   4.720
 1879SOL    HW1 6536   4.961   5.894   4.785
 1879SOL    HW2 6537   4.876   5.777   4.709
 1880SOL     OW 6538   0.090   1.955   4.174
 1880SOL    HW1 6539   0.185   1.936   4.149
 1880SOL    HW2 6540   0.050   1.875   4.218
 1881SOL     OW 6541   1.912   1.490   4.275
 1881SOL    HW1 6542   1.819   1.474   4.239
 1881SOL    HW2 6543   1.978   1.444   4.216
 1882SOL     OW 6544   1.768   5.777   0.340
 1882SOL    HW1 6545   1.728   5.685   0.343
 1882SOL    HW2 6546   1.838   5.780   0.268
 1883SOL     OW 6547   1.802   3.062   2.952
 1883SOL    HW1 6548   1.747   2.993   2.998
 1883SOL    HW2 6549   1.825   3.136   3.016
 1884SOL     OW 6550   3.462   1.145   6.845
 1884SOL    HW1 6551   3.488   1.073   6.909
 1884SOL    HW2 6552   3.368   1.174   6.864
 1885SOL     OW 6553   0.389   2.146   1.294
 1885SOL    HW1 6554   0.423   2.198   1.215
 1885SOL    HW2 6555   0.442   2.062   1.304
 1886SOL     OW 6556   2.868   2.632   5.486
 1886SOL    HW1 6557   2.793   2.640   5.552
 1886SOL    HW2 6558   2.925   2.553   5.509
 1887SOL     OW 6559   0.779   6.628   5.619
 1887SOL    HW1 6560   0.800   6.627   5.716
 1887SOL    HW2 6561   0.706   6.563   5.599
 1888SOL     OW 6562   2.260   1.964   5.836
 1888SOL    HW1 6563   2.230   1.945   5.742
 1888SOL    HW2 6564   2.360   1.964   5.838
 1889SOL     OW 6565   3.223   2.979   0.662
 1889SOL    HW1 6566   3.165   2.939   0.734
 1889SOL    HW2 6567   3.209   2.930   0.576
 1890SOL     OW 6568   6.594   5.811   6.589
 1890SOL    HW1 6569   6.612   5.789   6.685
 1890SOL    HW2 6570   6.599   5.910   6.575
 1891SOL     OW 6571   5.801   3.916   5.909
 1891SOL    HW1 6572   5.839   3.890   5.998
 1891SOL    HW2 6573   5.846   3.999   5.876
 1892SOL     OW 6574   3.711   6.403   1.854
 1892SOL    HW1 6575   3.625   6.385   1.806
 1892SOL    HW2 6576   3.714   6.349   1.938
 1893SOL     OW 6577   3.240   1.892   4.916
 1893SOL    HW1 6578   3.304   1.956   4.873
 1893SOL    HW2 6579   3.169   1.944   4.965
 1894SOL     OW 6580   4.000   3.656   0.854
 1894SOL    HW1 6581   3.984   3.557   0.851
 1894SOL    HW2 6582   4.050   3.679   0.937
 1895SOL     OW 6583   5.097   0.965   2.870
 1895SOL    HW1 6584   5.169   0.950   2.937
 1895SOL    HW2 6585   5.065   1.060   2.875
 1896SOL     OW 6586   6.261   1.522   6.032
 1896SOL    HW1 6587   6.212   1.439   6.061
 1896SOL    HW2 6588   6.221   1.601   6.077
 1897SOL     OW 6589   6.005   4.969   3.764
 1897SOL    HW1 6590   6.044   5.060   3.750
 1897SOL    HW2 6591   6.073   4.911   3.808
 1898SOL     OW 6592   6.134   6.284   0.016
 1898SOL    HW1 6593   6.156   6.327   6.952
 1898SOL    HW2 6594   6.216   6.239   0.052
 1899SOL     OW 6595   0.814   2.701   3.432
 1899SOL    HW1 6596   0.755   2.781   3.430
 1899SOL    HW2 6597   0.767   2.627   3.481
 1900SOL     OW 6598   2.461   6.508   0.948
 1900SOL    HW1 6599   2.515   6.590   0.966
 1900SOL    HW2 6600   2.392   6.527   0.879
 1901SOL     OW 6601   1.571   1.672   6.657
 1901SOL    HW1 6602   1.482   1.690   6.699
 1901SOL    HW2 6603   1.563   1.680   6.558
 1902SOL     OW 6604   1.837   2.703   5.482
 1902SOL    HW1 6605   1.915   2.736   5.536
 1902SOL    HW2 6606   1.845   2.604   5.470
 1903SOL     OW 6607   6.676   3.784   3.937
 1903SOL    HW1 6608   6.600   3.792   4.002
 1903SOL    HW2 6609   6.713   3.691   3.941
 1904SOL     OW 6610   0.652   6.893   4.693
 1904SOL    HW1 6611   0.629   6.806   4.738
 1904SOL    HW2 6612   0.745   6.888   4.656
 1905SOL     OW 6613   6.467   2.993   4.559
 1905SOL    HW1 6614   6.543   3.054   4.582
 1905SOL    HW2 6615   6.393   3.005   4.626
 1906SOL     OW 6616   2.451   6.940   0.407
 1906SOL    HW1 6617   2.367   6.930   0.354
 1906SOL    HW2 6618   2.455   0.009   0.447
 1907SOL     OW 6619   3.556   5.906   3.262
 1907SOL    HW1 6620   3.526   5.933   3.171
 1907SOL    HW2 6621   3.618   5.827   3.255
 1908SOL     OW 6622   5.126   1.020   6.481
 1908SOL    HW1 6623   5.052   0.979   6.427
 1908SOL    HW2 6624   5.095   1.034   6.575
 1909SOL     OW 6625   4.226   4.971   4.101
 1909SOL    HW1 6626   4.258   5.063   4.121
 1909SOL    HW2 6627   4.275   4.905   4.158
 1910SOL     OW 6628   5.009   2.120   5.282
 1910SOL    HW1 6629   5.034   2.028   5.250
 1910SOL    HW2 6630   4.962   2.113   5.370
 1911SOL     OW 6631   0.198   3.827   5.943
 1911SOL    HW1 6632   0.219   3.747   5.887
 1911SOL    HW2 6633   0.113   3.811   5.994
 1912SOL     OW 6634   3.652   6.126   3.375
 1912SOL    HW1 6635   3.630   6.041   3.327
 1912SOL    HW2 6636   3.657   6.108   3.473
 1913SOL     OW 6637   1.360   4.217   5.518
 1913SOL    HW1 6638   1.439   4.187   5.571
 1913SOL    HW2 6639   1.390   4.248   5.428
 1914SOL     OW 6640   3.888   1.565   5.452
 1914SOL    HW1 6641   3.987   1.568   5.468
 1914SOL    HW2 6642   3.841   1.550   5.538
 1915SOL     OW 6643   3.576   0.497   5.243
 1915SOL    HW1 6644   3.521   0.469   5.164
 1915SOL    HW2 6645   3.536   0.458   5.326
 1916SOL     OW 6646   4.588   6.599   1.460
 1916SOL    HW1 6647   4.495   6.630   1.440
 1916SOL    HW2 6648   4.646   6.679   1.475
 1917SOL     OW 6649   3.362   3.318   3.971
 1917SOL    HW1 6650   3.280   3.349   3.923
 1917SOL    HW2 6651   3.432   3.291   3.904
 1918SOL     OW 6652   5.957   6.656   3.994
 1918SOL    HW1 6653   5.999   6.703   3.916
 1918SOL    HW2 6654   6.014   6.579   4.021
 1919SOL     OW 6655   6.488   6.625   1.984
 1919SOL    HW1 6656   6.448   6.706   1.943
 1919SOL    HW2 6657   6.450   6.543   1.941
 1920SOL     OW 6658   6.828   5.491   4.259
 1920SOL    HW1 6659   6.825   5.446   4.349
 1920SOL    HW2 6660   6.894   5.443   4.201
 1921SOL     OW 6661   0.747   6.554   6.313
 1921SOL    HW1 6662   0.724   6.626   6.246
 1921SOL    HW2 6663   0.801   6.483   6.268
 1922SOL     OW 6664   3.571   4.420   0.934
 1922SOL    HW1 6665   3.508   4.477   0.881
 1922SOL    HW2 6666   3.523   4.383   1.014
 1923SOL     OW 6667   1.840   2.253   0.793
 1923SOL    HW1 6668   1.798   2.168   0.763
 1923SOL    HW2 6669   1.940   2.243   0.792
 1924SOL     OW 6670   0.997   3.985   1.897
 1924SOL    HW1 6671   0.987   3.931   1.813
 1924SOL    HW2 6672   1.050   4.067   1.877
 1925SOL     OW 6673   3.522   4.381   0.540
 1925SOL    HW1 6674   3.451   4.318   0.570
 1925SOL    HW2 6675   3.502   4.412   0.447
 1926SOL     OW 6676   0.604   6.913   3.593
 1926SOL    HW1 6677   0.633   6.934   3.500
 1926SOL    HW2 6678   0.666   6.957   3.658
 1927SOL     OW 6679   4.046   3.655   6.787
 1927SOL    HW1 6680   4.123   3.708   6.823
 1927SOL    HW2 6681   4.079   3.564   6.760
 1928SOL     OW 6682   6.474   4.252   5.264
 1928SOL    HW1 6683   6.519   4.304   5.190
 1928SOL    HW2 6684   6.542   4.223   5.331
 1929SOL     OW 6685   1.440   6.972   3.085
 1929SOL    HW1 6686   1.469   0.033   3.041
 1929SOL    HW2 6687   1.385   6.918   3.021
 1930SOL     OW 6688   5.586   4.322   0.061
 1930SOL    HW1 6689   5.671   4.314   0.114
 1930SOL    HW2 6690   5.602   4.379   7.004
 1931SOL     OW 6691   0.942   2.415   5.497
 1931SOL    HW1 6692   0.981   2.357   5.569
 1931SOL    HW2 6693   0.852   2.380   5.471
 1932SOL     OW 6694   5.815   3.129   1.973
 1932SOL    HW1 6695   5.759   3.204   1.938
 1932SOL    HW2 6696   5.818   3.133   2.073
 1933SOL     OW 6697   2.984   4.430   1.436
 1933SOL    HW1 6698   2.968   4.519   1.395
 1933SOL    HW2 6699   2.921   4.416   1.513
 1934SOL     OW 6700   0.480   5.857   4.506
 1934SOL    HW1 6701   0.428   5.904   4.435
 1934SOL    HW2 6702   0.428   5.857   4.591
 1935SOL     OW 6703   2.212   0.519   3.665
 1935SOL    HW1 6704   2.289   0.566   3.708
 1935SOL    HW2 6705   2.126   0.552   3.706
 1936SOL     OW 6706   6.301   5.575   5.798
 1936SOL    HW1 6707   6.229   5.506   5.803
 1936SOL    HW2 6708   6.282   5.638   5.723
 1937SOL     OW 6709   3.759   0.252   2.204
 1937SOL    HW1 6710   3.785   0.258   2.300
 1937SOL    HW2 6711   3.667   0.289   2.192
 1938SOL     OW 6712   4.853   0.255   3.743
 1938SOL    HW1 6713   4.916   0.226   3.816
 1938SOL    HW2 6714   4.804   0.337   3.773
 1939SOL     OW 6715   1.799   0.414   3.420
 1939SOL    HW1 6716   1.721   0.353   3.406
 1939SOL    HW2 6717   1.863   0.372   3.484
 1940SOL     OW 6718   0.032   5.468   6.641
 1940SOL    HW1 6719   0.081   5.381   6.644
 1940SOL    HW2 6720   0.098   5.543   6.644
 1941SOL     OW 6721   4.994   4.613   3.123
 1941SOL    HW1 6722   4.974   4.678   3.196
 1941SOL    HW2 6723   5.086   4.631   3.087
 1942SOL     OW 6724   6.015   5.576   3.138
 1942SOL    HW1 6725   5.952   5.650   3.159
 1942SOL    HW2 6726   6.053   5.590   3.047
 1943SOL     OW 6727   2.258   5.395   2.399
 1943SOL    HW1 6728   2.325   5.469   2.390
 1943SOL    HW2 6729   2.304   5.313   2.432
 1944SOL     OW 6730   6.825   1.061   1.784
 1944SOL    HW1 6731   6.862   0.974   1.752
 1944SOL    HW2 6732   6.726   1.061   1.771
 1945SOL     OW 6733   3.537   5.331   4.406
 1945SOL    HW1 6734   3.476   5.286   4.472
 1945SOL    HW2 6735   3.488   5.405   4.360
 1946SOL     OW 6736   1.271   0.643   0.266
 1946SOL    HW1 6737   1.266   0.740   0.241
 1946SOL    HW2 6738   1.201   0.592   0.216
 1947SOL     OW 6739   5.799   5.606   4.700
 1947SOL    HW1 6740   5.739   5.528   4.717
 1947SOL    HW2 6741   5.787   5.638   4.606
 1948SOL     OW 6742   6.089   4.559   5.119
 1948SOL    HW1 6743   6.122   4.629   5.056
 1948SOL    HW2 6744   6.019   4.597   5.179
 1949SOL     OW 6745   5.096   4.094   6.495
 1949SOL    HW1 6746   5.093   4.194   6.494
 1949SOL    HW2 6747   5.004   4.057   6.489
 1950SOL     OW 6748   3.048   4.017   6.963
 1950SOL    HW1 6749   3.086   4.101   6.925
 1950SOL    HW2 6750   2.954   4.006   6.933
 1951SOL     OW 6751   6.719   2.327   0.038
 1951SOL    HW1 6752   6.707   2.412   7.010
 1951SOL    HW2 6753   6.711   2.345   0.136
 1952SOL     OW 6754   3.857   1.742   5.975
 1952SOL    HW1 6755   3.942   1.689   5.969
 1952SOL    HW2 6756   3.878   1.839   5.965
 1953SOL     OW 6757   0.439   3.353   5.818
 1953SOL    HW1 6758   0.425   3.257   5.796
 1953SOL    HW2 6759   0.398   3.374   5.907
 1954SOL     OW 6760   3.449   2.109   4.038
 1954SOL    HW1 6761   3.431   2.151   4.127
 1954SOL    HW2 6762   3.369   2.056   4.010
 1955SOL     OW 6763   6.817   6.518   2.717
 1955SOL    HW1 6764   6.776   6.471   2.639
 1955SOL    HW2 6765   6.751   6.522   2.792
 1956SOL     OW 6766   5.874   5.758   2.602
 1956SOL    HW1 6767   5.801   5.815   2.641
 1956SOL    HW2 6768   5.859   5.663   2.627
 1957SOL     OW 6769   0.730   6.961   5.035
 1957SOL    HW1 6770   0.719   6.954   5.134
 1957SOL    HW2 6771   0.642   6.943   4.991
 1958SOL     OW 6772   5.619   3.484   5.450
 1958SOL    HW1 6773   5.631   3.385   5.461
 1958SOL    HW2 6774   5.708   3.528   5.444
 1959SOL     OW 6775   1.567   1.941   6.717
 1959SOL    HW1 6776   1.545   1.938   6.814
 1959SOL    HW2 6777   1.579   1.848   6.683
 1960SOL     OW 6778   5.708   6.139   0.813
 1960SOL    HW1 6779   5.781   6.117   0.877
 1960SOL    HW2 6780   5.731   6.222   0.762
 1961SOL     OW 6781   5.685   4.413   3.902
 1961SOL    HW1 6782   5.625   4.377   3.831
 1961SOL    HW2 6783   5.771   4.362   3.902
 1962SOL     OW 6784   6.894   6.576   3.146
 1962SOL    HW1 6785   6.872   6.589   3.243
 1962SOL    HW2 6786   6.880   6.480   3.122
 1963SOL     OW 6787   1.364   0.555   3.076
 1963SOL    HW1 6788   1.271   0.539   3.041
 1963SOL    HW2 6789   1.402   0.468   3.108
 1964SOL     OW 6790   5.404   3.315   2.518
 1964SOL    HW1 6791   5.336   3.356   2.579
 1964SOL    HW2 6792   5.424   3.222   2.549
 1965SOL     OW 6793   1.981   4.545   3.495
 1965SOL    HW1 6794   2.008   4.640   3.485
 1965SOL    HW2 6795   1.970   4.503   3.405
 1966SOL     OW 6796   6.497   5.396   5.957
 1966SOL    HW1 6797   6.572   5.402   5.892
 1966SOL    HW2 6798   6.413   5.430   5.914
 1967SOL     OW 6799   5.063   2.229   4.980
 1967SOL    HW1 6800   4.967   2.245   4.957
 1967SOL    HW2 6801   5.077   2.134   5.007
 1968SOL     OW 6802   2.921   5.724   6.210
 1968SOL    HW1 6803   2.967   5.672   6.282
 1968SOL    HW2 6804   2.974   5.806   6.188
 1969SOL     OW 6805   6.681   2.668   1.047
 1969SOL    HW1 6806   6.677   2.749   1.107
 1969SOL    HW2 6807   6.588   2.633   1.034
 1970SOL     OW 6808   1.698   0.460   3.811
 1970SOL    HW1 6809   1.699   0.406   3.727
 1970SOL    HW2 6810   1.741   0.409   3.885
 1971SOL     OW 6811   0.118   6.023   6.636
 1971SOL    HW1 6812   0.133   5.991   6.730
 1971SOL    HW2 6813   0.184   5.978   6.576
 1972SOL     OW 6814   0.696   5.017   3.966
 1972SOL    HW1 6815   0.735   5.064   4.045
 1972SOL    HW2 6816   0.714   4.919   3.974
 1973SOL     OW 6817   3.133   3.092   0.998
 1973SOL    HW1 6818   3.078   3.014   0.967
 1973SOL    HW2 6819   3.114   3.171   0.940
 1974SOL     OW 6820   5.448   0.524   4.145
 1974SOL    HW1 6821   5.371   0.573   4.184
 1974SOL    HW2 6822   5.529   0.538   4.202
 1975SOL     OW 6823   3.640   0.426   3.414
 1975SOL    HW1 6824   3.662   0.482   3.494
 1975SOL    HW2 6825   3.542   0.431   3.395
 1976SOL     OW 6826   0.540   5.629   0.627
 1976SOL    HW1 6827   0.611   5.692   0.596
 1976SOL    HW2 6828   0.450   5.667   0.608
 1977SOL     OW 6829   1.491   2.665   5.003
 1977SOL    HW1 6830   1.547   2.748   4.994
 1977SOL    HW2 6831   1.395   2.689   4.988
 1978SOL     OW 6832   6.717   1.699   5.003
 1978SOL    HW1 6833   6.711   1.681   4.905
 1978SOL    HW2 6834   6.781   1.774   5.019
 1979SOL     OW 6835   6.031   4.595   3.596
 1979SOL    HW1 6836   5.948   4.539   3.593
 1979SOL    HW2 6837   6.096   4.562   3.527
 1980SOL     OW 6838   4.224   0.381   1.673
 1980SOL    HW1 6839   4.323   0.396   1.679
 1980SOL    HW2 6840   4.206   0.306   1.610
 1981SOL     OW 6841   4.666   3.316   1.733
 1981SOL    HW1 6842   4.653   3.226   1.775
 1981SOL    HW2 6843   4.603   3.327   1.657
 1982SOL     OW 6844   5.677   6.195   5.049
 1982SOL    HW1 6845   5.607   6.260   5.022
 1982SOL    HW2 6846   5.708   6.145   4.968
 1983SOL     OW 6847   1.020   3.401   3.402
 1983SOL    HW1 6848   1.061   3.469   3.341
 1983SOL    HW2 6849   1.014   3.438   3.494
 1984SOL     OW 6850   4.163   0.339   5.740
 1984SOL    HW1 6851   4.130   0.276   5.670
 1984SOL    HW2 6852   4.137   0.306   5.831
 1985SOL     OW 6853   1.004   0.838   1.283
 1985SOL    HW1 6854   1.104   0.842   1.288
 1985SOL    HW2 6855   0.967   0.813   1.372
 1986SOL     OW 6856   1.560   1.288   5.933
 1986SOL    HW1 6857   1.611   1.296   6.019
 1986SOL    HW2 6858   1.583   1.365   5.873
 1987SOL     OW 6859   2.366   3.524   0.089
 1987SOL    HW1 6860   2.353   3.505   0.187
 1987SOL    HW2 6861   2.381   3.438   0.041
 1988SOL     OW 6862   4.267   3.904   0.424
 1988SOL    HW1 6863   4.281   3.816   0.378
 1988SOL    HW2 6864   4.352   3.932   0.469
 1989SOL     OW 6865   2.147   0.198   4.273
 1989SOL    HW1 6866   2.092   0.197   4.190
 1989SOL    HW2 6867   2.237   0.159   4.253
 1990SOL     OW 6868   3.200   0.926   1.623
 1990SOL    HW1 6869   3.151   0.841   1.609
 1990SOL    HW2 6870   3.227   0.964   1.535
 1991SOL     OW 6871   3.117   5.590   4.440
 1991SOL    HW1 6872   3.055   5.527   4.487
 1991SOL    HW2 6873   3.155   5.545   4.359
 1992SOL     OW 6874   2.222   6.583   5.069
 1992SOL    HW1 6875   2.231   6.530   4.984
 1992SOL    HW2 6876   2.129   6.573   5.104
 1993SOL     OW 6877   4.258   3.375   5.372
 1993SOL    HW1 6878   4.180   3.391   5.431
 1993SOL    HW2 6879   4.293   3.462   5.338
 1994SOL     OW 6880   6.510   2.310   2.069
 1994SOL    HW1 6881   6.561   2.243   2.015
 1994SOL    HW2 6882   6.515   2.399   2.024
 1995SOL     OW 6883   5.490   2.144   1.718
 1995SOL    HW1 6884   5.415   2.154   1.783
 1995SOL    HW2 6885   5.574   2.180   1.759
 1996SOL     OW 6886   3.581   4.739   0.329
 1996SOL    HW1 6887   3.547   4.780   0.414
 1996SOL    HW2 6888   3.509   4.741   0.260
 1997SOL     OW 6889   5.278   0.764   3.529
 1997SOL    HW1 6890   5.249   0.680   3.575
 1997SOL    HW2 6891   5.377   0.776   3.541
 1998SOL     OW 6892   2.866   4.701   5.407
 1998SOL    HW1 6893   2.837   4.792   5.380
 1998SOL    HW2 6894   2.885   4.646   5.326
 1999SOL     OW 6895   2.447   0.851   1.872
 1999SOL    HW1 6896   2.445   0.779   1.802
 1999SOL    HW2 6897   2.440   0.941   1.828
 2000SOL     OW 6898   3.863   1.677   4.519
 2000SOL    HW1 6899   3.939   1.672   4.583
 2000SOL    HW2 6900   3.778   1.656   4.566
 2001SOL     OW 6901   2.894   1.849   1.086
 2001SOL    HW1 6902   2.904   1.788   1.008
 2001SOL    HW2 6903   2.900   1.944   1.054
 2002SOL     OW 6904   2.017   5.187   5.232
 2002SOL    HW1 6905   1.980   5.233   5.151
 2002SOL    HW2 6906   1.955   5.200   5.310
 2003SOL     OW 6907   5.945   5.933   4.338
 2003SOL    HW1 6908   5.906   5.915   4.247
 2003SOL    HW2 6909   5.901   6.013   4.378
 2004SOL     OW 6910   2.513   0.677   5.305
 2004SOL    HW1 6911   2.423   0.659   5.265
 2004SOL    HW2 6912   2.529   0.775   5.308
 2005SOL     OW 6913   2.796   5.985   5.805
 2005SOL    HW1 6914   2.699   5.975   5.782
 2005SOL    HW2 6915   2.848   5.910   5.764
 2006SOL     OW 6916   4.323   5.204   4.048
 2006SOL    HW1 6917   4.364   5.244   3.966
 2006SOL    HW2 6918   4.329   5.269   4.123
 2007SOL     OW 6919   5.403   5.785   0.692
 2007SOL    HW1 6920   5.360   5.748   0.609
 2007SOL    HW2 6921   5.334   5.834   0.746
 2008SOL     OW 6922   0.027   5.858   4.175
 2008SOL    HW1 6923   6.955   5.841   4.150
 2008SOL    HW2 6924   0.069   5.920   4.109
 2009SOL     OW 6925   0.216   0.130   2.289
 2009SOL    HW1 6926   0.238   0.179   2.204
 2009SOL    HW2 6927   0.299   0.088   2.326
 2010SOL     OW 6928   1.461   0.914   0.438
 2010SOL    HW1 6929   1.499   0.886   0.349
 2010SOL    HW2 6930   1.387   0.853   0.464
 2011SOL     OW 6931   7.022   1.864   5.048
 2011SOL    HW1 6932   6.980   1.941   5.000
 2011SOL    HW2 6933   0.076   1.897   5.102
 2012SOL     OW 6934   1.206   4.153   0.733
 2012SOL    HW1 6935   1.210   4.252   0.722
 2012SOL    HW2 6936   1.253   4.109   0.657
 2013SOL     OW 6937   5.392   1.556   2.223
 2013SOL    HW1 6938   5.350   1.638   2.263
 2013SOL    HW2 6939   5.480   1.581   2.181
 2014SOL     OW 6940   2.090   5.508   2.604
 2014SOL    HW1 6941   2.147   5.455   2.541
 2014SOL    HW2 6942   2.095   5.605   2.580
 2015SOL     OW 6943   3.139   0.463   6.872
 2015SOL    HW1 6944   3.162   0.404   6.794
 2015SOL    HW2 6945   3.068   0.528   6.844
 2016SOL     OW 6946   0.411   4.961   4.234
 2016SOL    HW1 6947   0.327   4.954   4.180
 2016SOL    HW2 6948   0.478   4.895   4.200
 2017SOL     OW 6949   2.575   5.875   2.664
 2017SOL    HW1 6950   2.674   5.871   2.676
 2017SOL    HW2 6951   2.549   5.965   2.627
 2018SOL     OW 6952   0.370   5.423   5.728
 2018SOL    HW1 6953   0.368   5.418   5.628
 2018SOL    HW2 6954   0.410   5.340   5.765
 2019SOL     OW 6955   5.950   2.029   2.204
 2019SOL    HW1 6956   6.036   2.033   2.255
 2019SOL    HW2 6957   5.960   1.965   2.128
 2020SOL     OW 6958   3.143   5.848   2.976
 2020SOL    HW1 6959   3.243   5.857   2.980
 2020SOL    HW2 6960   3.104   5.927   2.931
 2021SOL     OW 6961   1.533   0.693   2.643
 2021SOL    HW1 6962   1.537   0.758   2.719
 2021SOL    HW2 6963   1.440   0.658   2.635
 2022SOL     OW 6964   1.963   3.868   1.730
 2022SOL    HW1 6965   1.875   3.888   1.688
 2022SOL    HW2 6966   2.032   3.933   1.698
 2023SOL     OW 6967   6.570   0.956   5.981
 2023SOL    HW1 6968   6.638   0.891   5.948
 2023SOL    HW2 6969   6.586   1.046   5.941
 2024SOL     OW 6970   5.456   1.152   3.720
 2024SOL    HW1 6971   5.513   1.171   3.800
 2024SOL    HW2 6972   5.514   1.136   3.640
 2025SOL     OW 6973   0.219   1.280   1.942
 2025SOL    HW1 6974   0.137   1.223   1.950
 2025SOL    HW2 6975   0.194   1.369   1.903
 2026SOL     OW 6976   1.881   1.823   5.480
 2026SOL    HW1 6977   1.959   1.792   5.535
 2026SOL    HW2 6978   1.862   1.756   5.408
 2027SOL     OW 6979   0.858   1.673   3.390
 2027SOL    HW1 6980   0.829   1.591   3.340
 2027SOL    HW2 6981   0.792   1.747   3.375
 2028SOL     OW 6982   3.883   3.083   6.801
 2028SOL    HW1 6983   3.814   3.099   6.871
 2028SOL    HW2 6984   3.973   3.078   6.843
 2029SOL     OW 6985   0.564   0.810   7.012
 2029SOL    HW1 6986   0.639   0.865   0.027
 2029SOL    HW2 6987   0.519   0.861   6.940
 2030SOL     OW 6988   1.659   1.442   3.658
 2030SOL    HW1 6989   1.640   1.467   3.563
 2030SOL    HW2 6990   1.735   1.498   3.692
 2031SOL     OW 6991   5.802   0.062   1.736
 2031SOL    HW1 6992   5.890   0.083   1.693
 2031SOL    HW2 6993   5.813   0.058   1.835
 2032SOL     OW 6994   5.017   6.981   1.441
 2032SOL    HW1 6995   5.109   6.942   1.452
 2032SOL    HW2 6996   5.013   0.046   1.488
 2033SOL     OW 6997   5.560   5.092   6.657
 2033SOL    HW1 6998   5.494   5.141   6.600
 2033SOL    HW2 6999   5.548   5.120   6.752
 2034SOL     OW 7000   2.236   6.881   3.225
 2034SOL    HW1 7001   2.279   6.962   3.186
 2034SOL    HW2 7002   2.143   6.872   3.189
 2035SOL     OW 7003   1.252   2.397   2.449
 2035SOL    HW1 7004   1.176   2.331   2.458
 2035SOL    HW2 7005   1.323   2.357   2.392
 2036SOL     OW 7006   1.416   4.715   0.349
 2036SOL    HW1 7007   1.391   4.779   0.276
 2036SOL    HW2 7008   1.504   4.673   0.329
 2037SOL     OW 7009   0.203   1.711   5.866
 2037SOL    HW1 7010   0.300   1.722   5.845
 2037SOL    HW2 7011   0.150   1.783   5.821
 2038SOL     OW 7012   0.494   0.841   4.243
 2038SOL    HW1 7013   0.492   0.781   4.163
 2038SOL    HW2 7014   0.532   0.930   4.217
 2039SOL     OW 7015   0.046   5.285   2.347
 2039SOL    HW1 7016   0.040   5.350   2.423
 2039SOL    HW2 7017   0.081   5.332   2.266
 2040SOL     OW 7018   4.161   3.439   4.396
 2040SOL    HW1 7019   4.110   3.523   4.413
 2040SOL    HW2 7020   4.222   3.420   4.473
 2041SOL     OW 7021   6.005   3.955   5.504
 2041SOL    HW1 7022   6.053   3.915   5.582
 2041SOL    HW2 7023   5.990   4.052   5.521
 2042SOL     OW 7024   4.219   5.555   6.880
 2042SOL    HW1 7025   4.224   5.457   6.863
 2042SOL    HW2 7026   4.303   5.584   6.927
 2043SOL     OW 7027   5.856   4.204   1.978
 2043SOL    HW1 7028   5.838   4.106   1.965
 2043SOL    HW2 7029   5.779   4.245   2.026
 2044SOL     OW 7030   6.428   0.079   1.869
 2044SOL    HW1 7031   6.490   0.121   1.935
 2044SOL    HW2 7032   6.481   0.046   1.790
 2045SOL     OW 7033   2.145   5.304   6.064
 2045SOL    HW1 7034   2.057   5.312   6.109
 2045SOL    HW2 7035   2.219   5.320   6.130
 2046SOL     OW 7036   6.706   0.019   5.040
 2046SOL    HW1 7037   6.743   6.985   5.112
 2046SOL    HW2 7038   6.621   0.063   5.071
 2047SOL     OW 7039   5.100   2.601   0.195
 2047SOL    HW1 7040   5.079   2.586   0.098
 2047SOL    HW2 7041   5.048   2.680   0.228
 2048SOL     OW 7042   4.507   0.248   5.945
 2048SOL    HW1 7043   4.488   0.262   5.848
 2048SOL    HW2 7044   4.530   0.335   5.988
 2049SOL     OW 7045   4.378   0.765   0.136
 2049SOL    HW1 7046   4.472   0.762   0.170
 2049SOL    HW2 7047   4.360   0.683   0.081
 2050SOL     OW 7048   5.801   2.804   3.849
 2050SOL    HW1 7049   5.834   2.751   3.770
 2050SOL    HW2 7050   5.832   2.898   3.841
 2051SOL     OW 7051   1.572   5.716   0.626
 2051SOL    HW1 7052   1.622   5.632   0.644
 2051SOL    HW2 7053   1.616   5.792   0.675
 2052SOL     OW 7054   1.023   2.708   0.389
 2052SOL    HW1 7055   1.077   2.766   0.449
 2052SOL    HW2 7056   0.965   2.765   0.331
 2053SOL     OW 7057   6.434   0.433   0.509
 2053SOL    HW1 7058   6.511   0.451   0.447
 2053SOL    HW2 7059   6.349   0.431   0.457
 2054SOL     OW 7060   5.818   2.437   0.512
 2054SOL    HW1 7061   5.911   2.428   0.549
 2054SOL    HW2 7062   5.763   2.359   0.542
 2055SOL     OW 7063   5.641   2.647   4.410
 2055SOL    HW1 7064   5.661   2.613   4.318
 2055SOL    HW2 7065   5.622   2.569   4.471
 2056SOL     OW 7066   2.490   0.471   3.280
 2056SOL    HW1 7067   2.391   0.467   3.296
 2056SOL    HW2 7068   2.536   0.511   3.359
 2057SOL     OW 7069   0.045   3.024   4.005
 2057SOL    HW1 7070   0.042   3.122   4.020
 2057SOL    HW2 7071   0.033   2.976   4.093
 2058SOL     OW 7072   6.967   1.832   2.206
 2058SOL    HW1 7073   6.916   1.912   2.177
 2058SOL    HW2 7074   6.928   1.750   2.164
 2059SOL     OW 7075   2.184   1.438   6.847
 2059SOL    HW1 7076   2.240   1.362   6.879
 2059SOL    HW2 7077   2.103   1.447   6.904
 2060SOL     OW 7078   7.022   4.994   2.731
 2060SOL    HW1 7079   0.052   5.078   2.746
 2060SOL    HW2 7080   0.061   4.915   2.731
 2061SOL     OW 7081   6.441   1.718   2.373
 2061SOL    HW1 7082   6.369   1.754   2.433
 2061SOL    HW2 7083   6.402   1.649   2.312
 2062SOL     OW 7084   4.924   0.359   2.761
 2062SOL    HW1 7085   4.867   0.357   2.679
 2062SOL    HW2 7086   4.980   0.442   2.762
 2063SOL     OW 7087   2.011   2.823   6.393
 2063SOL    HW1 7088   2.034   2.728   6.374
 2063SOL    HW2 7089   1.965   2.863   6.315
 2064SOL     OW 7090   1.146   2.421   7.011
 2064SOL    HW1 7091   1.218   2.355   0.009
 2064SOL    HW2 7092   1.109   2.459   0.072
 2065SOL     OW 7093   6.430   3.844   1.573
 2065SOL    HW1 7094   6.399   3.858   1.479
 2065SOL    HW2 7095   6.454   3.932   1.614
 2066SOL     OW 7096   0.166   0.348   4.564
 2066SOL    HW1 7097   0.160   0.255   4.598
 2066SOL    HW2 7098   0.254   0.388   4.590
 2067SOL     OW 7099   6.758   6.325   1.404
 2067SOL    HW1 7100   6.795   6.283   1.321
 2067SOL    HW2 7101   6.806   6.410   1.423
 2068SOL     OW 7102   1.817   1.823   5.074
 2068SOL    HW1 7103   1.770   1.744   5.035
 2068SOL    HW2 7104   1.780   1.907   5.035
 2069SOL     OW 7105   1.025   2.291   2.150
 2069SOL    HW1 7106   0.968   2.373   2.155
 2069SOL    HW2 7107   0.970   2.211   2.175
 2070SOL     OW 7108   1.092   1.560   2.628
 2070SOL    HW1 7109   1.154   1.636   2.650
 2070SOL    HW2 7110   1.090   1.547   2.528
 2071SOL     OW 7111   1.065   6.991   4.398
 2071SOL    HW1 7112   1.121   6.922   4.353
 2071SOL    HW2 7113   0.980   7.005   4.347
 2072SOL     OW 7114   4.977   5.618   1.865
 2072SOL    HW1 7115   4.937   5.556   1.796
 2072SOL    HW2 7116   5.037   5.683   1.819
 2073SOL     OW 7117   3.206   6.938   5.787
 2073SOL    HW1 7118   3.111   6.935   5.820
 2073SOL    HW2 7119   3.268   6.930   5.865
 2074SOL     OW 7120   5.808   1.223   1.302
 2074SOL    HW1 7121   5.839   1.236   1.396
 2074SOL    HW2 7122   5.860   1.284   1.241
 2075SOL     OW 7123   4.324   3.351   7.003
 2075SOL    HW1 7124   4.268   3.427   0.012
 2075SOL    HW2 7125   4.400   3.337   0.043
 2076SOL     OW 7126   5.331   6.938   1.300
 2076SOL    HW1 7127   5.370   7.009   1.359
 2076SOL    HW2 7128   5.399   6.911   1.232
 2077SOL     OW 7129   5.160   1.300   2.625
 2077SOL    HW1 7130   5.103   1.380   2.645
 2077SOL    HW2 7131   5.175   1.248   2.709
 2078SOL     OW 7132   3.327   4.776   6.620
 2078SOL    HW1 7133   3.265   4.721   6.564
 2078SOL    HW2 7134   3.277   4.809   6.701
 2079SOL     OW 7135   5.334   1.458   3.973
 2079SOL    HW1 7136   5.276   1.401   4.031
 2079SOL    HW2 7137   5.303   1.553   3.978
 2080SOL     OW 7138   2.832   2.330   4.764
 2080SOL    HW1 7139   2.883   2.416   4.756
 2080SOL    HW2 7140   2.777   2.316   4.681
 2081SOL     OW 7141   0.743   6.346   5.184
 2081SOL    HW1 7142   0.805   6.368   5.108
 2081SOL    HW2 7143   0.737   6.423   5.246
 2082SOL     OW 7144   5.894   0.872   1.216
 2082SOL    HW1 7145   5.816   0.923   1.180
 2082SOL    HW2 7146   5.932   0.814   1.144
 2083SOL     OW 7147   3.333   4.618   6.109
 2083SOL    HW1 7148   3.323   4.709   6.148
 2083SOL    HW2 7149   3.322   4.549   6.181
 2084SOL     OW 7150   6.870   2.727   2.920
 2084SOL    HW1 7151   6.860   2.635   2.959
 2084SOL    HW2 7152   6.813   2.735   2.838
 2085SOL     OW 7153   4.598   0.577   5.727
 2085SOL    HW1 7154   4.598   0.551   5.824
 2085SOL    HW2 7155   4.597   0.677   5.720
 2086SOL     OW 7156   2.923   5.405   0.410
 2086SOL    HW1 7157   2.865   5.330   0.379
 2086SOL    HW2 7158   2.891   5.436   0.500
 2087SOL     OW 7159   5.426   0.224   2.821
 2087SOL    HW1 7160   5.339   0.191   2.782
 2087SOL    HW2 7161   5.492   0.149   2.824
 2088SOL     OW 7162   3.555   6.751   0.768
 2088SOL    HW1 7163   3.523   6.793   0.852
 2088SOL    HW2 7164   3.623   6.810   0.724
 2089SOL     OW 7165   4.946   1.025   6.745
 2089SOL    HW1 7166   4.966   0.959   6.817
 2089SOL    HW2 7167   4.907   1.107   6.785
 2090SOL     OW 7168   3.477   3.880   4.985
 2090SOL    HW1 7169   3.474   3.978   4.964
 2090SOL    HW2 7170   3.436   3.829   4.910
 2091SOL     OW 7171   1.973   5.211   1.354
 2091SOL    HW1 7172   2.023   5.170   1.430
 2091SOL    HW2 7173   1.941   5.302   1.382
 2092SOL     OW 7174   6.327   6.136   1.152
 2092SOL    HW1 7175   6.359   6.108   1.242
 2092SOL    HW2 7176   6.403   6.174   1.100
 2093SOL     OW 7177   0.872   2.880   1.975
 2093SOL    HW1 7178   0.864   2.969   1.929
 2093SOL    HW2 7179   0.968   2.854   1.979
 2094SOL     OW 7180   5.901   0.314   1.973
 2094SOL    HW1 7181   5.883   0.222   2.007
 2094SOL    HW2 7182   5.832   0.337   1.904
 2095SOL     OW 7183   5.589   5.427   4.638
 2095SOL    HW1 7184   5.565   5.471   4.551
 2095SOL    HW2 7185   5.520   5.450   4.707
 2096SOL     OW 7186   5.053   4.132   2.661
 2096SOL    HW1 7187   5.075   4.193   2.737
 2096SOL    HW2 7188   5.013   4.186   2.586
 2097SOL     OW 7189   0.283   2.727   0.256
 2097SOL    HW1 7190   0.243   2.668   0.326
 2097SOL    HW2 7191   0.369   2.687   0.224
 2098SOL     OW 7192   4.347   0.203   4.347
 2098SOL    HW1 7193   4.445   0.222   4.340
 2098SOL    HW2 7194   4.333   0.113   4.388
 2099SOL     OW 7195   2.657   0.641   3.863
 2099SOL    HW1 7196   2.715   0.573   3.818
 2099SOL    HW2 7197   2.669   0.637   3.962
 2100SOL     OW 7198   4.843   4.212   6.130
 2100SOL    HW1 7199   4.919   4.152   6.153
 2100SOL    HW2 7200   4.842   4.228   6.031
 2101SOL     OW 7201   0.173   0.190   3.386
 2101SOL    HW1 7202   0.119   0.134   3.448
 2101SOL    HW2 7203   0.119   0.210   3.304
 2102SOL     OW 7204   6.777   5.394   3.398
 2102SOL    HW1 7205   6.871   5.365   3.379
 2102SOL    HW2 7206   6.713   5.335   3.349
 2103SOL     OW 7207   3.309   3.571   6.696
 2103SOL    HW1 7208   3.401   3.601   6.719
 2103SOL    HW2 7209   3.272   3.629   6.624
 2104SOL     OW 7210   1.664   3.168   5.572
 2104SOL    HW1 7211   1.659   3.209   5.481
 2104SOL    HW2 7212   1.732   3.094   5.572
 2105SOL     OW 7213   6.001   5.734   2.165
 2105SOL    HW1 7214   5.973   5.794   2.239
 2105SOL    HW2 7215   6.034   5.648   2.203
 2106SOL     OW 7216   4.690   5.463   6.744
 2106SOL    HW1 7217   4.652   5.500   6.659
 2106SOL    HW2 7218   4.747   5.533   6.788
 2107SOL     OW 7219   4.122   4.046   5.705
 2107SOL    HW1 7220   4.032   4.014   5.677
 2107SOL    HW2 7221   4.163   4.100   5.631
 2108SOL     OW 7222   6.108   5.396   5.792
 2108SOL    HW1 7223   6.111   5.345   5.878
 2108SOL    HW2 7224   6.015   5.395   5.755
 2109SOL     OW 7225   5.906   6.152   2.619
 2109SOL    HW1 7226   5.843   6.090   2.666
 2109SOL    HW2 7227   5.884   6.154   2.522
 2110SOL     OW 7228   2.672   4.231   6.269
 2110SOL    HW1 7229   2.654   4.305   6.333
 2110SOL    HW2 7230   2.676   4.267   6.176
 2111SOL     OW 7231   1.147   2.877   6.838
 2111SOL    HW1 7232   1.240   2.902   6.814
 2111SOL    HW2 7233   1.124   2.789   6.798
 2112SOL     OW 7234   4.785   3.124   1.464
 2112SOL    HW1 7235   4.776   3.080   1.553
 2112SOL    HW2 7236   4.775   3.055   1.391
 2113SOL     OW 7237   0.971   0.884   3.124
 2113SOL    HW1 7238   0.953   0.787   3.137
 2113SOL    HW2 7239   1.044   0.896   3.056
 2114SOL     OW 7240   1.816   4.209   0.084
 2114SOL    HW1 7241   1.899   4.153   0.090
 2114SOL    HW2 7242   1.736   4.149   0.084
 2115SOL     OW 7243   1.738   4.389   2.416
 2115SOL    HW1 7244   1.681   4.309   2.399
 2115SOL    HW2 7245   1.749   4.402   2.515
 2116SOL     OW 7246   0.409   4.155   3.885
 2116SOL    HW1 7247   0.442   4.116   3.971
 2116SOL    HW2 7248   0.383   4.082   3.823
 2117SOL     OW 7249   1.096   5.176   1.293
 2117SOL    HW1 7250   1.006   5.142   1.322
 2117SOL    HW2 7251   1.167   5.115   1.326
 2118SOL     OW 7252   0.457   3.695   2.258
 2118SOL    HW1 7253   0.468   3.670   2.354
 2118SOL    HW2 7254   0.464   3.613   2.201
 2119SOL     OW 7255   2.434   6.097   1.114
 2119SOL    HW1 7256   2.493   6.042   1.172
 2119SOL    HW2 7257   2.343   6.055   1.109
 2120SOL     OW 7258   6.728   4.841   2.054
 2120SOL    HW1 7259   6.708   4.937   2.035
 2120SOL    HW2 7260   6.650   4.799   2.099
 2121SOL     OW 7261   0.134   5.188   5.310
 2121SOL    HW1 7262   0.131   5.112   5.374
 2121SOL    HW2 7263   0.228   5.203   5.279
 2122SOL     OW 7264   4.611   4.538   4.827
 2122SOL    HW1 7265   4.637   4.482   4.749
 2122SOL    HW2 7266   4.512   4.533   4.840
 2123SOL     OW 7267   6.396   4.900   3.183
 2123SOL    HW1 7268   6.323   4.955   3.143
 2123SOL    HW2 7269   6.480   4.954   3.189
 2124SOL     OW 7270   2.346   2.078   1.416
 2124SOL    HW1 7271   2.374   1.982   1.411
 2124SOL    HW2 7272   2.253   2.083   1.452
 2125SOL     OW 7273   2.789   0.818   0.501
 2125SOL    HW1 7274   2.760   0.747   0.566
 2125SOL    HW2 7275   2.714   0.882   0.485
 2126SOL     OW 7276   2.930   0.801   6.431
 2126SOL    HW1 7277   2.959   0.792   6.526
 2126SOL    HW2 7278   2.969   0.885   6.392
 2127SOL     OW 7279   5.482   3.065   4.639
 2127SOL    HW1 7280   5.547   3.114   4.696
 2127SOL    HW2 7281   5.471   3.113   4.552
 2128SOL     OW 7282   0.454   4.274   4.729
 2128SOL    HW1 7283   0.500   4.319   4.805
 2128SOL    HW2 7284   0.407   4.342   4.673
 2129SOL     OW 7285   4.472   1.947   5.724
 2129SOL    HW1 7286   4.543   1.920   5.790
 2129SOL    HW2 7287   4.507   1.937   5.631
 2130SOL     OW 7288   4.933   6.572   2.396
 2130SOL    HW1 7289   4.870   6.500   2.426
 2130SOL    HW2 7290   4.881   6.653   2.370
 2131SOL     OW 7291   6.763   1.130   0.707
 2131SOL    HW1 7292   6.860   1.155   0.707
 2131SOL    HW2 7293   6.753   1.037   0.742
 2132SOL     OW 7294   2.169   2.928   0.586
 2132SOL    HW1 7295   2.192   3.004   0.648
 2132SOL    HW2 7296   2.252   2.881   0.558
 2133SOL     OW 7297   2.720   2.664   5.743
 2133SOL    HW1 7298   2.782   2.738   5.716
 2133SOL    HW2 7299   2.771   2.596   5.796
 2134SOL     OW 7300   0.514   0.662   1.276
 2134SOL    HW1 7301   0.517   0.594   1.203
 2134SOL    HW2 7302   0.507   0.753   1.236
 2135SOL     OW 7303   0.574   3.612   4.446
 2135SOL    HW1 7304   0.555   3.645   4.539
 2135SOL    HW2 7305   0.650   3.547   4.449
 2136SOL     OW 7306   2.114   5.920   1.826
 2136SOL    HW1 7307   2.150   6.008   1.796
 2136SOL    HW2 7308   2.072   5.931   1.917
 2137SOL     OW 7309   2.769   5.351   4.384
 2137SOL    HW1 7310   2.823   5.380   4.463
 2137SOL    HW2 7311   2.826   5.299   4.322
 2138SOL     OW 7312   5.430   1.395   2.629
 2138SOL    HW1 7313   5.499   1.326   2.607
 2138SOL    HW2 7314   5.341   1.365   2.595
 2139SOL     OW 7315   3.226   0.777   5.309
 2139SOL    HW1 7316   3.318   0.764   5.271
 2139SOL    HW2 7317   3.232   0.784   5.408
 2140SOL     OW 7318   2.346   1.486   5.207
 2140SOL    HW1 7319   2.269   1.422   5.218
 2140SOL    HW2 7320   2.318   1.577   5.236
 2141SOL     OW 7321   6.256   4.408   1.999
 2141SOL    HW1 7322   6.316   4.449   2.068
 2141SOL    HW2 7323   6.198   4.339   2.043
 2142SOL     OW 7324   1.781   2.173   3.598
 2142SOL    HW1 7325   1.711   2.102   3.609
 2142SOL    HW2 7326   1.840   2.149   3.521
 2143SOL     OW 7327   2.293   4.695   0.665
 2143SOL    HW1 7328   2.347   4.750   0.601
 2143SOL    HW2 7329   2.204   4.675   0.624
 2144SOL     OW 7330   6.548   5.807   4.224
 2144SOL    HW1 7331   6.544   5.849   4.315
 2144SOL    HW2 7332   6.455   5.790   4.192
 2145SOL     OW 7333   4.130   6.531   4.005
 2145SOL    HW1 7334   4.082   6.475   3.938
 2145SOL    HW2 7335   4.077   6.534   4.090
 2146SOL     OW 7336   2.244   3.150   0.987
 2146SOL    HW1 7337   2.291   3.088   1.049
 2146SOL    HW2 7338   2.147   3.127   0.984
 2147SOL     OW 7339   6.118   0.889   5.509
 2147SOL    HW1 7340   6.111   0.893   5.410
 2147SOL    HW2 7341   6.087   0.799   5.541
 2148SOL     OW 7342   6.950   3.471   6.709
 2148SOL    HW1 7343   6.969   3.383   6.666
 2148SOL    HW2 7344   6.894   3.458   6.790
 2149SOL     OW 7345   0.688   0.405   0.038
 2149SOL    HW1 7346   0.729   0.485   7.017
 2149SOL    HW2 7347   0.696   0.326   7.001
 2150SOL     OW 7348   2.365   3.386   1.405
 2150SOL    HW1 7349   2.326   3.455   1.345
 2150SOL    HW2 7350   2.363   3.418   1.500
 2151SOL     OW 7351   1.372   5.601   6.910
 2151SOL    HW1 7352   1.302   5.643   6.853
 2151SOL    HW2 7353   1.387   5.657   6.991
 2152SOL     OW 7354   4.437   6.128   3.419
 2152SOL    HW1 7355   4.343   6.109   3.449
 2152SOL    HW2 7356   4.491   6.160   3.497
 2153SOL     OW 7357   4.978   1.288   3.273
 2153SOL    HW1 7358   4.947   1.203   3.230
 2153SOL    HW2 7359   5.017   1.267   3.363
 2154SOL     OW 7360   3.141   6.660   3.068
 2154SOL    HW1 7361   3.200   6.621   3.139
 2154SOL    HW2 7362   3.143   6.602   2.987
 2155SOL     OW 7363   4.701   6.812   0.954
 2155SOL    HW1 7364   4.654   6.897   0.931
 2155SOL    HW2 7365   4.698   6.798   1.053
 2156SOL     OW 7366   5.557   1.653   4.529
 2156SOL    HW1 7367   5.525   1.558   4.520
 2156SOL    HW2 7368   5.642   1.664   4.478
 2157SOL     OW 7369   3.773   5.527   3.951
 2157SOL    HW1 7370   3.701   5.546   3.885
 2157SOL    HW2 7371   3.751   5.444   4.002
 2158SOL     OW 7372   3.097   1.105   0.188
 2158SOL    HW1 7373   3.050   1.016   0.188
 2158SOL    HW2 7374   3.195   1.091   0.196
 2159SOL     OW 7375   1.180   0.208   6.110
 2159SOL    HW1 7376   1.211   0.240   6.199
 2159SOL    HW2 7377   1.258   0.201   6.048
 2160SOL     OW 7378   5.254   6.001   0.529
 2160SOL    HW1 7379   5.261   6.056   0.445
 2160SOL    HW2 7380   5.327   5.932   0.529
 2161SOL     OW 7381   1.222   3.339   2.460
 2161SOL    HW1 7382   1.214   3.241   2.481
 2161SOL    HW2 7383   1.132   3.381   2.464
 2162SOL     OW 7384   1.982   0.235   3.040
 2162SOL    HW1 7385   1.980   0.170   3.116
 2162SOL    HW2 7386   2.036   0.197   2.965
 2163SOL     OW 7387   1.300   3.130   1.523
 2163SOL    HW1 7388   1.223   3.119   1.586
 2163SOL    HW2 7389   1.325   3.227   1.518
 2164SOL     OW 7390   1.909   2.777   2.548
 2164SOL    HW1 7391   1.828   2.836   2.542
 2164SOL    HW2 7392   1.991   2.833   2.540
 2165SOL     OW 7393   0.228   1.626   3.801
 2165SOL    HW1 7394   0.183   1.557   3.746
 2165SOL    HW2 7395   0.178   1.713   3.794
 2166SOL     OW 7396   0.012   4.170   3.319
 2166SOL    HW1 7397   0.096   4.179   3.265
 2166SOL    HW2 7398   0.014   4.084   3.371
 2167SOL     OW 7399   1.925   2.587   4.477
 2167SOL    HW1 7400   1.874   2.646   4.414
 2167SOL    HW2 7401   2.001   2.639   4.517
 2168SOL     OW 7402   1.471   1.646   3.183
 2168SOL    HW1 7403   1.427   1.720   3.133
 2168SOL    HW2 7404   1.494   1.571   3.120
 2169SOL     OW 7405   0.340   0.732   2.227
 2169SOL    HW1 7406   0.305   0.813   2.275
 2169SOL    HW2 7407   0.323   0.742   2.129
 2170SOL     OW 7408   1.048   4.139   5.889
 2170SOL    HW1 7409   1.051   4.098   5.980
 2170SOL    HW2 7410   1.071   4.236   5.895
 2171SOL     OW 7411   0.529   5.469   1.158
 2171SOL    HW1 7412   0.543   5.377   1.194
 2171SOL    HW2 7413   0.446   5.472   1.103
 2172SOL     OW 7414   0.354   1.753   4.829
 2172SOL    HW1 7415   0.413   1.698   4.771
 2172SOL    HW2 7416   0.369   1.850   4.809
 2173SOL     OW 7417   5.846   0.692   5.299
 2173SOL    HW1 7418   5.883   0.619   5.357
 2173SOL    HW2 7419   5.857   0.780   5.345
 2174SOL     OW 7420   0.161   5.768   5.107
 2174SOL    HW1 7421   0.086   5.776   5.172
 2174SOL    HW2 7422   0.244   5.808   5.147
 2175SOL     OW 7423   3.118   3.533   5.545
 2175SOL    HW1 7424   3.132   3.446   5.498
 2175SOL    HW2 7425   3.182   3.601   5.510
 2176SOL     OW 7426   5.421   2.600   1.215
 2176SOL    HW1 7427   5.390   2.640   1.301
 2176SOL    HW2 7428   5.419   2.669   1.143
 2177SOL     OW 7429   0.026   0.606   3.696
 2177SOL    HW1 7430   6.954   0.605   3.726
 2177SOL    HW2 7431   0.086   0.617   3.775
 2178SOL     OW 7432   1.085   1.954   2.775
 2178SOL    HW1 7433   0.989   1.978   2.785
 2178SOL    HW2 7434   1.129   1.956   2.865
 2179SOL     OW 7435   1.634   4.757   6.594
 2179SOL    HW1 7436   1.536   4.765   6.612
 2179SOL    HW2 7437   1.657   4.660   6.581
 2180SOL     OW 7438   0.947   5.009   1.915
 2180SOL    HW1 7439   0.980   4.957   1.836
 2180SOL    HW2 7440   0.971   5.105   1.905
 2181SOL     OW 7441   4.428   4.935   3.895
 2181SOL    HW1 7442   4.482   4.988   3.829
 2181SOL    HW2 7443   4.372   4.996   3.949
 2182SOL     OW 7444   0.049   5.936   3.054
 2182SOL    HW1 7445   6.975   5.954   3.041
 2182SOL    HW2 7446   0.101   5.977   2.979
 2183SOL     OW 7447   3.584   3.286   0.266
 2183SOL    HW1 7448   3.649   3.276   0.342
 2183SOL    HW2 7449   3.499   3.238   0.288
 2184SOL     OW 7450   6.581   0.509   0.312
 2184SOL    HW1 7451   6.656   0.569   0.341
 2184SOL    HW2 7452   6.619   0.428   0.267
 2185SOL     OW 7453   0.199   1.459   6.659
 2185SOL    HW1 7454   0.296   1.480   6.664
 2185SOL    HW2 7455   0.186   1.360   6.646
 2186SOL     OW 7456   6.752   5.274   4.619
 2186SOL    HW1 7457   6.746   5.214   4.699
 2186SOL    HW2 7458   6.770   5.220   4.537
 2187SOL     OW 7459   0.436   5.697   2.837
 2187SOL    HW1 7460   0.476   5.688   2.928
 2187SOL    HW2 7461   0.509   5.694   2.768
 2188SOL     OW 7462   2.022   0.304   1.004
 2188SOL    HW1 7463   1.944   0.300   0.943
 2188SOL    HW2 7464   2.106   0.318   0.951
 2189SOL     OW 7465   2.781   1.571   1.890
 2189SOL    HW1 7466   2.829   1.605   1.809
 2189SOL    HW2 7467   2.785   1.640   1.962
 2190SOL     OW 7468   6.652   4.403   2.503
 2190SOL    HW1 7469   6.740   4.375   2.542
 2190SOL    HW2 7470   6.639   4.501   2.518
 2191SOL     OW 7471   2.179   0.688   6.067
 2191SOL    HW1 7472   2.274   0.702   6.095
 2191SOL    HW2 7473   2.123   0.673   6.148
 2192SOL     OW 7474   4.803   1.334   2.200
 2192SOL    HW1 7475   4.727   1.358   2.261
 2192SOL    HW2 7476   4.889   1.345   2.249
 2193SOL     OW 7477   0.098   7.013   5.821
 2193SOL    HW1 7478   0.125   6.917   5.817
 2193SOL    HW2 7479   0.135   0.038   5.741
 2194SOL     OW 7480   0.918   4.677   5.769
 2194SOL    HW1 7481   0.848   4.696   5.702
 2194SOL    HW2 7482   1.004   4.721   5.742
 2195SOL     OW 7483   0.861   4.416   6.756
 2195SOL    HW1 7484   0.908   4.331   6.731
 2195SOL    HW2 7485   0.814   4.453   6.676
 2196SOL     OW 7486   2.650   5.790   5.463
 2196SOL    HW1 7487   2.655   5.782   5.563
 2196SOL    HW2 7488   2.712   5.862   5.432
 2197SOL     OW 7489   2.889   4.284   5.700
 2197SOL    HW1 7490   2.984   4.317   5.706
 2197SOL    HW2 7491   2.849   4.315   5.614
 2198SOL     OW 7492   0.475   0.233   6.425
 2198SOL    HW1 7493   0.417   0.312   6.444
 2198SOL    HW2 7494   0.539   0.256   6.351
 2199SOL     OW 7495   4.368   6.892   4.385
 2199SOL    HW1 7496   4.458   6.934   4.380
 2199SOL    HW2 7497   4.378   6.793   4.399
 2200SOL     OW 7498   2.803   1.447   3.943
 2200SOL    HW1 7499   2.880   1.432   4.006
 2200SOL    HW2 7500   2.717   1.423   3.990
 2201SOL     OW 7501   6.385   3.047   4.085
 2201SOL    HW1 7502   6.352   2.993   4.162
 2201SOL    HW2 7503   6.359   3.143   4.099
 2202SOL     OW 7504   3.781   5.396   2.134
 2202SOL    HW1 7505   3.808   5.423   2.041
 2202SOL    HW2 7506   3.861   5.393   2.192
 2203SOL     OW 7507   1.967   4.004   1.213
 2203SOL    HW1 7508   1.931   4.074   1.152
 2203SOL    HW2 7509   1.963   3.914   1.169
 2204SOL     OW 7510   4.337   3.138   0.911
 2204SOL    HW1 7511   4.419   3.090   0.879
 2204SOL    HW2 7512   4.299   3.090   0.989
 2205SOL     OW 7513   1.783   6.056   0.389
 2205SOL    HW1 7514   1.759   5.962   0.367
 2205SOL    HW2 7515   1.701   6.114   0.387
 2206SOL     OW 7516   2.318   3.049   6.579
 2206SOL    HW1 7517   2.339   2.976   6.514
 2206SOL    HW2 7518   2.227   3.085   6.561
 2207SOL     OW 7519   4.561   5.992   0.893
 2207SOL    HW1 7520   4.621   6.060   0.935
 2207SOL    HW2 7521   4.468   6.003   0.929
 2208SOL     OW 7522   0.874   5.625   3.446
 2208SOL    HW1 7523   0.882   5.620   3.546
 2208SOL    HW2 7524   0.879   5.720   3.417
 2209SOL     OW 7525   2.777   5.191   5.007
 2209SOL    HW1 7526   2.805   5.261   4.941
 2209SOL    HW2 7527   2.769   5.103   4.962
 2210SOL     OW 7528   5.836   6.352   1.108
 2210SOL    HW1 7529   5.873   6.289   1.039
 2210SOL    HW2 7530   5.741   6.372   1.088
 2211SOL     OW 7531   6.108   0.754   0.568
 2211SOL    HW1 7532   6.129   0.709   0.655
 2211SOL    HW2 7533   6.023   0.716   0.530
 2212SOL     OW 7534   2.749   6.066   6.656
 2212SOL    HW1 7535   2.842   6.057   6.621
 2212SOL    HW2 7536   2.731   6.162   6.678
 2213SOL     OW 7537   3.889   2.155   4.192
 2213SOL    HW1 7538   3.965   2.094   4.214
 2213SOL    HW2 7539   3.884   2.228   4.260
 2214SOL     OW 7540   4.159   2.984   5.733
 2214SOL    HW1 7541   4.186   3.040   5.655
 2214SOL    HW2 7542   4.230   2.986   5.803
 2215SOL     OW 7543   5.013   0.452   6.406
 2215SOL    HW1 7544   5.082   0.517   6.373
 2215SOL    HW2 7545   4.926   0.468   6.360
 2216SOL     OW 7546   0.328   6.528   6.455
 2216SOL    HW1 7547   0.346   6.468   6.377
 2216SOL    HW2 7548   0.412   6.577   6.480
 2217SOL     OW 7549   4.333   0.720   2.834
 2217SOL    HW1 7550   4.433   0.724   2.838
 2217SOL    HW2 7551   4.306   0.648   2.770
 2218SOL     OW 7552   0.261   5.133   5.835
 2218SOL    HW1 7553   0.168   5.108   5.864
 2218SOL    HW2 7554   0.322   5.128   5.914
 2219SOL     OW 7555   5.111   1.491   0.759
 2219SOL    HW1 7556   5.138   1.583   0.787
 2219SOL    HW2 7557   5.105   1.486   0.660
 2220SOL     OW 7558   1.133   6.479   5.604
 2220SOL    HW1 7559   1.184   6.494   5.689
 2220SOL    HW2 7560   1.063   6.410   5.620
 2221SOL     OW 7561   6.820   1.247   5.009
 2221SOL    HW1 7562   6.905   1.225   4.961
 2221SOL    HW2 7563   6.840   1.306   5.087
 2222SOL     OW 7564   5.562   6.334   1.066
 2222SOL    HW1 7565   5.508   6.380   0.996
 2222SOL    HW2 7566   5.506   6.263   1.109
 2223SOL     OW 7567   6.824   0.314   5.731
 2223SOL    HW1 7568   6.827   0.237   5.795
 2223SOL    HW2 7569   6.731   0.348   5.725
 2224SOL     OW 7570   5.466   3.986   1.438
 2224SOL    HW1 7571   5.558   3.990   1.399
 2224SOL    HW2 7572   5.473   3.981   1.538
 2225SOL     OW 7573   0.777   6.691   3.347
 2225SOL    HW1 7574   0.816   6.747   3.275
 2225SOL    HW2 7575   0.677   6.697   3.344
 2226SOL     OW 7576   2.728   5.701   1.107
 2226SOL    HW1 7577   2.749   5.645   1.187
 2226SOL    HW2 7578   2.748   5.797   1.127
 2227SOL     OW 7579   4.104   2.289   1.655
 2227SOL    HW1 7580   4.056   2.229   1.590
 2227SOL    HW2 7581   4.073   2.383   1.642
 2228SOL     OW 7582   4.843   4.792   0.266
 2228SOL    HW1 7583   4.777   4.775   0.339
 2228SOL    HW2 7584   4.794   4.814   0.182
 2229SOL     OW 7585   3.337   3.550   4.621
 2229SOL    HW1 7586   3.337   3.595   4.532
 2229SOL    HW2 7587   3.330   3.451   4.609
 2230SOL     OW 7588   5.417   6.272   0.645
 2230SOL    HW1 7589   5.420   6.222   0.558
 2230SOL    HW2 7590   5.427   6.208   0.721
 2231SOL     OW 7591   0.221   0.645   0.103
 2231SOL    HW1 7592   0.306   0.596   0.120
 2231SOL    HW2 7593   0.188   0.624   0.011
 2232SOL     OW 7594   1.497   0.573   5.840
 2232SOL    HW1 7595   1.491   0.604   5.746
 2232SOL    HW2 7596   1.469   0.647   5.902
 2233SOL     OW 7597   3.276   3.443   0.652
 2233SOL    HW1 7598   3.322   3.440   0.563
 2233SOL    HW2 7599   3.345   3.448   0.724
 2234SOL     OW 7600   3.725   1.776   0.363
 2234SOL    HW1 7601   3.804   1.817   0.408
 2234SOL    HW2 7602   3.688   1.840   0.295
 2235SOL     OW 7603   2.858   0.796   2.182
 2235SOL    HW1 7604   2.866   0.767   2.278
 2235SOL    HW2 7605   2.946   0.833   2.151
 2236SOL     OW 7606   1.846   4.130   5.668
 2236SOL    HW1 7607   1.868   4.150   5.572
 2236SOL    HW2 7608   1.871   4.036   5.689
 2237SOL     OW 7609   5.752   5.336   5.087
 2237SOL    HW1 7610   5.813   5.260   5.067
 2237SOL    HW2 7611   5.798   5.400   5.150
 2238SOL     OW 7612   4.889   4.591   2.504
 2238SOL    HW1 7613   4.962   4.591   2.436
 2238SOL    HW2 7614   4.919   4.541   2.585
 2239SOL     OW 7615   3.838   6.850   3.539
 2239SOL    HW1 7616   3.924   6.811   3.507
 2239SOL    HW2 7617   3.855   6.907   3.619
 2240SOL     OW 7618   5.092   6.111   3.192
 2240SOL    HW1 7619   5.117   6.206   3.175
 2240SOL    HW2 7620   5.150   6.073   3.264
 2241SOL     OW 7621   0.409   6.798   1.489
 2241SOL    HW1 7622   0.364   6.826   1.574
 2241SOL    HW2 7623   0.470   6.871   1.459
 2242SOL     OW 7624   4.947   2.927   3.178
 2242SOL    HW1 7625   4.947   3.010   3.234
 2242SOL    HW2 7626   4.899   2.854   3.227
 2243SOL     OW 7627   2.270   6.458   0.721
 2243SOL    HW1 7628   2.319   6.379   0.759
 2243SOL    HW2 7629   2.227   6.432   0.635
 2244SOL     OW 7630   2.490   0.832   0.645
 2244SOL    HW1 7631   2.496   0.772   0.725
 2244SOL    HW2 7632   2.440   0.915   0.669
 2245SOL     OW 7633   0.794   1.109   0.757
 2245SOL    HW1 7634   0.785   1.129   0.659
 2245SOL    HW2 7635   0.834   1.188   0.803
 2246SOL     OW 7636   2.373   0.470   4.725
 2246SOL    HW1 7637   2.292   0.500   4.673
 2246SOL    HW2 7638   2.389   0.533   4.800
 2247SOL     OW 7639   3.310   3.902   2.345
 2247SOL    HW1 7640   3.346   3.977   2.290
 2247SOL    HW2 7641   3.210   3.902   2.340
 2248SOL     OW 7642   5.565   4.644   4.871
 2248SOL    HW1 7643   5.651   4.647   4.820
 2248SOL    HW2 7644   5.563   4.563   4.929
 2249SOL     OW 7645   2.662   6.468   3.641
 2249SOL    HW1 7646   2.713   6.392   3.680
 2249SOL    HW2 7647   2.721   6.548   3.633
 2250SOL     OW 7648   4.088   3.631   5.645
 2250SOL    HW1 7649   4.159   3.668   5.704
 2250SOL    HW2 7650   4.033   3.565   5.696
 2251SOL     OW 7651   5.279   6.200   6.571
 2251SOL    HW1 7652   5.280   6.257   6.489
 2251SOL    HW2 7653   5.342   6.123   6.558
 2252SOL     OW 7654   5.060   1.558   2.951
 2252SOL    HW1 7655   5.155   1.588   2.942
 2252SOL    HW2 7656   5.015   1.564   2.862
 2253SOL     OW 7657   0.653   3.243   0.615
 2253SOL    HW1 7658   0.644   3.342   0.628
 2253SOL    HW2 7659   0.612   3.217   0.527
 2254SOL     OW 7660   3.533   3.845   2.505
 2254SOL    HW1 7661   3.458   3.836   2.440
 2254SOL    HW2 7662   3.532   3.937   2.544
 2255SOL     OW 7663   2.756   4.347   5.475
 2255SOL    HW1 7664   2.818   4.308   5.407
 2255SOL    HW2 7665   2.714   4.430   5.438
 2256SOL     OW 7666   5.087   6.166   2.224
 2256SOL    HW1 7667   5.112   6.256   2.188
 2256SOL    HW2 7668   5.139   6.147   2.307
 2257SOL     OW 7669   0.518   1.773   4.274
 2257SOL    HW1 7670   0.505   1.675   4.290
 2257SOL    HW2 7671   0.519   1.821   4.362
 2258SOL     OW 7672   2.022   6.798   4.817
 2258SOL    HW1 7673   2.046   6.894   4.828
 2258SOL    HW2 7674   2.004   6.758   4.907
 2259SOL     OW 7675   6.424   2.441   4.621
 2259SOL    HW1 7676   6.369   2.456   4.539
 2259SOL    HW2 7677   6.493   2.513   4.628
 2260SOL     OW 7678   0.995   3.830   1.654
 2260SOL    HW1 7679   1.013   3.782   1.739
 2260SOL    HW2 7680   0.970   3.764   1.583
 2261SOL     OW 7681   6.041   3.659   0.141
 2261SOL    HW1 7682   6.094   3.727   0.090
 2261SOL    HW2 7683   6.024   3.692   0.233
 2262SOL     OW 7684   6.488   0.719   4.058
 2262SOL    HW1 7685   6.427   0.650   4.095
 2262SOL    HW2 7686   6.532   0.768   4.133
 2263SOL     OW 7687   0.830   5.385   0.404
 2263SOL    HW1 7688   0.777   5.300   0.397
 2263SOL    HW2 7689   0.834   5.413   0.500
 2264SOL     OW 7690   2.665   6.690   6.713
 2264SOL    HW1 7691   2.715   6.685   6.626
 2264SOL    HW2 7692   2.710   6.632   6.781
 2265SOL     OW 7693   1.563   0.126   4.152
 2265SOL    HW1 7694   1.593   0.098   4.061
 2265SOL    HW2 7695   1.596   0.060   4.220
 2266SOL     OW 7696   5.085   1.609   6.329
 2266SOL    HW1 7697   5.089   1.547   6.251
 2266SOL    HW2 7698   5.145   1.576   6.402
 2267SOL     OW 7699   4.544   2.551   4.996
 2267SOL    HW1 7700   4.629   2.573   5.044
 2267SOL    HW2 7701   4.557   2.565   4.898
 2268SOL     OW 7702   6.370   4.343   6.257
 2268SOL    HW1 7703   6.305   4.276   6.293
 2268SOL    HW2 7704   6.402   4.402   6.331
 2269SOL     OW 7705   0.745   3.119   5.693
 2269SOL    HW1 7706   0.770   3.197   5.750
 2269SOL    HW2 7707   0.781   3.132   5.601
 2270SOL     OW 7708   4.342   2.954   5.957
 2270SOL    HW1 7709   4.300   2.864   5.958
 2270SOL    HW2 7710   4.417   2.957   6.024
 2271SOL     OW 7711   5.813   4.198   6.725
 2271SOL    HW1 7712   5.731   4.254   6.733
 2271SOL    HW2 7713   5.801   4.114   6.777
 2272SOL     OW 7714   6.328   0.959   6.238
 2272SOL    HW1 7715   6.300   1.055   6.246
 2272SOL    HW2 7716   6.307   0.911   6.324
 2273SOL     OW 7717   2.011   2.183   2.313
 2273SOL    HW1 7718   1.911   2.187   2.307
 2273SOL    HW2 7719   2.042   2.249   2.382
 2274SOL     OW 7720   0.726   1.340   0.053
 2274SOL    HW1 7721   0.686   1.266   0.108
 2274SOL    HW2 7722   0.656   1.407   0.031
 2275SOL     OW 7723   5.653   5.099   2.111
 2275SOL    HW1 7724   5.561   5.127   2.082
 2275SOL    HW2 7725   5.646   5.029   2.182
 2276SOL     OW 7726   1.502   0.965   1.317
 2276SOL    HW1 7727   1.494   1.065   1.320
 2276SOL    HW2 7728   1.587   0.937   1.363
 2277SOL     OW 7729   3.076   4.030   3.247
 2277SOL    HW1 7730   3.012   3.987   3.310
 2277SOL    HW2 7731   3.155   3.971   3.233
 2278SOL     OW 7732   0.691   3.000   3.762
 2278SOL    HW1 7733   0.700   2.903   3.782
 2278SOL    HW2 7734   0.767   3.029   3.702
 2279SOL     OW 7735   6.870   5.763   5.993
 2279SOL    HW1 7736   6.822   5.851   5.999
 2279SOL    HW2 7737   6.906   5.739   6.082
 2280SOL     OW 7738   5.260   0.827   5.530
 2280SOL    HW1 7739   5.181   0.783   5.488
 2280SOL    HW2 7740   5.316   0.758   5.577
 2281SOL     OW 7741   4.444   6.326   2.377
 2281SOL    HW1 7742   4.377   6.254   2.359
 2281SOL    HW2 7743   4.441   6.352   2.474
 2282SOL     OW 7744   4.882   5.105   5.492
 2282SOL    HW1 7745   4.845   5.013   5.508
 2282SOL    HW2 7746   4.955   5.124   5.557
 2283SOL     OW 7747   1.879   0.694   3.072
 2283SOL    HW1 7748   1.783   0.685   3.045
 2283SOL    HW2 7749   1.898   0.633   3.148
 2284SOL     OW 7750   0.602   3.535   6.287
 2284SOL    HW1 7751   0.595   3.436   6.298
 2284SOL    HW2 7752   0.668   3.555   6.215
 2285SOL     OW 7753   1.018   3.866   7.003
 2285SOL    HW1 7754   0.955   3.921   6.948
 2285SOL    HW2 7755   1.102   3.851   6.951
 2286SOL     OW 7756   5.334   6.990   3.314
 2286SOL    HW1 7757   5.316   0.035   3.242
 2286SOL    HW2 7758   5.334   6.899   3.274
 2287SOL     OW 7759   2.686   0.844   3.314
 2287SOL    HW1 7760   2.700   0.813   3.408
 2287SOL    HW2 7761   2.710   0.770   3.251
 2288SOL     OW 7762   0.073   4.867   3.652
 2288SOL    HW1 7763   0.127   4.933   3.704
 2288SOL    HW2 7764   0.014   4.915   3.588
 2289SOL     OW 7765   0.493   5.287   1.529
 2289SOL    HW1 7766   0.499   5.245   1.438
 2289SOL    HW2 7767   0.523   5.382   1.524
 2290SOL     OW 7768   1.066   4.144   1.190
 2290SOL    HW1 7769   0.998   4.161   1.120
 2290SOL    HW2 7770   1.022   4.143   1.280
 2291SOL     OW 7771   3.399   1.534   5.700
 2291SOL    HW1 7772   3.314   1.547   5.752
 2291SOL    HW2 7773   3.388   1.572   5.608
 2292SOL     OW 7774   1.504   0.841   5.022
 2292SOL    HW1 7775   1.524   0.933   5.057
 2292SOL    HW2 7776   1.409   0.837   4.991
 2293SOL     OW 7777   5.229   5.378   1.595
 2293SOL    HW1 7778   5.280   5.329   1.524
 2293SOL    HW2 7779   5.268   5.359   1.684
 2294SOL     OW 7780   3.944   7.021   6.935
 2294SOL    HW1 7781   4.015   0.009   7.005
 2294SOL    HW2 7782   3.863   6.978   6.976
 2295SOL     OW 7783   0.188   1.896   2.035
 2295SOL    HW1 7784   0.148   1.874   2.125
 2295SOL    HW2 7785   0.117   1.892   1.965
 2296SOL     OW 7786   3.090   0.830   0.502
 2296SOL    HW1 7787   3.112   0.845   0.406
 2296SOL    HW2 7788   2.994   0.801   0.511
 2297SOL     OW 7789   4.308   4.310   5.626
 2297SOL    HW1 7790   4.316   4.270   5.535
 2297SOL    HW2 7791   4.386   4.281   5.682
 2298SOL     OW 7792   3.476   2.354   1.054
 2298SOL    HW1 7793   3.532   2.305   1.121
 2298SOL    HW2 7794   3.532   2.423   1.009
 2299SOL     OW 7795   5.232   6.231   6.863
 2299SOL    HW1 7796   5.256   6.234   6.765
 2299SOL    HW2 7797   5.228   6.136   6.893
 2300SOL     OW 7798   1.778   5.456   1.386
 2300SOL    HW1 7799   1.749   5.492   1.298
 2300SOL    HW2 7800   1.866   5.495   1.411
 2301SOL     OW 7801   3.236   3.307   3.269
 2301SOL    HW1 7802   3.238   3.224   3.213
 2301SOL    HW2 7803   3.144   3.318   3.308
 2302SOL     OW 7804   3.911   5.802   2.642
 2302SOL    HW1 7805   3.947   5.838   2.556
 2302SOL    HW2 7806   3.944   5.859   2.718
 2303SOL     OW 7807   1.104   3.435   5.253
 2303SOL    HW1 7808   1.134   3.403   5.343
 2303SOL    HW2 7809   1.133   3.530   5.240
 2304SOL     OW 7810   2.769   0.138   3.585
 2304SOL    HW1 7811   2.803   0.109   3.496
 2304SOL    HW2 7812   2.846   0.158   3.646
 2305SOL     OW 7813   3.956   5.562   2.522
 2305SOL    HW1 7814   3.926   5.639   2.578
 2305SOL    HW2 7815   3.941   5.584   2.425
 2306SOL     OW 7816   1.935   4.791   1.897
 2306SOL    HW1 7817   1.880   4.846   1.834
 2306SOL    HW2 7818   1.892   4.702   1.911
 2307SOL     OW 7819   1.515   3.749   2.918
 2307SOL    HW1 7820   1.419   3.727   2.898
 2307SOL    HW2 7821   1.545   3.822   2.857
 2308SOL     OW 7822   0.813   1.060   6.618
 2308SOL    HW1 7823   0.789   1.046   6.714
 2308SOL    HW2 7824   0.743   1.020   6.560
 2309SOL     OW 7825   3.501   5.725   0.085
 2309SOL    HW1 7826   3.569   5.734   0.157
 2309SOL    HW2 7827   3.440   5.805   0.087
 2310SOL     OW 7828   6.088   0.060   1.880
 2310SOL    HW1 7829   6.177   0.017   1.865
 2310SOL    HW2 7830   6.055   0.098   1.793
 2311SOL     OW 7831   2.962   7.006   2.442
 2311SOL    HW1 7832   2.982   6.909   2.457
 2311SOL    HW2 7833   2.955   0.001   2.344
 2312SOL     OW 7834   3.540   0.121   2.815
 2312SOL    HW1 7835   3.524   0.047   2.750
 2312SOL    HW2 7836   3.636   0.121   2.842
 2313SOL     OW 7837   5.202   4.404   2.178
 2313SOL    HW1 7838   5.291   4.359   2.167
 2313SOL    HW2 7839   5.129   4.339   2.155
 2314SOL     OW 7840   5.981   0.526   3.649
 2314SOL    HW1 7841   5.996   0.533   3.748
 2314SOL    HW2 7842   6.043   0.588   3.601
 2315SOL     OW 7843   4.842   3.927   5.862
 2315SOL    HW1 7844   4.924   3.871   5.856
 2315SOL    HW2 7845   4.776   3.883   5.924
 2316SOL     OW 7846   2.801   0.673   6.018
 2316SOL    HW1 7847   2.829   0.768   6.031
 2316SOL    HW2 7848   2.869   0.625   5.963
 2317SOL     OW 7849   6.397   6.262   3.971
 2317SOL    HW1 7850   6.478   6.228   4.019
 2317SOL    HW2 7851   6.320   6.200   3.987
 2318SOL     OW 7852   2.124   3.696   4.519
 2318SOL    HW1 7853   2.141   3.791   4.493
 2318SOL    HW2 7854   2.146   3.683   4.616
 2319SOL     OW 7855   3.049   5.104   4.598
 2319SOL    HW1 7856   3.028   5.108   4.501
 2319SOL    HW2 7857   3.099   5.020   4.618
 2320SOL     OW 7858   0.859   2.808   5.969
 2320SOL    HW1 7859   0.805   2.741   6.019
 2320SOL    HW2 7860   0.860   2.784   5.872
 2321SOL     OW 7861   2.465   5.102   6.501
 2321SOL    HW1 7862   2.513   5.183   6.533
 2321SOL    HW2 7863   2.531   5.041   6.456
 2322SOL     OW 7864   1.752   3.945   2.157
 2322SOL    HW1 7865   1.750   4.041   2.184
 2322SOL    HW2 7866   1.744   3.888   2.239
 2323SOL     OW 7867   3.217   5.085   1.866
 2323SOL    HW1 7868   3.297   5.025   1.866
 2323SOL    HW2 7869   3.149   5.048   1.802
 2324SOL     OW 7870   0.046   6.013   1.843
 2324SOL    HW1 7871   6.984   5.988   1.796
 2324SOL    HW2 7872   0.124   5.986   1.787
 2325SOL     OW 7873   6.822   5.053   1.653
 2325SOL    HW1 7874   6.818   4.959   1.685
 2325SOL    HW2 7875   6.854   5.113   1.727
 2326SOL     OW 7876   1.574   6.064   6.740
 2326SOL    HW1 7877   1.654   6.124   6.729
 2326SOL    HW2 7878   1.552   6.056   6.837
 2327SOL     OW 7879   0.394   0.541   3.054
 2327SOL    HW1 7880   0.324   0.564   2.987
 2327SOL    HW2 7881   0.450   0.466   3.019
 2328SOL     OW 7882   1.378   1.838   2.268
 2328SOL    HW1 7883   1.411   1.930   2.289
 2328SOL    HW2 7884   1.376   1.783   2.352
 2329SOL     OW 7885   0.822   4.343   4.890
 2329SOL    HW1 7886   0.759   4.282   4.938
 2329SOL    HW2 7887   0.774   4.427   4.865
 2330SOL     OW 7888   7.008   2.976   0.507
 2330SOL    HW1 7889   0.005   2.943   0.600
 2330SOL    HW2 7890   7.003   3.076   0.507
 2331SOL     OW 7891   3.132   5.223   6.864
 2331SOL    HW1 7892   3.074   5.291   6.819
 2331SOL    HW2 7893   3.225   5.232   6.830
 2332SOL     OW 7894   6.287   0.012   5.850
 2332SOL    HW1 7895   6.244   0.007   5.940
 2332SOL    HW2 7896   6.285   0.106   5.817
 2333SOL     OW 7897   6.810   4.719   3.098
 2333SOL    HW1 7898   6.717   4.691   3.124
 2333SOL    HW2 7899   6.805   4.777   3.017
 2334SOL     OW 7900   1.346   1.635   6.830
 2334SOL    HW1 7901   1.299   1.701   6.889
 2334SOL    HW2 7902   1.280   1.595   6.766
 2335SOL     OW 7903   5.693   0.495   4.253
 2335SOL    HW1 7904   5.787   0.527   4.258
 2335SOL    HW2 7905   5.685   0.407   4.300
 2336SOL     OW 7906   2.779   1.940   4.111
 2336SOL    HW1 7907   2.808   1.964   4.019
 2336SOL    HW2 7908   2.690   1.981   4.131
 2337SOL     OW 7909   3.985   1.578   1.723
 2337SOL    HW1 7910   3.907   1.580   1.785
 2337SOL    HW2 7911   4.036   1.664   1.730
 2338SOL     OW 7912   0.793   3.454   4.504
 2338SOL    HW1 7913   0.822   3.406   4.421
 2338SOL    HW2 7914   0.764   3.386   4.572
 2339SOL     OW 7915   2.901   3.356   3.224
 2339SOL    HW1 7916   2.909   3.456   3.218
 2339SOL    HW2 7917   2.884   3.319   3.132
 2340SOL     OW 7918   0.395   4.861   0.160
 2340SOL    HW1 7919   0.397   4.957   0.133
 2340SOL    HW2 7920   0.483   4.818   0.138
 2341SOL     OW 7921   2.597   5.008   2.308
 2341SOL    HW1 7922   2.601   5.002   2.208
 2341SOL    HW2 7923   2.682   5.049   2.342
 2342SOL     OW 7924   1.997   6.665   4.563
 2342SOL    HW1 7925   2.040   6.697   4.648
 2342SOL    HW2 7926   1.985   6.742   4.501
 2343SOL     OW 7927   2.293   6.039   2.849
 2343SOL    HW1 7928   2.329   5.945   2.849
 2343SOL    HW2 7929   2.367   6.103   2.863
 2344SOL     OW 7930   0.066   5.883   0.198
 2344SOL    HW1 7931   0.040   5.972   0.159
 2344SOL    HW2 7932   0.048   5.811   0.131
 2345SOL     OW 7933   2.736   5.716   4.855
 2345SOL    HW1 7934   2.790   5.762   4.785
 2345SOL    HW2 7935   2.638   5.730   4.836
 2346SOL     OW 7936   4.018   3.213   5.234
 2346SOL    HW1 7937   4.043   3.211   5.137
 2346SOL    HW2 7938   3.982   3.304   5.257
 2347SOL     OW 7939   1.775   1.792   1.519
 2347SOL    HW1 7940   1.828   1.863   1.566
 2347SOL    HW2 7941   1.699   1.763   1.577
 2348SOL     OW 7942   2.384   6.486   3.686
 2348SOL    HW1 7943   2.468   6.465   3.636
 2348SOL    HW2 7944   2.353   6.404   3.735
 2349SOL     OW 7945   0.745   4.436   6.500
 2349SOL    HW1 7946   0.673   4.370   6.480
 2349SOL    HW2 7947   0.798   4.453   6.417
 2350SOL     OW 7948   5.955   4.573   6.048
 2350SOL    HW1 7949   5.880   4.552   6.111
 2350SOL    HW2 7950   6.012   4.645   6.086
 2351SOL     OW 7951   3.576   4.959   4.090
 2351SOL    HW1 7952   3.551   4.962   4.186
 2351SOL    HW2 7953   3.555   5.046   4.046
 2352SOL     OW 7954   0.333   3.187   3.108
 2352SOL    HW1 7955   0.267   3.121   3.146
 2352SOL    HW2 7956   0.304   3.280   3.130
 2353SOL     OW 7957   4.069   4.813   4.573
 2353SOL    HW1 7958   4.125   4.806   4.656
 2353SOL    HW2 7959   4.083   4.902   4.530
 2354SOL     OW 7960   2.248   2.253   4.660
 2354SOL    HW1 7961   2.177   2.184   4.642
 2354SOL    HW2 7962   2.218   2.313   4.734
 2355SOL     OW 7963   1.983   6.685   5.895
 2355SOL    HW1 7964   1.979   6.659   5.799
 2355SOL    HW2 7965   1.947   6.777   5.907
 2356SOL     OW 7966   1.052   2.809   6.527
 2356SOL    HW1 7967   1.005   2.852   6.604
 2356SOL    HW2 7968   1.148   2.838   6.527
 2357SOL     OW 7969   3.974   1.154   1.909
 2357SOL    HW1 7970   4.027   1.237   1.892
 2357SOL    HW2 7971   4.036   1.078   1.929
 2358SOL     OW 7972   2.958   5.268   5.585
 2358SOL    HW1 7973   2.931   5.175   5.560
 2358SOL    HW2 7974   2.877   5.322   5.607
 2359SOL     OW 7975   0.306   0.860   6.067
 2359SOL    HW1 7976   0.227   0.801   6.085
 2359SOL    HW2 7977   0.309   0.882   5.970
 2360SOL     OW 7978   5.938   3.963   0.605
 2360SOL    HW1 7979   5.999   3.980   0.528
 2360SOL    HW2 7980   5.857   4.021   0.597
 2361SOL     OW 7981   3.084   1.268   6.357
 2361SOL    HW1 7982   3.008   1.332   6.374
 2361SOL    HW2 7983   3.140   1.302   6.281
 2362SOL     OW 7984   2.859   5.791   3.614
 2362SOL    HW1 7985   2.936   5.729   3.628
 2362SOL    HW2 7986   2.890   5.872   3.564
 2363SOL     OW 7987   3.355   1.793   4.073
 2363SOL    HW1 7988   3.308   1.862   4.017
 2363SOL    HW2 7989   3.356   1.822   4.168
 2364SOL     OW 7990   1.984   2.567   2.274
 2364SOL    HW1 7991   2.038   2.521   2.344
 2364SOL    HW2 7992   2.031   2.651   2.246
 2365SOL     OW 7993   6.649   1.757   6.770
 2365SOL    HW1 7994   6.712   1.831   6.797
 2365SOL    HW2 7995   6.692   1.669   6.787
 2366SOL     OW 7996   2.657   5.525   0.163
 2366SOL    HW1 7997   2.746   5.507   0.121
 2366SOL    HW2 7998   2.669   5.537   0.262
 2367SOL     OW 7999   2.111   3.723   0.861
 2367SOL    HW1 8000   2.170   3.698   0.785
 2367SOL    HW2 8001   2.140   3.811   0.898
 2368SOL     OW 8002   5.648   6.577   4.753
 2368SOL    HW1 8003   5.740   6.616   4.742
 2368SOL    HW2 8004   5.643   6.529   4.841
 2369SOL     OW 8005   1.937   0.035   4.662
 2369SOL    HW1 8006   1.870   6.997   4.704
 2369SOL    HW2 8007   1.890   0.114   4.623
 2370SOL     OW 8008   5.785   3.296   0.170
 2370SOL    HW1 8009   5.874   3.255   0.190
 2370SOL    HW2 8010   5.796   3.367   0.100
 2371SOL     OW 8011   2.307   6.914   1.984
 2371SOL    HW1 8012   2.312   6.817   1.959
 2371SOL    HW2 8013   2.338   6.926   2.078
 2372SOL     OW 8014   6.554   2.522   1.902
 2372SOL    HW1 8015   6.611   2.585   1.955
 2372SOL    HW2 8016   6.606   2.491   1.822
 2373SOL     OW 8017   1.251   3.613   5.716
 2373SOL    HW1 8018   1.215   3.528   5.678
 2373SOL    HW2 8019   1.213   3.691   5.665
 2374SOL     OW 8020   6.891   1.959   4.603
 2374SOL    HW1 8021   6.962   1.991   4.665
 2374SOL    HW2 8022   6.891   2.014   4.519
 2375SOL     OW 8023   3.023   5.203   6.307
 2375SOL    HW1 8024   2.941   5.206   6.364
 2375SOL    HW2 8025   2.997   5.201   6.210
 2376SOL     OW 8026   6.668   3.019   4.048
 2376SOL    HW1 8027   6.690   2.978   4.137
 2376SOL    HW2 8028   6.575   3.055   4.051
 2377SOL     OW 8029   3.572   3.879   3.445
 2377SOL    HW1 8030   3.546   3.958   3.389
 2377SOL    HW2 8031   3.508   3.872   3.522
 2378SOL     OW 8032   5.235   1.618   0.197
 2378SOL    HW1 8033   5.140   1.587   0.199
 2378SOL    HW2 8034   5.238   1.717   0.199
 2379SOL     OW 8035   6.617   0.921   0.337
 2379SOL    HW1 8036   6.530   0.887   0.374
 2379SOL    HW2 8037   6.647   1.000   0.391
 2380SOL     OW 8038   6.651   2.420   0.306
 2380SOL    HW1 8039   6.597   2.503   0.296
 2380SOL    HW2 8040   6.593   2.347   0.342
 2381SOL     OW 8041   2.803   5.568   3.107
 2381SOL    HW1 8042   2.763   5.618   3.184
 2381SOL    HW2 8043   2.741   5.573   3.029
 2382SOL     OW 8044   1.618   4.072   4.337
 2382SOL    HW1 8045   1.679   4.030   4.270
 2382SOL    HW2 8046   1.654   4.056   4.429
 2383SOL     OW 8047   6.183   0.112   0.809
 2383SOL    HW1 8048   6.264   0.153   0.767
 2383SOL    HW2 8049   6.130   0.065   0.738
 2384SOL     OW 8050   5.572   1.112   2.604
 2384SOL    HW1 8051   5.485   1.083   2.643
 2384SOL    HW2 8052   5.595   1.054   2.525
 2385SOL     OW 8053   6.965   0.532   0.229
 2385SOL    HW1 8054   6.906   0.603   0.270
 2385SOL    HW2 8055   7.023   0.574   0.159
 2386SOL     OW 8056   5.339   5.983   4.486
 2386SOL    HW1 8057   5.288   5.905   4.450
 2386SOL    HW2 8058   5.437   5.964   4.479
 2387SOL     OW 8059   2.026   1.387   4.031
 2387SOL    HW1 8060   2.036   1.387   3.931
 2387SOL    HW2 8061   1.987   1.300   4.060
 2388SOL     OW 8062   0.021   2.081   3.511
 2388SOL    HW1 8063   7.009   1.993   3.481
 2388SOL    HW2 8064   6.969   2.141   3.537
 2389SOL     OW 8065   4.309   4.788   3.395
 2389SOL    HW1 8066   4.260   4.769   3.310
 2389SOL    HW2 8067   4.392   4.732   3.400
 2390SOL     OW 8068   3.768   3.049   3.738
 2390SOL    HW1 8069   3.730   2.983   3.674
 2390SOL    HW2 8070   3.722   3.040   3.827
 2391SOL     OW 8071   5.504   4.495   6.320
 2391SOL    HW1 8072   5.522   4.480   6.417
 2391SOL    HW2 8073   5.414   4.457   6.297
 2392SOL     OW 8074   3.258   6.437   5.900
 2392SOL    HW1 8075   3.234   6.367   5.833
 2392SOL    HW2 8076   3.186   6.507   5.904
 2393SOL     OW 8077   5.339   3.638   6.367
 2393SOL    HW1 8078   5.252   3.673   6.333
 2393SOL    HW2 8079   5.361   3.551   6.321
 2394SOL     OW 8080   0.764   3.848   5.069
 2394SOL    HW1 8081   0.844   3.865   5.011
 2394SOL    HW2 8082   0.755   3.750   5.085
 2395SOL     OW 8083   4.938   0.049   6.087
 2395SOL    HW1 8084   4.868   0.021   6.021
 2395SOL    HW2 8085   4.970   0.141   6.066
 2396SOL     OW 8086   3.880   4.987   1.026
 2396SOL    HW1 8087   3.950   5.005   0.957
 2396SOL    HW2 8088   3.911   4.915   1.087
 2397SOL     OW 8089   0.585   3.960   5.231
 2397SOL    HW1 8090   0.581   3.886   5.297
 2397SOL    HW2 8091   0.654   3.939   5.162
 2398SOL     OW 8092   4.744   4.283   6.594
 2398SOL    HW1 8093   4.693   4.228   6.661
 2398SOL    HW2 8094   4.829   4.237   6.570
 2399SOL     OW 8095   4.847   0.808   0.724
 2399SOL    HW1 8096   4.932   0.769   0.759
 2399SOL    HW2 8097   4.780   0.814   0.798
 2400SOL     OW 8098   2.963   3.673   0.778
 2400SOL    HW1 8099   2.991   3.633   0.691
 2400SOL    HW2 8100   3.030   3.650   0.848
 2401SOL     OW 8101   5.511   6.152   0.418
 2401SOL    HW1 8102   5.498   6.111   0.328
 2401SOL    HW2 8103   5.584   6.104   0.467
 2402SOL     OW 8104   0.608   0.417   4.235
 2402SOL    HW1 8105   0.581   0.352   4.165
 2402SOL    HW2 8106   0.529   0.440   4.292
 2403SOL     OW 8107   1.533   2.157   6.561
 2403SOL    HW1 8108   1.554   2.080   6.621
 2403SOL    HW2 8109   1.476   2.125   6.486
 2404SOL     OW 8110   2.727   1.206   1.108
 2404SOL    HW1 8111   2.672   1.249   1.180
 2404SOL    HW2 8112   2.753   1.114   1.138
 2405SOL     OW 8113   3.328   3.559   2.253
 2405SOL    HW1 8114   3.423   3.592   2.245
 2405SOL    HW2 8115   3.317   3.508   2.338
 2406SOL     OW 8116   3.456   0.736   0.868
 2406SOL    HW1 8117   3.509   0.651   0.870
 2406SOL    HW2 8118   3.409   0.744   0.780
 2407SOL     OW 8119   5.772   1.940   3.130
 2407SOL    HW1 8120   5.823   1.864   3.090
 2407SOL    HW2 8121   5.697   1.904   3.187
 2408SOL     OW 8122   4.509   4.527   2.135
 2408SOL    HW1 8123   4.504   4.433   2.100
 2408SOL    HW2 8124   4.604   4.557   2.140
 2409SOL     OW 8125   2.462   4.465   2.207
 2409SOL    HW1 8126   2.533   4.530   2.233
 2409SOL    HW2 8127   2.473   4.437   2.112
 2410SOL     OW 8128   3.419   2.957   4.664
 2410SOL    HW1 8129   3.328   2.928   4.693
 2410SOL    HW2 8130   3.412   3.010   4.580
 2411SOL     OW 8131   5.588   6.288   4.356
 2411SOL    HW1 8132   5.493   6.265   4.375
 2411SOL    HW2 8133   5.631   6.324   4.438
 2412SOL     OW 8134   5.654   4.539   1.512
 2412SOL    HW1 8135   5.558   4.511   1.520
 2412SOL    HW2 8136   5.710   4.483   1.573
 2413SOL     OW 8137   6.388   0.788   1.236
 2413SOL    HW1 8138   6.375   0.690   1.224
 2413SOL    HW2 8139   6.486   0.809   1.233
 2414SOL     OW 8140   4.702   4.140   3.157
 2414SOL    HW1 8141   4.690   4.170   3.251
 2414SOL    HW2 8142   4.670   4.211   3.095
 2415SOL     OW 8143   6.115   1.834   2.969
 2415SOL    HW1 8144   6.194   1.790   2.926
 2415SOL    HW2 8145   6.037   1.771   2.970
 2416SOL     OW 8146   5.229   2.327   5.287
 2416SOL    HW1 8147   5.288   2.288   5.357
 2416SOL    HW2 8148   5.151   2.267   5.272
 2417SOL     OW 8149   3.122   3.602   4.813
 2417SOL    HW1 8150   3.158   3.598   4.906
 2417SOL    HW2 8151   3.188   3.561   4.750
 2418SOL     OW 8152   4.028   3.093   4.340
 2418SOL    HW1 8153   4.112   3.040   4.329
 2418SOL    HW2 8154   3.977   3.091   4.254
 2419SOL     OW 8155   0.041   6.469   3.832
 2419SOL    HW1 8156   6.995   6.534   3.864
 2419SOL    HW2 8157   0.040   6.388   3.891
 2420SOL     OW 8158   3.302   0.563   2.297
 2420SOL    HW1 8159   3.207   0.543   2.324
 2420SOL    HW2 8160   3.328   0.653   2.332
 2421SOL     OW 8161   1.870   2.757   4.855
 2421SOL    HW1 8162   1.825   2.669   4.870
 2421SOL    HW2 8163   1.931   2.751   4.776
 2422SOL     OW 8164   5.062   1.523   0.469
 2422SOL    HW1 8165   5.052   1.605   0.413
 2422SOL    HW2 8166   5.125   1.459   0.425
 2423SOL     OW 8167   1.891   6.620   2.159
 2423SOL    HW1 8168   1.882   6.544   2.222
 2423SOL    HW2 8169   1.951   6.594   2.083
 2424SOL     OW 8170   6.455   0.075   6.966
 2424SOL    HW1 8171   6.531   0.129   6.931
 2424SOL    HW2 8172   6.394   0.133   7.019
 2425SOL     OW 8173   5.599   0.273   3.797
 2425SOL    HW1 8174   5.571   0.368   3.811
 2425SOL    HW2 8175   5.520   0.213   3.813
 2426SOL     OW 8176   1.712   5.325   5.732
 2426SOL    HW1 8177   1.749   5.293   5.645
 2426SOL    HW2 8178   1.735   5.259   5.804
 2427SOL     OW 8179   5.837   5.616   5.534
 2427SOL    HW1 8180   5.759   5.679   5.537
 2427SOL    HW2 8181   5.825   5.546   5.604
 2428SOL     OW 8182   0.725   0.597   1.902
 2428SOL    HW1 8183   0.759   0.656   1.976
 2428SOL    HW2 8184   0.741   0.502   1.926
 2429SOL     OW 8185   5.729   5.633   1.898
 2429SOL    HW1 8186   5.669   5.709   1.873
 2429SOL    HW2 8187   5.717   5.610   1.995
 2430SOL     OW 8188   6.396   1.123   2.128
 2430SOL    HW1 8189   6.407   1.025   2.112
 2430SOL    HW2 8190   6.415   1.144   2.224
 2431SOL     OW 8191   4.593   1.459   2.360
 2431SOL    HW1 8192   4.529   1.417   2.424
 2431SOL    HW2 8193   4.664   1.508   2.410
 2432SOL     OW 8194   4.541   6.442   1.970
 2432SOL    HW1 8195   4.619   6.447   2.034
 2432SOL    HW2 8196   4.575   6.451   1.876
 2433SOL     OW 8197   4.648   0.810   6.860
 2433SOL    HW1 8198   4.657   0.718   6.898
 2433SOL    HW2 8199   4.664   0.878   6.932
 2434SOL     OW 8200   3.873   0.922   5.703
 2434SOL    HW1 8201   3.924   0.961   5.626
 2434SOL    HW2 8202   3.928   0.853   5.748
 2435SOL     OW 8203   5.800   5.668   5.039
 2435SOL    HW1 8204   5.726   5.617   4.997
 2435SOL    HW2 8205   5.818   5.633   5.131
 2436SOL     OW 8206   2.269   5.934   6.820
 2436SOL    HW1 8207   2.309   5.843   6.821
 2436SOL    HW2 8208   2.276   5.972   6.728
 2437SOL     OW 8209   6.198   6.711   6.085
 2437SOL    HW1 8210   6.240   6.627   6.051
 2437SOL    HW2 8211   6.229   6.729   6.179
 2438SOL     OW 8212   2.758   2.290   0.911
 2438SOL    HW1 8213   2.829   2.350   0.948
 2438SOL    HW2 8214   2.801   2.212   0.866
 2439SOL     OW 8215   6.853   4.293   6.041
 2439SOL    HW1 8216   6.773   4.271   6.096
 2439SOL    HW2 8217   6.830   4.363   5.974
 2440SOL     OW 8218   5.089   5.016   5.756
 2440SOL    HW1 8219   5.055   4.927   5.787
 2440SOL    HW2 8220   5.176   5.004   5.708
 2441SOL     OW 8221   6.881   2.137   1.021
 2441SOL    HW1 8222   6.844   2.083   1.097
 2441SOL    HW2 8223   6.963   2.185   1.051
 2442SOL     OW 8224   1.210   3.706   5.264
 2442SOL    HW1 8225   1.267   3.778   5.303
 2442SOL    HW2 8226   1.119   3.709   5.305
 2443SOL     OW 8227   2.625   3.912   6.313
 2443SOL    HW1 8228   2.645   4.008   6.297
 2443SOL    HW2 8229   2.659   3.857   6.237
 2444SOL     OW 8230   2.261   4.296   6.020
 2444SOL    HW1 8231   2.301   4.244   6.096
 2444SOL    HW2 8232   2.161   4.286   6.022
 2445SOL     OW 8233   0.227   0.802   0.654
 2445SOL    HW1 8234   0.178   0.889   0.660
 2445SOL    HW2 8235   0.322   0.819   0.628
 2446SOL     OW 8236   6.133   4.478   4.597
 2446SOL    HW1 8237   6.218   4.441   4.559
 2446SOL    HW2 8238   6.089   4.409   4.654
 2447SOL     OW 8239   1.221   1.540   0.567
 2447SOL    HW1 8240   1.226   1.634   0.601
 2447SOL    HW2 8241   1.273   1.533   0.482
 2448SOL     OW 8242   0.947   7.003   4.643
 2448SOL    HW1 8243   0.935   6.904   4.648
 2448SOL    HW2 8244   0.993   0.003   4.557
 2449SOL     OW 8245   6.834   3.722   6.314
 2449SOL    HW1 8246   6.803   3.658   6.385
 2449SOL    HW2 8247   6.914   3.684   6.268
 2450SOL     OW 8248   2.605   4.617   2.863
 2450SOL    HW1 8249   2.694   4.573   2.867
 2450SOL    HW2 8250   2.537   4.551   2.832
 2451SOL     OW 8251   2.372   5.916   3.785
 2451SOL    HW1 8252   2.360   5.919   3.686
 2451SOL    HW2 8253   2.351   5.824   3.819
 2452SOL     OW 8254   1.461   3.218   3.157
 2452SOL    HW1 8255   1.496   3.142   3.101
 2452SOL    HW2 8256   1.533   3.250   3.218
 2453SOL     OW 8257   6.372   4.955   1.557
 2453SOL    HW1 8258   6.355   4.858   1.574
 2453SOL    HW2 8259   6.425   4.966   1.474
 2454SOL     OW 8260   3.492   0.759   1.451
 2454SOL    HW1 8261   3.572   0.765   1.511
 2454SOL    HW2 8262   3.448   0.670   1.463
 2455SOL     OW 8263   5.061   5.715   0.358
 2455SOL    HW1 8264   5.013   5.802   0.342
 2455SOL    HW2 8265   4.994   5.641   0.363
 2456SOL     OW 8266   5.180   6.020   1.809
 2456SOL    HW1 8267   5.118   6.099   1.821
 2456SOL    HW2 8268   5.179   5.965   1.892
 2457SOL     OW 8269   5.593   6.524   1.435
 2457SOL    HW1 8270   5.568   6.604   1.381
 2457SOL    HW2 8271   5.688   6.499   1.416
 2458SOL     OW 8272   0.908   5.330   2.554
 2458SOL    HW1 8273   0.885   5.324   2.457
 2458SOL    HW2 8274   0.942   5.422   2.575
 2459SOL     OW 8275   2.150   0.457   0.754
 2459SOL    HW1 8276   2.238   0.468   0.709
 2459SOL    HW2 8277   2.150   0.508   0.840
 2460SOL     OW 8278   3.166   6.088   1.585
 2460SOL    HW1 8279   3.222   6.014   1.624
 2460SOL    HW2 8280   3.226   6.161   1.552
 2461SOL     OW 8281   5.321   0.696   1.990
 2461SOL    HW1 8282   5.342   0.726   2.084
 2461SOL    HW2 8283   5.358   0.605   1.975
 2462SOL     OW 8284   2.056   5.540   6.415
 2462SOL    HW1 8285   2.143   5.490   6.419
 2462SOL    HW2 8286   1.982   5.477   6.390
 2463SOL     OW 8287   6.069   1.948   3.642
 2463SOL    HW1 8288   6.119   2.030   3.670
 2463SOL    HW2 8289   6.130   1.885   3.594
 2464SOL     OW 8290   1.216   3.362   1.210
 2464SOL    HW1 8291   1.303   3.314   1.217
 2464SOL    HW2 8292   1.153   3.309   1.153
 2465SOL     OW 8293   6.407   6.115   3.024
 2465SOL    HW1 8294   6.491   6.061   3.023
 2465SOL    HW2 8295   6.342   6.074   3.088
 2466SOL     OW 8296   3.204   1.731   2.367
 2466SOL    HW1 8297   3.295   1.730   2.326
 2466SOL    HW2 8298   3.178   1.826   2.388
 2467SOL     OW 8299   6.772   1.205   6.016
 2467SOL    HW1 8300   6.777   1.234   6.112
 2467SOL    HW2 8301   6.839   1.132   6.000
 2468SOL     OW 8302   0.049   5.067   1.373
 2468SOL    HW1 8303   0.104   5.146   1.345
 2468SOL    HW2 8304   0.076   5.039   1.465
 2469SOL     OW 8305   2.282   2.899   5.552
 2469SOL    HW1 8306   2.368   2.849   5.565
 2469SOL    HW2 8307   2.275   2.929   5.457
 2470SOL     OW 8308   4.791   2.443   0.235
 2470SOL    HW1 8309   4.879   2.489   0.248
 2470SOL    HW2 8310   4.717   2.504   0.262
 2471SOL     OW 8311   0.827   6.950   3.011
 2471SOL    HW1 8312   0.730   6.965   3.032
 2471SOL    HW2 8313   0.836   6.871   2.951
 2472SOL     OW 8314   5.761   1.781   3.744
 2472SOL    HW1 8315   5.832   1.843   3.779
 2472SOL    HW2 8316   5.702   1.753   3.820
 2473SOL     OW 8317   0.980   6.114   4.218
 2473SOL    HW1 8318   1.075   6.103   4.187
 2473SOL    HW2 8319   0.963   6.055   4.296
 2474SOL     OW 8320   6.968   4.568   5.176
 2474SOL    HW1 8321   0.008   4.644   5.191
 2474SOL    HW2 8322   6.978   4.535   5.082
 2475SOL     OW 8323   4.780   2.237   6.997
 2475SOL    HW1 8324   4.854   2.205   0.033
 2475SOL    HW2 8325   4.736   2.159   6.953
 2476SOL     OW 8326   1.223   1.922   4.521
 2476SOL    HW1 8327   1.240   1.904   4.424
 2476SOL    HW2 8328   1.289   1.990   4.554
 2477SOL     OW 8329   4.674   4.704   0.874
 2477SOL    HW1 8330   4.575   4.697   0.866
 2477SOL    HW2 8331   4.698   4.728   0.969
 2478SOL     OW 8332   6.696   6.974   3.120
 2478SOL    HW1 8333   6.603   6.940   3.112
 2478SOL    HW2 8334   6.695   0.050   3.132
 2479SOL     OW 8335   0.110   3.244   0.345
 2479SOL    HW1 8336   0.170   3.314   0.306
 2479SOL    HW2 8337   0.084   3.270   0.438
 2480SOL     OW 8338   0.417   3.435   1.479
 2480SOL    HW1 8339   0.442   3.338   1.482
 2480SOL    HW2 8340   0.342   3.452   1.542
 2481SOL     OW 8341   4.622   5.096   2.240
 2481SOL    HW1 8342   4.713   5.057   2.253
 2481SOL    HW2 8343   4.565   5.033   2.188
 2482SOL     OW 8344   5.017   2.306   4.515
 2482SOL    HW1 8345   5.016   2.224   4.571
 2482SOL    HW2 8346   5.062   2.381   4.565
 2483SOL     OW 8347   0.905   2.125   6.659
 2483SOL    HW1 8348   0.908   2.068   6.741
 2483SOL    HW2 8349   0.830   2.094   6.600
 2484SOL     OW 8350   3.295   2.283   6.372
 2484SOL    HW1 8351   3.225   2.212   6.362
 2484SOL    HW2 8352   3.355   2.281   6.292
 2485SOL     OW 8353   0.204   5.900   2.209
 2485SOL    HW1 8354   0.151   5.827   2.165
 2485SOL    HW2 8355   0.199   5.983   2.154
 2486SOL     OW 8356   1.419   5.593   3.100
 2486SOL    HW1 8357   1.460   5.653   3.169
 2486SOL    HW2 8358   1.321   5.611   3.095
 2487SOL     OW 8359   3.255   1.078   0.960
 2487SOL    HW1 8360   3.238   1.166   1.003
 2487SOL    HW2 8361   3.338   1.084   0.904
 2488SOL     OW 8362   2.920   6.279   0.070
 2488SOL    HW1 8363   2.947   6.335   0.148
 2488SOL    HW2 8364   2.991   6.281   0.000
 2489SOL     OW 8365   0.632   5.558   4.692
 2489SOL    HW1 8366   0.618   5.472   4.641
 2489SOL    HW2 8367   0.573   5.629   4.653
 2490SOL     OW 8368   5.193   3.161   1.508
 2490SOL    HW1 8369   5.201   3.111   1.422
 2490SOL    HW2 8370   5.102   3.202   1.515
 2491SOL     OW 8371   1.759   4.565   2.207
 2491SOL    HW1 8372   1.732   4.490   2.267
 2491SOL    HW2 8373   1.680   4.624   2.189
 2492SOL     OW 8374   4.011   3.146   6.569
 2492SOL    HW1 8375   3.993   3.128   6.666
 2492SOL    HW2 8376   3.957   3.083   6.513
 2493SOL     OW 8377   6.705   2.065   3.412
 2493SOL    HW1 8378   6.760   2.025   3.338
 2493SOL    HW2 8379   6.625   2.110   3.373
 2494SOL     OW 8380   5.050   3.412   1.974
 2494SOL    HW1 8381   5.051   3.379   2.068
 2494SOL    HW2 8382   5.014   3.341   1.914
 2495SOL     OW 8383   6.165   0.973   4.886
 2495SOL    HW1 8384   6.177   0.984   4.984
 2495SOL    HW2 8385   6.180   1.060   4.840
 2496SOL     OW 8386   1.125   6.701   0.206
 2496SOL    HW1 8387   1.192   6.724   0.276
 2496SOL    HW2 8388   1.033   6.725   0.238
 2497SOL     OW 8389   5.505   1.873   6.126
 2497SOL    HW1 8390   5.527   1.971   6.121
 2497SOL    HW2 8391   5.413   1.861   6.162
 2498SOL     OW 8392   1.507   3.428   4.906
 2498SOL    HW1 8393   1.431   3.491   4.894
 2498SOL    HW2 8394   1.481   3.356   4.971
 2499SOL     OW 8395   6.160   0.018   5.271
 2499SOL    HW1 8396   6.143   6.996   5.183
 2499SOL    HW2 8397   6.168   6.973   5.343
 2500SOL     OW 8398   4.500   3.408   6.766
 2500SOL    HW1 8399   4.455   3.331   6.811
 2500SOL    HW2 8400   4.593   3.381   6.739
 2501SOL     OW 8401   6.640   4.558   0.109
 2501SOL    HW1 8402   6.653   4.468   0.066
 2501SOL    HW2 8403   6.682   4.628   0.053
 2502SOL     OW 8404   2.110   6.385   3.502
 2502SOL    HW1 8405   2.132   6.300   3.549
 2502SOL    HW2 8406   2.194   6.430   3.472
 2503SOL     OW 8407   4.676   5.000   4.894
 2503SOL    HW1 8408   4.722   5.084   4.865
 2503SOL    HW2 8409   4.589   5.023   4.937
 2504SOL     OW 8410   1.776   4.017   3.960
 2504SOL    HW1 8411   1.769   4.117   3.955
 2504SOL    HW2 8412   1.816   3.991   4.048
 2505SOL     OW 8413   4.775   5.812   3.874
 2505SOL    HW1 8414   4.704   5.869   3.915
 2505SOL    HW2 8415   4.822   5.760   3.945
 2506SOL     OW 8416   0.170   2.074   6.519
 2506SOL    HW1 8417   0.247   2.137   6.525
 2506SOL    HW2 8418   0.178   2.018   6.437
 2507SOL     OW 8419   0.035   6.024   0.464
 2507SOL    HW1 8420   0.029   5.986   0.372
 2507SOL    HW2 8421   0.087   6.109   0.461
 2508SOL     OW 8422   2.358   2.473   2.820
 2508SOL    HW1 8423   2.318   2.503   2.733
 2508SOL    HW2 8424   2.293   2.413   2.867
 2509SOL     OW 8425   5.176   2.366   3.721
 2509SOL    HW1 8426   5.193   2.284   3.666
 2509SOL    HW2 8427   5.078   2.375   3.737
 2510SOL     OW 8428   3.828   5.964   1.087
 2510SOL    HW1 8429   3.738   5.978   1.128
 2510SOL    HW2 8430   3.839   6.026   1.009
 2511SOL     OW 8431   1.648   0.036   4.412
 2511SOL    HW1 8432   1.602   0.032   4.501
 2511SOL    HW2 8433   1.654   6.967   4.374
 2512SOL     OW 8434   4.776   2.810   4.912
 2512SOL    HW1 8435   4.865   2.801   4.867
 2512SOL    HW2 8436   4.790   2.836   5.008
 2513SOL     OW 8437   0.518   4.171   0.675
 2513SOL    HW1 8438   0.601   4.129   0.710
 2513SOL    HW2 8439   0.439   4.139   0.728
 2514SOL     OW 8440   1.319   1.122   3.662
 2514SOL    HW1 8441   1.366   1.210   3.669
 2514SOL    HW2 8442   1.274   1.101   3.749
 2515SOL     OW 8443   1.183   5.413   0.416
 2515SOL    HW1 8444   1.247   5.447   0.485
 2515SOL    HW2 8445   1.119   5.349   0.458
 2516SOL     OW 8446   5.212   6.262   4.163
 2516SOL    HW1 8447   5.192   6.292   4.256
 2516SOL    HW2 8448   5.270   6.329   4.117
 2517SOL     OW 8449   2.409   4.930   0.313
 2517SOL    HW1 8450   2.438   4.864   0.382
 2517SOL    HW2 8451   2.479   4.936   0.241
 2518SOL     OW 8452   2.685   2.361   6.566
 2518SOL    HW1 8453   2.743   2.441   6.548
 2518SOL    HW2 8454   2.675   2.349   6.665
 2519SOL     OW 8455   5.068   3.986   4.190
 2519SOL    HW1 8456   5.026   3.896   4.199
 2519SOL    HW2 8457   5.165   3.979   4.211
 2520SOL     OW 8458   2.131   4.303   2.437
 2520SOL    HW1 8459   2.119   4.357   2.354
 2520SOL    HW2 8460   2.053   4.241   2.449
 2521SOL     OW 8461   5.510   6.544   5.179
 2521SOL    HW1 8462   5.512   6.540   5.079
 2521SOL    HW2 8463   5.466   6.629   5.208
 2522SOL     OW 8464   1.141   2.985   4.762
 2522SOL    HW1 8465   1.041   2.991   4.761
 2522SOL    HW2 8466   1.179   3.076   4.777
 2523SOL     OW 8467   0.474   3.170   6.815
 2523SOL    HW1 8468   0.384   3.202   6.847
 2523SOL    HW2 8469   0.462   3.107   6.739
 2524SOL     OW 8470   1.104   6.686   5.141
 2524SOL    HW1 8471   1.116   6.712   5.045
 2524SOL    HW2 8472   1.180   6.627   5.169
 2525SOL     OW 8473   1.420   4.088   3.234
 2525SOL    HW1 8474   1.473   4.125   3.310
 2525SOL    HW2 8475   1.375   4.004   3.263
 2526SOL     OW 8476   6.655   1.199   5.404
 2526SOL    HW1 8477   6.559   1.213   5.380
 2526SOL    HW2 8478   6.674   1.101   5.406
 2527SOL     OW 8479   6.556   6.717   3.922
 2527SOL    HW1 8480   6.622   6.782   3.885
 2527SOL    HW2 8481   6.559   6.633   3.869
 2528SOL     OW 8482   6.398   5.576   0.563
 2528SOL    HW1 8483   6.356   5.565   0.473
 2528SOL    HW2 8484   6.491   5.611   0.552
 2529SOL     OW 8485   5.078   3.572   4.636
 2529SOL    HW1 8486   5.091   3.671   4.640
 2529SOL    HW2 8487   5.038   3.540   4.721
 2530SOL     OW 8488   6.965   0.742   4.313
 2530SOL    HW1 8489   6.901   0.800   4.364
 2530SOL    HW2 8490   6.931   0.729   4.219
 2531SOL     OW 8491   4.527   1.082   6.496
 2531SOL    HW1 8492   4.499   1.049   6.406
 2531SOL    HW2 8493   4.499   1.016   6.566
 2532SOL     OW 8494   1.753   4.837   5.853
 2532SOL    HW1 8495   1.825   4.780   5.893
 2532SOL    HW2 8496   1.696   4.874   5.926
 2533SOL     OW 8497   5.967   6.674   5.355
 2533SOL    HW1 8498   5.945   6.723   5.271
 2533SOL    HW2 8499   5.915   6.588   5.358
 2534SOL     OW 8500   0.742   2.121   3.953
 2534SOL    HW1 8501   0.812   2.139   4.022
 2534SOL    HW2 8502   0.733   2.022   3.940
 2535SOL     OW 8503   2.207   1.252   2.633
 2535SOL    HW1 8504   2.167   1.172   2.589
 2535SOL    HW2 8505   2.303   1.234   2.653
 2536SOL     OW 8506   6.572   0.983   3.824
 2536SOL    HW1 8507   6.505   1.024   3.885
 2536SOL    HW2 8508   6.662   1.024   3.839
 2537SOL     OW 8509   4.116   5.250   1.054
 2537SOL    HW1 8510   4.151   5.317   0.989
 2537SOL    HW2 8511   4.024   5.276   1.084
 2538SOL     OW 8512   1.877   4.201   4.814
 2538SOL    HW1 8513   1.917   4.232   4.728
 2538SOL    HW2 8514   1.783   4.171   4.799
 2539SOL     OW 8515   2.618   0.256   5.344
 2539SOL    HW1 8516   2.626   0.312   5.261
 2539SOL    HW2 8517   2.693   0.190   5.347
 2540SOL     OW 8518   5.697   2.118   2.260
 2540SOL    HW1 8519   5.651   2.035   2.292
 2540SOL    HW2 8520   5.794   2.114   2.285
 2541SOL     OW 8521   0.963   6.315   5.721
 2541SOL    HW1 8522   0.871   6.346   5.696
 2541SOL    HW2 8523   0.975   6.324   5.820
 2542SOL     OW 8524   3.948   1.817   4.024
 2542SOL    HW1 8525   3.957   1.718   4.033
 2542SOL    HW2 8526   3.921   1.856   4.112
 2543SOL     OW 8527   0.145   1.823   4.567
 2543SOL    HW1 8528   0.130   1.906   4.513
 2543SOL    HW2 8529   0.128   1.843   4.663
 2544SOL     OW 8530   6.375   5.404   2.154
 2544SOL    HW1 8531   6.399   5.499   2.138
 2544SOL    HW2 8532   6.292   5.381   2.103
 2545SOL     OW 8533   6.704   1.839   1.068
 2545SOL    HW1 8534   6.698   1.920   1.127
 2545SOL    HW2 8535   6.800   1.814   1.056
 2546SOL     OW 8536   6.803   4.120   2.744
 2546SOL    HW1 8537   6.852   4.170   2.815
 2546SOL    HW2 8538   6.715   4.088   2.781
 2547SOL     OW 8539   5.781   3.299   1.214
 2547SOL    HW1 8540   5.713   3.371   1.226
 2547SOL    HW2 8541   5.870   3.340   1.195
 2548SOL     OW 8542   0.658   6.565   5.342
 2548SOL    HW1 8543   0.698   6.656   5.332
 2548SOL    HW2 8544   0.585   6.567   5.409
 2549SOL     OW 8545   2.771   2.945   0.464
 2549SOL    HW1 8546   2.805   2.851   0.472
 2549SOL    HW2 8547   2.732   2.974   0.551
 2550SOL     OW 8548   3.941   6.401   6.390
 2550SOL    HW1 8549   3.976   6.346   6.313
 2550SOL    HW2 8550   3.940   6.497   6.363
 2551SOL     OW 8551   3.143   5.323   0.854
 2551SOL    HW1 8552   3.046   5.301   0.849
 2551SOL    HW2 8553   3.192   5.274   0.783
 2552SOL     OW 8554   2.156   6.012   1.144
 2552SOL    HW1 8555   2.085   6.072   1.109
 2552SOL    HW2 8556   2.187   6.046   1.233
 2553SOL     OW 8557   4.353   1.334   6.878
 2553SOL    HW1 8558   4.378   1.405   6.944
 2553SOL    HW2 8559   4.429   1.317   6.816
 2554SOL     OW 8560   1.573   6.000   1.948
 2554SOL    HW1 8561   1.601   5.961   1.861
 2554SOL    HW2 8562   1.653   6.010   2.008
 2555SOL     OW 8563   5.261   6.522   5.543
 2555SOL    HW1 8564   5.330   6.500   5.612
 2555SOL    HW2 8565   5.269   6.459   5.466
 2556SOL     OW 8566   4.010   0.841   0.494
 2556SOL    HW1 8567   3.940   0.895   0.448
 2556SOL    HW2 8568   4.076   0.807   0.427
 2557SOL     OW 8569   3.412   6.981   6.622
 2557SOL    HW1 8570   3.398   6.980   6.721
 2557SOL    HW2 8571   3.363   6.905   6.581
 2558SOL     OW 8572   5.677   3.620   6.871
 2558SOL    HW1 8573   5.621   3.553   6.823
 2558SOL    HW2 8574   5.664   3.710   6.830
 2559SOL     OW 8575   1.075   4.522   4.966
 2559SOL    HW1 8576   0.989   4.487   5.003
 2559SOL    HW2 8577   1.056   4.589   4.894
 2560SOL     OW 8578   4.881   2.148   3.501
 2560SOL    HW1 8579   4.822   2.112   3.429
 2560SOL    HW2 8580   4.975   2.120   3.484
 2561SOL     OW 8581   3.714   0.497   4.285
 2561SOL    HW1 8582   3.807   0.521   4.312
 2561SOL    HW2 8583   3.675   0.571   4.231
 2562SOL     OW 8584   3.755   6.463   3.635
 2562SOL    HW1 8585   3.666   6.496   3.605
 2562SOL    HW2 8586   3.793   6.527   3.702
 2563SOL     OW 8587   3.397   1.993   0.024
 2563SOL    HW1 8588   3.313   1.938   0.025
 2563SOL    HW2 8589   3.373   2.090   0.011
 2564SOL     OW 8590   2.331   1.935   0.448
 2564SOL    HW1 8591   2.431   1.930   0.446
 2564SOL    HW2 8592   2.294   1.900   0.362
 2565SOL     OW 8593   0.950   2.003   0.526
 2565SOL    HW1 8594   0.951   1.926   0.462
 2565SOL    HW2 8595   1.044   2.019   0.559
 2566SOL     OW 8596   2.266   0.915   0.791
 2566SOL    HW1 8597   2.325   0.968   0.852
 2566SOL    HW2 8598   2.188   0.879   0.843
 2567SOL     OW 8599   1.967   0.440   0.242
 2567SOL    HW1 8600   1.986   0.358   0.297
 2567SOL    HW2 8601   1.870   0.442   0.218
 2568SOL     OW 8602   3.018   6.122   1.017
 2568SOL    HW1 8603   2.973   6.083   0.936
 2568SOL    HW2 8604   3.033   6.219   1.004
 2569SOL     OW 8605   1.672   0.074   1.185
 2569SOL    HW1 8606   1.729   7.015   1.193
 2569SOL    HW2 8607   1.674   0.107   1.091
 2570SOL     OW 8608   6.511   6.747   5.923
 2570SOL    HW1 8609   6.594   6.717   5.876
 2570SOL    HW2 8610   6.435   6.749   5.858
 2571SOL     OW 8611   3.624   2.997   3.978
 2571SOL    HW1 8612   3.637   2.983   4.076
 2571SOL    HW2 8613   3.530   2.973   3.953
 2572SOL     OW 8614   1.977   6.239   1.930
 2572SOL    HW1 8615   2.036   6.209   1.855
 2572SOL    HW2 8616   2.030   6.242   2.014
 2573SOL     OW 8617   0.094   2.167   4.444
 2573SOL    HW1 8618   0.128   2.258   4.465
 2573SOL    HW2 8619   0.100   2.150   4.346
 2574SOL     OW 8620   0.676   3.764   2.565
 2574SOL    HW1 8621   0.636   3.673   2.568
 2574SOL    HW2 8622   0.712   3.782   2.474
 2575SOL     OW 8623   5.869   3.557   0.470
 2575SOL    HW1 8624   5.931   3.479   0.480
 2575SOL    HW2 8625   5.865   3.607   0.556
 2576SOL     OW 8626   2.355   6.813   3.924
 2576SOL    HW1 8627   2.426   6.882   3.937
 2576SOL    HW2 8628   2.350   6.789   3.827
 2577SOL     OW 8629   2.827   5.947   1.937
 2577SOL    HW1 8630   2.830   6.019   2.005
 2577SOL    HW2 8631   2.911   5.947   1.883
 2578SOL     OW 8632   4.846   1.982   4.085
 2578SOL    HW1 8633   4.750   1.994   4.058
 2578SOL    HW2 8634   4.905   2.014   4.011
 2579SOL     OW 8635   7.012   2.289   6.353
 2579SOL    HW1 8636   0.058   2.276   6.283
 2579SOL    HW2 8637   0.027   2.264   6.442
 2580SOL     OW 8638   1.326   2.626   6.201
 2580SOL    HW1 8639   1.324   2.725   6.188
 2580SOL    HW2 8640   1.262   2.600   6.274
 2581SOL     OW 8641   6.892   6.636   3.951
 2581SOL    HW1 8642   6.909   6.735   3.946
 2581SOL    HW2 8643   6.882   6.609   4.047
 2582SOL     OW 8644   0.209   5.422   2.884
 2582SOL    HW1 8645   0.229   5.518   2.903
 2582SOL    HW2 8646   0.288   5.365   2.908
 2583SOL     OW 8647   2.252   0.688   0.598
 2583SOL    HW1 8648   2.259   0.777   0.644
 2583SOL    HW2 8649   2.337   0.637   0.611
 2584SOL     OW 8650   4.885   7.008   1.972
 2584SOL    HW1 8651   4.814   6.945   2.003
 2584SOL    HW2 8652   4.865   0.077   2.006
 2585SOL     OW 8653   3.688   1.069   1.650
 2585SOL    HW1 8654   3.708   1.134   1.724
 2585SOL    HW2 8655   3.611   1.103   1.596
 2586SOL     OW 8656   6.740   2.629   4.204
 2586SOL    HW1 8657   6.809   2.670   4.145
 2586SOL    HW2 8658   6.657   2.685   4.203
 2587SOL     OW 8659   5.665   6.565   3.319
 2587SOL    HW1 8660   5.586   6.560   3.379
 2587SOL    HW2 8661   5.662   6.490   3.253
 2588SOL     OW 8662   5.364   1.209   1.628
 2588SOL    HW1 8663   5.311   1.211   1.713
 2588SOL    HW2 8664   5.459   1.182   1.648
 2589SOL     OW 8665   6.582   6.667   0.441
 2589SOL    HW1 8666   6.574   6.619   0.528
 2589SOL    HW2 8667   6.635   6.751   0.453
 2590SOL     OW 8668   4.387   6.335   2.663
 2590SOL    HW1 8669   4.341   6.423   2.675
 2590SOL    HW2 8670   4.453   6.322   2.736
 2591SOL     OW 8671   5.784   0.577   1.397
 2591SOL    HW1 8672   5.757   0.660   1.446
 2591SOL    HW2 8673   5.876   0.550   1.426
 2592SOL     OW 8674   3.845   5.856   1.624
 2592SOL    HW1 8675   3.773   5.792   1.649
 2592SOL    HW2 8676   3.838   5.879   1.527
 2593SOL     OW 8677   3.082   6.477   2.875
 2593SOL    HW1 8678   3.008   6.485   2.809
 2593SOL    HW2 8679   3.054   6.415   2.949
 2594SOL     OW 8680   1.110   6.364   6.332
 2594SOL    HW1 8681   1.109   6.305   6.413
 2594SOL    HW2 8682   1.204   6.373   6.298
 2595SOL     OW 8683   6.303   3.566   3.926
 2595SOL    HW1 8684   6.356   3.645   3.958
 2595SOL    HW2 8685   6.229   3.598   3.866
 2596SOL     OW 8686   3.818   1.994   2.069
 2596SOL    HW1 8687   3.901   2.045   2.044
 2596SOL    HW2 8688   3.738   2.053   2.058
 2597SOL     OW 8689   2.262   3.147   6.999
 2597SOL    HW1 8690   2.348   3.198   7.009
 2597SOL    HW2 8691   2.279   3.062   6.949
 2598SOL     OW 8692   6.771   3.104   2.645
 2598SOL    HW1 8693   6.864   3.131   2.622
 2598SOL    HW2 8694   6.765   3.083   2.743
 2599SOL     OW 8695   4.376   5.322   6.828
 2599SOL    HW1 8696   4.438   5.359   6.759
 2599SOL    HW2 8697   4.385   5.223   6.831
 2600SOL     OW 8698   6.639   3.516   3.333
 2600SOL    HW1 8699   6.628   3.420   3.357
 2600SOL    HW2 8700   6.721   3.552   3.377
 2601SOL     OW 8701   3.882   3.151   5.881
 2601SOL    HW1 8702   3.786   3.175   5.862
 2601SOL    HW2 8703   3.896   3.054   5.866
 2602SOL     OW 8704   6.463   5.924   4.464
 2602SOL    HW1 8705   6.394   5.860   4.497
 2602SOL    HW2 8706   6.448   6.014   4.504
 2603SOL     OW 8707   3.447   2.997   1.307
 2603SOL    HW1 8708   3.399   3.085   1.307
 2603SOL    HW2 8709   3.455   2.964   1.212
 2604SOL     OW 8710   6.141   0.920   1.352
 2604SOL    HW1 8711   6.064   0.894   1.294
 2604SOL    HW2 8712   6.227   0.903   1.304
 2605SOL     OW 8713   4.416   4.892   4.311
 2605SOL    HW1 8714   4.457   4.859   4.226
 2605SOL    HW2 8715   4.361   4.820   4.352
 2606SOL     OW 8716   6.947   4.318   0.959
 2606SOL    HW1 8717   6.912   4.298   1.051
 2606SOL    HW2 8718   6.886   4.278   0.891
 2607SOL     OW 8719   0.855   1.516   4.407
 2607SOL    HW1 8720   0.889   1.504   4.501
 2607SOL    HW2 8721   0.839   1.613   4.389
 2608SOL     OW 8722   4.786   0.726   1.088
 2608SOL    HW1 8723   4.729   0.725   1.005
 2608SOL    HW2 8724   4.786   0.819   1.127
 2609SOL     OW 8725   0.753   2.242   3.713
 2609SOL    HW1 8726   0.655   2.253   3.699
 2609SOL    HW2 8727   0.769   2.189   3.796
 2610SOL     OW 8728   6.075   5.496   4.688
 2610SOL    HW1 8729   5.976   5.511   4.692
 2610SOL    HW2 8730   6.118   5.572   4.639
 2611SOL     OW 8731   4.115   6.220   1.561
 2611SOL    HW1 8732   4.088   6.212   1.465
 2611SOL    HW2 8733   4.201   6.172   1.575
 2612SOL     OW 8734   6.368   6.592   4.343
 2612SOL    HW1 8735   6.317   6.506   4.355
 2612SOL    HW2 8736   6.358   6.622   4.248
 2613SOL     OW 8737   4.009   0.526   1.713
 2613SOL    HW1 8738   4.033   0.611   1.758
 2613SOL    HW2 8739   4.089   0.466   1.708
 2614SOL     OW 8740   0.223   6.551   6.711
 2614SOL    HW1 8741   0.252   6.553   6.615
 2614SOL    HW2 8742   0.145   6.489   6.720
 2615SOL     OW 8743   5.355   5.164   2.137
 2615SOL    HW1 8744   5.262   5.159   2.101
 2615SOL    HW2 8745   5.374   5.082   2.190
 2616SOL     OW 8746   4.013   3.183   3.023
 2616SOL    HW1 8747   4.057   3.095   3.006
 2616SOL    HW2 8748   4.000   3.231   2.936
 2617SOL     OW 8749   4.022   0.019   1.142
 2617SOL    HW1 8750   3.927   0.040   1.121
 2617SOL    HW2 8751   4.055   0.084   1.211
 2618SOL     OW 8752   0.973   0.643   1.106
 2618SOL    HW1 8753   0.981   0.709   1.180
 2618SOL    HW2 8754   0.887   0.659   1.057
 2619SOL     OW 8755   4.812   1.959   1.685
 2619SOL    HW1 8756   4.829   1.889   1.616
 2619SOL    HW2 8757   4.713   1.975   1.693
 2620SOL     OW 8758   1.509   4.352   4.347
 2620SOL    HW1 8759   1.541   4.295   4.272
 2620SOL    HW2 8760   1.579   4.420   4.370
 2621SOL     OW 8761   1.083   5.198   3.798
 2621SOL    HW1 8762   1.108   5.212   3.894
 2621SOL    HW2 8763   1.015   5.124   3.792
 2622SOL     OW 8764   2.539   3.189   6.982
 2622SOL    HW1 8765   2.511   3.216   6.890
 2622SOL    HW2 8766   2.610   3.251   7.016
 2623SOL     OW 8767   2.935   0.682   5.482
 2623SOL    HW1 8768   2.882   0.747   5.537
 2623SOL    HW2 8769   2.973   0.728   5.402
 2624SOL     OW 8770   6.489   1.906   3.791
 2624SOL    HW1 8771   6.419   1.842   3.824
 2624SOL    HW2 8772   6.577   1.884   3.833
 2625SOL     OW 8773   3.498   1.366   5.256
 2625SOL    HW1 8774   3.576   1.409   5.212
 2625SOL    HW2 8775   3.526   1.280   5.299
 2626SOL     OW 8776   2.319   6.513   2.749
 2626SOL    HW1 8777   2.331   6.512   2.848
 2626SOL    HW2 8778   2.364   6.593   2.711
 2627SOL     OW 8779   6.901   6.928   4.267
 2627SOL    HW1 8780   6.952   6.910   4.351
 2627SOL    HW2 8781   6.803   6.918   4.285
 2628SOL     OW 8782   4.144   5.896   6.363
 2628SOL    HW1 8783   4.160   5.798   6.369
 2628SOL    HW2 8784   4.201   5.935   6.291
 2629SOL     OW 8785   3.584   4.213   1.220
 2629SOL    HW1 8786   3.608   4.120   1.248
 2629SOL    HW2 8787   3.484   4.222   1.217
 2630SOL     OW 8788   2.568   2.303   2.680
 2630SOL    HW1 8789   2.488   2.344   2.724
 2630SOL    HW2 8790   2.562   2.314   2.581
 2631SOL     OW 8791   4.829   6.151   4.346
 2631SOL    HW1 8792   4.822   6.196   4.257
 2631SOL    HW2 8793   4.920   6.165   4.384
 2632SOL     OW 8794   4.275   2.173   0.093
 2632SOL    HW1 8795   4.230   2.230   0.161
 2632SOL    HW2 8796   4.365   2.211   0.072
 2633SOL     OW 8797   5.821   1.970   6.821
 2633SOL    HW1 8798   5.779   2.003   6.905
 2633SOL    HW2 8799   5.864   1.881   6.837
 2634SOL     OW 8800   2.571   4.688   0.949
 2634SOL    HW1 8801   2.629   4.664   1.027
 2634SOL    HW2 8802   2.627   4.699   0.867
 2635SOL     OW 8803   5.234   4.577   4.390
 2635SOL    HW1 8804   5.189   4.663   4.415
 2635SOL    HW2 8805   5.234   4.515   4.469
 2636SOL     OW 8806   5.897   0.267   5.088
 2636SOL    HW1 8807   5.935   0.262   4.995
 2636SOL    HW2 8808   5.862   0.359   5.104
 2637SOL     OW 8809   5.411   6.951   2.683
 2637SOL    HW1 8810   5.479   6.980   2.750
 2637SOL    HW2 8811   5.439   6.863   2.642
 2638SOL     OW 8812   5.425   6.111   0.874
 2638SOL    HW1 8813   5.523   6.130   0.880
 2638SOL    HW2 8814   5.394   6.066   0.958
 2639SOL     OW 8815   6.310   5.891   0.527
 2639SOL    HW1 8816   6.241   5.835   0.573
 2639SOL    HW2 8817   6.277   5.985   0.518
 2640SOL     OW 8818   0.271   6.281   5.301
 2640SOL    HW1 8819   0.357   6.326   5.278
 2640SOL    HW2 8820   0.222   6.256   5.217
 2641SOL     OW 8821   5.540   4.731   0.242
 2641SOL    HW1 8822   5.462   4.669   0.236
 2641SOL    HW2 8823   5.537   4.780   0.329
 2642SOL     OW 8824   5.118   6.826   4.125
 2642SOL    HW1 8825   5.092   6.734   4.095
 2642SOL    HW2 8826   5.062   6.894   4.078
 2643SOL     OW 8827   0.875   0.592   2.335
 2643SOL    HW1 8828   0.858   0.534   2.415
 2643SOL    HW2 8829   0.790   0.607   2.285
 2644SOL     OW 8830   0.168   4.636   6.170
 2644SOL    HW1 8831   0.210   4.625   6.080
 2644SOL    HW2 8832   0.236   4.619   6.241
 2645SOL     OW 8833   5.513   5.874   5.952
 2645SOL    HW1 8834   5.436   5.822   5.988
 2645SOL    HW2 8835   5.496   5.897   5.856
 2646SOL     OW 8836   6.666   6.527   0.211
 2646SOL    HW1 8837   6.752   6.490   0.246
 2646SOL    HW2 8838   6.645   6.613   0.257
 2647SOL     OW 8839   3.547   1.780   1.211
 2647SOL    HW1 8840   3.548   1.846   1.136
 2647SOL    HW2 8841   3.455   1.776   1.252
 2648SOL     OW 8842   5.002   0.683   2.525
 2648SOL    HW1 8843   4.936   0.700   2.599
 2648SOL    HW2 8844   4.993   0.588   2.494
 2649SOL     OW 8845   3.453   1.588   5.994
 2649SOL    HW1 8846   3.501   1.669   5.957
 2649SOL    HW2 8847   3.401   1.545   5.921
 2650SOL     OW 8848   0.179   6.241   2.604
 2650SOL    HW1 8849   0.244   6.193   2.545
 2650SOL    HW2 8850   0.156   6.329   2.563
 2651SOL     OW 8851   6.525   1.431   3.199
 2651SOL    HW1 8852   6.446   1.490   3.219
 2651SOL    HW2 8853   6.536   1.423   3.100
 2652SOL     OW 8854   3.431   3.163   3.038
 2652SOL    HW1 8855   3.504   3.151   3.105
 2652SOL    HW2 8856   3.437   3.253   2.997
 2653SOL     OW 8857   6.473   6.558   6.407
 2653SOL    HW1 8858   6.488   6.577   6.310
 2653SOL    HW2 8859   6.492   6.640   6.461
 2654SOL     OW 8860   5.519   2.870   5.767
 2654SOL    HW1 8861   5.506   2.803   5.694
 2654SOL    HW2 8862   5.438   2.871   5.826
 2655SOL     OW 8863   4.998   6.499   4.530
 2655SOL    HW1 8864   4.979   6.431   4.602
 2655SOL    HW2 8865   4.964   6.588   4.559
 2656SOL     OW 8866   5.406   3.324   3.966
 2656SOL    HW1 8867   5.336   3.372   4.020
 2656SOL    HW2 8868   5.371   3.236   3.936
 2657SOL     OW 8869   1.804   3.762   6.626
 2657SOL    HW1 8870   1.867   3.706   6.572
 2657SOL    HW2 8871   1.727   3.789   6.569
 2658SOL     OW 8872   6.122   4.111   5.977
 2658SOL    HW1 8873   6.197   4.132   5.915
 2658SOL    HW2 8874   6.034   4.133   5.934
 2659SOL     OW 8875   6.816   2.617   3.712
 2659SOL    HW1 8876   6.760   2.691   3.749
 2659SOL    HW2 8877   6.878   2.583   3.782
 2660SOL     OW 8878   6.857   2.328   2.727
 2660SOL    HW1 8879   6.779   2.382   2.757
 2660SOL    HW2 8880   6.828   2.234   2.710
 2661SOL     OW 8881   4.294   6.346   0.932
 2661SOL    HW1 8882   4.203   6.378   0.960
 2661SOL    HW2 8883   4.364   6.405   0.972
 2662SOL     OW 8884   3.813   6.499   4.034
 2662SOL    HW1 8885   3.745   6.426   4.024
 2662SOL    HW2 8886   3.772   6.577   4.081
 2663SOL     OW 8887   1.127   4.323   2.469
 2663SOL    HW1 8888   1.191   4.377   2.413
 2663SOL    HW2 8889   1.059   4.384   2.510
 2664SOL     OW 8890   4.014   3.595   2.262
 2664SOL    HW1 8891   4.059   3.623   2.347
 2664SOL    HW2 8892   3.929   3.548   2.283
 2665SOL     OW 8893   3.962   1.083   4.429
 2665SOL    HW1 8894   3.874   1.088   4.381
 2665SOL    HW2 8895   4.021   1.018   4.382
 2666SOL     OW 8896   5.224   5.015   1.257
 2666SOL    HW1 8897   5.143   4.979   1.304
 2666SOL    HW2 8898   5.195   5.067   1.177
 2667SOL     OW 8899   2.173   5.334   3.937
 2667SOL    HW1 8900   2.230   5.260   3.973
 2667SOL    HW2 8901   2.171   5.329   3.837
 2668SOL     OW 8902   0.114   2.759   5.758
 2668SOL    HW1 8903   0.125   2.839   5.699
 2668SOL    HW2 8904   0.017   2.743   5.775
 2669SOL     OW 8905   4.393   4.764   5.101
 2669SOL    HW1 8906   4.371   4.710   5.020
 2669SOL    HW2 8907   4.402   4.860   5.077
 2670SOL     OW 8908   1.251   1.182   6.940
 2670SOL    HW1 8909   1.334   1.149   6.985
 2670SOL    HW2 8910   1.233   1.127   6.858
 2671SOL     OW 8911   2.152   3.277   6.535
 2671SOL    HW1 8912   2.204   3.269   6.450
 2671SOL    HW2 8913   2.056   3.295   6.514
 2672SOL     OW 8914   1.719   5.515   1.118
 2672SOL    HW1 8915   1.715   5.612   1.141
 2672SOL    HW2 8916   1.791   5.499   1.051
 2673SOL     OW 8917   3.328   1.950   2.587
 2673SOL    HW1 8918   3.403   1.903   2.633
 2673SOL    HW2 8919   3.242   1.904   2.607
 2674SOL     OW 8920   5.501   4.725   5.372
 2674SOL    HW1 8921   5.439   4.700   5.446
 2674SOL    HW2 8922   5.525   4.822   5.380
 2675SOL     OW 8923   0.136   4.553   5.832
 2675SOL    HW1 8924   0.113   4.470   5.780
 2675SOL    HW2 8925   0.202   4.607   5.780
 2676SOL     OW 8926   4.249   1.203   1.552
 2676SOL    HW1 8927   4.328   1.189   1.612
 2676SOL    HW2 8928   4.280   1.215   1.458
 2677SOL     OW 8929   2.226   5.193   2.087
 2677SOL    HW1 8930   2.184   5.109   2.052
 2677SOL    HW2 8931   2.257   5.178   2.181
 2678SOL     OW 8932   0.667   4.643   5.562
 2678SOL    HW1 8933   0.612   4.726   5.550
 2678SOL    HW2 8934   0.618   4.580   5.622
 2679SOL     OW 8935   3.126   4.588   1.044
 2679SOL    HW1 8936   3.077   4.511   1.002
 2679SOL    HW2 8937   3.210   4.606   0.993
 2680SOL     OW 8938   1.566   1.713   1.642
 2680SOL    HW1 8939   1.579   1.751   1.733
 2680SOL    HW2 8940   1.468   1.696   1.626
 2681SOL     OW 8941   1.804   2.555   2.917
 2681SOL    HW1 8942   1.716   2.513   2.896
 2681SOL    HW2 8943   1.850   2.501   2.988
 2682SOL     OW 8944   5.576   2.546   2.383
 2682SOL    HW1 8945   5.605   2.618   2.447
 2682SOL    HW2 8946   5.476   2.544   2.378
 2683SOL     OW 8947   1.206   5.726   1.359
 2683SOL    HW1 8948   1.245   5.799   1.415
 2683SOL    HW2 8949   1.277   5.659   1.338
 2684SOL     OW 8950   2.338   6.431   3.023
 2684SOL    HW1 8951   2.301   6.350   3.069
 2684SOL    HW2 8952   2.372   6.496   3.091
 2685SOL     OW 8953   5.443   5.891   4.886
 2685SOL    HW1 8954   5.540   5.880   4.865
 2685SOL    HW2 8955   5.389   5.874   4.803
 2686SOL     OW 8956   2.271   2.962   4.604
 2686SOL    HW1 8957   2.283   2.956   4.703
 2686SOL    HW2 8958   2.334   3.030   4.566
 2687SOL     OW 8959   4.176   5.431   2.581
 2687SOL    HW1 8960   4.220   5.475   2.659
 2687SOL    HW2 8961   4.093   5.482   2.557
 2688SOL     OW 8962   3.745   4.817   6.219
 2688SOL    HW1 8963   3.727   4.754   6.144
 2688SOL    HW2 8964   3.707   4.907   6.198
 2689SOL     OW 8965   0.141   3.305   4.050
 2689SOL    HW1 8966   0.177   3.257   3.969
 2689SOL    HW2 8967   0.113   3.397   4.023
 2690SOL     OW 8968   3.959   3.978   3.531
 2690SOL    HW1 8969   3.863   4.003   3.546
 2690SOL    HW2 8970   4.004   3.966   3.619
 2691SOL     OW 8971   1.716   6.167   2.338
 2691SOL    HW1 8972   1.692   6.072   2.359
 2691SOL    HW2 8973   1.644   6.208   2.283
 2692SOL     OW 8974   0.386   6.459   3.996
 2692SOL    HW1 8975   0.479   6.494   3.993
 2692SOL    HW2 8976   0.331   6.501   3.924
 2693SOL     OW 8977   1.916   4.116   3.437
 2693SOL    HW1 8978   1.910   4.141   3.534
 2693SOL    HW2 8979   1.970   4.033   3.427
 2694SOL     OW 8980   1.646   7.015   3.481
 2694SOL    HW1 8981   1.740   6.996   3.510
 2694SOL    HW2 8982   1.596   6.929   3.476
 2695SOL     OW 8983   4.516   2.187   2.959
 2695SOL    HW1 8984   4.463   2.228   3.033
 2695SOL    HW2 8985   4.590   2.249   2.933
 2696SOL     OW 8986   4.263   3.920   5.286
 2696SOL    HW1 8987   4.336   3.854   5.303
 2696SOL    HW2 8988   4.271   3.997   5.349
 2697SOL     OW 8989   2.818   1.776   4.383
 2697SOL    HW1 8990   2.776   1.830   4.309
 2697SOL    HW2 8991   2.908   1.745   4.354
 2698SOL     OW 8992   2.033   3.814   0.535
 2698SOL    HW1 8993   1.964   3.795   0.605
 2698SOL    HW2 8994   2.018   3.905   0.497
 2699SOL     OW 8995   3.422   6.335   1.756
 2699SOL    HW1 8996   3.364   6.264   1.796
 2699SOL    HW2 8997   3.376   6.423   1.763
 2700SOL     OW 8998   2.132   3.475   2.657
 2700SOL    HW1 8999   2.111   3.408   2.729
 2700SOL    HW2 9000   2.117   3.433   2.568
 2701SOL     OW 9001   3.968   6.814   6.738
 2701SOL    HW1 9002   3.898   6.814   6.667
 2701SOL    HW2 9003   3.964   6.899   6.789
 2702SOL     OW 9004   6.815   0.789   3.760
 2702SOL    HW1 9005   6.744   0.800   3.830
 2702SOL    HW2 9006   6.846   0.878   3.729
 2703SOL     OW 9007   1.930   1.895   2.698
 2703SOL    HW1 9008   1.903   1.852   2.612
 2703SOL    HW2 9009   1.955   1.990   2.681
 2704SOL     OW 9010   2.548   5.043   1.635
 2704SOL    HW1 9011   2.627   5.045   1.697
 2704SOL    HW2 9012   2.523   4.948   1.616
 2705SOL     OW 9013   6.185   5.080   3.208
 2705SOL    HW1 9014   6.163   5.060   3.303
 2705SOL    HW2 9015   6.259   5.148   3.204
 2706SOL     OW 9016   6.611   1.706   1.949
 2706SOL    HW1 9017   6.696   1.669   1.987
 2706SOL    HW2 9018   6.590   1.659   1.863
 2707SOL     OW 9019   2.089   1.101   5.923
 2707SOL    HW1 9020   1.990   1.095   5.915
 2707SOL    HW2 9021   2.114   1.193   5.954
 2708SOL     OW 9022   1.575   2.733   1.522
 2708SOL    HW1 9023   1.508   2.717   1.450
 2708SOL    HW2 9024   1.530   2.779   1.599
 2709SOL     OW 9025   4.238   6.131   0.497
 2709SOL    HW1 9026   4.297   6.053   0.478
 2709SOL    HW2 9027   4.258   6.167   0.588
 2710SOL     OW 9028   0.258   4.184   3.212
 2710SOL    HW1 9029   0.324   4.255   3.234
 2710SOL    HW2 9030   0.243   4.181   3.113
 2711SOL     OW 9031   1.292   0.568   2.316
 2711SOL    HW1 9032   1.294   0.576   2.416
 2711SOL    HW2 9033   1.225   0.498   2.290
 2712SOL     OW 9034   3.064   4.513   0.380
 2712SOL    HW1 9035   3.118   4.595   0.395
 2712SOL    HW2 9036   3.004   4.526   0.301
 2713SOL     OW 9037   2.230   3.401   5.450
 2713SOL    HW1 9038   2.186   3.312   5.443
 2713SOL    HW2 9039   2.205   3.444   5.537
 2714SOL     OW 9040   4.829   0.222   5.845
 2714SOL    HW1 9041   4.878   0.263   5.921
 2714SOL    HW2 9042   4.889   0.157   5.798
 2715SOL     OW 9043   5.780   1.114   6.782
 2715SOL    HW1 9044   5.764   1.049   6.856
 2715SOL    HW2 9045   5.844   1.075   6.716
 2716SOL     OW 9046   0.509   6.531   2.374
 2716SOL    HW1 9047   0.509   6.432   2.391
 2716SOL    HW2 9048   0.597   6.557   2.334
 2717SOL     OW 9049   1.053   0.045   2.923
 2717SOL    HW1 9050   1.125   7.004   2.897
 2717SOL    HW2 9051   0.973   7.018   2.955
 2718SOL     OW 9052   2.559   4.520   3.426
 2718SOL    HW1 9053   2.559   4.603   3.370
 2718SOL    HW2 9054   2.628   4.456   3.392
 2719SOL     OW 9055   4.123   5.155   1.763
 2719SOL    HW1 9056   4.028   5.157   1.796
 2719SOL    HW2 9057   4.184   5.144   1.841
 2720SOL     OW 9058   2.034   6.423   3.939
 2720SOL    HW1 9059   1.935   6.435   3.952
 2720SOL    HW2 9060   2.065   6.346   3.995
 2721SOL     OW 9061   3.720   0.056   4.056
 2721SOL    HW1 9062   3.758   0.102   4.136
 2721SOL    HW2 9063   3.670   0.122   4.000
 2722SOL     OW 9064   1.408   6.304   2.441
 2722SOL    HW1 9065   1.377   6.233   2.377
 2722SOL    HW2 9066   1.338   6.319   2.511
 2723SOL     OW 9067   1.524   1.511   5.789
 2723SOL    HW1 9068   1.469   1.577   5.738
 2723SOL    HW2 9069   1.586   1.559   5.850
 2724SOL     OW 9070   4.058   5.845   5.991
 2724SOL    HW1 9071   4.131   5.880   6.050
 2724SOL    HW2 9072   3.996   5.787   6.046
 2725SOL     OW 9073   3.810   5.299   4.097
 2725SOL    HW1 9074   3.821   5.244   4.180
 2725SOL    HW2 9075   3.892   5.291   4.041
 2726SOL     OW 9076   4.748   5.301   2.058
 2726SOL    HW1 9077   4.817   5.256   2.001
 2726SOL    HW2 9078   4.706   5.233   2.119
 2727SOL     OW 9079   1.586   5.446   2.496
 2727SOL    HW1 9080   1.624   5.500   2.571
 2727SOL    HW2 9081   1.655   5.435   2.424
 2728SOL     OW 9082   3.174   6.772   5.408
 2728SOL    HW1 9083   3.131   6.848   5.456
 2728SOL    HW2 9084   3.233   6.808   5.334
 2729SOL     OW 9085   5.647   5.185   2.734
 2729SOL    HW1 9086   5.737   5.148   2.709
 2729SOL    HW2 9087   5.622   5.258   2.671
 2730SOL     OW 9088   1.815   6.390   1.073
 2730SOL    HW1 9089   1.912   6.416   1.066
 2730SOL    HW2 9090   1.805   6.321   1.144
 2731SOL     OW 9091   2.891   3.759   1.841
 2731SOL    HW1 9092   2.934   3.799   1.922
 2731SOL    HW2 9093   2.929   3.668   1.825
 2732SOL     OW 9094   5.750   1.619   2.381
 2732SOL    HW1 9095   5.836   1.569   2.376
 2732SOL    HW2 9096   5.705   1.598   2.468
 2733SOL     OW 9097   1.394   6.934   5.933
 2733SOL    HW1 9098   1.492   6.916   5.941
 2733SOL    HW2 9099   1.345   6.888   6.008
 2734SOL     OW 9100   2.015   5.956   4.087
 2734SOL    HW1 9101   1.929   5.928   4.045
 2734SOL    HW2 9102   2.036   5.896   4.164
 2735SOL     OW 9103   1.715   5.111   2.596
 2735SOL    HW1 9104   1.763   5.199   2.587
 2735SOL    HW2 9105   1.731   5.056   2.514
 2736SOL     OW 9106   4.768   0.225   5.106
 2736SOL    HW1 9107   4.831   0.217   5.183
 2736SOL    HW2 9108   4.678   0.189   5.133
 2737SOL     OW 9109   4.583   3.714   6.359
 2737SOL    HW1 9110   4.584   3.811   6.335
 2737SOL    HW2 9111   4.543   3.703   6.451
 2738SOL     OW 9112   5.599   5.231   4.855
 2738SOL    HW1 9113   5.623   5.278   4.770
 2738SOL    HW2 9114   5.661   5.261   4.928
 2739SOL     OW 9115   5.705   3.503   0.946
 2739SOL    HW1 9116   5.780   3.437   0.936
 2739SOL    HW2 9117   5.619   3.454   0.957
 2740SOL     OW 9118   5.894   2.179   3.148
 2740SOL    HW1 9119   5.896   2.243   3.071
 2740SOL    HW2 9120   5.827   2.107   3.130
 2741SOL     OW 9121   0.448   2.684   6.162
 2741SOL    HW1 9122   0.422   2.678   6.065
 2741SOL    HW2 9123   0.457   2.780   6.188
 2742SOL     OW 9124   2.226   6.951   6.614
 2742SOL    HW1 9125   2.245   6.862   6.572
 2742SOL    HW2 9126   2.301   7.014   6.595
 2743SOL     OW 9127   5.485   4.935   1.291
 2743SOL    HW1 9128   5.401   4.988   1.301
 2743SOL    HW2 9129   5.502   4.882   1.374
 2744SOL     OW 9130   4.326   1.575   5.781
 2744SOL    HW1 9131   4.373   1.587   5.693
 2744SOL    HW2 9132   4.304   1.478   5.793
 2745SOL     OW 9133   2.753   6.592   0.935
 2745SOL    HW1 9134   2.825   6.630   0.878
 2745SOL    HW2 9135   2.763   6.493   0.940
 2746SOL     OW 9136   1.763   2.287   6.669
 2746SOL    HW1 9137   1.756   2.215   6.738
 2746SOL    HW2 9138   1.678   2.289   6.616
 2747SOL     OW 9139   4.688   6.396   4.493
 2747SOL    HW1 9140   4.684   6.320   4.428
 2747SOL    HW2 9141   4.748   6.371   4.569
 2748SOL     OW 9142   4.055   1.084   3.140
 2748SOL    HW1 9143   4.143   1.047   3.109
 2748SOL    HW2 9144   4.051   1.182   3.121
 2749SOL     OW 9145   4.607   5.646   3.742
 2749SOL    HW1 9146   4.532   5.634   3.807
 2749SOL    HW2 9147   4.687   5.683   3.789
 2750SOL     OW 9148   0.366   6.060   2.506
 2750SOL    HW1 9149   0.415   6.041   2.591
 2750SOL    HW2 9150   0.279   6.010   2.505
 2751SOL     OW 9151   1.524   0.131   6.308
 2751SOL    HW1 9152   1.525   0.032   6.294
 2751SOL    HW2 9153   1.594   0.174   6.251
 2752SOL     OW 9154   6.288   6.103   6.122
 2752SOL    HW1 9155   6.345   6.175   6.082
 2752SOL    HW2 9156   6.322   6.014   6.092
 2753SOL     OW 9157   2.796   5.610   5.987
 2753SOL    HW1 9158   2.738   5.543   6.033
 2753SOL    HW2 9159   2.844   5.666   6.055
 2754SOL     OW 9160   1.225   0.553   4.522
 2754SOL    HW1 9161   1.139   0.501   4.522
 2754SOL    HW2 9162   1.213   0.636   4.468
 2755SOL     OW 9163   3.282   6.156   1.939
 2755SOL    HW1 9164   3.231   6.240   1.958
 2755SOL    HW2 9165   3.345   6.137   2.014
 2756SOL     OW 9166   0.196   2.892   6.084
 2756SOL    HW1 9167   0.289   2.916   6.058
 2756SOL    HW2 9168   0.190   2.883   6.183
 2757SOL     OW 9169   4.052   3.424   6.519
 2757SOL    HW1 9170   4.041   3.326   6.532
 2757SOL    HW2 9171   4.078   3.443   6.425
 2758SOL     OW 9172   6.520   6.136   1.988
 2758SOL    HW1 9173   6.611   6.167   2.016
 2758SOL    HW2 9174   6.521   6.037   1.975
 2759SOL     OW 9175   3.067   3.710   5.928
 2759SOL    HW1 9176   2.992   3.775   5.936
 2759SOL    HW2 9177   3.031   3.617   5.937
 2760SOL     OW 9178   5.453   6.343   3.232
 2760SOL    HW1 9179   5.355   6.356   3.218
 2760SOL    HW2 9180   5.469   6.310   3.325
 2761SOL     OW 9181   1.701   3.537   3.177
 2761SOL    HW1 9182   1.611   3.580   3.166
 2761SOL    HW2 9183   1.772   3.599   3.144
 2762SOL     OW 9184   2.603   2.539   0.819
 2762SOL    HW1 9185   2.615   2.442   0.842
 2762SOL    HW2 9186   2.691   2.585   0.823
 2763SOL     OW 9187   5.443   2.125   4.563
 2763SOL    HW1 9188   5.391   2.176   4.495
 2763SOL    HW2 9189   5.413   2.153   4.655
 2764SOL     OW 9190   0.865   3.462   2.260
 2764SOL    HW1 9191   0.886   3.368   2.235
 2764SOL    HW2 9192   0.882   3.522   2.181
 2765SOL     OW 9193   6.544   6.788   6.559
 2765SOL    HW1 9194   6.617   6.786   6.490
 2765SOL    HW2 9195   6.584   6.788   6.650
 2766SOL     OW 9196   5.291   1.224   6.579
 2766SOL    HW1 9197   5.276   1.191   6.673
 2766SOL    HW2 9198   5.227   1.177   6.518
 2767SOL     OW 9199   6.672   5.149   6.268
 2767SOL    HW1 9200   6.671   5.056   6.233
 2767SOL    HW2 9201   6.624   5.209   6.204
 2768SOL     OW 9202   4.448   6.989   1.194
 2768SOL    HW1 9203   4.445   7.013   1.291
 2768SOL    HW2 9204   4.461   0.049   1.140
 2769SOL     OW 9205   1.114   4.403   5.888
 2769SOL    HW1 9206   1.170   4.394   5.806
 2769SOL    HW2 9207   1.121   4.497   5.923
 2770SOL     OW 9208   2.977   6.875   0.712
 2770SOL    HW1 9209   2.993   6.823   0.628
 2770SOL    HW2 9210   3.023   6.829   0.788
 2771SOL     OW 9211   4.680   6.790   4.477
 2771SOL    HW1 9212   4.655   6.738   4.395
 2771SOL    HW2 9213   4.768   6.834   4.463
 2772SOL     OW 9214   4.669   0.171   3.193
 2772SOL    HW1 9215   4.593   0.235   3.187
 2772SOL    HW2 9216   4.729   0.183   3.113
 2773SOL     OW 9217   5.813   2.631   4.938
 2773SOL    HW1 9218   5.909   2.648   4.961
 2773SOL    HW2 9219   5.806   2.610   4.840
 2774SOL     OW 9220   5.617   1.781   4.022
 2774SOL    HW1 9221   5.683   1.850   4.051
 2774SOL    HW2 9222   5.583   1.731   4.101
 2775SOL     OW 9223   0.666   3.607   4.048
 2775SOL    HW1 9224   0.625   3.597   4.139
 2775SOL    HW2 9225   0.762   3.579   4.052
 2776SOL     OW 9226   5.149   4.279   6.173
 2776SOL    HW1 9227   5.132   4.181   6.180
 2776SOL    HW2 9228   5.124   4.324   6.258
 2777SOL     OW 9229   3.259   2.050   5.984
 2777SOL    HW1 9230   3.236   2.003   5.899
 2777SOL    HW2 9231   3.288   1.983   6.052
 2778SOL     OW 9232   3.161   6.701   5.672
 2778SOL    HW1 9233   3.182   6.787   5.719
 2778SOL    HW2 9234   3.189   6.709   5.576
 2779SOL     OW 9235   5.584   0.649   1.212
 2779SOL    HW1 9236   5.670   0.615   1.249
 2779SOL    HW2 9237   5.561   0.737   1.254
 2780SOL     OW 9238   6.790   1.712   4.562
 2780SOL    HW1 9239   6.875   1.659   4.558
 2780SOL    HW2 9240   6.812   1.807   4.584
 2781SOL     OW 9241   5.721   1.377   3.294
 2781SOL    HW1 9242   5.632   1.357   3.336
 2781SOL    HW2 9243   5.775   1.293   3.288
 2782SOL     OW 9244   4.813   0.571   6.255
 2782SOL    HW1 9245   4.758   0.585   6.173
 2782SOL    HW2 9246   4.801   0.648   6.318
 2783SOL     OW 9247   5.839   4.350   1.567
 2783SOL    HW1 9248   5.851   4.305   1.478
 2783SOL    HW2 9249   5.902   4.310   1.633
 2784SOL     OW 9250   1.404   1.836   1.145
 2784SOL    HW1 9251   1.328   1.806   1.088
 2784SOL    HW2 9252   1.421   1.933   1.128
 2785SOL     OW 9253   6.183   2.884   1.706
 2785SOL    HW1 9254   6.255   2.856   1.769
 2785SOL    HW2 9255   6.153   2.977   1.729
 2786SOL     OW 9256   0.009   6.131   0.002
 2786SOL    HW1 9257   7.016   6.148   0.099
 2786SOL    HW2 9258   0.072   6.201   6.989
 2787SOL     OW 9259   6.496   5.196   6.543
 2787SOL    HW1 9260   6.540   5.260   6.481
 2787SOL    HW2 9261   6.543   5.199   6.632
 2788SOL     OW 9262   2.977   6.311   5.715
 2788SOL    HW1 9263   2.926   6.330   5.631
 2788SOL    HW2 9264   3.067   6.275   5.693
 2789SOL     OW 9265   1.113   2.142   5.388
 2789SOL    HW1 9266   1.107   2.043   5.402
 2789SOL    HW2 9267   1.080   2.189   5.470
 2790SOL     OW 9268   1.774   5.622   2.068
 2790SOL    HW1 9269   1.798   5.719   2.071
 2790SOL    HW2 9270   1.805   5.582   1.982
 2791SOL     OW 9271   0.291   3.606   3.311
 2791SOL    HW1 9272   0.319   3.694   3.348
 2791SOL    HW2 9273   0.192   3.606   3.296
 2792SOL     OW 9274   3.274   1.645   5.471
 2792SOL    HW1 9275   3.241   1.712   5.404
 2792SOL    HW2 9276   3.215   1.565   5.470
 2793SOL     OW 9277   3.759   4.388   0.677
 2793SOL    HW1 9278   3.666   4.372   0.644
 2793SOL    HW2 9279   3.811   4.438   0.607
 2794SOL     OW 9280   0.964   2.490   0.185
 2794SOL    HW1 9281   0.880   2.492   0.131
 2794SOL    HW2 9282   0.949   2.534   0.273
 2795SOL     OW 9283   1.149   4.870   1.715
 2795SOL    HW1 9284   1.154   4.837   1.620
 2795SOL    HW2 9285   1.189   4.961   1.721
 2796SOL     OW 9286   2.116   6.167   6.376
 2796SOL    HW1 9287   2.034   6.154   6.320
 2796SOL    HW2 9288   2.191   6.113   6.338
 2797SOL     OW 9289   5.455   6.604   3.487
 2797SOL    HW1 9290   5.452   6.667   3.565
 2797SOL    HW2 9291   5.383   6.535   3.497
 2798SOL     OW 9292   5.041   0.673   1.927
 2798SOL    HW1 9293   5.095   0.628   1.855
 2798SOL    HW2 9294   5.101   0.698   2.003
 2799SOL     OW 9295   3.818   6.227   4.995
 2799SOL    HW1 9296   3.860   6.144   4.957
 2799SOL    HW2 9297   3.789   6.287   4.920
 2800SOL     OW 9298   5.700   6.882   6.819
 2800SOL    HW1 9299   5.642   6.923   6.890
 2800SOL    HW2 9300   5.706   6.783   6.834
 2801SOL     OW 9301   0.785   4.642   4.832
 2801SOL    HW1 9302   0.833   4.710   4.886
 2801SOL    HW2 9303   0.802   4.658   4.735
 2802SOL     OW 9304   1.192   5.398   5.646
 2802SOL    HW1 9305   1.170   5.496   5.647
 2802SOL    HW2 9306   1.287   5.384   5.671
 2803SOL     OW 9307   3.666   2.159   6.175
 2803SOL    HW1 9308   3.621   2.243   6.204
 2803SOL    HW2 9309   3.624   2.126   6.090
 2804SOL     OW 9310   0.638   2.505   3.977
 2804SOL    HW1 9311   0.632   2.482   4.074
 2804SOL    HW2 9312   0.546   2.501   3.936
 2805SOL     OW 9313   3.908   3.503   1.163
 2805SOL    HW1 9314   3.975   3.446   1.115
 2805SOL    HW2 9315   3.953   3.582   1.202
 2806SOL     OW 9316   0.727   4.240   6.113
 2806SOL    HW1 9317   0.684   4.246   6.203
 2806SOL    HW2 9318   0.781   4.323   6.095
 2807SOL     OW 9319   4.029   0.174   3.603
 2807SOL    HW1 9320   3.929   0.185   3.604
 2807SOL    HW2 9321   4.057   0.116   3.680
 2808SOL     OW 9322   0.109   5.466   5.840
 2808SOL    HW1 9323   0.186   5.417   5.797
 2808SOL    HW2 9324   0.042   5.491   5.770
 2809SOL     OW 9325   6.846   5.218   1.898
 2809SOL    HW1 9326   6.837   5.318   1.904
 2809SOL    HW2 9327   6.763   5.175   1.932
 2810SOL     OW 9328   2.770   6.098   3.260
 2810SOL    HW1 9329   2.676   6.132   3.256
 2810SOL    HW2 9330   2.796   6.060   3.172
 2811SOL     OW 9331   0.902   0.767   1.547
 2811SOL    HW1 9332   0.827   0.827   1.575
 2811SOL    HW2 9333   0.982   0.784   1.604
 2812SOL     OW 9334   0.587   1.789   0.844
 2812SOL    HW1 9335   0.667   1.786   0.904
 2812SOL    HW2 9336   0.562   1.885   0.829
 2813SOL     OW 9337   0.666   1.710   1.492
 2813SOL    HW1 9338   0.743   1.771   1.510
 2813SOL    HW2 9339   0.632   1.673   1.578
 2814SOL     OW 9340   2.381   4.648   0.368
 2814SOL    HW1 9341   2.283   4.652   0.381
 2814SOL    HW2 9342   2.420   4.573   0.423
 2815SOL     OW 9343   0.526   4.904   5.580
 2815SOL    HW1 9344   0.435   4.946   5.588
 2815SOL    HW2 9345   0.592   4.972   5.552
 2816SOL     OW 9346   0.729   6.117   6.120
 2816SOL    HW1 9347   0.807   6.054   6.121
 2816SOL    HW2 9348   0.659   6.083   6.183
 2817SOL     OW 9349   4.072   0.414   1.994
 2817SOL    HW1 9350   4.166   0.381   1.991
 2817SOL    HW2 9351   4.015   0.349   2.044
 2818SOL     OW 9352   1.692   0.736   0.239
 2818SOL    HW1 9353   1.672   0.834   0.238
 2818SOL    HW2 9354   1.687   0.702   0.333
 2819SOL     OW 9355   0.580   0.629   0.537
 2819SOL    HW1 9356   0.655   0.630   0.471
 2819SOL    HW2 9357   0.515   0.557   0.513
 2820SOL     OW 9358   1.746   2.714   0.763
 2820SOL    HW1 9359   1.753   2.702   0.862
 2820SOL    HW2 9360   1.824   2.767   0.730
 2821SOL     OW 9361   2.546   3.221   6.235
 2821SOL    HW1 9362   2.500   3.309   6.236
 2821SOL    HW2 9363   2.499   3.159   6.173
 2822SOL     OW 9364   4.293   2.859   0.652
 2822SOL    HW1 9365   4.292   2.767   0.690
 2822SOL    HW2 9366   4.198   2.889   0.636
 2823SOL     OW 9367   5.357   2.258   1.475
 2823SOL    HW1 9368   5.380   2.225   1.566
 2823SOL    HW2 9369   5.346   2.357   1.476
 2824SOL     OW 9370   1.246   3.180   4.562
 2824SOL    HW1 9371   1.294   3.194   4.648
 2824SOL    HW2 9372   1.264   3.088   4.528
 2825SOL     OW 9373   5.309   1.776   5.874
 2825SOL    HW1 9374   5.317   1.757   5.972
 2825SOL    HW2 9375   5.316   1.875   5.858
 2826SOL     OW 9376   2.612   2.951   0.108
 2826SOL    HW1 9377   2.551   2.969   0.032
 2826SOL    HW2 9378   2.660   2.864   0.093
 2827SOL     OW 9379   6.082   1.148   6.326
 2827SOL    HW1 9380   5.990   1.170   6.357
 2827SOL    HW2 9381   6.148   1.171   6.397
 2828SOL     OW 9382   1.603   3.423   0.300
 2828SOL    HW1 9383   1.675   3.377   0.248
 2828SOL    HW2 9384   1.613   3.522   0.291
 2829SOL     OW 9385   3.150   3.889   2.719
 2829SOL    HW1 9386   3.203   3.806   2.736
 2829SOL    HW2 9387   3.082   3.900   2.792
 2830SOL     OW 9388   3.171   5.127   5.918
 2830SOL    HW1 9389   3.203   5.129   5.823
 2830SOL    HW2 9390   3.079   5.165   5.922
 2831SOL     OW 9391   5.642   1.636   1.258
 2831SOL    HW1 9392   5.621   1.734   1.254
 2831SOL    HW2 9393   5.584   1.593   1.328
 2832SOL     OW 9394   0.748   4.060   1.951
 2832SOL    HW1 9395   0.719   4.131   1.888
 2832SOL    HW2 9396   0.840   4.029   1.927
 2833SOL     OW 9397   2.155   2.351   2.164
 2833SOL    HW1 9398   2.103   2.371   2.081
 2833SOL    HW2 9399   2.097   2.302   2.228
 2834SOL     OW 9400   3.479   5.788   5.240
 2834SOL    HW1 9401   3.469   5.860   5.308
 2834SOL    HW2 9402   3.502   5.828   5.152
 2835SOL     OW 9403   6.678   0.463   0.726
 2835SOL    HW1 9404   6.583   0.493   0.735
 2835SOL    HW2 9405   6.680   0.365   0.706
 2836SOL     OW 9406   3.857   5.635   2.287
 2836SOL    HW1 9407   3.900   5.686   2.212
 2836SOL    HW2 9408   3.787   5.575   2.249
 2837SOL     OW 9409   5.429   4.448   1.607
 2837SOL    HW1 9410   5.347   4.500   1.631
 2837SOL    HW2 9411   5.402   4.367   1.555
 2838SOL     OW 9412   5.805   4.493   6.638
 2838SOL    HW1 9413   5.801   4.592   6.622
 2838SOL    HW2 9414   5.878   4.453   6.582
 2839SOL     OW 9415   5.905   2.990   5.032
 2839SOL    HW1 9416   5.912   2.927   5.110
 2839SOL    HW2 9417   5.817   2.977   4.987
 2840SOL     OW 9418   7.009   6.233   3.978
 2840SOL    HW1 9419   0.052   6.158   3.979
 2840SOL    HW2 9420   6.994   6.265   4.071
 2841SOL     OW 9421   6.353   3.919   2.353
 2841SOL    HW1 9422   6.439   3.931   2.304
 2841SOL    HW2 9423   6.296   4.001   2.340
 2842SOL     OW 9424   1.221   0.091   3.795
 2842SOL    HW1 9425   1.198   0.100   3.892
 2842SOL    HW2 9426   1.320   0.091   3.785
 2843SOL     OW 9427   1.943   2.887   3.792
 2843SOL    HW1 9428   2.028   2.883   3.739
 2843SOL    HW2 9429   1.910   2.981   3.792
 2844SOL     OW 9430   4.899   4.181   0.126
 2844SOL    HW1 9431   4.895   4.268   0.174
 2844SOL    HW2 9432   4.885   4.195   0.028
 2845SOL     OW 9433   3.075   2.114   3.131
 2845SOL    HW1 9434   3.087   2.014   3.129
 2845SOL    HW2 9435   3.116   2.154   3.049
 2846SOL     OW 9436   6.324   0.230   0.117
 2846SOL    HW1 9437   6.352   0.326   0.118
 2846SOL    HW2 9438   6.276   0.208   0.202
 2847SOL     OW 9439   4.403   4.550   1.542
 2847SOL    HW1 9440   4.479   4.527   1.604
 2847SOL    HW2 9441   4.423   4.514   1.451
 2848SOL     OW 9442   0.291   4.266   5.683
 2848SOL    HW1 9443   0.231   4.186   5.693
 2848SOL    HW2 9444   0.298   4.291   5.586
 2849SOL     OW 9445   4.931   0.514   2.145
 2849SOL    HW1 9446   4.841   0.545   2.175
 2849SOL    HW2 9447   4.955   0.560   2.060
 2850SOL     OW 9448   2.063   0.208   2.184
 2850SOL    HW1 9449   2.068   0.133   2.118
 2850SOL    HW2 9450   1.979   0.260   2.168
 2851SOL     OW 9451   3.706   3.264   1.141
 2851SOL    HW1 9452   3.608   3.250   1.123
 2851SOL    HW2 9453   3.729   3.360   1.122
 2852SOL     OW 9454   6.483   4.871   6.987
 2852SOL    HW1 9455   6.399   4.818   6.981
 2852SOL    HW2 9456   6.561   4.813   6.962
 2853SOL     OW 9457   0.001   4.223   5.800
 2853SOL    HW1 9458   0.082   4.181   5.841
 2853SOL    HW2 9459   6.968   4.265   5.871
 2854SOL     OW 9460   4.043   1.245   5.286
 2854SOL    HW1 9461   4.129   1.283   5.321
 2854SOL    HW2 9462   4.058   1.202   5.197
 2855SOL     OW 9463   2.242   1.893   5.573
 2855SOL    HW1 9464   2.337   1.886   5.542
 2855SOL    HW2 9465   2.188   1.940   5.504
 2856SOL     OW 9466   1.125   5.236   4.132
 2856SOL    HW1 9467   1.122   5.335   4.144
 2856SOL    HW2 9468   1.215   5.201   4.160
 2857SOL     OW 9469   0.324   3.952   0.554
 2857SOL    HW1 9470   0.312   3.853   0.549
 2857SOL    HW2 9471   0.342   3.979   0.648
 2858SOL     OW 9472   4.509   4.828   2.431
 2858SOL    HW1 9473   4.475   4.734   2.429
 2858SOL    HW2 9474   4.476   4.878   2.351
 2859SOL     OW 9475   5.093   4.915   0.843
 2859SOL    HW1 9476   5.180   4.890   0.801
 2859SOL    HW2 9477   5.098   5.009   0.877
 2860SOL     OW 9478   0.748   0.195   2.449
 2860SOL    HW1 9479   0.683   0.269   2.466
 2860SOL    HW2 9480   0.795   0.171   2.534
 2861SOL     OW 9481   4.811   5.518   6.301
 2861SOL    HW1 9482   4.887   5.552   6.244
 2861SOL    HW2 9483   4.775   5.434   6.261
 2862SOL     OW 9484   4.065   2.677   0.014
 2862SOL    HW1 9485   4.024   2.592   0.048
 2862SOL    HW2 9486   4.127   2.714   0.084
 2863SOL     OW 9487   5.903   0.107   5.288
 2863SOL    HW1 9488   5.888   0.178   5.220
 2863SOL    HW2 9489   5.995   0.069   5.277
 2864SOL     OW 9490   3.576   4.550   0.001
 2864SOL    HW1 9491   3.543   4.573   6.933
 2864SOL    HW2 9492   3.669   4.515   7.019
 2865SOL     OW 9493   5.624   5.550   4.396
 2865SOL    HW1 9494   5.636   5.538   4.298
 2865SOL    HW2 9495   5.675   5.631   4.426
 2866SOL     OW 9496   4.482   4.367   0.529
 2866SOL    HW1 9497   4.534   4.352   0.444
 2866SOL    HW2 9498   4.546   4.393   0.602
 2867SOL     OW 9499   5.568   6.414   1.684
 2867SOL    HW1 9500   5.639   6.440   1.750
 2867SOL    HW2 9501   5.567   6.480   1.609
 2868SOL     OW 9502   1.141   0.695   5.748
 2868SOL    HW1 9503   1.152   0.637   5.667
 2868SOL    HW2 9504   1.105   0.640   5.823
 2869SOL     OW 9505   6.195   5.311   5.058
 2869SOL    HW1 9506   6.220   5.397   5.015
 2869SOL    HW2 9507   6.220   5.313   5.155
 2870SOL     OW 9508   6.780   2.455   1.738
 2870SOL    HW1 9509   6.812   2.549   1.746
 2870SOL    HW2 9510   6.797   2.421   1.645
 2871SOL     OW 9511   5.568   1.631   2.589
 2871SOL    HW1 9512   5.527   1.549   2.628
 2871SOL    HW2 9513   5.500   1.705   2.589
 2872SOL     OW 9514   2.827   2.284   2.377
 2872SOL    HW1 9515   2.873   2.301   2.289
 2872SOL    HW2 9516   2.762   2.358   2.395
 2873SOL     OW 9517   0.935   6.998   1.424
 2873SOL    HW1 9518   0.962   6.907   1.457
 2873SOL    HW2 9519   0.859   6.989   1.359
 2874SOL     OW 9520   2.884   0.632   2.662
 2874SOL    HW1 9521   2.851   0.720   2.627
 2874SOL    HW2 9522   2.812   0.563   2.651
 2875SOL     OW 9523   2.594   6.749   2.991
 2875SOL    HW1 9524   2.503   6.747   2.949
 2875SOL    HW2 9525   2.617   6.658   3.025
 2876SOL     OW 9526   1.555   0.263   2.525
 2876SOL    HW1 9527   1.529   0.357   2.546
 2876SOL    HW2 9528   1.559   0.210   2.610
 2877SOL     OW 9529   1.572   2.284   6.952
 2877SOL    HW1 9530   1.639   2.211   6.962
 2877SOL    HW2 9531   1.577   2.323   6.860
 2878SOL     OW 9532   4.103   3.335   3.869
 2878SOL    HW1 9533   4.102   3.241   3.835
 2878SOL    HW2 9534   4.096   3.334   3.969
 2879SOL     OW 9535   4.158   4.311   6.904
 2879SOL    HW1 9536   4.129   4.225   6.862
 2879SOL    HW2 9537   4.173   4.298   7.001
 2880SOL     OW 9538   2.095   0.987   3.981
 2880SOL    HW1 9539   2.050   0.948   3.901
 2880SOL    HW2 9540   2.087   0.923   4.058
 2881SOL     OW 9541   4.744   5.827   6.524
 2881SOL    HW1 9542   4.701   5.846   6.435
 2881SOL    HW2 9543   4.693   5.875   6.595
 2882SOL     OW 9544   4.651   6.270   0.474
 2882SOL    HW1 9545   4.569   6.272   0.417
 2882SOL    HW2 9546   4.718   6.335   0.437
 2883SOL     OW 9547   5.908   6.013   4.053
 2883SOL    HW1 9548   5.893   6.101   4.007
 2883SOL    HW2 9549   5.938   5.945   3.986
 2884SOL     OW 9550   6.779   4.926   3.904
 2884SOL    HW1 9551   6.849   4.997   3.896
 2884SOL    HW2 9552   6.807   4.845   3.853
 2885SOL     OW 9553   1.082   2.721   3.343
 2885SOL    HW1 9554   0.991   2.715   3.384
 2885SOL    HW2 9555   1.150   2.736   3.415
 2886SOL     OW 9556   2.131   4.396   5.627
 2886SOL    HW1 9557   2.106   4.299   5.625
 2886SOL    HW2 9558   2.225   4.406   5.597
 2887SOL     OW 9559   0.162   5.837   3.271
 2887SOL    HW1 9560   0.106   5.876   3.198
 2887SOL    HW2 9561   0.168   5.738   3.261
 2888SOL     OW 9562   6.360   6.715   0.246
 2888SOL    HW1 9563   6.418   6.672   0.316
 2888SOL    HW2 9564   6.401   6.801   0.217
 2889SOL     OW 9565   3.307   6.258   2.396
 2889SOL    HW1 9566   3.379   6.292   2.457
 2889SOL    HW2 9567   3.236   6.328   2.388
 2890SOL     OW 9568   1.851   1.398   1.411
 2890SOL    HW1 9569   1.886   1.449   1.490
 2890SOL    HW2 9570   1.923   1.390   1.342
 2891SOL     OW 9571   0.797   2.159   4.834
 2891SOL    HW1 9572   0.856   2.084   4.803
 2891SOL    HW2 9573   0.848   2.216   4.899
 2892SOL     OW 9574   6.316   4.253   2.824
 2892SOL    HW1 9575   6.226   4.210   2.838
 2892SOL    HW2 9576   6.377   4.187   2.780
 2893SOL     OW 9577   6.621   5.181   4.866
 2893SOL    HW1 9578   6.545   5.153   4.925
 2893SOL    HW2 9579   6.704   5.134   4.896
 2894SOL     OW 9580   1.855   6.164   2.593
 2894SOL    HW1 9581   1.831   6.174   2.496
 2894SOL    HW2 9582   1.777   6.193   2.649
 2895SOL     OW 9583   4.406   6.937   6.607
 2895SOL    HW1 9584   4.428   6.854   6.556
 2895SOL    HW2 9585   4.438   7.017   6.556
 2896SOL     OW 9586   5.451   5.707   5.124
 2896SOL    HW1 9587   5.445   5.776   5.053
 2896SOL    HW2 9588   5.501   5.628   5.090
 2897SOL     OW 9589   4.117   5.169   3.405
 2897SOL    HW1 9590   4.142   5.157   3.501
 2897SOL    HW2 9591   4.020   5.149   3.393
 2898SOL     OW 9592   5.363   3.068   2.822
 2898SOL    HW1 9593   5.280   3.117   2.795
 2898SOL    HW2 9594   5.339   2.994   2.886
 2899SOL     OW 9595   6.803   3.902   1.073
 2899SOL    HW1 9596   6.896   3.939   1.073
 2899SOL    HW2 9597   6.737   3.976   1.084
 2900SOL     OW 9598   2.488   2.740   6.115
 2900SOL    HW1 9599   2.570   2.797   6.114
 2900SOL    HW2 9600   2.514   2.644   6.115
 2901SOL     OW 9601   0.722   4.251   3.757
 2901SOL    HW1 9602   0.636   4.280   3.797
 2901SOL    HW2 9603   0.753   4.167   3.803
 2902SOL     OW 9604   6.685   5.965   3.772
 2902SOL    HW1 9605   6.739   5.898   3.823
 2902SOL    HW2 9606   6.706   5.958   3.675
 2903SOL     OW 9607   4.463   5.028   0.363
 2903SOL    HW1 9608   4.519   4.997   0.440
 2903SOL    HW2 9609   4.482   5.125   0.345
 2904SOL     OW 9610   2.405   4.199   5.274
 2904SOL    HW1 9611   2.390   4.272   5.207
 2904SOL    HW2 9612   2.383   4.111   5.234
 2905SOL     OW 9613   0.784   5.854   1.607
 2905SOL    HW1 9614   0.828   5.769   1.580
 2905SOL    HW2 9615   0.848   5.930   1.593
 2906SOL     OW 9616   6.215   6.465   4.001
 2906SOL    HW1 9617   6.295   6.405   3.990
 2906SOL    HW2 9618   6.142   6.415   4.047
 2907SOL     OW 9619   0.442   0.981   3.953
 2907SOL    HW1 9620   0.542   0.972   3.959
 2907SOL    HW2 9621   0.411   0.948   3.864
 2908SOL     OW 9622   4.192   6.181   2.962
 2908SOL    HW1 9623   4.236   6.270   2.968
 2908SOL    HW2 9624   4.251   6.111   3.003
 2909SOL     OW 9625   0.503   6.306   1.998
 2909SOL    HW1 9626   0.454   6.237   1.945
 2909SOL    HW2 9627   0.446   6.335   2.075
 2910SOL     OW 9628   6.605   0.814   4.285
 2910SOL    HW1 9629   6.674   0.885   4.273
 2910SOL    HW2 9630   6.624   0.762   4.368
 2911SOL     OW 9631   6.898   4.316   5.097
 2911SOL    HW1 9632   6.908   4.393   5.159
 2911SOL    HW2 9633   6.803   4.310   5.067
 2912SOL     OW 9634   0.431   0.790   1.533
 2912SOL    HW1 9635   0.479   0.755   1.452
 2912SOL    HW2 9636   0.408   0.886   1.521
 2913SOL     OW 9637   2.811   0.057   1.862
 2913SOL    HW1 9638   2.780   0.043   1.768
 2913SOL    HW2 9639   2.732   0.070   1.922
 2914SOL     OW 9640   4.242   5.592   0.447
 2914SOL    HW1 9641   4.273   5.575   0.353
 2914SOL    HW2 9642   4.322   5.601   0.507
 2915SOL     OW 9643   2.518   0.352   2.361
 2915SOL    HW1 9644   2.559   0.440   2.337
 2915SOL    HW2 9645   2.434   0.339   2.308
 2916SOL     OW 9646   1.705   6.366   0.729
 2916SOL    HW1 9647   1.692   6.437   0.799
 2916SOL    HW2 9648   1.803   6.357   0.709
 2917SOL     OW 9649   2.634   6.056   4.345
 2917SOL    HW1 9650   2.683   6.047   4.258
 2917SOL    HW2 9651   2.559   6.121   4.334
 2918SOL     OW 9652   5.143   2.929   1.684
 2918SOL    HW1 9653   5.193   2.931   1.770
 2918SOL    HW2 9654   5.159   3.014   1.634
 2919SOL     OW 9655   0.871   5.573   4.788
 2919SOL    HW1 9656   0.929   5.515   4.730
 2919SOL    HW2 9657   0.775   5.556   4.765
 2920SOL     OW 9658   1.307   2.867   2.604
 2920SOL    HW1 9659   1.270   2.796   2.544
 2920SOL    HW2 9660   1.275   2.851   2.697
 2921SOL     OW 9661   1.126   0.060   4.070
 2921SOL    HW1 9662   1.122   0.147   4.120
 2921SOL    HW2 9663   1.207   0.009   4.097
 2922SOL     OW 9664   3.898   6.440   3.399
 2922SOL    HW1 9665   3.834   6.428   3.323
 2922SOL    HW2 9666   3.847   6.440   3.485
 2923SOL     OW 9667   6.622   6.127   4.941
 2923SOL    HW1 9668   6.664   6.107   5.029
 2923SOL    HW2 9669   6.528   6.160   4.956
 2924SOL     OW 9670   5.665   1.906   4.888
 2924SOL    HW1 9671   5.666   1.943   4.795
 2924SOL    HW2 9672   5.654   1.981   4.953
 2925SOL     OW 9673   5.151   6.687   6.292
 2925SOL    HW1 9674   5.173   6.750   6.366
 2925SOL    HW2 9675   5.102   6.736   6.220
 2926SOL     OW 9676   6.739   2.524   3.460
 2926SOL    HW1 9677   6.655   2.477   3.487
 2926SOL    HW2 9678   6.767   2.586   3.534
 2927SOL     OW 9679   1.364   2.134   2.101
 2927SOL    HW1 9680   1.286   2.074   2.088
 2927SOL    HW2 9681   1.379   2.149   2.199
 2928SOL     OW 9682   6.783   2.588   6.924
 2928SOL    HW1 9683   6.857   2.635   6.972
 2928SOL    HW2 9684   6.755   2.641   6.844
 2929SOL     OW 9685   2.645   2.290   4.542
 2929SOL    HW1 9686   2.593   2.361   4.494
 2929SOL    HW2 9687   2.610   2.200   4.516
 2930SOL     OW 9688   0.129   4.444   4.937
 2930SOL    HW1 9689   0.143   4.536   4.901
 2930SOL    HW2 9690   0.050   4.402   4.892
 2931SOL     OW 9691   5.218   3.900   5.625
 2931SOL    HW1 9692   5.126   3.906   5.586
 2931SOL    HW2 9693   5.285   3.899   5.551
 2932SOL     OW 9694   6.691   5.392   0.850
 2932SOL    HW1 9695   6.638   5.323   0.897
 2932SOL    HW2 9696   6.681   5.480   0.896
 2933SOL     OW 9697   1.306   0.672   0.530
 2933SOL    HW1 9698   1.358   0.596   0.569
 2933SOL    HW2 9699   1.270   0.646   0.440
 2934SOL     OW 9700   4.174   4.666   0.178
 2934SOL    HW1 9701   4.088   4.615   0.166
 2934SOL    HW2 9702   4.186   4.688   0.275
 2935SOL     OW 9703   6.698   2.222   6.355
 2935SOL    HW1 9704   6.637   2.279   6.301
 2935SOL    HW2 9705   6.793   2.240   6.331
 2936SOL     OW 9706   4.645   6.499   0.788
 2936SOL    HW1 9707   4.625   6.590   0.750
 2936SOL    HW2 9708   4.741   6.497   0.818
 2937SOL     OW 9709   4.759   4.844   2.298
 2937SOL    HW1 9710   4.694   4.830   2.373
 2937SOL    HW2 9711   4.832   4.905   2.328
 2938SOL     OW 9712   6.787   5.472   6.661
 2938SOL    HW1 9713   6.887   5.474   6.672
 2938SOL    HW2 9714   6.752   5.386   6.698
 2939SOL     OW 9715   0.635   5.874   1.868
 2939SOL    HW1 9716   0.682   5.876   1.956
 2939SOL    HW2 9717   0.701   5.855   1.795
 2940SOL     OW 9718   4.418   6.555   3.376
 2940SOL    HW1 9719   4.381   6.646   3.397
 2940SOL    HW2 9720   4.345   6.498   3.337
 2941SOL     OW 9721   1.952   3.929   3.752
 2941SOL    HW1 9722   1.888   3.958   3.823
 2941SOL    HW2 9723   1.908   3.861   3.693
 2942SOL     OW 9724   3.251   1.870   1.250
 2942SOL    HW1 9725   3.223   1.815   1.171
 2942SOL    HW2 9726   3.174   1.927   1.279
 2943SOL     OW 9727   5.929   3.755   3.174
 2943SOL    HW1 9728   6.008   3.779   3.118
 2943SOL    HW2 9729   5.845   3.786   3.129
 2944SOL     OW 9730   2.121   6.078   2.634
 2944SOL    HW1 9731   2.147   6.070   2.731
 2944SOL    HW2 9732   2.022   6.088   2.627
 2945SOL     OW 9733   5.069   4.406   1.510
 2945SOL    HW1 9734   4.998   4.364   1.454
 2945SOL    HW2 9735   5.067   4.366   1.602
 2946SOL     OW 9736   3.976   3.744   5.424
 2946SOL    HW1 9737   4.020   3.705   5.505
 2946SOL    HW2 9738   3.887   3.700   5.410
 2947SOL     OW 9739   6.427   6.744   0.765
 2947SOL    HW1 9740   6.448   6.650   0.739
 2947SOL    HW2 9741   6.387   6.792   0.687
 2948SOL     OW 9742   6.721   3.889   1.837
 2948SOL    HW1 9743   6.751   3.916   1.745
 2948SOL    HW2 9744   6.783   3.818   1.872
 2949SOL     OW 9745   1.168   0.405   0.621
 2949SOL    HW1 9746   1.165   0.456   0.707
 2949SOL    HW2 9747   1.076   0.398   0.583
 2950SOL     OW 9748   6.197   4.706   2.991
 2950SOL    HW1 9749   6.146   4.620   2.986
 2950SOL    HW2 9750   6.138   4.779   3.025
 2951SOL     OW 9751   6.667   1.371   2.136
 2951SOL    HW1 9752   6.636   1.325   2.220
 2951SOL    HW2 9753   6.754   1.417   2.154
 2952SOL     OW 9754   6.169   1.896   4.000
 2952SOL    HW1 9755   6.224   1.978   3.987
 2952SOL    HW2 9756   6.074   1.915   3.974
 2953SOL     OW 9757   0.920   5.312   4.360
 2953SOL    HW1 9758   0.920   5.406   4.325
 2953SOL    HW2 9759   0.905   5.249   4.284
 2954SOL     OW 9760   7.009   4.471   6.407
 2954SOL    HW1 9761   6.915   4.491   6.379
 2954SOL    HW2 9762   0.047   4.486   6.330
 2955SOL     OW 9763   1.744   4.214   6.049
 2955SOL    HW1 9764   1.706   4.183   5.962
 2955SOL    HW2 9765   1.844   4.208   6.045
 2956SOL     OW 9766   5.731   4.826   3.295
 2956SOL    HW1 9767   5.773   4.897   3.238
 2956SOL    HW2 9768   5.797   4.794   3.362
 2957SOL     OW 9769   2.376   5.210   0.972
 2957SOL    HW1 9770   2.402   5.138   1.036
 2957SOL    HW2 9771   2.431   5.292   0.989
 2958SOL     OW 9772   1.527   5.682   2.298
 2958SOL    HW1 9773   1.454   5.633   2.346
 2958SOL    HW2 9774   1.597   5.617   2.269
 2959SOL     OW 9775   6.758   3.790   2.824
 2959SOL    HW1 9776   6.801   3.825   2.741
 2959SOL    HW2 9777   6.709   3.706   2.804
 2960SOL     OW 9778   5.480   0.282   0.441
 2960SOL    HW1 9779   5.431   0.258   0.525
 2960SOL    HW2 9780   5.465   0.209   0.373
 2961SOL     OW 9781   5.538   3.929   2.032
 2961SOL    HW1 9782   5.453   3.885   2.007
 2961SOL    HW2 9783   5.519   4.018   2.075
 2962SOL     OW 9784   6.780   0.309   3.053
 2962SOL    HW1 9785   6.804   0.399   3.089
 2962SOL    HW2 9786   6.692   0.315   3.006
 2963SOL     OW 9787   2.094   1.064   5.124
 2963SOL    HW1 9788   2.090   0.998   5.049
 2963SOL    HW2 9789   2.042   1.030   5.202
 2964SOL     OW 9790   1.717   1.806   0.085
 2964SOL    HW1 9791   1.775   1.879   0.120
 2964SOL    HW2 9792   1.716   1.730   0.150
 2965SOL     OW 9793   0.719   6.906   5.314
 2965SOL    HW1 9794   0.657   6.984   5.303
 2965SOL    HW2 9795   0.754   6.904   5.407
 2966SOL     OW 9796   3.255   6.032   2.560
 2966SOL    HW1 9797   3.280   6.105   2.497
 2966SOL    HW2 9798   3.229   5.951   2.509
 2967SOL     OW 9799   5.566   0.482   5.448
 2967SOL    HW1 9800   5.640   0.430   5.489
 2967SOL    HW2 9801   5.522   0.538   5.519
 2968SOL     OW 9802   1.912   3.730   1.092
 2968SOL    HW1 9803   1.878   3.686   1.175
 2968SOL    HW2 9804   1.981   3.672   1.049
 2969SOL     OW 9805   5.180   3.309   4.587
 2969SOL    HW1 9806   5.131   3.396   4.585
 2969SOL    HW2 9807   5.276   3.324   4.561
 2970SOL     OW 9808   2.344   1.761   4.083
 2970SOL    HW1 9809   2.285   1.742   4.162
 2970SOL    HW2 9810   2.288   1.797   4.008
 2971SOL     OW 9811   5.217   2.845   6.351
 2971SOL    HW1 9812   5.135   2.837   6.295
 2971SOL    HW2 9813   5.217   2.775   6.422
 2972SOL     OW 9814   6.080   5.942   6.833
 2972SOL    HW1 9815   6.157   5.879   6.830
 2972SOL    HW2 9816   6.031   5.940   6.746
 2973SOL     OW 9817   4.320   1.175   2.938
 2973SOL    HW1 9818   4.266   1.241   2.888
 2973SOL    HW2 9819   4.381   1.126   2.876
 2974SOL     OW 9820   5.176   6.417   2.392
 2974SOL    HW1 9821   5.097   6.459   2.346
 2974SOL    HW2 9822   5.189   6.460   2.481
 2975SOL     OW 9823   4.777   4.210   3.628
 2975SOL    HW1 9824   4.693   4.241   3.672
 2975SOL    HW2 9825   4.781   4.110   3.631
 2976SOL     OW 9826   4.188   1.845   2.217
 2976SOL    HW1 9827   4.195   1.942   2.197
 2976SOL    HW2 9828   4.127   1.801   2.152
 2977SOL     OW 9829   1.385   0.955   1.574
 2977SOL    HW1 9830   1.452   1.026   1.598
 2977SOL    HW2 9831   1.402   0.873   1.629
 2978SOL     OW 9832   4.736   5.136   6.641
 2978SOL    HW1 9833   4.679   5.217   6.656
 2978SOL    HW2 9834   4.771   5.136   6.548
 2979SOL     OW 9835   3.213   0.397   4.378
 2979SOL    HW1 9836   3.288   0.344   4.419
 2979SOL    HW2 9837   3.227   0.404   4.279
 2980SOL     OW 9838   3.718   3.712   5.089
 2980SOL    HW1 9839   3.669   3.705   5.002
 2980SOL    HW2 9840   3.677   3.785   5.144
 2981SOL     OW 9841   1.947   1.575   1.587
 2981SOL    HW1 9842   1.903   1.662   1.567
 2981SOL    HW2 9843   2.003   1.584   1.669
 2982SOL     OW 9844   1.161   0.343   1.822
 2982SOL    HW1 9845   1.217   0.363   1.742
 2982SOL    HW2 9846   1.135   0.429   1.867
 2983SOL     OW 9847   6.239   3.345   5.609
 2983SOL    HW1 9848   6.282   3.433   5.628
 2983SOL    HW2 9849   6.150   3.341   5.654
 2984SOL     OW 9850   0.837   4.973   1.298
 2984SOL    HW1 9851   0.756   4.948   1.245
 2984SOL    HW2 9852   0.833   4.930   1.387
 2985SOL     OW 9853   0.696   0.033   5.611
 2985SOL    HW1 9854   0.601   0.040   5.644
 2985SOL    HW2 9855   0.753   7.015   5.682
 2986SOL     OW 9856   3.585   3.506   2.318
 2986SOL    HW1 9857   3.652   3.480   2.249
 2986SOL    HW2 9858   3.538   3.425   2.352
 2987SOL     OW 9859   1.880   6.796   5.216
 2987SOL    HW1 9860   1.817   6.804   5.293
 2987SOL    HW2 9861   1.887   6.885   5.170
 2988SOL     OW 9862   0.410   1.475   6.396
 2988SOL    HW1 9863   0.504   1.452   6.368
 2988SOL    HW2 9864   0.413   1.542   6.470
 2989SOL     OW 9865   4.895   3.736   4.172
 2989SOL    HW1 9866   4.866   3.653   4.126
 2989SOL    HW2 9867   4.959   3.713   4.246
 2990SOL     OW 9868   5.368   1.865   4.498
 2990SOL    HW1 9869   5.383   1.954   4.542
 2990SOL    HW2 9870   5.433   1.799   4.534
 2991SOL     OW 9871   0.387   4.007   1.465
 2991SOL    HW1 9872   0.408   4.099   1.431
 2991SOL    HW2 9873   0.461   3.945   1.441
 2992SOL     OW 9874   0.263   3.434   5.628
 2992SOL    HW1 9875   0.347   3.452   5.680
 2992SOL    HW2 9876   0.286   3.393   5.540
 2993SOL     OW 9877   1.836   4.046   0.627
 2993SOL    HW1 9878   1.907   4.099   0.674
 2993SOL    HW2 9879   1.816   4.088   0.539
 2994SOL     OW 9880   4.266   6.284   5.967
 2994SOL    HW1 9881   4.365   6.272   5.979
 2994SOL    HW2 9882   4.248   6.319   5.876
 2995SOL     OW 9883   5.357   0.792   0.350
 2995SOL    HW1 9884   5.323   0.700   0.370
 2995SOL    HW2 9885   5.301   0.860   0.399
 2996SOL     OW 9886   6.517   0.419   4.477
 2996SOL    HW1 9887   6.572   0.495   4.512
 2996SOL    HW2 9888   6.495   0.356   4.552
 2997SOL     OW 9889   5.331   6.654   4.192
 2997SOL    HW1 9890   5.325   6.593   4.271
 2997SOL    HW2 9891   5.278   6.737   4.210
 2998SOL     OW 9892   2.831   1.395   3.473
 2998SOL    HW1 9893   2.796   1.302   3.472
 2998SOL    HW2 9894   2.769   1.453   3.527
 2999SOL     OW 9895   3.052   4.063   0.806
 2999SOL    HW1 9896   2.982   4.011   0.855
 2999SOL    HW2 9897   3.024   4.075   0.711
 3000SOL     OW 9898   2.845   4.141   5.232
 3000SOL    HW1 9899   2.907   4.099   5.298
 3000SOL    HW2 9900   2.861   4.240   5.230
 3001SOL     OW 9901   6.011   0.507   5.435
 3001SOL    HW1 9902   6.011   0.557   5.522
 3001SOL    HW2 9903   6.071   0.427   5.443
 3002SOL     OW 9904   1.552   2.052   1.595
 3002SOL    HW1 9905   1.457   2.084   1.599
 3002SOL    HW2 9906   1.591   2.074   1.506
 3003SOL     OW 9907   1.665   6.480   0.479
 3003SOL    HW1 9908   1.749   6.517   0.441
 3003SOL    HW2 9909   1.682   6.445   0.571
 3004SOL     OW 9910   2.749   6.246   3.773
 3004SOL    HW1 9911   2.685   6.204   3.837
 3004SOL    HW2 9912   2.836   6.196   3.775
 3005SOL     OW 9913   0.863   2.493   6.683
 3005SOL    HW1 9914   0.818   2.404   6.690
 3005SOL    HW2 9915   0.811   2.551   6.621
 3006SOL     OW 9916   5.202   1.433   5.559
 3006SOL    HW1 9917   5.204   1.357   5.624
 3006SOL    HW2 9918   5.267   1.504   5.588
 3007SOL     OW 9919   5.118   5.576   0.089
 3007SOL    HW1 9920   5.095   5.616   0.178
 3007SOL    HW2 9921   5.035   5.564   0.035
 3008SOL     OW 9922   4.999   3.617   5.705
 3008SOL    HW1 9923   4.979   3.533   5.757
 3008SOL    HW2 9924   5.054   3.678   5.762
 3009SOL     OW 9925   0.462   3.599   2.533
 3009SOL    HW1 9926   0.418   3.568   2.617
 3009SOL    HW2 9927   0.505   3.522   2.487
 3010SOL     OW 9928   3.644   5.754   0.324
 3010SOL    HW1 9929   3.730   5.705   0.341
 3010SOL    HW2 9930   3.661   5.853   0.329
 3011SOL     OW 9931   6.449   0.100   1.094
 3011SOL    HW1 9932   6.363   0.064   1.057
 3011SOL    HW2 9933   6.504   0.025   1.130
 3012SOL     OW 9934   2.295   2.160   5.407
 3012SOL    HW1 9935   2.312   2.229   5.476
 3012SOL    HW2 9936   2.198   2.157   5.385
 3013SOL     OW 9937   1.217   4.362   5.148
 3013SOL    HW1 9938   1.168   4.275   5.160
 3013SOL    HW2 9939   1.196   4.399   5.058
 3014SOL     OW 9940   5.479   6.493   6.107
 3014SOL    HW1 9941   5.566   6.524   6.145
 3014SOL    HW2 9942   5.491   6.403   6.065
 3015SOL     OW 9943   1.126   0.529   6.691
 3015SOL    HW1 9944   1.181   0.493   6.766
 3015SOL    HW2 9945   1.119   0.461   6.618
 3016SOL     OW 9946   1.766   6.137   4.244
 3016SOL    HW1 9947   1.747   6.235   4.249
 3016SOL    HW2 9948   1.864   6.122   4.236
 3017SOL     OW 9949   0.938   5.136   0.838
 3017SOL    HW1 9950   0.879   5.174   0.910
 3017SOL    HW2 9951   0.886   5.069   0.785
 3018SOL     OW 9952   3.465   0.059   0.726
 3018SOL    HW1 9953   3.456   6.990   0.765
 3018SOL    HW2 9954   3.541   0.106   0.770
 3019SOL     OW 9955   2.199   1.312   6.086
 3019SOL    HW1 9956   2.198   1.393   6.143
 3019SOL    HW2 9957   2.239   1.235   6.136
 3020SOL     OW 9958   6.689   4.158   6.815
 3020SOL    HW1 9959   6.708   4.060   6.817
 3020SOL    HW2 9960   6.718   4.197   6.728
 3021SOL     OW 9961   4.582   0.153   4.800
 3021SOL    HW1 9962   4.620   0.068   4.838
 3021SOL    HW2 9963   4.644   0.189   4.730
 3022SOL     OW 9964   3.818   5.827   3.789
 3022SOL    HW1 9965   3.897   5.867   3.835
 3022SOL    HW2 9966   3.783   5.751   3.844
 3023SOL     OW 9967   5.376   5.997   3.885
 3023SOL    HW1 9968   5.369   5.903   3.918
 3023SOL    HW2 9969   5.329   6.059   3.948
 3024SOL     OW 9970   0.099   6.782   0.129
 3024SOL    HW1 9971   0.016   6.838   0.131
 3024SOL    HW2 9972   0.129   6.770   0.034
 3025SOL     OW 9973   3.491   5.131   0.143
 3025SOL    HW1 9974   3.540   5.205   0.096
 3025SOL    HW2 9975   3.396   5.157   0.156
 3026SOL     OW 9976   6.879   0.803   1.718
 3026SOL    HW1 9977   6.861   0.721   1.664
 3026SOL    HW2 9978   6.971   0.798   1.757
 3027SOL     OW 9979   4.568   1.213   0.832
 3027SOL    HW1 9980   4.470   1.234   0.821
 3027SOL    HW2 9981   4.622   1.278   0.780
 3028SOL     OW 9982   2.990   3.211   5.614
 3028SOL    HW1 9983   2.935   3.294   5.628
 3028SOL    HW2 9984   3.041   3.190   5.697
 3029SOL     OW 9985   0.283   3.119   4.236
 3029SOL    HW1 9986   0.226   3.090   4.312
 3029SOL    HW2 9987   0.251   3.208   4.202
 3030SOL     OW 9988   2.351   3.262   0.324
 3030SOL    HW1 9989   2.395   3.351   0.337
 3030SOL    HW2 9990   2.255   3.275   0.301
 3031SOL     OW 9991   1.108   6.278   0.413
 3031SOL    HW1 9992   1.083   6.335   0.491
 3031SOL    HW2 9993   1.168   6.329   0.352
 3032SOL     OW 9994   2.491   0.371   2.701
 3032SOL    HW1 9995   2.581   0.381   2.659
 3032SOL    HW2 9996   2.475   0.275   2.723
 3033SOL     OW 9997   0.093   2.081   4.696
 3033SOL    HW1 9998   0.189   2.095   4.721
 3033SOL    HW2 9999   0.076   2.120   4.605
 3034SOL     OW10000   6.606   5.082   3.253
 3034SOL    HW110001   6.655   4.995   3.254
 3034SOL    HW210002   6.590   5.112   3.347
 3035SOL     OW10003   0.896   2.999   0.473
 3035SOL    HW110004   0.895   3.099   0.462
 3035SOL    HW210005   0.991   2.968   0.482
 3036SOL     OW10006   3.028   2.202   5.973
 3036SOL    HW110007   3.114   2.156   5.989
 3036SOL    HW210008   2.995   2.242   6.058
 3037SOL     OW10009   0.495   6.008   6.805
 3037SOL    HW110010   0.542   6.076   6.750
 3037SOL    HW210011   0.557   5.971   6.874
 3038SOL     OW10012   6.219   4.673   6.744
 3038SOL    HW110013   6.183   4.767   6.743
 3038SOL    HW210014   6.210   4.636   6.837
 3039SOL     OW10015   6.723   3.413   6.228
 3039SOL    HW110016   6.735   3.467   6.144
 3039SOL    HW210017   6.696   3.320   6.203
 3040SOL     OW10018   5.125   4.458   5.905
 3040SOL    HW110019   5.204   4.499   5.951
 3040SOL    HW210020   5.045   4.462   5.966
 3041SOL     OW10021   1.328   4.611   5.876
 3041SOL    HW110022   1.345   4.691   5.934
 3041SOL    HW210023   1.406   4.549   5.881
 3042SOL     OW10024   6.439   5.198   3.449
 3042SOL    HW110025   6.437   5.131   3.524
 3042SOL    HW210026   6.386   5.278   3.475
 3043SOL     OW10027   2.867   5.270   0.912
 3043SOL    HW110028   2.903   5.177   0.907
 3043SOL    HW210029   2.847   5.293   1.007
 3044SOL     OW10030   3.814   3.702   4.740
 3044SOL    HW110031   3.812   3.616   4.792
 3044SOL    HW210032   3.728   3.712   4.690
 3045SOL     OW10033   4.451   1.857   2.274
 3045SOL    HW110034   4.483   1.816   2.360
 3045SOL    HW210035   4.354   1.838   2.263
 3046SOL     OW10036   5.149   6.109   0.787
 3046SOL    HW110037   5.239   6.097   0.830
 3046SOL    HW210038   5.156   6.088   0.689
 3047SOL     OW10039   5.997   1.257   4.964
 3047SOL    HW110040   5.927   1.260   5.035
 3047SOL    HW210041   6.067   1.326   4.982
 3048SOL     OW10042   3.893   4.609   0.889
 3048SOL    HW110043   3.976   4.614   0.944
 3048SOL    HW210044   3.913   4.641   0.796
 3049SOL     OW10045   1.297   1.422   3.279
 3049SOL    HW110046   1.356   1.503   3.280
 3049SOL    HW210047   1.203   1.450   3.259
 3050SOL     OW10048   3.401   1.731   0.823
 3050SOL    HW110049   3.501   1.732   0.819
 3050SOL    HW210050   3.364   1.710   0.733
 3051SOL     OW10051   2.236   5.359   5.783
 3051SOL    HW110052   2.170   5.346   5.856
 3051SOL    HW210053   2.190   5.399   5.703
 3052SOL     OW10054   6.847   6.573   1.939
 3052SOL    HW110055   6.768   6.542   1.992
 3052SOL    HW210056   6.922   6.594   2.002
 3053SOL     OW10057   0.983   4.434   0.131
 3053SOL    HW110058   1.046   4.480   0.194
 3053SOL    HW210059   0.950   4.350   0.172
 3054SOL     OW10060   5.471   0.707   2.537
 3054SOL    HW110061   5.550   0.686   2.595
 3054SOL    HW210062   5.388   0.706   2.593
 3055SOL     OW10063   6.121   6.249   6.545
 3055SOL    HW110064   6.198   6.215   6.492
 3055SOL    HW210065   6.065   6.172   6.575
 3056SOL     OW10066   4.995   1.411   5.346
 3056SOL    HW110067   5.051   1.433   5.426
 3056SOL    HW210068   5.026   1.463   5.267
 3057SOL     OW10069   5.411   3.792   3.339
 3057SOL    HW110070   5.493   3.837   3.302
 3057SOL    HW210071   5.401   3.815   3.436
 3058SOL     OW10072   0.292   4.340   6.552
 3058SOL    HW110073   0.335   4.402   6.486
 3058SOL    HW210074   0.193   4.342   6.541
 3059SOL     OW10075   1.595   1.993   3.549
 3059SOL    HW110076   1.504   1.968   3.580
 3059SOL    HW210077   1.651   1.911   3.537
 3060SOL     OW10078   5.542   5.261   5.248
 3060SOL    HW110079   5.499   5.194   5.187
 3060SOL    HW210080   5.627   5.294   5.207
 3061SOL     OW10081   6.001   6.209   4.716
 3061SOL    HW110082   6.040   6.280   4.657
 3061SOL    HW210083   5.947   6.252   4.788
 3062SOL     OW10084   4.016   4.232   1.207
 3062SOL    HW110085   4.077   4.277   1.273
 3062SOL    HW210086   3.990   4.142   1.243
 3063SOL     OW10087   0.444   4.206   2.087
 3063SOL    HW110088   0.492   4.171   2.167
 3063SOL    HW210089   0.397   4.131   2.041
 3064SOL     OW10090   4.963   2.182   6.209
 3064SOL    HW110091   5.033   2.142   6.149
 3064SOL    HW210092   5.001   2.196   6.300
 3065SOL     OW10093   6.079   1.236   0.089
 3065SOL    HW110094   6.009   1.165   0.087
 3065SOL    HW210095   6.105   1.255   0.183
 3066SOL     OW10096   5.081   6.147   5.488
 3066SOL    HW110097   5.179   6.160   5.470
 3066SOL    HW210098   5.029   6.159   5.404
 3067SOL     OW10099   1.262   2.006   5.900
 3067SOL    HW110100   1.316   1.922   5.905
 3067SOL    HW210101   1.201   2.011   5.979
 3068SOL     OW10102   0.320   1.026   0.331
 3068SOL    HW110103   0.383   1.045   0.406
 3068SOL    HW210104   0.348   0.942   0.284
 3069SOL     OW10105   5.343   0.197   3.104
 3069SOL    HW110106   5.371   0.219   3.010
 3069SOL    HW210107   5.422   0.201   3.164
 3070SOL     OW10108   2.289   1.315   1.111
 3070SOL    HW110109   2.282   1.325   1.012
 3070SOL    HW210110   2.199   1.325   1.152
 3071SOL     OW10111   6.537   4.177   4.375
 3071SOL    HW110112   6.612   4.161   4.439
 3071SOL    HW210113   6.456   4.127   4.405
 3072SOL     OW10114   1.838   6.923   6.319
 3072SOL    HW110115   1.766   6.905   6.252
 3072SOL    HW210116   1.797   6.945   6.407
 3073SOL     OW10117   6.502   4.954   1.325
 3073SOL    HW110118   6.555   5.033   1.292
 3073SOL    HW210119   6.435   4.928   1.255
 3074SOL     OW10120   2.440   3.121   1.700
 3074SOL    HW110121   2.347   3.119   1.736
 3074SOL    HW210122   2.477   3.213   1.708
 3075SOL     OW10123   3.263   5.545   2.041
 3075SOL    HW110124   3.317   5.463   2.021
 3075SOL    HW210125   3.206   5.528   2.122
 3076SOL     OW10126   0.800   0.326   5.290
 3076SOL    HW110127   0.748   0.324   5.375
 3076SOL    HW210128   0.893   0.295   5.308
 3077SOL     OW10129   0.039   3.978   3.008
 3077SOL    HW110130   0.026   3.943   3.101
 3077SOL    HW210131   0.013   3.907   2.942
 3078SOL     OW10132   0.000   3.552   1.989
 3078SOL    HW110133   6.981   3.463   2.002
 3078SOL    HW210134   0.100   3.542   1.985
 3079SOL     OW10135   2.071   3.313   5.014
 3079SOL    HW110136   2.097   3.381   5.083
 3079SOL    HW210137   2.050   3.360   4.928
 3080SOL     OW10138   3.904   4.604   0.546
 3080SOL    HW110139   3.969   4.662   0.497
 3080SOL    HW210140   3.831   4.661   0.585
 3081SOL     OW10141   1.091   3.829   0.487
 3081SOL    HW110142   1.183   3.861   0.512
 3081SOL    HW210143   1.091   3.729   0.480
 3082SOL     OW10144   4.471   5.156   4.378
 3082SOL    HW110145   4.409   5.233   4.366
 3082SOL    HW210146   4.426   5.072   4.349
 3083SOL     OW10147   3.841   6.087   1.750
 3083SOL    HW110148   3.929   6.130   1.770
 3083SOL    HW210149   3.851   6.024   1.673
 3084SOL     OW10150   0.305   4.048   4.354
 3084SOL    HW110151   0.257   4.135   4.341
 3084SOL    HW210152   0.403   4.064   4.356
 3085SOL     OW10153   5.539   4.960   0.410
 3085SOL    HW110154   5.602   5.028   0.373
 3085SOL    HW210155   5.456   5.005   0.443
 3086SOL     OW10156   6.320   6.859   6.303
 3086SOL    HW110157   6.308   6.834   6.399
 3086SOL    HW210158   6.265   6.939   6.282
 3087SOL     OW10159   3.156   6.710   1.938
 3087SOL    HW110160   3.141   6.626   1.885
 3087SOL    HW210161   3.252   6.718   1.962
 3088SOL     OW10162   2.091   2.828   5.978
 3088SOL    HW110163   2.043   2.882   5.909
 3088SOL    HW210164   2.058   2.734   5.975
 3089SOL     OW10165   4.443   5.477   5.224
 3089SOL    HW110166   4.346   5.484   5.249
 3089SOL    HW210167   4.490   5.419   5.290
 3090SOL     OW10168   1.152   2.112   2.356
 3090SOL    HW110169   1.098   2.126   2.273
 3090SOL    HW210170   1.120   2.029   2.403
 3091SOL     OW10171   1.088   2.068   1.121
 3091SOL    HW110172   1.062   2.153   1.073
 3091SOL    HW210173   1.142   2.011   1.060
 3092SOL     OW10174   5.891   1.110   2.829
 3092SOL    HW110175   5.801   1.152   2.838
 3092SOL    HW210176   5.886   1.014   2.855
 3093SOL     OW10177   5.907   5.594   0.089
 3093SOL    HW110178   5.936   5.499   0.078
 3093SOL    HW210179   5.857   5.604   0.175
 3094SOL     OW10180   2.948   1.872   6.568
 3094SOL    HW110181   3.014   1.896   6.497
 3094SOL    HW210182   2.978   1.789   6.615
 3095SOL     OW10183   1.685   3.768   4.645
 3095SOL    HW110184   1.612   3.834   4.663
 3095SOL    HW210185   1.713   3.774   4.549
 3096SOL     OW10186   0.509   3.245   4.142
 3096SOL    HW110187   0.521   3.311   4.068
 3096SOL    HW210188   0.427   3.190   4.124
 3097SOL     OW10189   5.414   2.783   5.522
 3097SOL    HW110190   5.319   2.768   5.497
 3097SOL    HW210191   5.454   2.697   5.555
 3098SOL     OW10192   1.607   3.358   2.348
 3098SOL    HW110193   1.661   3.279   2.378
 3098SOL    HW210194   1.566   3.402   2.428
 3099SOL     OW10195   0.529   6.145   4.360
 3099SOL    HW110196   0.433   6.162   4.339
 3099SOL    HW210197   0.543   6.148   4.459
 3100SOL     OW10198   6.124   4.853   1.758
 3100SOL    HW110199   6.115   4.824   1.853
 3100SOL    HW210200   6.099   4.778   1.697
 3101SOL     OW10201   3.740   6.947   5.587
 3101SOL    HW110202   3.691   0.010   5.598
 3101SOL    HW210203   3.719   6.909   5.497
 3102SOL     OW10204   6.901   4.600   0.974
 3102SOL    HW110205   6.918   4.517   1.027
 3102SOL    HW210206   6.844   4.578   0.895
 3103SOL     OW10207   3.203   1.326   1.084
 3103SOL    HW110208   3.103   1.329   1.094
 3103SOL    HW210209   3.245   1.388   1.150
 3104SOL     OW10210   4.599   1.339   5.325
 3104SOL    HW110211   4.538   1.301   5.395
 3104SOL    HW210212   4.664   1.269   5.297
 3105SOL     OW10213   6.063   3.467   0.710
 3105SOL    HW110214   6.082   3.418   0.625
 3105SOL    HW210215   6.004   3.546   0.690
 3106SOL     OW10216   6.247   0.348   6.336
 3106SOL    HW110217   6.147   0.351   6.335
 3106SOL    HW210218   6.281   0.330   6.244
 3107SOL     OW10219   3.711   1.326   5.511
 3107SOL    HW110220   3.784   1.359   5.451
 3107SOL    HW210221   3.694   1.393   5.583
 3108SOL     OW10222   2.272   4.112   3.795
 3108SOL    HW110223   2.299   4.088   3.702
 3108SOL    HW210224   2.173   4.112   3.803
 3109SOL     OW10225   6.725   6.138   4.268
 3109SOL    HW110226   6.797   6.202   4.241
 3109SOL    HW210227   6.690   6.091   4.187
 3110SOL     OW10228   0.890   4.408   3.077
 3110SOL    HW110229   0.828   4.470   3.125
 3110SOL    HW210230   0.935   4.457   3.002
 3111SOL     OW10231   6.034   4.718   4.144
 3111SOL    HW110232   6.025   4.631   4.192
 3111SOL    HW210233   6.099   4.708   4.069
 3112SOL     OW10234   4.102   1.532   5.949
 3112SOL    HW110235   4.046   1.453   5.925
 3112SOL    HW210236   4.172   1.546   5.879
 3113SOL     OW10237   2.811   6.020   3.007
 3113SOL    HW110238   2.719   5.995   3.036
 3113SOL    HW210239   2.856   5.940   2.967
 3114SOL     OW10240   4.760   1.259   5.625
 3114SOL    HW110241   4.739   1.356   5.629
 3114SOL    HW210242   4.860   1.247   5.623
 3115SOL     OW10243   4.929   5.142   5.213
 3115SOL    HW110244   4.847   5.137   5.156
 3115SOL    HW210245   4.906   5.117   5.307
 3116SOL     OW10246   0.269   1.119   0.957
 3116SOL    HW110247   0.271   1.196   1.021
 3116SOL    HW210248   0.362   1.101   0.925
 3117SOL     OW10249   5.192   1.228   5.734
 3117SOL    HW110250   5.166   1.155   5.672
 3117SOL    HW210251   5.280   1.207   5.776
 3118SOL     OW10252   1.065   0.949   3.372
 3118SOL    HW110253   1.134   1.021   3.385
 3118SOL    HW210254   1.056   0.928   3.275
 3119SOL     OW10255   4.457   5.020   5.021
 3119SOL    HW110256   4.389   5.092   5.007
 3119SOL    HW210257   4.481   5.014   5.118
 3120SOL     OW10258   1.538   5.712   5.514
 3120SOL    HW110259   1.618   5.770   5.529
 3120SOL    HW210260   1.567   5.616   5.507
 3121SOL     OW10261   4.191   1.138   3.984
 3121SOL    HW110262   4.094   1.145   3.959
 3121SOL    HW210263   4.241   1.092   3.911
 3122SOL     OW10264   4.656   5.491   4.594
 3122SOL    HW110265   4.661   5.462   4.499
 3122SOL    HW210266   4.742   5.534   4.621
 3123SOL     OW10267   2.368   1.235   3.587
 3123SOL    HW110268   2.399   1.327   3.563
 3123SOL    HW210269   2.438   1.189   3.642
 3124SOL     OW10270   4.657   0.018   3.969
 3124SOL    HW110271   4.624   6.991   3.889
 3124SOL    HW210272   4.657   6.979   4.048
 3125SOL     OW10273   1.226   0.854   5.022
 3125SOL    HW110274   1.140   0.811   4.997
 3125SOL    HW210275   1.231   0.864   5.121
 3126SOL     OW10276   5.417   5.607   5.636
 3126SOL    HW110277   5.363   5.682   5.596
 3126SOL    HW210278   5.425   5.533   5.571
 3127SOL     OW10279   0.338   0.980   5.004
 3127SOL    HW110280   0.264   1.042   5.031
 3127SOL    HW210281   0.353   0.912   5.075
 3128SOL     OW10282   4.074   0.415   0.781
 3128SOL    HW110283   4.007   0.428   0.708
 3128SOL    HW210284   4.103   0.504   0.816
 3129SOL     OW10285   4.620   3.990   6.944
 3129SOL    HW110286   4.713   3.970   6.914
 3129SOL    HW210287   4.584   3.911   6.994
 3130SOL     OW10288   0.289   4.500   2.458
 3130SOL    HW110289   0.199   4.472   2.424
 3130SOL    HW210290   0.347   4.527   2.382
 3131SOL     OW10291   6.484   4.026   3.373
 3131SOL    HW110292   6.570   4.066   3.341
 3131SOL    HW210293   6.495   3.997   3.468
 3132SOL     OW10294   4.378   4.739   6.842
 3132SOL    HW110295   4.312   4.800   6.885
 3132SOL    HW210296   4.362   4.645   6.873
 3133SOL     OW10297   4.203   0.316   4.143
 3133SOL    HW110298   4.145   0.386   4.185
 3133SOL    HW210299   4.265   0.279   4.212
 3134SOL     OW10300   4.461   5.104   2.576
 3134SOL    HW110301   4.365   5.126   2.589
 3134SOL    HW210302   4.470   5.011   2.542
 3135SOL     OW10303   4.978   5.997   6.587
 3135SOL    HW110304   4.999   6.064   6.516
 3135SOL    HW210305   4.904   5.937   6.556
 3136SOL     OW10306   6.328   1.707   2.797
 3136SOL    HW110307   6.316   1.608   2.793
 3136SOL    HW210308   6.287   1.749   2.715
 3137SOL     OW10309   5.847   6.587   6.785
 3137SOL    HW110310   5.903   6.584   6.869
 3137SOL    HW210311   5.900   6.629   6.712
 3138SOL     OW10312   5.890   6.057   3.563
 3138SOL    HW110313   5.874   6.134   3.501
 3138SOL    HW210314   5.982   6.064   3.601
 3139SOL     OW10315   2.962   4.841   1.609
 3139SOL    HW110316   2.924   4.754   1.641
 3139SOL    HW210317   2.951   4.910   1.681
 3140SOL     OW10318   6.771   6.816   6.385
 3140SOL    HW110319   6.797   6.746   6.319
 3140SOL    HW210320   6.842   6.822   6.456
 3141SOL     OW10321   6.545   2.384   6.221
 3141SOL    HW110322   6.496   2.453   6.275
 3141SOL    HW210323   6.509   2.383   6.128
 3142SOL     OW10324   4.340   1.157   3.235
 3142SOL    HW110325   4.359   1.235   3.294
 3142SOL    HW210326   4.337   1.188   3.139
 3143SOL     OW10327   6.487   0.995   0.893
 3143SOL    HW110328   6.432   0.920   0.930
 3143SOL    HW210329   6.566   0.958   0.844
 3144SOL     OW10330   4.059   3.758   6.266
 3144SOL    HW110331   3.999   3.771   6.345
 3144SOL    HW210332   4.150   3.731   6.299
 3145SOL     OW10333   0.395   6.226   1.159
 3145SOL    HW110334   0.305   6.244   1.119
 3145SOL    HW210335   0.457   6.192   1.089
 3146SOL     OW10336   0.352   0.255   5.316
 3146SOL    HW110337   0.392   0.298   5.397
 3146SOL    HW210338   0.260   0.223   5.337
 3147SOL     OW10339   3.663   5.324   0.086
 3147SOL    HW110340   3.711   5.237   0.076
 3147SOL    HW210341   3.722   5.389   0.134
 3148SOL     OW10342   6.759   5.357   2.618
 3148SOL    HW110343   6.729   5.452   2.605
 3148SOL    HW210344   6.790   5.345   2.713
 3149SOL     OW10345   3.063   1.619   0.368
 3149SOL    HW110346   3.002   1.689   0.408
 3149SOL    HW210347   3.054   1.534   0.420
 3150SOL     OW10348   6.684   5.749   4.950
 3150SOL    HW110349   6.700   5.803   4.867
 3150SOL    HW210350   6.712   5.654   4.933
 3151SOL     OW10351   6.793   0.817   5.880
 3151SOL    HW110352   6.880   0.857   5.907
 3151SOL    HW210353   6.808   0.723   5.849
 3152SOL     OW10354   1.152   3.420   5.979
 3152SOL    HW110355   1.096   3.437   6.060
 3152SOL    HW210356   1.114   3.471   5.902
 3153SOL     OW10357   6.705   5.074   0.993
 3153SOL    HW110358   6.781   5.013   1.011
 3153SOL    HW210359   6.690   5.134   1.073
 3154SOL     OW10360   4.703   1.298   7.013
 3154SOL    HW110361   4.685   1.371   0.055
 3154SOL    HW210362   4.694   1.210   0.036
 3155SOL     OW10363   1.165   4.927   0.937
 3155SOL    HW110364   1.120   4.852   0.987
 3155SOL    HW210365   1.110   5.010   0.944
 3156SOL     OW10366   3.551   4.163   2.008
 3156SOL    HW110367   3.528   4.204   1.920
 3156SOL    HW210368   3.650   4.159   2.018
 3157SOL     OW10369   1.004   1.076   5.501
 3157SOL    HW110370   0.960   1.096   5.414
 3157SOL    HW210371   1.069   1.149   5.523
 3158SOL     OW10372   1.716   1.112   5.775
 3158SOL    HW110373   1.778   1.067   5.839
 3158SOL    HW210374   1.647   1.164   5.825
 3159SOL     OW10375   6.253   6.874   0.579
 3159SOL    HW110376   6.172   6.878   0.637
 3159SOL    HW210377   6.226   6.845   0.487
 3160SOL     OW10378   1.752   0.567   7.017
 3160SOL    HW110379   1.747   0.612   0.083
 3160SOL    HW210380   1.830   0.602   6.966
 3161SOL     OW10381   2.260   1.901   2.553
 3161SOL    HW110382   2.234   1.920   2.648
 3161SOL    HW210383   2.183   1.919   2.492
 3162SOL     OW10384   2.266   5.364   1.275
 3162SOL    HW110385   2.191   5.336   1.216
 3162SOL    HW210386   2.347   5.309   1.255
 3163SOL     OW10387   4.403   4.442   6.829
 3163SOL    HW110388   4.338   4.373   6.861
 3163SOL    HW210389   4.384   4.466   6.734
 3164SOL     OW10390   2.872   6.483   2.693
 3164SOL    HW110391   2.883   6.517   2.599
 3164SOL    HW210392   2.780   6.445   2.704
 3165SOL     OW10393   0.775   6.593   6.736
 3165SOL    HW110394   0.871   6.604   6.759
 3165SOL    HW210395   0.758   6.498   6.709
 3166SOL     OW10396   4.772   0.585   5.218
 3166SOL    HW110397   4.747   0.675   5.181
 3166SOL    HW210398   4.709   0.561   5.292
 3167SOL     OW10399   5.617   3.359   0.494
 3167SOL    HW110400   5.663   3.420   0.430
 3167SOL    HW210401   5.677   3.282   0.516
 3168SOL     OW10402   4.943   2.106   0.415
 3168SOL    HW110403   4.924   2.136   0.509
 3168SOL    HW210404   4.979   2.013   0.417
 3169SOL     OW10405   1.877   4.521   1.982
 3169SOL    HW110406   1.834   4.551   2.068
 3169SOL    HW210407   1.834   4.436   1.951
 3170SOL     OW10408   2.988   4.833   3.305
 3170SOL    HW110409   3.022   4.926   3.316
 3170SOL    HW210410   3.046   4.770   3.356
 3171SOL     OW10411   5.033   2.701   3.660
 3171SOL    HW110412   5.035   2.609   3.620
 3171SOL    HW210413   4.952   2.750   3.629
 3172SOL     OW10414   6.838   4.502   1.382
 3172SOL    HW110415   6.899   4.514   1.461
 3172SOL    HW210416   6.798   4.590   1.357
 3173SOL     OW10417   3.820   2.902   0.798
 3173SOL    HW110418   3.826   2.956   0.882
 3173SOL    HW210419   3.763   2.821   0.814
 3174SOL     OW10420   2.848   3.863   5.950
 3174SOL    HW110421   2.760   3.815   5.943
 3174SOL    HW210422   2.853   3.934   5.879
 3175SOL     OW10423   6.152   0.520   3.865
 3175SOL    HW110424   6.087   0.557   3.932
 3175SOL    HW210425   6.227   0.584   3.852
 3176SOL     OW10426   1.187   4.729   5.150
 3176SOL    HW110427   1.158   4.668   5.077
 3176SOL    HW210428   1.267   4.690   5.196
 3177SOL     OW10429   5.680   3.298   3.588
 3177SOL    HW110430   5.638   3.211   3.613
 3177SOL    HW210431   5.630   3.373   3.632
 3178SOL     OW10432   0.071   0.329   1.407
 3178SOL    HW110433   7.017   0.297   1.463
 3178SOL    HW210434   0.086   0.265   1.332
 3179SOL     OW10435   1.128   1.596   2.348
 3179SOL    HW110436   1.068   1.670   2.319
 3179SOL    HW210437   1.218   1.633   2.372
 3180SOL     OW10438   6.741   5.856   0.378
 3180SOL    HW110439   6.694   5.792   0.317
 3180SOL    HW210440   6.794   5.806   0.446
 3181SOL     OW10441   0.775   0.141   4.873
 3181SOL    HW110442   0.786   0.075   4.947
 3181SOL    HW210443   0.819   0.106   4.791
 3182SOL     OW10444   2.627   1.150   0.757
 3182SOL    HW110445   2.712   1.101   0.738
 3182SOL    HW210446   2.562   1.135   0.683
 3183SOL     OW10447   3.901   4.491   1.709
 3183SOL    HW110448   3.847   4.464   1.629
 3183SOL    HW210449   3.882   4.586   1.732
 3184SOL     OW10450   0.357   2.005   5.640
 3184SOL    HW110451   0.441   2.020   5.693
 3184SOL    HW210452   0.325   2.093   5.605
 3185SOL     OW10453   0.499   5.378   6.082
 3185SOL    HW110454   0.549   5.364   5.996
 3185SOL    HW210455   0.406   5.408   6.062
 3186SOL     OW10456   0.041   1.588   6.440
 3186SOL    HW110457   0.103   1.544   6.505
 3186SOL    HW210458   6.981   1.617   6.487
 3187SOL     OW10459   3.969   5.910   2.410
 3187SOL    HW110460   3.960   6.007   2.389
 3187SOL    HW210461   4.004   5.861   2.330
 3188SOL     OW10462   2.156   4.841   5.646
 3188SOL    HW110463   2.197   4.803   5.729
 3188SOL    HW210464   2.227   4.879   5.587
 3189SOL     OW10465   3.590   1.904   6.280
 3189SOL    HW110466   3.616   1.996   6.250
 3189SOL    HW210467   3.652   1.874   6.353
 3190SOL     OW10468   6.298   5.650   4.936
 3190SOL    HW110469   6.337   5.700   4.858
 3190SOL    HW210470   6.372   5.619   4.995
 3191SOL     OW10471   4.389   5.603   1.611
 3191SOL    HW110472   4.301   5.618   1.566
 3191SOL    HW210473   4.407   5.505   1.616
 3192SOL     OW10474   6.171   2.298   2.183
 3192SOL    HW110475   6.244   2.313   2.117
 3192SOL    HW210476   6.182   2.362   2.259
 3193SOL     OW10477   4.034   0.401   5.403
 3193SOL    HW110478   4.058   0.307   5.425
 3193SOL    HW210479   3.954   0.429   5.457
 3194SOL     OW10480   1.379   1.176   6.111
 3194SOL    HW110481   1.450   1.203   6.046
 3194SOL    HW210482   1.335   1.092   6.079
 3195SOL     OW10483   0.134   2.100   1.435
 3195SOL    HW110484   0.218   2.093   1.381
 3195SOL    HW210485   0.055   2.080   1.377
 3196SOL     OW10486   6.123   0.307   4.356
 3196SOL    HW110487   6.064   0.373   4.310
 3196SOL    HW210488   6.161   0.244   4.289
 3197SOL     OW10489   1.855   0.842   6.348
 3197SOL    HW110490   1.782   0.803   6.403
 3197SOL    HW210491   1.854   0.942   6.355
 3198SOL     OW10492   5.785   2.999   3.160
 3198SOL    HW110493   5.796   3.098   3.160
 3198SOL    HW210494   5.781   2.966   3.255
 3199SOL     OW10495   5.838   4.393   3.634
 3199SOL    HW110496   5.768   4.458   3.603
 3199SOL    HW210497   5.796   4.302   3.645
 3200SOL     OW10498   5.619   2.983   4.001
 3200SOL    HW110499   5.658   2.925   3.929
 3200SOL    HW210500   5.520   2.986   3.992
 3201SOL     OW10501   5.828   4.298   2.898
 3201SOL    HW110502   5.798   4.355   2.821
 3201SOL    HW210503   5.883   4.354   2.961
 3202SOL     OW10504   1.669   4.069   6.832
 3202SOL    HW110505   1.626   4.150   6.792
 3202SOL    HW210506   1.664   4.074   6.932
 3203SOL     OW10507   3.780   0.129   1.266
 3203SOL    HW110508   3.737   0.219   1.272
 3203SOL    HW210509   3.831   0.112   1.350
 3204SOL     OW10510   2.703   1.532   3.678
 3204SOL    HW110511   2.712   1.624   3.714
 3204SOL    HW210512   2.720   1.465   3.750
 3205SOL     OW10513   5.654   3.221   5.312
 3205SOL    HW110514   5.592   3.191   5.385
 3205SOL    HW210515   5.744   3.178   5.325
 3206SOL     OW10516   2.791   3.218   1.482
 3206SOL    HW110517   2.840   3.184   1.402
 3206SOL    HW210518   2.710   3.161   1.497
 3207SOL     OW10519   1.275   5.991   5.385
 3207SOL    HW110520   1.190   6.034   5.415
 3207SOL    HW210521   1.274   5.894   5.406
 3208SOL     OW10522   6.350   5.208   6.206
 3208SOL    HW110523   6.372   5.130   6.148
 3208SOL    HW210524   6.318   5.174   6.295
 3209SOL     OW10525   4.898   5.723   6.755
 3209SOL    HW110526   4.874   5.736   6.658
 3209SOL    HW210527   4.996   5.738   6.767
 3210SOL     OW10528   6.465   5.312   1.415
 3210SOL    HW110529   6.376   5.274   1.392
 3210SOL    HW210530   6.522   5.242   1.457
 3211SOL     OW10531   0.678   5.192   6.548
 3211SOL    HW110532   0.616   5.261   6.512
 3211SOL    HW210533   0.749   5.173   6.480
 3212SOL     OW10534   2.359   0.070   3.110
 3212SOL    HW110535   2.344   0.168   3.114
 3212SOL    HW210536   2.455   0.050   3.128
 3213SOL     OW10537   1.426   0.570   6.259
 3213SOL    HW110538   1.392   0.649   6.311
 3213SOL    HW210539   1.525   0.575   6.252
 3214SOL     OW10540   3.516   0.585   2.562
 3214SOL    HW110541   3.469   0.660   2.515
 3214SOL    HW210542   3.460   0.556   2.640
 3215SOL     OW10543   1.661   3.583   0.787
 3215SOL    HW110544   1.665   3.569   0.886
 3215SOL    HW210545   1.719   3.661   0.762
 3216SOL     OW10546   5.829   4.352   0.272
 3216SOL    HW110547   5.923   4.328   0.297
 3216SOL    HW210548   5.778   4.377   0.355
 3217SOL     OW10549   0.908   5.542   3.177
 3217SOL    HW110550   0.883   5.552   3.273
 3217SOL    HW210551   0.825   5.549   3.120
 3218SOL     OW10552   6.145   0.887   3.009
 3218SOL    HW110553   6.172   0.891   2.913
 3218SOL    HW210554   6.207   0.942   3.064
 3219SOL     OW10555   6.037   0.661   5.642
 3219SOL    HW110556   5.939   0.677   5.656
 3219SOL    HW210557   6.077   0.624   5.726
 3220SOL     OW10558   6.741   4.740   6.906
 3220SOL    HW110559   6.798   4.674   6.858
 3220SOL    HW210560   6.722   4.818   6.845
 3221SOL     OW10561   3.817   0.563   1.520
 3221SOL    HW110562   3.757   0.630   1.562
 3221SOL    HW210563   3.884   0.531   1.587
 3222SOL     OW10564   3.232   1.210   3.186
 3222SOL    HW110565   3.272   1.295   3.221
 3222SOL    HW210566   3.155   1.232   3.126
 3223SOL     OW10567   1.262   0.033   1.206
 3223SOL    HW110568   1.293   6.992   1.276
 3223SOL    HW210569   1.307   0.013   1.119
 3224SOL     OW10570   4.050   1.959   3.826
 3224SOL    HW110571   4.015   1.911   3.906
 3224SOL    HW210572   3.983   2.028   3.796
 3225SOL     OW10573   4.419   0.268   3.936
 3225SOL    HW110574   4.355   0.288   4.009
 3225SOL    HW210575   4.500   0.326   3.946
 3226SOL     OW10576   0.450   6.677   1.251
 3226SOL    HW110577   0.415   6.726   1.331
 3226SOL    HW210578   0.545   6.649   1.268
 3227SOL     OW10579   4.852   3.685   5.308
 3227SOL    HW110580   4.835   3.637   5.222
 3227SOL    HW210581   4.931   3.645   5.354
 3228SOL     OW10582   1.739   4.156   0.352
 3228SOL    HW110583   1.661   4.195   0.400
 3228SOL    HW210584   1.775   4.222   0.286
 3229SOL     OW10585   2.000   1.404   0.890
 3229SOL    HW110586   2.033   1.498   0.904
 3229SOL    HW210587   1.900   1.403   0.890
 3230SOL     OW10588   2.327   5.788   5.828
 3230SOL    HW110589   2.273   5.848   5.887
 3230SOL    HW210590   2.273   5.764   5.747
 3231SOL     OW10591   2.416   1.106   1.794
 3231SOL    HW110592   2.420   1.165   1.713
 3231SOL    HW210593   2.370   1.154   1.868
 3232SOL     OW10594   4.143   5.697   3.890
 3232SOL    HW110595   4.129   5.675   3.793
 3232SOL    HW210596   4.129   5.795   3.904
 3233SOL     OW10597   0.080   2.411   0.522
 3233SOL    HW110598   0.010   2.458   0.468
 3233SOL    HW210599   0.164   2.466   0.522
 3234SOL     OW10600   2.516   3.145   0.573
 3234SOL    HW110601   2.473   3.165   0.485
 3234SOL    HW210602   2.447   3.147   0.645
 3235SOL     OW10603   0.642   6.891   2.080
 3235SOL    HW110604   0.543   6.902   2.072
 3235SOL    HW210605   0.669   6.900   2.175
 3236SOL     OW10606   3.216   3.374   0.249
 3236SOL    HW110607   3.208   3.320   0.334
 3236SOL    HW210608   3.266   3.459   0.268
 3237SOL     OW10609   5.886   0.972   4.952
 3237SOL    HW110610   5.889   0.873   4.961
 3237SOL    HW210611   5.949   1.001   4.880
 3238SOL     OW10612   6.734   5.454   1.625
 3238SOL    HW110613   6.672   5.376   1.632
 3238SOL    HW210614   6.728   5.508   1.709
 3239SOL     OW10615   6.852   0.108   4.011
 3239SOL    HW110616   6.769   0.064   4.046
 3239SOL    HW210617   6.865   0.195   4.059
 3240SOL     OW10618   0.379   1.104   6.750
 3240SOL    HW110619   0.425   1.016   6.761
 3240SOL    HW210620   0.296   1.091   6.695
 3241SOL     OW10621   5.842   1.699   6.133
 3241SOL    HW110622   5.835   1.644   6.050
 3241SOL    HW210623   5.784   1.780   6.124
 3242SOL     OW10624   5.053   4.549   5.230
 3242SOL    HW110625   5.077   4.452   5.229
 3242SOL    HW210626   4.975   4.565   5.170
 3243SOL     OW10627   5.460   4.998   5.383
 3243SOL    HW110628   5.387   4.982   5.317
 3243SOL    HW210629   5.498   5.090   5.369
 3244SOL     OW10630   5.322   6.467   0.178
 3244SOL    HW110631   5.229   6.482   0.144
 3244SOL    HW210632   5.348   6.541   0.239
 3245SOL     OW10633   4.139   1.310   4.431
 3245SOL    HW110634   4.061   1.248   4.432
 3245SOL    HW210635   4.211   1.273   4.489
 3246SOL     OW10636   6.697   0.652   2.717
 3246SOL    HW110637   6.738   0.726   2.771
 3246SOL    HW210638   6.746   0.567   2.736
 3247SOL     OW10639   0.622   4.004   3.173
 3247SOL    HW110640   0.585   4.016   3.080
 3247SOL    HW210641   0.621   3.907   3.196
 3248SOL     OW10642   5.595   2.385   3.233
 3248SOL    HW110643   5.524   2.455   3.227
 3248SOL    HW210644   5.552   2.294   3.224
 3249SOL     OW10645   3.020   3.911   3.689
 3249SOL    HW110646   2.983   3.941   3.601
 3249SOL    HW210647   3.003   3.813   3.701
 3250SOL     OW10648   5.131   5.346   2.494
 3250SOL    HW110649   5.036   5.332   2.523
 3250SOL    HW210650   5.165   5.264   2.449
 3251SOL     OW10651   2.727   1.120   3.481
 3251SOL    HW110652   2.725   1.033   3.431
 3251SOL    HW210653   2.653   1.122   3.549
 3252SOL     OW10654   2.139   1.265   3.794
 3252SOL    HW110655   2.079   1.307   3.727
 3252SOL    HW210656   2.192   1.192   3.751
 3253SOL     OW10657   6.231   3.668   0.807
 3253SOL    HW110658   6.296   3.709   0.744
 3253SOL    HW210659   6.196   3.583   0.768
 3254SOL     OW10660   5.969   0.361   0.923
 3254SOL    HW110661   5.933   0.404   1.006
 3254SOL    HW210662   5.899   0.361   0.852
 3255SOL     OW10663   5.182   5.589   1.207
 3255SOL    HW110664   5.260   5.602   1.268
 3255SOL    HW210665   5.206   5.522   1.137
 3256SOL     OW10666   4.975   2.063   0.903
 3256SOL    HW110667   4.954   1.976   0.859
 3256SOL    HW210668   5.066   2.057   0.946
 3257SOL     OW10669   2.703   2.270   2.926
 3257SOL    HW110670   2.645   2.204   2.974
 3257SOL    HW210671   2.672   2.280   2.832
 3258SOL     OW10672   2.238   6.146   3.121
 3258SOL    HW110673   2.204   6.088   3.195
 3258SOL    HW210674   2.223   6.101   3.034
 3259SOL     OW10675   4.461   4.569   3.589
 3259SOL    HW110676   4.464   4.553   3.490
 3259SOL    HW210677   4.479   4.484   3.637
 3260SOL     OW10678   0.992   4.266   2.170
 3260SOL    HW110679   0.942   4.345   2.204
 3260SOL    HW210680   1.068   4.245   2.231
 3261SOL     OW10681   4.899   0.277   3.358
 3261SOL    HW110682   4.902   0.178   3.362
 3261SOL    HW210683   4.978   0.311   3.306
 3262SOL     OW10684   3.013   2.162   2.525
 3262SOL    HW110685   2.984   2.125   2.613
 3262SOL    HW210686   2.939   2.217   2.486
 3263SOL     OW10687   1.062   1.312   2.786
 3263SOL    HW110688   0.980   1.258   2.772
 3263SOL    HW210689   1.083   1.363   2.703
 3264SOL     OW10690   2.237   6.144   0.614
 3264SOL    HW110691   2.312   6.202   0.581
 3264SOL    HW210692   2.240   6.139   0.714
 3265SOL     OW10693   5.494   4.769   5.771
 3265SOL    HW110694   5.458   4.759   5.864
 3265SOL    HW210695   5.490   4.681   5.724
 3266SOL     OW10696   3.024   5.096   6.614
 3266SOL    HW110697   2.987   5.163   6.679
 3266SOL    HW210698   3.103   5.136   6.566
 3267SOL     OW10699   4.100   7.003   0.623
 3267SOL    HW110700   4.179   7.012   0.562
 3267SOL    HW210701   4.127   0.004   0.716
 3268SOL     OW10702   6.630   5.092   1.992
 3268SOL    HW110703   6.563   5.054   1.929
 3268SOL    HW210704   6.583   5.138   2.067
 3269SOL     OW10705   1.838   4.891   2.410
 3269SOL    HW110706   1.891   4.864   2.329
 3269SOL    HW210707   1.873   4.843   2.490
 3270SOL     OW10708   0.539   2.432   5.243
 3270SOL    HW110709   0.504   2.417   5.150
 3270SOL    HW210710   0.505   2.520   5.277
 3271SOL     OW10711   0.580   3.509   2.844
 3271SOL    HW110712   0.613   3.431   2.895
 3271SOL    HW210713   0.482   3.498   2.825
 3272SOL     OW10714   4.442   6.534   0.531
 3272SOL    HW110715   4.427   6.442   0.568
 3272SOL    HW210716   4.509   6.582   0.589
 3273SOL     OW10717   4.725   2.474   6.839
 3273SOL    HW110718   4.708   2.387   6.886
 3273SOL    HW210719   4.779   2.534   6.898
 3274SOL     OW10720   5.615   0.205   6.929
 3274SOL    HW110721   5.546   0.278   6.928
 3274SOL    HW210722   5.700   0.241   6.967
 3275SOL     OW10723   4.596   0.406   1.108
 3275SOL    HW110724   4.610   0.458   1.193
 3275SOL    HW210725   4.500   0.414   1.081
 3276SOL     OW10726   4.888   6.849   0.208
 3276SOL    HW110727   4.815   6.787   0.180
 3276SOL    HW210728   4.864   6.943   0.180
 3277SOL     OW10729   3.479   1.827   2.212
 3277SOL    HW110730   3.551   1.836   2.143
 3277SOL    HW210731   3.457   1.917   2.249
 3278SOL     OW10732   6.848   0.001   6.655
 3278SOL    HW110733   6.899   0.024   6.572
 3278SOL    HW210734   6.911   7.011   6.731
 3279SOL     OW10735   3.907   0.022   1.476
 3279SOL    HW110736   3.812   7.022   1.496
 3279SOL    HW210737   3.967   6.997   1.540
 3280SOL     OW10738   5.670   3.519   4.653
 3280SOL    HW110739   5.618   3.526   4.568
 3280SOL    HW210740   5.647   3.434   4.699
 3281SOL     OW10741   6.288   3.551   1.486
 3281SOL    HW110742   6.214   3.575   1.424
 3281SOL    HW210743   6.262   3.469   1.538
 3282SOL     OW10744   0.425   4.574   4.668
 3282SOL    HW110745   0.341   4.610   4.707
 3282SOL    HW210746   0.470   4.645   4.614
 3283SOL     OW10747   4.027   1.671   0.621
 3283SOL    HW110748   4.123   1.653   0.644
 3283SOL    HW210749   4.019   1.762   0.580
 3284SOL     OW10750   1.371   5.633   4.438
 3284SOL    HW110751   1.434   5.631   4.515
 3284SOL    HW210752   1.414   5.590   4.359
 3285SOL     OW10753   4.852   1.377   4.736
 3285SOL    HW110754   4.894   1.430   4.811
 3285SOL    HW210755   4.918   1.369   4.661
 3286SOL     OW10756   2.959   1.359   1.207
 3286SOL    HW110757   2.950   1.419   1.286
 3286SOL    HW210758   2.869   1.319   1.186
 3287SOL     OW10759   2.175   0.532   6.519
 3287SOL    HW110760   2.142   0.511   6.427
 3287SOL    HW210761   2.223   0.620   6.518
 3288SOL     OW10762   1.899   6.764   1.389
 3288SOL    HW110763   1.881   6.815   1.473
 3288SOL    HW210764   1.848   6.678   1.391
 3289SOL     OW10765   4.009   1.691   6.802
 3289SOL    HW110766   4.043   1.598   6.790
 3289SOL    HW210767   4.062   1.753   6.744
 3290SOL     OW10768   6.597   4.822   0.822
 3290SOL    HW110769   6.619   4.900   0.763
 3290SOL    HW210770   6.515   4.842   0.874
 3291SOL     OW10771   5.000   0.155   5.243
 3291SOL    HW110772   5.044   0.220   5.181
 3291SOL    HW210773   5.019   0.062   5.213
 3292SOL     OW10774   6.784   2.262   1.526
 3292SOL    HW110775   6.693   2.244   1.490
 3292SOL    HW210776   6.850   2.266   1.451
 3293SOL     OW10777   5.817   5.132   3.455
 3293SOL    HW110778   5.907   5.152   3.493
 3293SOL    HW210779   5.827   5.095   3.363
 3294SOL     OW10780   5.006   2.484   4.932
 3294SOL    HW110781   4.973   2.519   5.019
 3294SOL    HW210782   5.052   2.396   4.947
 3295SOL     OW10783   1.366   3.057   2.150
 3295SOL    HW110784   1.376   3.069   2.052
 3295SOL    HW210785   1.373   3.146   2.196
 3296SOL     OW10786   1.089   7.017   6.249
 3296SOL    HW110787   1.109   0.071   6.189
 3296SOL    HW210788   1.124   6.933   6.208
 3297SOL     OW10789   3.009   1.727   4.732
 3297SOL    HW110790   3.069   1.752   4.808
 3297SOL    HW210791   2.948   1.653   4.759
 3298SOL     OW10792   5.338   4.149   5.544
 3298SOL    HW110793   5.298   4.072   5.593
 3298SOL    HW210794   5.419   4.119   5.494
 3299SOL     OW10795   2.840   4.767   4.582
 3299SOL    HW110796   2.826   4.813   4.494
 3299SOL    HW210797   2.773   4.694   4.593
 3300SOL     OW10798   1.985   6.876   4.406
 3300SOL    HW110799   2.008   6.941   4.478
 3300SOL    HW210800   2.043   6.892   4.326
 3301SOL     OW10801   1.976   2.134   3.390
 3301SOL    HW110802   2.018   2.047   3.416
 3301SOL    HW210803   1.988   2.148   3.291
 3302SOL     OW10804   2.210   4.863   6.177
 3302SOL    HW110805   2.233   4.766   6.181
 3302SOL    HW210806   2.290   4.915   6.147
 3303SOL     OW10807   3.303   3.242   0.009
 3303SOL    HW110808   3.292   3.269   0.105
 3303SOL    HW210809   3.270   3.148   7.021
 3304SOL     OW10810   2.591   4.775   6.099
 3304SOL    HW110811   2.660   4.704   6.085
 3304SOL    HW210812   2.507   4.734   6.134
 3305SOL     OW10813   3.340   1.365   0.449
 3305SOL    HW110814   3.412   1.426   0.417
 3305SOL    HW210815   3.381   1.279   0.481
 3306SOL     OW10816   2.052   0.692   0.361
 3306SOL    HW110817   2.036   0.598   0.332
 3306SOL    HW210818   2.072   0.695   0.459
 3307SOL     OW10819   1.389   0.359   4.767
 3307SOL    HW110820   1.321   0.287   4.778
 3307SOL    HW210821   1.447   0.339   4.688
 3308SOL     OW10822   3.809   4.417   1.171
 3308SOL    HW110823   3.722   4.369   1.179
 3308SOL    HW210824   3.884   4.356   1.196
 3309SOL     OW10825   5.919   3.330   3.428
 3309SOL    HW110826   5.833   3.325   3.479
 3309SOL    HW210827   5.970   3.411   3.455
 3310SOL     OW10828   6.659   5.298   5.706
 3310SOL    HW110829   6.723   5.227   5.678
 3310SOL    HW210830   6.689   5.387   5.672
 3311SOL     OW10831   3.385   3.870   0.267
 3311SOL    HW110832   3.373   3.931   0.189
 3311SOL    HW210833   3.408   3.778   0.235
 3312SOL     OW10834   4.569   2.751   5.805
 3312SOL    HW110835   4.629   2.671   5.800
 3312SOL    HW210836   4.600   2.812   5.878
 3313SOL     OW10837   1.352   0.812   3.199
 3313SOL    HW110838   1.359   0.796   3.298
 3313SOL    HW210839   1.358   0.725   3.151
 3314SOL     OW10840   2.269   6.112   2.414
 3314SOL    HW110841   2.318   6.026   2.399
 3314SOL    HW210842   2.209   6.102   2.493
 3315SOL     OW10843   7.009   4.700   5.502
 3315SOL    HW110844   6.919   4.675   5.536
 3315SOL    HW210845   0.046   4.620   5.505
 3316SOL     OW10846   3.352   1.799   6.191
 3316SOL    HW110847   3.380   1.713   6.149
 3316SOL    HW210848   3.431   1.841   6.236
 3317SOL     OW10849   5.637   2.534   2.888
 3317SOL    HW110850   5.546   2.493   2.875
 3317SOL    HW210851   5.643   2.573   2.980
 3318SOL     OW10852   2.766   2.678   0.540
 3318SOL    HW110853   2.865   2.685   0.553
 3318SOL    HW210854   2.720   2.683   0.628
 3319SOL     OW10855   6.800   6.598   3.426
 3319SOL    HW110856   6.853   6.566   3.505
 3319SOL    HW210857   6.716   6.641   3.458
 3320SOL     OW10858   6.233   0.311   1.092
 3320SOL    HW110859   6.291   0.255   1.033
 3320SOL    HW210860   6.137   0.293   1.072
 3321SOL     OW10861   5.112   1.232   7.003
 3321SOL    HW110862   5.141   1.159   6.942
 3321SOL    HW210863   5.054   1.195   0.052
 3322SOL     OW10864   6.854   3.637   1.044
 3322SOL    HW110865   6.832   3.590   1.129
 3322SOL    HW210866   6.834   3.734   1.053
 3323SOL     OW10867   1.474   1.656   2.067
 3323SOL    HW110868   1.544   1.706   2.017
 3323SOL    HW210869   1.437   1.713   2.140
 3324SOL     OW10870   5.285   5.404   5.887
 3324SOL    HW110871   5.363   5.353   5.849
 3324SOL    HW210872   5.247   5.465   5.816
 3325SOL     OW10873   1.448   3.423   6.539
 3325SOL    HW110874   1.466   3.521   6.545
 3325SOL    HW210875   1.471   3.379   6.626
 3326SOL     OW10876   4.512   1.001   2.826
 3326SOL    HW110877   4.540   0.963   2.914
 3326SOL    HW210878   4.585   1.058   2.788
 3327SOL     OW10879   1.417   5.969   1.321
 3327SOL    HW110880   1.336   5.977   1.262
 3327SOL    HW210881   1.388   5.968   1.417
 3328SOL     OW10882   4.531   2.314   0.431
 3328SOL    HW110883   4.583   2.360   0.503
 3328SOL    HW210884   4.482   2.382   0.377
 3329SOL     OW10885   5.818   5.431   5.723
 3329SOL    HW110886   5.755   5.484   5.780
 3329SOL    HW210887   5.796   5.334   5.728
 3330SOL     OW10888   6.161   3.501   2.626
 3330SOL    HW110889   6.209   3.565   2.567
 3330SOL    HW210890   6.208   3.413   2.624
 3331SOL     OW10891   2.157   2.864   1.594
 3331SOL    HW110892   2.097   2.857   1.515
 3331SOL    HW210893   2.126   2.938   1.654
 3332SOL     OW10894   6.050   4.403   0.642
 3332SOL    HW110895   5.951   4.387   0.644
 3332SOL    HW210896   6.084   4.410   0.736
 3333SOL     OW10897   4.284   5.037   5.683
 3333SOL    HW110898   4.366   4.993   5.646
 3333SOL    HW210899   4.222   4.966   5.719
 3334SOL     OW10900   2.463   4.287   1.774
 3334SOL    HW110901   2.516   4.237   1.705
 3334SOL    HW210902   2.436   4.224   1.847
 3335SOL     OW10903   4.737   4.388   5.408
 3335SOL    HW110904   4.646   4.356   5.380
 3335SOL    HW210905   4.789   4.311   5.443
 3336SOL     OW10906   3.676   5.068   6.125
 3336SOL    HW110907   3.579   5.086   6.106
 3336SOL    HW210908   3.726   5.154   6.130
 3337SOL     OW10909   3.233   2.359   1.167
 3337SOL    HW110910   3.206   2.369   1.263
 3337SOL    HW210911   3.333   2.352   1.162
 3338SOL     OW10912   0.148   4.233   0.821
 3338SOL    HW110913   0.147   4.304   0.751
 3338SOL    HW210914   0.066   4.241   0.877
 3339SOL     OW10915   6.892   5.829   6.618
 3339SOL    HW110916   6.850   5.742   6.593
 3339SOL    HW210917   6.914   5.829   6.716
 3340SOL     OW10918   3.308   6.347   1.438
 3340SOL    HW110919   3.401   6.358   1.405
 3340SOL    HW210920   3.284   6.423   1.498
 3341SOL     OW10921   0.563   0.756   2.896
 3341SOL    HW110922   0.645   0.811   2.910
 3341SOL    HW210923   0.549   0.697   2.976
 3342SOL     OW10924   2.150   6.624   4.145
 3342SOL    HW110925   2.071   6.605   4.086
 3342SOL    HW210926   2.228   6.570   4.113
 3343SOL     OW10927   5.372   2.847   0.752
 3343SOL    HW110928   5.462   2.870   0.716
 3343SOL    HW210929   5.349   2.752   0.727
 3344SOL     OW10930   6.327   3.128   5.778
 3344SOL    HW110931   6.359   3.053   5.721
 3344SOL    HW210932   6.309   3.208   5.721
 3345SOL     OW10933   2.812   3.274   6.118
 3345SOL    HW110934   2.855   3.184   6.118
 3345SOL    HW210935   2.732   3.273   6.178
 3346SOL     OW10936   0.365   0.355   1.490
 3346SOL    HW110937   0.465   0.347   1.490
 3346SOL    HW210938   0.339   0.445   1.455
 3347SOL     OW10939   5.507   3.804   4.883
 3347SOL    HW110940   5.586   3.769   4.934
 3347SOL    HW210941   5.448   3.728   4.856
 3348SOL     OW10942   3.754   2.967   4.241
 3348SOL    HW110943   3.751   3.058   4.282
 3348SOL    HW210944   3.731   2.898   4.310
 3349SOL     OW10945   6.126   3.662   4.407
 3349SOL    HW110946   6.057   3.721   4.366
 3349SOL    HW210947   6.123   3.572   4.363
 3350SOL     OW10948   1.417   1.218   1.153
 3350SOL    HW110949   1.461   1.173   1.076
 3350SOL    HW210950   1.321   1.237   1.131
 3351SOL     OW10951   5.210   1.636   1.298
 3351SOL    HW110952   5.156   1.698   1.356
 3351SOL    HW210953   5.238   1.557   1.352
 3352SOL     OW10954   0.641   3.156   0.868
 3352SOL    HW110955   0.657   3.180   0.773
 3352SOL    HW210956   0.601   3.235   0.916
 3353SOL     OW10957   2.085   6.927   6.148
 3353SOL    HW110958   2.127   6.844   6.186
 3353SOL    HW210959   1.995   6.940   6.190
 3354SOL     OW10960   0.517   2.736   3.629
 3354SOL    HW110961   0.578   2.707   3.703
 3354SOL    HW210962   0.422   2.721   3.655
 3355SOL     OW10963   6.478   1.255   2.368
 3355SOL    HW110964   6.572   1.272   2.399
 3355SOL    HW210965   6.430   1.202   2.437
 3356SOL     OW10966   2.805   3.665   0.280
 3356SOL    HW110967   2.761   3.679   0.368
 3356SOL    HW210968   2.747   3.700   0.207
 3357SOL     OW10969   2.842   5.142   2.320
 3357SOL    HW110970   2.815   5.238   2.315
 3357SOL    HW210971   2.922   5.133   2.379
 3358SOL     OW10972   4.808   5.791   2.185
 3358SOL    HW110973   4.883   5.727   2.171
 3358SOL    HW210974   4.730   5.744   2.224
 3359SOL     OW10975   2.154   0.912   2.885
 3359SOL    HW110976   2.107   0.919   2.797
 3359SOL    HW210977   2.174   0.816   2.905
 3360SOL     OW10978   0.863   0.857   0.309
 3360SOL    HW110979   0.813   0.883   0.227
 3360SOL    HW210980   0.961   0.875   0.296
 3361SOL     OW10981   6.203   6.447   3.134
 3361SOL    HW110982   6.119   6.447   3.188
 3361SOL    HW210983   6.212   6.360   3.085
 3362SOL     OW10984   2.028   0.912   5.354
 3362SOL    HW110985   2.099   0.841   5.353
 3362SOL    HW210986   1.939   0.869   5.364
 3363SOL     OW10987   6.962   1.810   0.100
 3363SOL    HW110988   0.023   1.859   0.123
 3363SOL    HW210989   6.931   1.838   0.009
 3364SOL     OW10990   1.825   5.087   6.272
 3364SOL    HW110991   1.800   5.039   6.188
 3364SOL    HW210992   1.778   5.046   6.350
 3365SOL     OW10993   6.212   2.121   4.705
 3365SOL    HW110994   6.200   2.163   4.615
 3365SOL    HW210995   6.162   2.173   4.773
 3366SOL     OW10996   5.428   0.630   5.661
 3366SOL    HW110997   5.474   0.661   5.744
 3366SOL    HW210998   5.375   0.547   5.683
 3367SOL     OW10999   1.213   1.351   2.399
 3367SOL    HW111000   1.208   1.450   2.387
 3367SOL    HW211001   1.169   1.305   2.321
 3368SOL     OW11002   6.429   5.851   6.231
 3368SOL    HW111003   6.368   5.800   6.292
 3368SOL    HW211004   6.505   5.889   6.284
 3369SOL     OW11005   4.056   0.445   6.943
 3369SOL    HW111006   4.043   0.538   6.909
 3369SOL    HW211007   4.149   0.415   6.923
 3370SOL     OW11008   6.173   6.444   5.378
 3370SOL    HW111009   6.107   6.517   5.395
 3370SOL    HW211010   6.145   6.361   5.428
 3371SOL     OW11011   0.348   5.417   2.199
 3371SOL    HW111012   0.373   5.512   2.184
 3371SOL    HW211013   0.431   5.360   2.199
 3372SOL     OW11014   0.925   0.351   3.225
 3372SOL    HW111015   1.000   0.292   3.256
 3372SOL    HW211016   0.875   0.304   3.153
 3373SOL     OW11017   6.500   2.104   5.204
 3373SOL    HW111018   6.502   2.203   5.190
 3373SOL    HW211019   6.493   2.084   5.302
 3374SOL     OW11020   2.608   5.129   5.980
 3374SOL    HW111021   2.597   5.067   5.903
 3374SOL    HW211022   2.692   5.105   6.030
 3375SOL     OW11023   4.621   4.617   5.328
 3375SOL    HW111024   4.698   4.554   5.339
 3375SOL    HW211025   4.539   4.576   5.369
 3376SOL     OW11026   3.083   3.666   2.188
 3376SOL    HW111027   3.083   3.748   2.131
 3376SOL    HW211028   3.176   3.629   2.193
 3377SOL     OW11029   1.382   6.315   5.229
 3377SOL    HW111030   1.301   6.262   5.253
 3377SOL    HW211031   1.386   6.398   5.285
 3378SOL     OW11032   6.792   1.721   1.355
 3378SOL    HW111033   6.798   1.624   1.330
 3378SOL    HW211034   6.708   1.760   1.318
 3379SOL     OW11035   0.550   4.414   5.714
 3379SOL    HW111036   0.636   4.368   5.737
 3379SOL    HW211037   0.473   4.353   5.737
 3380SOL     OW11038   6.854   4.243   6.547
 3380SOL    HW111039   6.900   4.185   6.614
 3380SOL    HW211040   6.921   4.297   6.498
 3381SOL     OW11041   3.080   2.636   0.553
 3381SOL    HW111042   3.096   2.551   0.503
 3381SOL    HW211043   3.113   2.627   0.647
 3382SOL     OW11044   0.191   1.532   0.971
 3382SOL    HW111045   0.265   1.595   0.995
 3382SOL    HW211046   0.216   1.481   0.889
 3383SOL     OW11047   5.616   4.722   2.899
 3383SOL    HW111048   5.596   4.779   2.820
 3383SOL    HW211049   5.561   4.753   2.977
 3384SOL     OW11050   3.656   2.834   4.493
 3384SOL    HW111051   3.690   2.905   4.555
 3384SOL    HW211052   3.695   2.746   4.519
 3385SOL     OW11053   6.350   3.840   3.740
 3385SOL    HW111054   6.412   3.828   3.663
 3385SOL    HW211055   6.294   3.758   3.751
 3386SOL     OW11056   5.995   4.659   5.393
 3386SOL    HW111057   5.931   4.606   5.449
 3386SOL    HW211058   5.953   4.746   5.366
 3387SOL     OW11059   2.573   2.159   3.267
 3387SOL    HW111060   2.594   2.091   3.197
 3387SOL    HW211061   2.655   2.215   3.285
 3388SOL     OW11062   5.555   1.655   1.524
 3388SOL    HW111063   5.551   1.754   1.508
 3388SOL    HW211064   5.467   1.624   1.560
 3389SOL     OW11065   5.085   4.724   3.526
 3389SOL    HW111066   5.085   4.626   3.544
 3389SOL    HW211067   5.034   4.742   3.442
 3390SOL     OW11068   5.061   3.013   5.770
 3390SOL    HW111069   5.009   3.068   5.705
 3390SOL    HW211070   5.026   3.027   5.862
 3391SOL     OW11071   4.043   2.121   4.958
 3391SOL    HW111072   4.092   2.185   5.017
 3391SOL    HW211073   4.038   2.157   4.865
 3392SOL     OW11074   3.278   0.662   3.954
 3392SOL    HW111075   3.268   0.575   4.003
 3392SOL    HW211076   3.188   0.693   3.923
 3393SOL     OW11077   6.703   6.430   6.874
 3393SOL    HW111078   6.621   6.441   6.930
 3393SOL    HW211079   6.706   6.337   6.838
 3394SOL     OW11080   5.802   2.526   1.215
 3394SOL    HW111081   5.745   2.604   1.190
 3394SOL    HW211082   5.745   2.444   1.219
 3395SOL     OW11083   0.832   3.057   4.337
 3395SOL    HW111084   0.781   2.991   4.282
 3395SOL    HW211085   0.780   3.081   4.418
 3396SOL     OW11086   0.012   3.788   3.831
 3396SOL    HW111087   6.964   3.801   3.900
 3396SOL    HW211088   0.079   3.863   3.839
 3397SOL     OW11089   3.754   6.360   6.171
 3397SOL    HW111090   3.776   6.304   6.251
 3397SOL    HW211091   3.756   6.304   6.089
 3398SOL     OW11092   1.329   6.902   4.153
 3398SOL    HW111093   1.239   6.858   4.163
 3398SOL    HW211094   1.388   6.843   4.098
 3399SOL     OW11095   4.986   4.765   3.814
 3399SOL    HW111096   5.047   4.745   3.891
 3399SOL    HW211097   5.021   4.719   3.732
 3400SOL     OW11098   4.953   2.229   6.733
 3400SOL    HW111099   4.895   2.301   6.771
 3400SOL    HW211100   5.035   2.220   6.789
 3401SOL     OW11101   6.072   4.257   0.378
 3401SOL    HW111102   6.086   4.159   0.392
 3401SOL    HW211103   6.080   4.304   0.466
 3402SOL     OW11104   5.480   5.666   1.295
 3402SOL    HW111105   5.553   5.667   1.363
 3402SOL    HW211106   5.476   5.755   1.249
 3403SOL     OW11107   3.771   0.555   5.030
 3403SOL    HW111108   3.718   0.517   5.106
 3403SOL    HW211109   3.767   0.655   5.033
 3404SOL     OW11110   4.806   1.063   0.584
 3404SOL    HW111111   4.880   1.116   0.625
 3404SOL    HW211112   4.800   0.974   0.628
 3405SOL     OW11113   6.573   3.679   6.693
 3405SOL    HW111114   6.634   3.648   6.621
 3405SOL    HW211115   6.628   3.721   6.767
 3406SOL     OW11116   2.151   3.835   2.391
 3406SOL    HW111117   2.203   3.920   2.381
 3406SOL    HW211118   2.140   3.792   2.302
 3407SOL     OW11119   1.132   5.810   2.046
 3407SOL    HW111120   1.229   5.826   2.066
 3407SOL    HW211121   1.103   5.725   2.090
 3408SOL     OW11122   5.399   4.145   2.151
 3408SOL    HW111123   5.352   4.163   2.064
 3408SOL    HW211124   5.340   4.089   2.209
 3409SOL     OW11125   3.320   0.136   6.070
 3409SOL    HW111126   3.316   0.041   6.038
 3409SOL    HW211127   3.228   0.172   6.080
 3410SOL     OW11128   6.466   6.384   0.328
 3410SOL    HW111129   6.544   6.434   0.289
 3410SOL    HW211130   6.383   6.411   0.281
 3411SOL     OW11131   4.401   1.537   2.765
 3411SOL    HW111132   4.387   1.576   2.674
 3411SOL    HW211133   4.462   1.596   2.818
 3412SOL     OW11134   3.574   4.235   0.069
 3412SOL    HW111135   3.648   4.243   0.136
 3412SOL    HW211136   3.609   4.256   7.001
 3413SOL     OW11137   3.594   1.355   3.279
 3413SOL    HW111138   3.638   1.287   3.221
 3413SOL    HW211139   3.552   1.309   3.358
 3414SOL     OW11140   2.996   2.300   5.310
 3414SOL    HW111141   2.908   2.316   5.264
 3414SOL    HW211142   3.069   2.338   5.253
 3415SOL     OW11143   0.565   4.779   4.118
 3415SOL    HW111144   0.592   4.786   4.022
 3415SOL    HW211145   0.615   4.705   4.161
 3416SOL     OW11146   0.413   5.200   5.233
 3416SOL    HW111147   0.441   5.107   5.210
 3416SOL    HW211148   0.482   5.244   5.290
 3417SOL     OW11149   0.086   6.916   2.411
 3417SOL    HW111150   7.015   6.887   2.391
 3417SOL    HW211151   0.110   6.993   2.351
 3418SOL     OW11152   2.993   1.549   5.199
 3418SOL    HW111153   2.975   1.555   5.101
 3418SOL    HW211154   2.992   1.453   5.228
 3419SOL     OW11155   4.100   4.731   6.744
 3419SOL    HW111156   4.071   4.637   6.723
 3419SOL    HW211157   4.167   4.760   6.677
 3420SOL     OW11158   4.464   2.166   3.679
 3420SOL    HW111159   4.396   2.209   3.619
 3420SOL    HW211160   4.417   2.110   3.747
 3421SOL     OW11161   0.059   5.828   5.831
 3421SOL    HW111162   7.020   5.853   5.757
 3421SOL    HW211163   0.007   5.791   5.907
 3422SOL     OW11164   3.651   0.896   1.260
 3422SOL    HW111165   3.570   0.874   1.314
 3422SOL    HW211166   3.713   0.817   1.260
 3423SOL     OW11167   2.400   1.098   0.939
 3423SOL    HW111168   2.340   1.178   0.936
 3423SOL    HW211169   2.486   1.119   0.892
 3424SOL     OW11170   4.378   1.211   2.426
 3424SOL    HW111171   4.447   1.141   2.444
 3424SOL    HW211172   4.337   1.239   2.513
 3425SOL     OW11173   4.820   4.453   1.932
 3425SOL    HW111174   4.815   4.483   2.027
 3425SOL    HW211175   4.873   4.519   1.879
 3426SOL     OW11176   4.060   3.751   0.592
 3426SOL    HW111177   4.078   3.733   0.689
 3426SOL    HW211178   4.131   3.812   0.556
 3427SOL     OW11179   6.974   1.096   0.293
 3427SOL    HW111180   7.009   1.004   0.273
 3427SOL    HW211181   7.021   1.163   0.236
 3428SOL     OW11182   4.152   4.704   2.337
 3428SOL    HW111183   4.183   4.699   2.242
 3428SOL    HW211184   4.062   4.747   2.341
 3429SOL     OW11185   1.128   3.098   0.792
 3429SOL    HW111186   1.072   3.180   0.799
 3429SOL    HW211187   1.222   3.123   0.771
 3430SOL     OW11188   1.867   6.892   0.654
 3430SOL    HW111189   1.864   6.991   0.671
 3430SOL    HW211190   1.785   6.864   0.606
 3431SOL     OW11191   1.618   6.166   0.894
 3431SOL    HW111192   1.534   6.190   0.942
 3431SOL    HW211193   1.640   6.238   0.828
 3432SOL     OW11194   3.512   1.278   5.689
 3432SOL    HW111195   3.579   1.256   5.618
 3432SOL    HW211196   3.500   1.377   5.693
 3433SOL     OW11197   3.485   1.037   5.212
 3433SOL    HW111198   3.535   1.049   5.297
 3433SOL    HW211199   3.508   0.949   5.171
 3434SOL     OW11200   4.642   2.776   1.789
 3434SOL    HW111201   4.704   2.854   1.782
 3434SOL    HW211202   4.694   2.694   1.814
 3435SOL     OW11203   0.327   2.120   2.385
 3435SOL    HW111204   0.252   2.179   2.415
 3435SOL    HW211205   0.414   2.169   2.395
 3436SOL     OW11206   4.687   6.891   4.924
 3436SOL    HW111207   4.731   6.946   4.996
 3436SOL    HW211208   4.758   6.849   4.867
 3437SOL     OW11209   4.136   7.002   4.913
 3437SOL    HW111210   4.211   0.045   4.903
 3437SOL    HW211211   4.167   6.912   4.883
 3438SOL     OW11212   1.443   2.878   6.197
 3438SOL    HW111213   1.395   2.965   6.180
 3438SOL    HW211214   1.523   2.895   6.255
 3439SOL     OW11215   2.907   6.928   4.645
 3439SOL    HW111216   2.930   6.848   4.591
 3439SOL    HW211217   2.810   6.926   4.669
 3440SOL     OW11218   4.661   3.403   1.122
 3440SOL    HW111219   4.698   3.341   1.053
 3440SOL    HW211220   4.736   3.451   1.167
 3441SOL     OW11221   3.636   6.894   3.851
 3441SOL    HW111222   3.651   6.797   3.867
 3441SOL    HW211223   3.702   6.947   3.905
 3442SOL     OW11224   1.985   5.081   3.349
 3442SOL    HW111225   2.042   5.103   3.428
 3442SOL    HW211226   1.893   5.116   3.363
 3443SOL     OW11227   5.499   1.876   3.046
 3443SOL    HW111228   5.466   1.860   2.954
 3443SOL    HW211229   5.423   1.870   3.111
 3444SOL     OW11230   4.923   5.192   6.869
 3444SOL    HW111231   4.910   5.162   6.775
 3444SOL    HW211232   5.021   5.195   6.890
 3445SOL     OW11233   6.501   4.495   4.063
 3445SOL    HW111234   6.571   4.500   3.991
 3445SOL    HW211235   6.509   4.575   4.123
 3446SOL     OW11236   4.088   0.232   2.767
 3446SOL    HW111237   4.051   0.179   2.690
 3446SOL    HW211238   4.133   0.314   2.733
 3447SOL     OW11239   5.994   6.028   0.288
 3447SOL    HW111240   5.986   5.954   0.220
 3447SOL    HW211241   5.979   6.116   0.242
 3448SOL     OW11242   3.154   0.871   1.110
 3448SOL    HW111243   3.190   0.940   1.047
 3448SOL    HW211244   3.061   0.847   1.083
 3449SOL     OW11245   7.007   0.266   2.275
 3449SOL    HW111246   6.965   0.302   2.358
 3449SOL    HW211247   0.077   0.237   2.295
 3450SOL     OW11248   0.918   1.741   1.980
 3450SOL    HW111249   0.852   1.815   1.994
 3450SOL    HW211250   0.997   1.776   1.930
 3451SOL     OW11251   1.577   5.525   3.895
 3451SOL    HW111252   1.670   5.540   3.863
 3451SOL    HW211253   1.544   5.608   3.941
 3452SOL     OW11254   6.318   0.916   0.182
 3452SOL    HW111255   6.337   0.894   0.278
 3452SOL    HW211256   6.404   0.926   0.132
 3453SOL     OW11257   5.538   5.483   5.016
 3453SOL    HW111258   5.460   5.426   4.991
 3453SOL    HW211259   5.613   5.425   5.048
 3454SOL     OW11260   1.117   1.431   1.224
 3454SOL    HW111261   1.140   1.349   1.173
 3454SOL    HW211262   1.054   1.409   1.298
 3455SOL     OW11263   1.584   3.095   4.496
 3455SOL    HW111264   1.648   3.033   4.451
 3455SOL    HW211265   1.490   3.072   4.468
 3456SOL     OW11266   5.698   6.967   1.461
 3456SOL    HW111267   5.753   6.889   1.491
 3456SOL    HW211268   5.622   6.934   1.405
 3457SOL     OW11269   2.935   5.080   3.520
 3457SOL    HW111270   2.998   5.069   3.443
 3457SOL    HW211271   2.946   5.172   3.559
 3458SOL     OW11272   5.856   6.528   0.408
 3458SOL    HW111273   5.809   6.616   0.416
 3458SOL    HW211274   5.935   6.538   0.347
 3459SOL     OW11275   0.313   4.283   3.570
 3459SOL    HW111276   0.365   4.200   3.550
 3459SOL    HW211277   0.256   4.267   3.651
 3460SOL     OW11278   3.695   2.621   0.236
 3460SOL    HW111279   3.699   2.585   0.143
 3460SOL    HW211280   3.607   2.666   0.250
 3461SOL     OW11281   3.696   5.385   4.823
 3461SOL    HW111282   3.610   5.340   4.801
 3461SOL    HW211283   3.770   5.347   4.767
 3462SOL     OW11284   4.915   3.677   2.763
 3462SOL    HW111285   4.942   3.680   2.859
 3462SOL    HW211286   4.925   3.583   2.729
 3463SOL     OW11287   2.125   3.209   1.989
 3463SOL    HW111288   2.204   3.259   1.953
 3463SOL    HW211289   2.055   3.274   2.017
 3464SOL     OW11290   5.284   3.386   6.286
 3464SOL    HW111291   5.277   3.286   6.286
 3464SOL    HW211292   5.243   3.422   6.202
 3465SOL     OW11293   2.202   3.736   1.816
 3465SOL    HW111294   2.210   3.647   1.860
 3465SOL    HW211295   2.107   3.768   1.822
 3466SOL     OW11296   5.286   4.326   4.929
 3466SOL    HW111297   5.342   4.400   4.966
 3466SOL    HW211298   5.313   4.240   4.972
 3467SOL     OW11299   2.850   2.610   0.880
 3467SOL    HW111300   2.910   2.561   0.943
 3467SOL    HW211301   2.772   2.647   0.929
 3468SOL     OW11302   4.749   1.414   1.498
 3468SOL    HW111303   4.779   1.344   1.563
 3468SOL    HW211304   4.656   1.443   1.520
 3469SOL     OW11305   4.736   6.796   5.979
 3469SOL    HW111306   4.737   6.826   6.074
 3469SOL    HW211307   4.687   6.862   5.923
 3470SOL     OW11308   0.389   2.296   1.524
 3470SOL    HW111309   0.447   2.236   1.579
 3470SOL    HW211310   0.373   2.255   1.435
 3471SOL     OW11311   4.162   4.726   2.886
 3471SOL    HW111312   4.253   4.693   2.910
 3471SOL    HW211313   4.156   4.739   2.787
 3472SOL     OW11314   4.304   2.280   3.134
 3472SOL    HW111315   4.296   2.303   3.231
 3472SOL    HW211316   4.217   2.242   3.102
 3473SOL     OW11317   0.245   3.934   3.813
 3473SOL    HW111318   0.294   3.890   3.888
 3473SOL    HW211319   0.279   3.898   3.725
 3474SOL     OW11320   6.877   4.886   4.673
 3474SOL    HW111321   6.783   4.919   4.667
 3474SOL    HW211322   6.876   4.788   4.692
 3475SOL     OW11323   0.082   4.621   4.559
 3475SOL    HW111324   0.045   4.683   4.490
 3475SOL    HW211325   0.140   4.552   4.514
 3476SOL     OW11326   1.753   1.774   3.487
 3476SOL    HW111327   1.731   1.688   3.441
 3476SOL    HW211328   1.815   1.755   3.564
 3477SOL     OW11329   0.361   3.935   1.727
 3477SOL    HW111330   0.404   3.996   1.660
 3477SOL    HW211331   0.350   3.844   1.688
 3478SOL     OW11332   2.297   0.261   0.163
 3478SOL    HW111333   2.260   0.354   0.157
 3478SOL    HW211334   2.396   0.263   0.153
 3479SOL     OW11335   0.398   2.835   3.387
 3479SOL    HW111336   0.326   2.896   3.420
 3479SOL    HW211337   0.449   2.797   3.464
 3480SOL     OW11338   1.320   5.924   6.696
 3480SOL    HW111339   1.404   5.964   6.731
 3480SOL    HW211340   1.340   5.870   6.614
 3481SOL     OW11341   5.833   0.318   0.013
 3481SOL    HW111342   5.911   0.378   0.027
 3481SOL    HW211343   5.864   0.229   7.004
 3482SOL     OW11344   6.065   2.594   4.379
 3482SOL    HW111345   6.064   2.672   4.317
 3482SOL    HW211346   6.148   2.595   4.434
 3483SOL     OW11347   4.622   2.340   3.352
 3483SOL    HW111348   4.601   2.242   3.357
 3483SOL    HW211349   4.566   2.390   3.417
 3484SOL     OW11350   1.894   3.342   6.015
 3484SOL    HW111351   1.859   3.248   6.007
 3484SOL    HW211352   1.993   3.341   5.998
 3485SOL     OW11353   6.671   1.489   5.494
 3485SOL    HW111354   6.586   1.542   5.500
 3485SOL    HW211355   6.651   1.397   5.460
 3486SOL     OW11356   2.365   6.804   4.932
 3486SOL    HW111357   2.322   6.732   4.986
 3486SOL    HW211358   2.327   6.892   4.958
 3487SOL     OW11359   5.771   1.379   6.618
 3487SOL    HW111360   5.851   1.437   6.626
 3487SOL    HW211361   5.798   1.283   6.626
 3488SOL     OW11362   5.858   0.056   4.509
 3488SOL    HW111363   5.943   0.002   4.507
 3488SOL    HW211364   5.819   0.060   4.417
 3489SOL     OW11365   3.079   0.217   1.293
 3489SOL    HW111366   3.119   0.212   1.201
 3489SOL    HW211367   2.987   0.257   1.287
 3490SOL     OW11368   4.178   4.663   0.924
 3490SOL    HW111369   4.207   4.757   0.908
 3490SOL    HW211370   4.170   4.615   0.836
 3491SOL     OW11371   5.217   3.759   0.042
 3491SOL    HW111372   5.275   3.703   0.101
 3491SOL    HW211373   5.121   3.750   0.071
 3492SOL     OW11374   6.528   3.997   2.777
 3492SOL    HW111375   6.517   4.053   2.695
 3492SOL    HW211376   6.523   3.900   2.752
 3493SOL     OW11377   6.392   3.851   4.018
 3493SOL    HW111378   6.385   3.864   3.919
 3493SOL    HW211379   6.318   3.900   4.064
 3494SOL     OW11380   2.852   1.774   2.564
 3494SOL    HW111381   2.855   1.731   2.473
 3494SOL    HW211382   2.830   1.871   2.554
 3495SOL     OW11383   1.126   3.687   1.826
 3495SOL    HW111384   1.148   3.691   1.924
 3495SOL    HW211385   1.159   3.600   1.788
 3496SOL     OW11386   6.270   4.949   0.340
 3496SOL    HW111387   6.223   4.940   0.427
 3496SOL    HW211388   6.333   4.872   0.328
 3497SOL     OW11389   4.253   0.451   3.043
 3497SOL    HW111390   4.210   0.498   3.120
 3497SOL    HW211391   4.256   0.512   2.964
 3498SOL     OW11392   2.327   1.308   1.964
 3498SOL    HW111393   2.371   1.369   1.899
 3498SOL    HW211394   2.237   1.345   1.987
 3499SOL     OW11395   6.180   5.871   5.787
 3499SOL    HW111396   6.116   5.869   5.710
 3499SOL    HW211397   6.130   5.897   5.870
 3500SOL     OW11398   1.618   1.393   4.125
 3500SOL    HW111399   1.668   1.318   4.081
 3500SOL    HW211400   1.590   1.364   4.217
 3501SOL     OW11401   2.498   6.916   6.782
 3501SOL    HW111402   2.586   6.873   6.763
 3501SOL    HW211403   2.484   6.993   6.720
 3502SOL     OW11404   5.609   2.844   1.665
 3502SOL    HW111405   5.553   2.924   1.685
 3502SOL    HW211406   5.684   2.838   1.731
 3503SOL     OW11407   0.144   6.093   6.002
 3503SOL    HW111408   0.151   6.004   5.956
 3503SOL    HW211409   0.234   6.121   6.034
 3504SOL     OW11410   1.385   0.911   1.944
 3504SOL    HW111411   1.441   0.866   1.873
 3504SOL    HW211412   1.407   1.008   1.947
 3505SOL     OW11413   5.538   5.308   5.821
 3505SOL    HW111414   5.611   5.261   5.772
 3505SOL    HW211415   5.567   5.401   5.843
 3506SOL     OW11416   5.544   4.492   4.610
 3506SOL    HW111417   5.554   4.592   4.609
 3506SOL    HW211418   5.471   4.466   4.673
 3507SOL     OW11419   2.515   0.633   0.821
 3507SOL    HW111420   2.526   0.643   0.920
 3507SOL    HW211421   2.461   0.552   0.801
 3508SOL     OW11422   3.271   2.713   5.276
 3508SOL    HW111423   3.237   2.624   5.247
 3508SOL    HW211424   3.197   2.765   5.317
 3509SOL     OW11425   4.701   6.761   0.413
 3509SOL    HW111426   4.735   6.714   0.331
 3509SOL    HW211427   4.611   6.799   0.396
 3510SOL     OW11428   2.227   1.275   1.391
 3510SOL    HW111429   2.288   1.198   1.370
 3510SOL    HW211430   2.154   1.279   1.322
 3511SOL     OW11431   1.829   4.597   1.339
 3511SOL    HW111432   1.892   4.637   1.273
 3511SOL    HW211433   1.839   4.497   1.339
 3512SOL     OW11434   0.632   4.183   0.150
 3512SOL    HW111435   0.608   4.086   0.139
 3512SOL    HW211436   0.549   4.239   0.144
 3513SOL     OW11437   6.075   2.309   1.204
 3513SOL    HW111438   6.121   2.220   1.208
 3513SOL    HW211439   6.061   2.343   1.298
 3514SOL     OW11440   5.559   0.831   2.811
 3514SOL    HW111441   5.510   0.913   2.778
 3514SOL    HW211442   5.647   0.824   2.763
 3515SOL     OW11443   5.636   5.776   3.980
 3515SOL    HW111444   5.659   5.870   4.004
 3515SOL    HW211445   5.635   5.766   3.881
 3516SOL     OW11446   4.756   0.172   1.122
 3516SOL    HW111447   4.715   0.257   1.089
 3516SOL    HW211448   4.743   0.166   1.221
 3517SOL     OW11449   6.575   1.345   0.736
 3517SOL    HW111450   6.620   1.409   0.673
 3517SOL    HW211451   6.622   1.258   0.734
 3518SOL     OW11452   5.887   1.829   4.556
 3518SOL    HW111453   5.833   1.903   4.596
 3518SOL    HW211454   5.938   1.863   4.477
 3519SOL     OW11455   2.987   1.025   6.735
 3519SOL    HW111456   2.938   1.103   6.696
 3519SOL    HW211457   3.078   1.055   6.766
 3520SOL     OW11458   3.311   5.514   5.856
 3520SOL    HW111459   3.386   5.451   5.833
 3520SOL    HW211460   3.234   5.498   5.795
 3521SOL     OW11461   3.224   3.009   6.726
 3521SOL    HW111462   3.286   2.971   6.795
 3521SOL    HW211463   3.139   3.038   6.770
 3522SOL     OW11464   6.577   5.440   6.476
 3522SOL    HW111465   6.601   5.472   6.385
 3522SOL    HW211466   6.646   5.470   6.542
 3523SOL     OW11467   1.277   5.204   4.843
 3523SOL    HW111468   1.343   5.139   4.880
 3523SOL    HW211469   1.274   5.285   4.902
 3524SOL     OW11470   5.643   2.103   2.915
 3524SOL    HW111471   5.561   2.158   2.932
 3524SOL    HW211472   5.661   2.045   2.995
 3525SOL     OW11473   6.163   3.956   4.135
 3525SOL    HW111474   6.103   3.900   4.191
 3525SOL    HW211475   6.167   4.049   4.171
 3526SOL     OW11476   1.596   5.500   3.495
 3526SOL    HW111477   1.536   5.532   3.568
 3526SOL    HW211478   1.635   5.412   3.520
 3527SOL     OW11479   5.909   2.630   5.860
 3527SOL    HW111480   5.871   2.712   5.902
 3527SOL    HW211481   5.920   2.559   5.930
 3528SOL     OW11482   2.560   6.464   5.175
 3528SOL    HW111483   2.525   6.443   5.084
 3528SOL    HW211484   2.612   6.386   5.210
 3529SOL     OW11485   4.157   5.978   6.773
 3529SOL    HW111486   4.202   5.892   6.748
 3529SOL    HW211487   4.161   6.041   6.695
 3530SOL     OW11488   0.063   5.721   2.065
 3530SOL    HW111489   0.065   5.623   2.085
 3530SOL    HW211490   6.995   5.756   2.086
 3531SOL     OW11491   4.918   1.968   1.930
 3531SOL    HW111492   4.869   1.947   1.845
 3531SOL    HW211493   4.879   2.051   1.970
 3532SOL     OW11494   2.298   0.964   2.071
 3532SOL    HW111495   2.381   0.983   2.124
 3532SOL    HW211496   2.322   0.906   1.993
 3533SOL     OW11497   0.068   1.683   2.890
 3533SOL    HW111498   0.133   1.622   2.934
 3533SOL    HW211499   0.111   1.772   2.873
 3534SOL     OW11500   0.458   2.471   2.302
 3534SOL    HW111501   0.490   2.398   2.361
 3534SOL    HW211502   0.501   2.463   2.212
 3535SOL     OW11503   2.734   4.914   5.213
 3535SOL    HW111504   2.794   4.933   5.135
 3535SOL    HW211505   2.667   4.845   5.188
 3536SOL     OW11506   3.364   1.905   3.123
 3536SOL    HW111507   3.395   1.854   3.043
 3536SOL    HW211508   3.265   1.896   3.133
 3537SOL     OW11509   1.402   5.919   2.965
 3537SOL    HW111510   1.429   5.847   2.902
 3537SOL    HW211511   1.459   5.915   3.047
 3538SOL     OW11512   3.074   5.485   5.057
 3538SOL    HW111513   3.061   5.412   5.125
 3538SOL    HW211514   3.021   5.565   5.084
 3539SOL     OW11515   3.620   3.767   4.383
 3539SOL    HW111516   3.529   3.732   4.361
 3539SOL    HW211517   3.625   3.864   4.359
 3540SOL     OW11518   1.888   2.175   4.096
 3540SOL    HW111519   1.972   2.206   4.141
 3540SOL    HW211520   1.861   2.086   4.135
 3541SOL     OW11521   3.134   3.342   5.316
 3541SOL    HW111522   3.099   3.254   5.286
 3541SOL    HW211523   3.089   3.415   5.264
 3542SOL     OW11524   1.889   4.788   3.006
 3542SOL    HW111525   1.867   4.841   2.924
 3542SOL    HW211526   1.816   4.722   3.024
 3543SOL     OW11527   5.122   2.452   4.244
 3543SOL    HW111528   5.215   2.418   4.229
 3543SOL    HW211529   5.125   2.552   4.255
 3544SOL     OW11530   2.046   4.035   0.012
 3544SOL    HW111531   2.013   3.970   6.967
 3544SOL    HW211532   2.133   4.004   0.049
 3545SOL     OW11533   4.181   6.178   6.581
 3545SOL    HW111534   4.088   6.205   6.607
 3545SOL    HW211535   4.197   6.203   6.486
 3546SOL     OW11536   0.238   5.794   3.550
 3546SOL    HW111537   0.196   5.855   3.617
 3546SOL    HW211538   0.213   5.822   3.457
 3547SOL     OW11539   3.959   5.654   4.074
 3547SOL    HW111540   4.033   5.643   4.008
 3547SOL    HW211541   3.877   5.608   4.041
 3548SOL     OW11542   4.884   2.305   5.748
 3548SOL    HW111543   4.824   2.240   5.795
 3548SOL    HW211544   4.906   2.270   5.657
 3549SOL     OW11545   6.344   5.006   4.138
 3549SOL    HW111546   6.359   5.019   4.236
 3549SOL    HW211547   6.430   5.015   4.089
 3550SOL     OW11548   5.112   2.302   3.260
 3550SOL    HW111549   5.082   2.331   3.351
 3550SOL    HW211550   5.210   2.280   3.263
 3551SOL     OW11551   3.744   6.097   3.091
 3551SOL    HW111552   3.798   6.139   3.164
 3551SOL    HW211553   3.691   6.021   3.128
 3552SOL     OW11554   5.732   5.569   2.995
 3552SOL    HW111555   5.684   5.586   3.081
 3552SOL    HW211556   5.744   5.470   2.983
 3553SOL     OW11557   5.641   2.717   2.089
 3553SOL    HW111558   5.719   2.690   2.145
 3553SOL    HW211559   5.565   2.742   2.148
 3554SOL     OW11560   4.222   4.161   6.624
 3554SOL    HW111561   4.127   4.168   6.594
 3554SOL    HW211562   4.283   4.181   6.547
 3555SOL     OW11563   0.745   3.708   2.917
 3555SOL    HW111564   0.675   3.642   2.892
 3555SOL    HW211565   0.733   3.792   2.864
 3556SOL     OW11566   3.062   0.459   5.512
 3556SOL    HW111567   3.152   0.472   5.470
 3556SOL    HW211568   3.010   0.544   5.506
 3557SOL     OW11569   1.106   0.455   4.834
 3557SOL    HW111570   1.024   0.421   4.788
 3557SOL    HW211571   1.183   0.455   4.771
 3558SOL     OW11572   0.516   5.616   1.859
 3558SOL    HW111573   0.568   5.699   1.880
 3558SOL    HW211574   0.571   5.557   1.799
 3559SOL     OW11575   0.402   0.194   5.039
 3559SOL    HW111576   0.384   0.230   5.131
 3559SOL    HW211577   0.365   0.257   4.971
 3560SOL     OW11578   1.136   6.046   0.913
 3560SOL    HW111579   1.077   5.966   0.915
 3560SOL    HW211580   1.146   6.078   0.819
 3561SOL     OW11581   4.813   4.524   5.794
 3561SOL    HW111582   4.815   4.433   5.836
 3561SOL    HW211583   4.719   4.544   5.764
 3562SOL     OW11584   5.073   0.282   3.937
 3562SOL    HW111585   5.146   0.306   4.002
 3562SOL    HW211586   5.112   0.269   3.846
 3563SOL     OW11587   5.312   1.175   1.229
 3563SOL    HW111588   5.384   1.197   1.294
 3563SOL    HW211589   5.312   1.243   1.155
 3564SOL     OW11590   0.616   4.193   4.976
 3564SOL    HW111591   0.619   4.189   5.076
 3564SOL    HW211592   0.591   4.104   4.940
 3565SOL     OW11593   2.436   0.228   4.673
 3565SOL    HW111594   2.444   0.321   4.707
 3565SOL    HW211595   2.427   0.230   4.573
 3566SOL     OW11596   0.034   3.113   6.024
 3566SOL    HW111597   0.074   3.185   6.080
 3566SOL    HW211598   0.083   3.027   6.040
 3567SOL     OW11599   0.702   3.401   1.176
 3567SOL    HW111600   0.645   3.482   1.185
 3567SOL    HW211601   0.794   3.428   1.147
 3568SOL     OW11602   4.737   4.754   2.608
 3568SOL    HW111603   4.804   4.699   2.558
 3568SOL    HW211604   4.647   4.742   2.566
 3569SOL     OW11605   2.978   3.382   4.250
 3569SOL    HW111606   2.959   3.445   4.175
 3569SOL    HW211607   2.925   3.409   4.331
 3570SOL     OW11608   6.340   1.799   5.831
 3570SOL    HW111609   6.386   1.711   5.843
 3570SOL    HW211610   6.364   1.838   5.742
 3571SOL     OW11611   1.957   0.338   5.201
 3571SOL    HW111612   2.024   0.297   5.138
 3571SOL    HW211613   1.979   0.434   5.215
 3572SOL     OW11614   5.304   3.834   1.950
 3572SOL    HW111615   5.269   3.787   1.869
 3572SOL    HW211616   5.252   3.806   2.031
 3573SOL     OW11617   6.145   3.958   2.130
 3573SOL    HW111618   6.059   3.940   2.178
 3573SOL    HW211619   6.201   3.875   2.131
 3574SOL     OW11620   2.401   3.077   6.001
 3574SOL    HW111621   2.364   3.111   5.914
 3574SOL    HW211622   2.431   2.983   5.989
 3575SOL     OW11623   4.691   6.253   0.853
 3575SOL    HW111624   4.746   6.200   0.787
 3575SOL    HW211625   4.676   6.345   0.817
 3576SOL     OW11626   0.110   3.407   0.042
 3576SOL    HW111627   0.177   3.424   0.114
 3576SOL    HW211628   0.075   3.494   0.007
 3577SOL     OW11629   2.111   2.641   5.113
 3577SOL    HW111630   2.151   2.690   5.036
 3577SOL    HW211631   2.014   2.622   5.093
 3578SOL     OW11632   3.168   2.989   7.006
 3578SOL    HW111633   3.097   3.060   7.000
 3578SOL    HW211634   3.148   2.930   0.061
 3579SOL     OW11635   0.199   3.542   2.368
 3579SOL    HW111636   0.142   3.494   2.435
 3579SOL    HW211637   0.274   3.589   2.416
 3580SOL     OW11638   0.432   3.540   1.205
 3580SOL    HW111639   0.433   3.500   1.297
 3580SOL    HW211640   0.369   3.488   1.147
 3581SOL     OW11641   0.803   0.258   2.951
 3581SOL    HW111642   0.713   0.264   2.993
 3581SOL    HW211643   0.798   0.205   2.867
 3582SOL     OW11644   3.621   3.903   5.629
 3582SOL    HW111645   3.586   3.879   5.538
 3582SOL    HW211646   3.590   3.834   5.695
 3583SOL     OW11647   0.106   4.656   0.811
 3583SOL    HW111648   0.125   4.585   0.743
 3583SOL    HW211649   0.030   4.628   0.868
 3584SOL     OW11650   5.203   4.359   4.601
 3584SOL    HW111651   5.107   4.339   4.581
 3584SOL    HW211652   5.209   4.407   4.689
 3585SOL     OW11653   2.595   2.040   4.423
 3585SOL    HW111654   2.562   2.030   4.329
 3585SOL    HW211655   2.586   1.953   4.471
 3586SOL     OW11656   6.772   3.012   3.546
 3586SOL    HW111657   6.848   2.973   3.494
 3586SOL    HW211658   6.704   2.941   3.564
 3587SOL     OW11659   3.684   6.756   6.260
 3587SOL    HW111660   3.674   6.798   6.169
 3587SOL    HW211661   3.649   6.662   6.257
 3588SOL     OW11662   6.468   3.863   4.641
 3588SOL    HW111663   6.411   3.830   4.716
 3588SOL    HW211664   6.561   3.827   4.652
 3589SOL     OW11665   7.007   0.056   6.126
 3589SOL    HW111666   7.002   6.997   6.069
 3589SOL    HW211667   0.077   0.092   6.125
 3590SOL     OW11668   0.634   4.312   0.474
 3590SOL    HW111669   0.586   4.267   0.550
 3590SOL    HW211670   0.571   4.375   0.429
 3591SOL     OW11671   5.581   2.528   6.765
 3591SOL    HW111672   5.575   2.540   6.864
 3591SOL    HW211673   5.630   2.606   6.725
 3592SOL     OW11674   1.285   0.276   2.240
 3592SOL    HW111675   1.279   0.204   2.171
 3592SOL    HW211676   1.241   0.245   2.324
 3593SOL     OW11677   5.989   3.655   5.808
 3593SOL    HW111678   6.022   3.650   5.902
 3593SOL    HW211679   6.017   3.742   5.767
 3594SOL     OW11680   4.118   5.072   4.489
 3594SOL    HW111681   4.126   5.136   4.566
 3594SOL    HW211682   4.075   5.118   4.411
 3595SOL     OW11683   5.736   5.785   6.388
 3595SOL    HW111684   5.835   5.795   6.373
 3595SOL    HW211685   5.715   5.809   6.483
 3596SOL     OW11686   3.669   1.070   2.759
 3596SOL    HW111687   3.765   1.082   2.783
 3596SOL    HW211688   3.640   0.977   2.780
 3597SOL     OW11689   1.398   3.174   5.092
 3597SOL    HW111690   1.333   3.126   5.151
 3597SOL    HW211691   1.490   3.162   5.129
 3598SOL     OW11692   1.668   5.514   4.514
 3598SOL    HW111693   1.619   5.469   4.440
 3598SOL    HW211694   1.666   5.456   4.595
 3599SOL     OW11695   4.740   1.552   5.528
 3599SOL    HW111696   4.817   1.493   5.505
 3599SOL    HW211697   4.738   1.631   5.466
 3600SOL     OW11698   3.485   3.652   0.687
 3600SOL    HW111699   3.492   3.609   0.777
 3600SOL    HW211700   3.575   3.686   0.659
 3601SOL     OW11701   4.703   1.110   5.181
 3601SOL    HW111702   4.729   1.132   5.087
 3601SOL    HW211703   4.756   1.030   5.212
 3602SOL     OW11704   2.087   2.461   0.939
 3602SOL    HW111705   2.166   2.399   0.937
 3602SOL    HW211706   2.022   2.431   1.009
 3603SOL     OW11707   3.064   0.842   5.832
 3603SOL    HW111708   3.038   0.747   5.852
 3603SOL    HW211709   2.987   0.889   5.789
 3604SOL     OW11710   6.566   0.414   3.654
 3604SOL    HW111711   6.528   0.418   3.561
 3604SOL    HW211712   6.491   0.406   3.720
 3605SOL     OW11713   0.604   5.668   3.384
 3605SOL    HW111714   0.698   5.638   3.402
 3605SOL    HW211715   0.593   5.764   3.412
 3606SOL     OW11716   2.211   6.489   1.621
 3606SOL    HW111717   2.115   6.479   1.649
 3606SOL    HW211718   2.218   6.562   1.554
 3607SOL     OW11719   5.356   2.496   2.846
 3607SOL    HW111720   5.283   2.496   2.915
 3607SOL    HW211721   5.315   2.495   2.755
 3608SOL     OW11722   3.832   2.167   4.512
 3608SOL    HW111723   3.768   2.132   4.580
 3608SOL    HW211724   3.924   2.171   4.552
 3609SOL     OW11725   2.148   0.036   4.851
 3609SOL    HW111726   2.107   0.055   4.762
 3609SOL    HW211727   2.246   0.023   4.841
 3610SOL     OW11728   2.172   6.979   5.318
 3610SOL    HW111729   2.142   6.922   5.241
 3610SOL    HW211730   2.243   0.019   5.287
 3611SOL     OW11731   4.811   4.390   3.373
 3611SOL    HW111732   4.796   4.319   3.441
 3611SOL    HW211733   4.819   4.479   3.418
 3612SOL     OW11734   5.395   1.573   6.769
 3612SOL    HW111735   5.442   1.589   6.855
 3612SOL    HW211736   5.427   1.488   6.728
 3613SOL     OW11737   3.484   5.077   1.152
 3613SOL    HW111738   3.404   5.069   1.211
 3613SOL    HW211739   3.469   5.025   1.068
 3614SOL     OW11740   3.586   4.321   6.273
 3614SOL    HW111741   3.626   4.399   6.224
 3614SOL    HW211742   3.554   4.253   6.207
 3615SOL     OW11743   6.374   2.394   5.308
 3615SOL    HW111744   6.431   2.455   5.363
 3615SOL    HW211745   6.410   2.389   5.215
 3616SOL     OW11746   2.055   1.862   6.678
 3616SOL    HW111747   1.980   1.821   6.626
 3616SOL    HW211748   2.053   1.961   6.667
 3617SOL     OW11749   4.085   6.747   5.787
 3617SOL    HW111750   4.074   6.692   5.704
 3617SOL    HW211751   4.066   6.691   5.867
 3618SOL     OW11752   1.867   4.044   4.480
 3618SOL    HW111753   1.834   4.128   4.522
 3618SOL    HW211754   1.899   3.981   4.551
 3619SOL     OW11755   6.651   2.918   1.207
 3619SOL    HW111756   6.719   2.987   1.185
 3619SOL    HW211757   6.674   2.875   1.295
 3620SOL     OW11758   6.392   6.594   5.073
 3620SOL    HW111759   6.361   6.626   5.163
 3620SOL    HW211760   6.490   6.612   5.063
 3621SOL     OW11761   3.208   3.086   3.861
 3621SOL    HW111762   3.191   3.171   3.911
 3621SOL    HW211763   3.213   3.009   3.925
 3622SOL     OW11764   1.109   0.190   0.271
 3622SOL    HW111765   1.064   0.113   0.226
 3622SOL    HW211766   1.044   0.264   0.285
 3623SOL     OW11767   1.167   5.320   6.215
 3623SOL    HW111768   1.096   5.333   6.145
 3623SOL    HW211769   1.132   5.261   6.288
 3624SOL     OW11770   3.120   0.813   2.083
 3624SOL    HW111771   3.202   0.865   2.063
 3624SOL    HW211772   3.087   0.768   2.000
 3625SOL     OW11773   6.928   2.619   6.594
 3625SOL    HW111774   6.936   2.544   6.659
 3625SOL    HW211775   6.831   2.638   6.577
 3626SOL     OW11776   0.886   2.356   5.031
 3626SOL    HW111777   0.882   2.420   5.107
 3626SOL    HW211778   0.976   2.313   5.027
 3627SOL     OW11779   4.119   2.571   1.264
 3627SOL    HW111780   4.149   2.484   1.223
 3627SOL    HW211781   4.058   2.618   1.201
 3628SOL     OW11782   6.897   1.643   2.445
 3628SOL    HW111783   6.799   1.657   2.460
 3628SOL    HW211784   6.936   1.721   2.397
 3629SOL     OW11785   1.575   1.295   4.385
 3629SOL    HW111786   1.661   1.327   4.424
 3629SOL    HW211787   1.565   1.197   4.401
 3630SOL     OW11788   6.648   2.732   3.298
 3630SOL    HW111789   6.675   2.652   3.352
 3630SOL    HW211790   6.569   2.776   3.341
 3631SOL     OW11791   1.651   6.737   2.562
 3631SOL    HW111792   1.652   6.773   2.469
 3631SOL    HW211793   1.638   6.638   2.560
 3632SOL     OW11794   4.525   3.445   0.868
 3632SOL    HW111795   4.592   3.488   0.929
 3632SOL    HW211796   4.503   3.354   0.902
 3633SOL     OW11797   3.474   2.769   5.960
 3633SOL    HW111798   3.507   2.706   6.030
 3633SOL    HW211799   3.489   2.730   5.869
 3634SOL     OW11800   2.724   5.264   6.327
 3634SOL    HW111801   2.719   5.351   6.277
 3634SOL    HW211802   2.729   5.188   6.261
 3635SOL     OW11803   2.704   0.903   1.621
 3635SOL    HW111804   2.780   0.964   1.596
 3635SOL    HW211805   2.716   0.874   1.716
 3636SOL     OW11806   1.135   5.527   0.022
 3636SOL    HW111807   1.040   5.545   0.049
 3636SOL    HW211808   1.193   5.524   0.103
 3637SOL     OW11809   7.017   2.700   7.013
 3637SOL    HW111810   0.064   2.722   6.945
 3637SOL    HW211811   7.008   2.776   0.055
 3638SOL     OW11812   5.619   4.541   2.599
 3638SOL    HW111813   5.522   4.558   2.582
 3638SOL    HW211814   5.645   4.455   2.556
 3639SOL     OW11815   3.214   3.889   4.444
 3639SOL    HW111816   3.184   3.959   4.379
 3639SOL    HW211817   3.134   3.840   4.479
 3640SOL     OW11818   5.444   1.947   0.726
 3640SOL    HW111819   5.362   1.977   0.775
 3640SOL    HW211820   5.464   2.012   0.653
 3641SOL     OW11821   6.570   4.333   2.238
 3641SOL    HW111822   6.477   4.303   2.259
 3641SOL    HW211823   6.603   4.392   2.312
 3642SOL     OW11824   6.121   2.750   6.616
 3642SOL    HW111825   6.026   2.764   6.644
 3642SOL    HW211826   6.142   2.652   6.616
 3643SOL     OW11827   3.502   5.403   5.565
 3643SOL    HW111828   3.527   5.397   5.661
 3643SOL    HW211829   3.573   5.453   5.515
 3644SOL     OW11830   3.336   1.159   1.744
 3644SOL    HW111831   3.412   1.192   1.688
 3644SOL    HW211832   3.292   1.081   1.699
 3645SOL     OW11833   1.488   4.307   4.025
 3645SOL    HW111834   1.428   4.227   4.030
 3645SOL    HW211835   1.434   4.390   4.036
 3646SOL     OW11836   2.334   4.432   4.819
 3646SOL    HW111837   2.427   4.470   4.823
 3646SOL    HW211838   2.308   4.396   4.908
 3647SOL     OW11839   2.670   0.309   0.344
 3647SOL    HW111840   2.673   0.398   0.389
 3647SOL    HW211841   2.762   0.285   0.312
 3648SOL     OW11842   4.194   5.409   3.717
 3648SOL    HW111843   4.262   5.431   3.647
 3648SOL    HW211844   4.164   5.315   3.706
 3649SOL     OW11845   5.858   2.939   0.471
 3649SOL    HW111846   5.915   2.970   0.547
 3649SOL    HW211847   5.848   2.840   0.475
 3650SOL     OW11848   5.636   5.376   0.149
 3650SOL    HW111849   5.626   5.398   0.052
 3650SOL    HW211850   5.671   5.456   0.198
 3651SOL     OW11851   0.843   2.734   6.352
 3651SOL    HW111852   0.872   2.670   6.281
 3651SOL    HW211853   0.911   2.736   6.426
 3652SOL     OW11854   5.081   1.779   2.030
 3652SOL    HW111855   5.014   1.843   1.992
 3652SOL    HW211856   5.035   1.694   2.056
 3653SOL     OW11857   0.254   1.298   1.443
 3653SOL    HW111858   0.174   1.351   1.413
 3653SOL    HW211859   0.319   1.360   1.487
 3654SOL     OW11860   5.802   0.295   0.697
 3654SOL    HW111861   5.715   0.343   0.703
 3654SOL    HW211862   5.787   0.197   0.716
 3655SOL     OW11863   1.869   2.242   4.674
 3655SOL    HW111864   1.776   2.211   4.695
 3655SOL    HW211865   1.876   2.260   4.576
 3656SOL     OW11866   0.276   6.098   1.401
 3656SOL    HW111867   0.213   6.101   1.478
 3656SOL    HW211868   0.290   6.190   1.365
 3657SOL     OW11869   5.078   6.248   4.684
 3657SOL    HW111870   5.099   6.194   4.602
 3657SOL    HW211871   5.151   6.235   4.752
 3658SOL     OW11872   1.629   5.003   6.058
 3658SOL    HW111873   1.587   5.094   6.057
 3658SOL    HW211874   1.566   4.938   6.099
 3659SOL     OW11875   6.720   1.502   6.160
 3659SOL    HW111876   6.639   1.444   6.159
 3659SOL    HW211877   6.703   1.586   6.109
 3660SOL     OW11878   5.484   5.188   6.069
 3660SOL    HW111879   5.430   5.110   6.100
 3660SOL    HW211880   5.481   5.194   5.969
 3661SOL     OW11881   6.929   1.809   4.334
 3661SOL    HW111882   6.952   1.790   4.430
 3661SOL    HW211883   6.869   1.738   4.299
 3662SOL     OW11884   3.009   1.155   5.500
 3662SOL    HW111885   3.087   1.115   5.452
 3662SOL    HW211886   2.945   1.194   5.434
 3663SOL     OW11887   2.297   2.581   6.481
 3663SOL    HW111888   2.298   2.676   6.449
 3663SOL    HW211889   2.358   2.526   6.424
 3664SOL     OW11890   3.870   1.527   2.152
 3664SOL    HW111891   3.881   1.430   2.173
 3664SOL    HW211892   3.789   1.562   2.200
 3665SOL     OW11893   1.134   5.893   5.980
 3665SOL    HW111894   1.231   5.875   5.960
 3665SOL    HW211895   1.083   5.808   5.974
 3666SOL     OW11896   2.362   1.949   5.077
 3666SOL    HW111897   2.407   1.989   5.157
 3666SOL    HW211898   2.405   1.983   4.994
 3667SOL     OW11899   2.386   0.153   2.845
 3667SOL    HW111900   2.290   0.177   2.830
 3667SOL    HW211901   2.392   0.085   2.918
 3668SOL     OW11902   0.469   0.623   1.825
 3668SOL    HW111903   0.567   0.623   1.847
 3668SOL    HW211904   0.455   0.658   1.733
 3669SOL     OW11905   6.681   1.253   3.911
 3669SOL    HW111906   6.669   1.304   3.995
 3669SOL    HW211907   6.641   1.304   3.835
 3670SOL     OW11908   3.286   5.299   1.587
 3670SOL    HW111909   3.362   5.236   1.571
 3670SOL    HW211910   3.306   5.358   1.665
 3671SOL     OW11911   6.831   0.167   3.397
 3671SOL    HW111912   6.894   0.172   3.320
 3671SOL    HW211913   6.804   0.072   3.412
 3672SOL     OW11914   4.702   6.402   2.453
 3672SOL    HW111915   4.652   6.468   2.509
 3672SOL    HW211916   4.638   6.352   2.395
 3673SOL     OW11917   4.746   5.963   1.199
 3673SOL    HW111918   4.780   6.054   1.175
 3673SOL    HW211919   4.814   5.894   1.173
 3674SOL     OW11920   1.434   5.219   6.097
 3674SOL    HW111921   1.360   5.193   6.159
 3674SOL    HW211922   1.401   5.218   6.003
 3675SOL     OW11923   0.848   0.935   3.758
 3675SOL    HW111924   0.849   0.887   3.846
 3675SOL    HW211925   0.865   1.032   3.773
 3676SOL     OW11926   3.670   1.630   3.256
 3676SOL    HW111927   3.674   1.531   3.266
 3676SOL    HW211928   3.695   1.655   3.162
 3677SOL     OW11929   1.989   0.243   4.035
 3677SOL    HW111930   2.006   0.223   3.939
 3677SOL    HW211931   2.029   0.332   4.058
 3678SOL     OW11932   1.334   0.533   3.750
 3678SOL    HW111933   1.320   0.632   3.753
 3678SOL    HW211934   1.246   0.486   3.761
 3679SOL     OW11935   4.782   0.840   2.387
 3679SOL    HW111936   4.756   0.746   2.363
 3679SOL    HW211937   4.880   0.843   2.408
 3680SOL     OW11938   4.225   1.365   4.165
 3680SOL    HW111939   4.233   1.286   4.105
 3680SOL    HW211940   4.206   1.333   4.258
 3681SOL     OW11941   1.513   5.981   4.912
 3681SOL    HW111942   1.490   6.072   4.945
 3681SOL    HW211943   1.433   5.941   4.867
 3682SOL     OW11944   5.458   2.165   1.245
 3682SOL    HW111945   5.492   2.224   1.172
 3682SOL    HW211946   5.419   2.220   1.318
 3683SOL     OW11947   6.357   0.804   6.003
 3683SOL    HW111948   6.304   0.842   6.078
 3683SOL    HW211949   6.427   0.870   5.974
 3684SOL     OW11950   2.446   6.812   5.229
 3684SOL    HW111951   2.511   6.825   5.303
 3684SOL    HW211952   2.441   6.894   5.173
 3685SOL     OW11953   2.186   6.306   5.584
 3685SOL    HW111954   2.157   6.281   5.676
 3685SOL    HW211955   2.245   6.235   5.547
 3686SOL     OW11956   1.158   4.566   4.094
 3686SOL    HW111957   1.139   4.615   4.179
 3686SOL    HW211958   1.246   4.596   4.058
 3687SOL     OW11959   5.683   5.541   4.137
 3687SOL    HW111960   5.782   5.555   4.133
 3687SOL    HW211961   5.637   5.615   4.088
 3688SOL     OW11962   5.825   3.239   0.662
 3688SOL    HW111963   5.836   3.245   0.761
 3688SOL    HW211964   5.904   3.281   0.617
 3689SOL     OW11965   1.930   6.986   5.920
 3689SOL    HW111966   1.975   0.021   5.852
 3689SOL    HW211967   1.995   6.961   5.992
 3690SOL     OW11968   4.968   4.723   0.987
 3690SOL    HW111969   4.918   4.764   1.063
 3690SOL    HW211970   5.014   4.795   0.935
 3691SOL     OW11971   2.586   2.373   0.567
 3691SOL    HW111972   2.497   2.329   0.558
 3691SOL    HW211973   2.582   2.442   0.640
 3692SOL     OW11974   0.541   3.761   6.484
 3692SOL    HW111975   0.517   3.851   6.448
 3692SOL    HW211976   0.579   3.705   6.411
 3693SOL     OW11977   0.109   1.412   2.764
 3693SOL    HW111978   0.153   1.429   2.853
 3693SOL    HW211979   0.128   1.489   2.702
 3694SOL     OW11980   6.810   0.296   1.404
 3694SOL    HW111981   6.843   0.213   1.448
 3694SOL    HW211982   6.830   0.292   1.306
 3695SOL     OW11983   6.454   2.803   2.107
 3695SOL    HW111984   6.541   2.815   2.060
 3695SOL    HW211985   6.460   2.726   2.171
 3696SOL     OW11986   4.674   0.887   4.314
 3696SOL    HW111987   4.648   0.792   4.300
 3696SOL    HW211988   4.702   0.902   4.409
 3697SOL     OW11989   0.088   6.555   3.583
 3697SOL    HW111990   0.083   6.504   3.669
 3697SOL    HW211991   0.158   6.514   3.524
 3698SOL     OW11992   2.261   0.363   3.072
 3698SOL    HW111993   2.287   0.420   3.150
 3698SOL    HW211994   2.162   0.353   3.070
 3699SOL     OW11995   2.584   2.534   3.792
 3699SOL    HW111996   2.522   2.535   3.714
 3699SOL    HW211997   2.531   2.541   3.877
 3700SOL     OW11998   0.960   4.848   5.011
 3700SOL    HW111999   1.035   4.809   5.065
 3700SOL    HW212000   0.994   4.880   4.923
 3701SOL     OW12001   1.924   0.953   2.709
 3701SOL    HW112002   1.983   0.984   2.634
 3701SOL    HW212003   1.876   0.870   2.682
 3702SOL     OW12004   5.319   4.342   3.878
 3702SOL    HW112005   5.250   4.273   3.898
 3702SOL    HW212006   5.357   4.377   3.963
 3703SOL     OW12007   1.291   2.148   4.232
 3703SOL    HW112008   1.236   2.229   4.250
 3703SOL    HW212009   1.383   2.174   4.204
 3704SOL     OW12010   6.720   2.257   0.783
 3704SOL    HW112011   6.758   2.229   0.871
 3704SOL    HW212012   6.674   2.345   0.794
 3705SOL     OW12013   5.310   4.963   3.210
 3705SOL    HW112014   5.318   5.052   3.255
 3705SOL    HW212015   5.217   4.952   3.175
 3706SOL     OW12016   0.406   3.911   0.293
 3706SOL    HW112017   0.332   3.856   0.255
 3706SOL    HW212018   0.379   3.944   0.383
 3707SOL     OW12019   1.244   5.424   3.771
 3707SOL    HW112020   1.178   5.349   3.770
 3707SOL    HW212021   1.336   5.387   3.779
 3708SOL     OW12022   3.447   6.967   0.447
 3708SOL    HW112023   3.456   7.019   0.532
 3708SOL    HW212024   3.534   6.970   0.397
 3709SOL     OW12025   1.662   1.069   2.727
 3709SOL    HW112026   1.647   1.076   2.628
 3709SOL    HW212027   1.759   1.058   2.745
 3710SOL     OW12028   6.474   4.842   5.855
 3710SOL    HW112029   6.526   4.897   5.789
 3710SOL    HW212030   6.483   4.882   5.946
 3711SOL     OW12031   1.564   5.373   4.259
 3711SOL    HW112032   1.518   5.292   4.295
 3711SOL    HW212033   1.496   5.435   4.219
 3712SOL     OW12034   1.893   5.288   5.030
 3712SOL    HW112035   1.883   5.270   4.933
 3712SOL    HW212036   1.821   5.350   5.060
 3713SOL     OW12037   6.108   6.391   4.552
 3713SOL    HW112038   6.056   6.443   4.484
 3713SOL    HW212039   6.189   6.351   4.509
 3714SOL     OW12040   0.704   4.657   0.436
 3714SOL    HW112041   0.654   4.589   0.383
 3714SOL    HW212042   0.640   4.704   0.497
 3715SOL     OW12043   6.199   5.237   3.996
 3715SOL    HW112044   6.256   5.180   4.055
 3715SOL    HW212045   6.116   5.263   4.046
 3716SOL     OW12046   5.327   5.524   3.826
 3716SOL    HW112047   5.276   5.601   3.788
 3716SOL    HW212048   5.360   5.466   3.751
 3717SOL     OW12049   4.350   1.287   1.297
 3717SOL    HW112050   4.299   1.269   1.213
 3717SOL    HW212051   4.339   1.383   1.323
 3718SOL     OW12052   0.422   6.860   5.476
 3718SOL    HW112053   0.444   6.916   5.397
 3718SOL    HW212054   0.506   6.826   5.517
 3719SOL     OW12055   3.491   4.094   6.089
 3719SOL    HW112056   3.455   4.002   6.102
 3719SOL    HW212057   3.455   4.131   6.003
 3720SOL     OW12058   0.122   2.440   1.580
 3720SOL    HW112059   0.189   2.375   1.542
 3720SOL    HW212060   0.045   2.448   1.518
 3721SOL     OW12061   6.134   4.990   6.045
 3721SOL    HW112062   6.189   4.981   5.962
 3721SOL    HW212063   6.101   5.084   6.053
 3722SOL     OW12064   4.666   6.779   3.321
 3722SOL    HW112065   4.704   6.743   3.236
 3722SOL    HW212066   4.611   6.708   3.365
 3723SOL     OW12067   4.538   4.441   0.256
 3723SOL    HW112068   4.565   4.349   0.230
 3723SOL    HW212069   4.501   4.490   0.177
 3724SOL     OW12070   1.421   4.962   5.197
 3724SOL    HW112071   1.352   4.892   5.179
 3724SOL    HW212072   1.388   5.024   5.268
 3725SOL     OW12073   0.869   5.866   6.709
 3725SOL    HW112074   0.967   5.845   6.715
 3725SOL    HW212075   0.816   5.787   6.739
 3726SOL     OW12076   6.214   3.329   4.407
 3726SOL    HW112077   6.203   3.314   4.505
 3726SOL    HW212078   6.128   3.306   4.360
 3727SOL     OW12079   6.734   3.320   4.290
 3727SOL    HW112080   6.755   3.281   4.200
 3727SOL    HW212081   6.675   3.401   4.278
 3728SOL     OW12082   2.927   3.467   0.146
 3728SOL    HW112083   2.904   3.556   0.186
 3728SOL    HW212084   3.021   3.443   0.171
 3729SOL     OW12085   0.546   6.870   5.777
 3729SOL    HW112086   0.498   6.927   5.843
 3729SOL    HW212087   0.643   6.866   5.800
 3730SOL     OW12088   3.694   5.947   4.808
 3730SOL    HW112089   3.789   5.946   4.837
 3730SOL    HW212090   3.666   5.856   4.778
 3731SOL     OW12091   0.434   2.553   6.640
 3731SOL    HW112092   0.468   2.460   6.652
 3731SOL    HW212093   0.482   2.597   6.565
 3732SOL     OW12094   3.257   2.285   6.902
 3732SOL    HW112095   3.209   2.320   6.983
 3732SOL    HW212096   3.213   2.201   6.870
 3733SOL     OW12097   1.881   1.684   3.706
 3733SOL    HW112098   1.871   1.700   3.804
 3733SOL    HW212099   1.928   1.598   3.690
 3734SOL     OW12100   4.215   6.720   0.763
 3734SOL    HW112101   4.238   6.814   0.790
 3734SOL    HW212102   4.293   6.678   0.717
 3735SOL     OW12103   4.577   6.777   2.305
 3735SOL    HW112104   4.505   6.709   2.298
 3735SOL    HW212105   4.536   6.867   2.321
 3736SOL     OW12106   6.933   1.174   1.102
 3736SOL    HW112107   6.842   1.165   1.143
 3736SOL    HW212108   6.942   1.108   1.027
 3737SOL     OW12109   0.035   2.874   3.064
 3737SOL    HW112110   0.122   2.827   3.051
 3737SOL    HW212111   6.987   2.826   3.012
 3738SOL     OW12112   6.913   6.392   1.150
 3738SOL    HW112113   6.832   6.384   1.093
 3738SOL    HW212114   6.952   6.483   1.141
 3739SOL     OW12115   3.025   4.302   1.003
 3739SOL    HW112116   2.928   4.325   1.012
 3739SOL    HW212117   3.035   4.226   0.938
 3740SOL     OW12118   5.374   5.312   6.559
 3740SOL    HW112119   5.326   5.329   6.473
 3740SOL    HW212120   5.444   5.383   6.573
 3741SOL     OW12121   5.089   3.256   6.901
 3741SOL    HW112122   5.167   3.311   6.933
 3741SOL    HW212123   5.005   3.293   6.939
 3742SOL     OW12124   3.801   5.402   6.871
 3742SOL    HW112125   3.719   5.366   6.915
 3742SOL    HW212126   3.856   5.327   6.835
 3743SOL     OW12127   4.420   3.395   1.592
 3743SOL    HW112128   4.460   3.486   1.603
 3743SOL    HW212129   4.322   3.402   1.578
 3744SOL     OW12130   0.662   6.900   2.609
 3744SOL    HW112131   0.591   6.936   2.669
 3744SOL    HW212132   0.692   6.811   2.643
 3745SOL     OW12133   4.985   4.019   2.208
 3745SOL    HW112134   4.964   4.091   2.142
 3745SOL    HW212135   4.934   4.035   2.292
 3746SOL     OW12136   6.306   0.247   4.596
 3746SOL    HW112137   6.258   0.259   4.509
 3746SOL    HW212138   6.305   0.150   4.621
 3747SOL     OW12139   3.813   6.506   5.708
 3747SOL    HW112140   3.781   6.587   5.756
 3747SOL    HW212141   3.738   6.468   5.653
 3748SOL     OW12142   5.417   1.475   2.911
 3748SOL    HW112143   5.437   1.430   2.824
 3748SOL    HW212144   5.500   1.518   2.946
 3749SOL     OW12145   7.022   6.724   2.966
 3749SOL    HW112146   6.989   6.639   3.008
 3749SOL    HW212147   7.021   6.713   2.866
 3750SOL     OW12148   5.552   4.172   0.447
 3750SOL    HW112149   5.531   4.259   0.401
 3750SOL    HW212150   5.634   4.184   0.503
 3751SOL     OW12151   2.217   3.967   2.074
 3751SOL    HW112152   2.169   3.881   2.094
 3751SOL    HW212153   2.242   4.011   2.160
 3752SOL     OW12154   1.480   6.674   6.990
 3752SOL    HW112155   1.490   6.699   0.063
 3752SOL    HW212156   1.383   6.659   6.970
 3753SOL     OW12157   6.771   6.536   4.612
 3753SOL    HW112158   6.735   6.460   4.558
 3753SOL    HW212159   6.821   6.500   4.691
 3754SOL     OW12160   6.983   5.691   1.773
 3754SOL    HW112161   0.050   5.683   1.816
 3754SOL    HW212162   6.981   5.637   1.689
 3755SOL     OW12163   5.171   3.735   3.607
 3755SOL    HW112164   5.117   3.736   3.523
 3755SOL    HW212165   5.110   3.717   3.685
 3756SOL     OW12166   2.666   0.955   6.605
 3756SOL    HW112167   2.683   1.043   6.648
 3756SOL    HW212168   2.751   0.902   6.601
 3757SOL     OW12169   2.759   5.663   6.397
 3757SOL    HW112170   2.787   5.679   6.302
 3757SOL    HW212171   2.671   5.708   6.414
 3758SOL     OW12172   1.928   0.963   4.365
 3758SOL    HW112173   1.953   0.886   4.306
 3758SOL    HW212174   1.946   0.939   4.460
 3759SOL     OW12175   5.024   4.807   6.072
 3759SOL    HW112176   5.018   4.825   5.974
 3759SOL    HW212177   4.988   4.716   6.092
 3760SOL     OW12178   1.651   2.434   4.641
 3760SOL    HW112179   1.572   2.490   4.615
 3760SOL    HW212180   1.734   2.490   4.639
 3761SOL     OW12181   0.285   6.217   4.295
 3761SOL    HW112182   0.208   6.188   4.352
 3761SOL    HW212183   0.256   6.291   4.234
 3762SOL     OW12184   0.646   3.987   0.424
 3762SOL    HW112185   0.570   3.943   0.377
 3762SOL    HW212186   0.612   4.061   0.481
 3763SOL     OW12187   7.006   2.866   6.695
 3763SOL    HW112188   6.989   2.778   6.651
 3763SOL    HW212189   6.923   2.897   6.741
 3764SOL     OW12190   2.791   6.691   3.395
 3764SOL    HW112191   2.724   6.746   3.444
 3764SOL    HW212192   2.748   6.607   3.363
 3765SOL     OW12193   5.653   0.769   3.912
 3765SOL    HW112194   5.694   0.821   3.987
 3765SOL    HW212195   5.645   0.827   3.831
 3766SOL     OW12196   0.694   0.443   4.552
 3766SOL    HW112197   0.676   0.540   4.536
 3766SOL    HW212198   0.750   0.433   4.634
 3767SOL     OW12199   1.962   4.851   0.540
 3767SOL    HW112200   1.967   4.923   0.470
 3767SOL    HW212201   1.949   4.894   0.630
 3768SOL     OW12202   5.211   6.202   0.209
 3768SOL    HW112203   5.273   6.142   0.158
 3768SOL    HW212204   5.259   6.286   0.235
 3769SOL     OW12205   4.856   6.370   5.444
 3769SOL    HW112206   4.876   6.327   5.356
 3769SOL    HW212207   4.897   6.461   5.447
 3770SOL     OW12208   2.219   1.645   6.685
 3770SOL    HW112209   2.154   1.720   6.698
 3770SOL    HW212210   2.193   1.569   6.745
 3771SOL     OW12211   5.832   2.011   6.101
 3771SOL    HW112212   5.926   2.043   6.116
 3771SOL    HW212213   5.776   2.034   6.180
 3772SOL     OW12214   5.637   1.160   1.756
 3772SOL    HW112215   5.613   1.199   1.846
 3772SOL    HW212216   5.703   1.219   1.711
 3773SOL     OW12217   6.677   2.649   6.478
 3773SOL    HW112218   6.637   2.721   6.421
 3773SOL    HW212219   6.606   2.612   6.538
 3774SOL     OW12220   0.096   0.599   0.958
 3774SOL    HW112221   0.179   0.572   0.911
 3774SOL    HW212222   0.112   0.598   1.057
 3775SOL     OW12223   5.867   3.643   3.771
 3775SOL    HW112224   5.849   3.675   3.864
 3775SOL    HW212225   5.790   3.587   3.740
 3776SOL     OW12226   2.475   3.280   1.152
 3776SOL    HW112227   2.395   3.281   1.091
 3776SOL    HW212228   2.452   3.326   1.237
 3777SOL     OW12229   2.361   4.267   3.999
 3777SOL    HW112230   2.362   4.353   3.949
 3777SOL    HW212231   2.334   4.193   3.937
 3778SOL     OW12232   2.694   5.623   1.704
 3778SOL    HW112233   2.684   5.526   1.725
 3778SOL    HW212234   2.673   5.677   1.785
 3779SOL     OW12235   2.352   4.602   6.144
 3779SOL    HW112236   2.356   4.565   6.237
 3779SOL    HW212237   2.347   4.527   6.079
 3780SOL     OW12238   3.055   6.313   5.099
 3780SOL    HW112239   3.117   6.346   5.170
 3780SOL    HW212240   3.091   6.227   5.061
 3781SOL     OW12241   3.256   6.479   4.436
 3781SOL    HW112242   3.354   6.470   4.455
 3781SOL    HW212243   3.213   6.529   4.510
 3782SOL     OW12244   2.518   1.367   3.916
 3782SOL    HW112245   2.532   1.409   4.005
 3782SOL    HW212246   2.432   1.400   3.877
 3783SOL     OW12247   5.462   6.387   4.941
 3783SOL    HW112248   5.429   6.438   4.862
 3783SOL    HW212249   5.401   6.308   4.957
 3784SOL     OW12250   5.349   1.530   3.245
 3784SOL    HW112251   5.250   1.525   3.238
 3784SOL    HW212252   5.390   1.507   3.157
 3785SOL     OW12253   2.168   2.381   1.563
 3785SOL    HW112254   2.181   2.475   1.595
 3785SOL    HW212255   2.256   2.333   1.566
 3786SOL     OW12256   3.351   5.153   2.968
 3786SOL    HW112257   3.329   5.248   2.992
 3786SOL    HW212258   3.309   5.130   2.880
 3787SOL     OW12259   3.840   1.242   3.503
 3787SOL    HW112260   3.821   1.226   3.407
 3787SOL    HW212261   3.761   1.215   3.558
 3788SOL     OW12262   5.625   2.826   2.519
 3788SOL    HW112263   5.701   2.841   2.456
 3788SOL    HW212264   5.661   2.799   2.608
 3789SOL     OW12265   1.931   5.323   3.595
 3789SOL    HW112266   1.911   5.380   3.515
 3789SOL    HW212267   2.025   5.340   3.624
 3790SOL     OW12268   2.086   3.303   4.113
 3790SOL    HW112269   2.105   3.323   4.017
 3790SOL    HW212270   2.127   3.373   4.171
 3791SOL     OW12271   4.643   6.812   1.260
 3791SOL    HW112272   4.673   6.817   1.355
 3791SOL    HW212273   4.561   6.868   1.249
 3792SOL     OW12274   6.454   6.370   5.564
 3792SOL    HW112275   6.427   6.355   5.469
 3792SOL    HW212276   6.380   6.418   5.612
 3793SOL     OW12277   2.118   1.437   2.979
 3793SOL    HW112278   2.207   1.458   3.020
 3793SOL    HW212279   2.061   1.390   3.046
 3794SOL     OW12280   4.248   5.754   2.016
 3794SOL    HW112281   4.324   5.690   2.007
 3794SOL    HW212282   4.254   5.823   1.944
 3795SOL     OW12283   5.235   6.889   6.464
 3795SOL    HW112284   5.214   6.954   6.392
 3795SOL    HW212285   5.331   6.900   6.492
 3796SOL     OW12286   1.483   2.628   1.809
 3796SOL    HW112287   1.487   2.566   1.888
 3796SOL    HW212288   1.546   2.595   1.739
 3797SOL     OW12289   0.942   4.904   2.843
 3797SOL    HW112290   0.876   4.834   2.816
 3797SOL    HW212291   0.954   4.969   2.769
 3798SOL     OW12292   2.025   5.494   2.275
 3798SOL    HW112293   2.104   5.449   2.316
 3798SOL    HW212294   2.004   5.453   2.187
 3799SOL     OW12295   1.625   0.874   5.645
 3799SOL    HW112296   1.694   0.816   5.688
 3799SOL    HW212297   1.640   0.969   5.673
 3800SOL     OW12298   4.559   2.483   4.312
 3800SOL    HW112299   4.533   2.478   4.409
 3800SOL    HW212300   4.646   2.436   4.299
 3801SOL     OW12301   0.144   6.395   5.631
 3801SOL    HW112302   0.217   6.330   5.651
 3801SOL    HW212303   0.075   6.352   5.574
 3802SOL     OW12304   1.349   1.692   5.684
 3802SOL    HW112305   1.401   1.777   5.672
 3802SOL    HW212306   1.295   1.675   5.602
 3803SOL     OW12307   3.577   1.143   1.127
 3803SOL    HW112308   3.598   1.057   1.173
 3803SOL    HW212309   3.499   1.131   1.066
 3804SOL     OW12310   4.670   2.201   4.293
 3804SOL    HW112311   4.638   2.167   4.204
 3804SOL    HW212312   4.628   2.148   4.366
 3805SOL     OW12313   2.800   4.425   1.628
 3805SOL    HW112314   2.825   4.457   1.719
 3805SOL    HW212315   2.751   4.338   1.634
 3806SOL     OW12316   2.599   2.119   0.242
 3806SOL    HW112317   2.583   2.056   0.318
 3806SOL    HW212318   2.628   2.068   0.161
 3807SOL     OW12319   1.409   6.360   3.624
 3807SOL    HW112320   1.417   6.412   3.539
 3807SOL    HW212321   1.406   6.422   3.701
 3808SOL     OW12322   3.635   0.026   1.534
 3808SOL    HW112323   3.601   0.113   1.568
 3808SOL    HW212324   3.571   7.011   1.467
 3809SOL     OW12325   5.468   1.052   6.999
 3809SOL    HW112326   5.555   1.014   6.966
 3809SOL    HW212327   5.481   1.087   0.069
 3810SOL     OW12328   3.040   3.122   5.148
 3810SOL    HW112329   3.003   3.170   5.068
 3810SOL    HW212330   3.107   3.054   5.117
 3811SOL     OW12331   0.369   5.131   4.918
 3811SOL    HW112332   0.384   5.106   5.013
 3811SOL    HW212333   0.415   5.218   4.899
 3812SOL     OW12334   5.931   1.632   5.228
 3812SOL    HW112335   5.995   1.671   5.294
 3812SOL    HW212336   5.839   1.669   5.245
 3813SOL     OW12337   3.170   5.471   0.301
 3813SOL    HW112338   3.155   5.559   0.255
 3813SOL    HW212339   3.085   5.441   0.344
 3814SOL     OW12340   0.190   6.094   2.045
 3814SOL    HW112341   0.170   6.192   2.050
 3814SOL    HW212342   0.128   6.052   1.978
 3815SOL     OW12343   5.257   1.827   1.643
 3815SOL    HW112344   5.212   1.745   1.608
 3815SOL    HW212345   5.235   1.905   1.584
 3816SOL     OW12346   1.079   0.192   1.512
 3816SOL    HW112347   1.022   0.272   1.491
 3816SOL    HW212348   1.042   0.111   1.467
 3817SOL     OW12349   4.827   1.977   4.709
 3817SOL    HW112350   4.831   1.915   4.788
 3817SOL    HW212351   4.796   2.067   4.739
 3818SOL     OW12352   4.667   5.845   1.951
 3818SOL    HW112353   4.723   5.840   2.033
 3818SOL    HW212354   4.584   5.898   1.970
 3819SOL     OW12355   5.155   5.087   0.269
 3819SOL    HW112356   5.214   5.098   0.349
 3819SOL    HW212357   5.212   5.085   0.187
 3820SOL     OW12358   5.220   6.002   4.128
 3820SOL    HW112359   5.216   6.102   4.137
 3820SOL    HW212360   5.128   5.967   4.112
 3821SOL     OW12361   1.465   3.748   1.738
 3821SOL    HW112362   1.410   3.778   1.661
 3821SOL    HW212363   1.465   3.648   1.742
 3822SOL     OW12364   2.654   5.906   1.558
 3822SOL    HW112365   2.673   5.822   1.609
 3822SOL    HW212366   2.735   5.963   1.557
 3823SOL     OW12367   3.069   3.058   5.878
 3823SOL    HW112368   2.999   3.031   5.944
 3823SOL    HW212369   3.107   3.147   5.905
 3824SOL     OW12370   6.787   2.195   5.723
 3824SOL    HW112371   6.711   2.259   5.735
 3824SOL    HW212372   6.830   2.176   5.811
 3825SOL     OW12373   6.875   6.570   6.101
 3825SOL    HW112374   6.966   6.612   6.106
 3825SOL    HW212375   6.855   6.524   6.187
 3826SOL     OW12376   6.857   3.342   2.042
 3826SOL    HW112377   6.895   3.298   1.961
 3826SOL    HW212378   6.797   3.278   2.089
 3827SOL     OW12379   4.198   3.345   1.025
 3827SOL    HW112380   4.248   3.350   1.111
 3827SOL    HW212381   4.257   3.306   0.954
 3828SOL     OW12382   5.201   1.808   3.020
 3828SOL    HW112383   5.151   1.821   2.935
 3828SOL    HW212384   5.156   1.859   3.094
 3829SOL     OW12385   2.447   4.549   4.069
 3829SOL    HW112386   2.368   4.554   4.007
 3829SOL    HW212387   2.439   4.468   4.127
 3830SOL     OW12388   2.556   0.862   4.743
 3830SOL    HW112389   2.556   0.856   4.843
 3830SOL    HW212390   2.465   0.892   4.712
 3831SOL     OW12391   3.618   1.799   2.454
 3831SOL    HW112392   3.703   1.852   2.451
 3831SOL    HW212393   3.569   1.812   2.368
 3832SOL     OW12394   6.875   0.753   2.099
 3832SOL    HW112395   6.778   0.730   2.093
 3832SOL    HW212396   6.911   0.768   2.007
 3833SOL     OW12397   1.101   4.912   0.269
 3833SOL    HW112398   1.007   4.884   0.252
 3833SOL    HW212399   1.117   4.918   0.368
 3834SOL     OW12400   2.869   1.894   0.367
 3834SOL    HW112401   2.925   1.972   0.393
 3834SOL    HW212402   2.775   1.908   0.397
 3835SOL     OW12403   3.830   5.117   5.179
 3835SOL    HW112404   3.867   5.025   5.163
 3835SOL    HW212405   3.885   5.163   5.249
 3836SOL     OW12406   1.080   4.001   6.148
 3836SOL    HW112407   1.148   3.930   6.132
 3836SOL    HW212408   1.075   4.021   6.246
 3837SOL     OW12409   3.770   3.689   0.710
 3837SOL    HW112410   3.789   3.661   0.616
 3837SOL    HW212411   3.856   3.703   0.759
 3838SOL     OW12412   6.349   2.734   4.955
 3838SOL    HW112413   6.270   2.675   4.938
 3838SOL    HW212414   6.317   2.828   4.970
 3839SOL     OW12415   5.988   5.884   5.536
 3839SOL    HW112416   5.934   5.966   5.519
 3839SOL    HW212417   5.958   5.810   5.477
 3840SOL     OW12418   1.593   0.991   4.180
 3840SOL    HW112419   1.630   0.980   4.272
 3840SOL    HW212420   1.512   1.049   4.183
 3841SOL     OW12421   0.747   3.513   5.382
 3841SOL    HW112422   0.732   3.440   5.316
 3841SOL    HW212423   0.707   3.487   5.470
 3842SOL     OW12424   1.121   4.978   6.963
 3842SOL    HW112425   1.061   4.900   6.941
 3842SOL    HW212426   1.115   4.997   0.038
 3843SOL     OW12427   5.934   3.022   0.966
 3843SOL    HW112428   6.012   3.026   1.028
 3843SOL    HW212429   5.905   2.927   0.956
 3844SOL     OW12430   1.737   4.503   6.506
 3844SOL    HW112431   1.799   4.475   6.580
 3844SOL    HW212432   1.698   4.421   6.463
 3845SOL     OW12433   3.255   4.084   3.558
 3845SOL    HW112434   3.265   3.984   3.561
 3845SOL    HW212435   3.255   4.115   3.463
 3846SOL     OW12436   0.316   4.706   5.081
 3846SOL    HW112437   0.258   4.726   5.001
 3846SOL    HW212438   0.407   4.677   5.050
 3847SOL     OW12439   0.683   0.014   0.202
 3847SOL    HW112440   0.708   0.106   0.234
 3847SOL    HW212441   0.594   7.012   0.238
 3848SOL     OW12442   2.588   5.136   1.337
 3848SOL    HW112443   2.645   5.217   1.351
 3848SOL    HW212444   2.595   5.076   1.416
 3849SOL     OW12445   1.028   1.977   5.785
 3849SOL    HW112446   1.122   1.959   5.812
 3849SOL    HW212447   1.007   1.927   5.702
 3850SOL     OW12448   3.224   4.142   1.436
 3850SOL    HW112449   3.130   4.157   1.468
 3850SOL    HW212450   3.225   4.062   1.376
 3851SOL     OW12451   2.340   2.479   2.522
 3851SOL    HW112452   2.306   2.565   2.484
 3851SOL    HW212453   2.413   2.443   2.463
 3852SOL     OW12454   3.948   0.849   4.636
 3852SOL    HW112455   3.947   0.846   4.735
 3852SOL    HW212456   3.921   0.940   4.604
 3853SOL     OW12457   1.038   3.046   1.665
 3853SOL    HW112458   1.034   3.094   1.753
 3853SOL    HW212459   1.006   3.108   1.593
 3854SOL     OW12460   1.436   3.545   4.485
 3854SOL    HW112461   1.343   3.535   4.521
 3854SOL    HW212462   1.500   3.498   4.546
 3855SOL     OW12463   6.669   2.706   5.608
 3855SOL    HW112464   6.652   2.644   5.684
 3855SOL    HW212465   6.753   2.759   5.626
 3856SOL     OW12466   0.686   6.320   5.914
 3856SOL    HW112467   0.720   6.262   5.988
 3856SOL    HW212468   0.591   6.346   5.933
 3857SOL     OW12469   0.631   6.338   4.869
 3857SOL    HW112470   0.531   6.344   4.877
 3857SOL    HW212471   0.665   6.272   4.936
 3858SOL     OW12472   2.682   5.768   0.047
 3858SOL    HW112473   2.631   5.780   6.985
 3858SOL    HW212474   2.675   5.673   0.076
 3859SOL     OW12475   0.638   2.966   2.187
 3859SOL    HW112476   0.728   2.932   2.161
 3859SOL    HW212477   0.585   2.986   2.105
 3860SOL     OW12478   2.337   6.855   5.522
 3860SOL    HW112479   2.270   6.792   5.481
 3860SOL    HW212480   2.307   6.949   5.509
 3861SOL     OW12481   4.390   4.637   1.122
 3861SOL    HW112482   4.364   4.678   1.209
 3861SOL    HW212483   4.308   4.618   1.069
 3862SOL     OW12484   1.324   6.143   6.229
 3862SOL    HW112485   1.268   6.073   6.273
 3862SOL    HW212486   1.358   6.207   6.299
 3863SOL     OW12487   3.409   3.392   1.284
 3863SOL    HW112488   3.358   3.447   1.349
 3863SOL    HW212489   3.493   3.359   1.326
 3864SOL     OW12490   3.553   2.430   0.024
 3864SOL    HW112491   3.539   2.352   0.086
 3864SOL    HW212492   3.609   2.401   6.970
 3865SOL     OW12493   4.918   6.983   2.670
 3865SOL    HW112494   4.887   7.002   2.763
 3865SOL    HW212495   4.973   6.900   2.669
 3866SOL     OW12496   4.275   6.892   6.861
 3866SOL    HW112497   4.177   6.891   6.840
 3866SOL    HW212498   4.327   6.906   6.776
 3867SOL     OW12499   1.873   3.001   3.470
 3867SOL    HW112500   1.938   2.949   3.415
 3867SOL    HW212501   1.889   3.099   3.458
 3868SOL     OW12502   1.559   5.958   2.679
 3868SOL    HW112503   1.635   5.927   2.621
 3868SOL    HW212504   1.556   6.058   2.679
 3869SOL     OW12505   0.937   2.897   3.612
 3869SOL    HW112506   0.859   2.877   3.552
 3869SOL    HW212507   0.970   2.812   3.653
 3870SOL     OW12508   2.939   4.886   0.294
 3870SOL    HW112509   2.993   4.825   0.352
 3870SOL    HW212510   2.954   4.864   0.198
 3871SOL     OW12511   2.616   0.276   3.927
 3871SOL    HW112512   2.694   0.333   3.952
 3871SOL    HW212513   2.597   0.286   3.829
 3872SOL     OW12514   4.006   4.071   0.110
 3872SOL    HW112515   4.040   4.063   0.016
 3872SOL    HW212516   4.075   4.116   0.166
 3873SOL     OW12517   5.070   4.795   2.112
 3873SOL    HW112518   4.989   4.824   2.061
 3873SOL    HW212519   5.108   4.874   2.160
 3874SOL     OW12520   4.359   6.833   6.046
 3874SOL    HW112521   4.457   6.847   6.060
 3874SOL    HW212522   4.339   6.735   6.047
 3875SOL     OW12523   1.663   4.796   0.622
 3875SOL    HW112524   1.755   4.808   0.660
 3875SOL    HW212525   1.595   4.827   0.688
 3876SOL     OW12526   4.815   3.993   2.423
 3876SOL    HW112527   4.742   4.037   2.371
 3876SOL    HW212528   4.786   3.901   2.449
 3877SOL     OW12529   5.191   1.370   2.120
 3877SOL    HW112530   5.236   1.458   2.131
 3877SOL    HW212531   5.150   1.342   2.207
 3878SOL     OW12532   3.362   6.182   5.069
 3878SOL    HW112533   3.382   6.088   5.039
 3878SOL    HW212534   3.387   6.246   4.996
 3879SOL     OW12535   4.085   6.228   1.287
 3879SOL    HW112536   4.073   6.146   1.231
 3879SOL    HW212537   4.183   6.250   1.294
 3880SOL     OW12538   5.808   2.852   4.177
 3880SOL    HW112539   5.759   2.767   4.159
 3880SOL    HW212540   5.743   2.927   4.183
 3881SOL     OW12541   1.376   4.385   0.908
 3881SOL    HW112542   1.362   4.421   0.816
 3881SOL    HW212543   1.439   4.307   0.904
 3882SOL     OW12544   0.259   0.158   6.148
 3882SOL    HW112545   0.228   0.244   6.190
 3882SOL    HW212546   0.342   0.175   6.096
 3883SOL     OW12547   3.008   0.568   5.873
 3883SOL    HW112548   2.966   0.479   5.853
 3883SOL    HW212549   3.107   0.559   5.870
 3884SOL     OW12550   1.503   4.891   5.719
 3884SOL    HW112551   1.583   4.850   5.763
 3884SOL    HW212552   1.499   4.864   5.623
 3885SOL     OW12553   0.400   1.327   4.546
 3885SOL    HW112554   0.348   1.305   4.628
 3885SOL    HW212555   0.462   1.252   4.523
 3886SOL     OW12556   6.849   5.828   5.164
 3886SOL    HW112557   6.806   5.917   5.177
 3886SOL    HW212558   6.812   5.784   5.083
 3887SOL     OW12559   4.640   2.651   5.517
 3887SOL    HW112560   4.676   2.644   5.611
 3887SOL    HW212561   4.545   2.619   5.516
 3888SOL     OW12562   5.914   1.977   1.267
 3888SOL    HW112563   5.968   1.938   1.341
 3888SOL    HW212564   5.842   2.036   1.305
 3889SOL     OW12565   0.747   5.595   6.669
 3889SOL    HW112566   0.683   5.519   6.669
 3889SOL    HW212567   0.829   5.569   6.617
 3890SOL     OW12568   5.849   3.857   1.685
 3890SOL    HW112569   5.804   3.776   1.647
 3890SOL    HW212570   5.932   3.829   1.733
 3891SOL     OW12571   5.713   4.878   5.660
 3891SOL    HW112572   5.628   4.828   5.677
 3891SOL    HW212573   5.782   4.850   5.726
 3892SOL     OW12574   5.026   6.944   3.732
 3892SOL    HW112575   5.090   6.908   3.664
 3892SOL    HW212576   4.945   6.980   3.686
 3893SOL     OW12577   2.966   6.444   3.766
 3893SOL    HW112578   3.033   6.486   3.828
 3893SOL    HW212579   2.943   6.508   3.693
 3894SOL     OW12580   5.176   4.790   0.081
 3894SOL    HW112581   5.085   4.782   0.122
 3894SOL    HW212582   5.216   4.699   0.071
 3895SOL     OW12583   1.769   1.975   5.982
 3895SOL    HW112584   1.800   2.058   5.937
 3895SOL    HW212585   1.723   1.999   6.068
 3896SOL     OW12586   6.963   2.159   5.946
 3896SOL    HW112587   6.990   2.095   6.017
 3896SOL    HW212588   7.023   2.239   5.949
 3897SOL     OW12589   3.538   6.324   2.561
 3897SOL    HW112590   3.629   6.282   2.567
 3897SOL    HW212591   3.495   6.322   2.651
 3898SOL     OW12592   3.540   4.197   4.532
 3898SOL    HW112593   3.574   4.138   4.459
 3898SOL    HW212594   3.617   4.232   4.585
 3899SOL     OW12595   5.233   1.530   4.653
 3899SOL    HW112596   5.146   1.481   4.655
 3899SOL    HW212597   5.301   1.477   4.704
 3900SOL     OW12598   6.571   2.324   3.825
 3900SOL    HW112599   6.560   2.314   3.726
 3900SOL    HW212600   6.485   2.302   3.871
 3901SOL     OW12601   2.757   5.571   5.300
 3901SOL    HW112602   2.833   5.601   5.243
 3901SOL    HW212603   2.692   5.646   5.311
 3902SOL     OW12604   3.971   4.802   1.490
 3902SOL    HW112605   4.043   4.761   1.546
 3902SOL    HW212606   3.882   4.776   1.527
 3903SOL     OW12607   3.792   2.903   6.160
 3903SOL    HW112608   3.815   2.856   6.075
 3903SOL    HW212609   3.874   2.946   6.197
 3904SOL     OW12610   1.972   6.351   0.711
 3904SOL    HW112611   2.047   6.396   0.663
 3904SOL    HW212612   1.990   6.351   0.809
 3905SOL     OW12613   0.108   0.145   5.398
 3905SOL    HW112614   0.048   0.219   5.368
 3905SOL    HW212615   0.053   0.069   5.432
 3906SOL     OW12616   0.195   5.478   4.948
 3906SOL    HW112617   0.149   5.448   5.031
 3906SOL    HW212618   0.294   5.481   4.963
 3907SOL     OW12619   1.235   0.985   4.762
 3907SOL    HW112620   1.231   0.970   4.861
 3907SOL    HW212621   1.157   0.941   4.718
 3908SOL     OW12622   2.000   0.359   4.457
 3908SOL    HW112623   1.928   0.308   4.504
 3908SOL    HW212624   2.052   0.298   4.397
 3909SOL     OW12625   5.720   2.652   0.845
 3909SOL    HW112626   5.711   2.696   0.934
 3909SOL    HW212627   5.721   2.552   0.857
 3910SOL     OW12628   2.901   2.939   1.390
 3910SOL    HW112629   2.905   3.006   1.316
 3910SOL    HW212630   2.972   2.959   1.457
 3911SOL     OW12631   6.438   0.604   0.848
 3911SOL    HW112632   6.519   0.600   0.905
 3911SOL    HW212633   6.373   0.671   0.886
 3912SOL     OW12634   4.191   3.399   6.736
 3912SOL    HW112635   4.149   3.414   6.646
 3912SOL    HW212636   4.290   3.412   6.729
 3913SOL     OW12637   4.528   5.815   1.210
 3913SOL    HW112638   4.602   5.876   1.180
 3913SOL    HW212639   4.545   5.788   1.305
 3914SOL     OW12640   6.793   1.386   0.343
 3914SOL    HW112641   6.795   1.286   0.339
 3914SOL    HW212642   6.774   1.422   0.252
 3915SOL     OW12643   5.041   5.637   5.627
 3915SOL    HW112644   5.006   5.548   5.599
 3915SOL    HW212645   5.019   5.653   5.724
 3916SOL     OW12646   2.673   1.564   3.294
 3916SOL    HW112647   2.640   1.541   3.202
 3916SOL    HW212648   2.613   1.522   3.362
 3917SOL     OW12649   3.854   4.710   1.158
 3917SOL    HW112650   3.816   4.724   1.249
 3917SOL    HW212651   3.822   4.622   1.121
 3918SOL     OW12652   4.934   0.976   0.007
 3918SOL    HW112653   5.026   1.008   0.030
 3918SOL    HW212654   4.935   0.877   7.020
 3919SOL     OW12655   4.376   6.049   2.277
 3919SOL    HW112656   4.298   6.043   2.339
 3919SOL    HW212657   4.461   6.046   2.330
 3920SOL     OW12658   3.489   1.675   5.238
 3920SOL    HW112659   3.467   1.599   5.299
 3920SOL    HW212660   3.406   1.728   5.220
 3921SOL     OW12661   0.106   3.256   6.485
 3921SOL    HW112662   0.095   3.328   6.416
 3921SOL    HW212663   0.027   3.195   6.483
 3922SOL     OW12664   5.113   3.893   2.990
 3922SOL    HW112665   5.167   3.884   2.906
 3922SOL    HW212666   5.038   3.958   2.975
 3923SOL     OW12667   5.020   1.406   1.836
 3923SOL    HW112668   5.102   1.357   1.864
 3923SOL    HW212669   4.962   1.345   1.782
 3924SOL     OW12670   5.877   4.987   4.155
 3924SOL    HW112671   5.951   4.920   4.145
 3924SOL    HW212672   5.789   4.940   4.156
 3925SOL     OW12673   5.323   4.780   0.723
 3925SOL    HW112674   5.399   4.844   0.723
 3925SOL    HW212675   5.341   4.707   0.789
 3926SOL     OW12676   0.546   5.359   4.929
 3926SOL    HW112677   0.490   5.426   4.978
 3926SOL    HW212678   0.591   5.403   4.851
 3927SOL     OW12679   5.543   2.093   6.448
 3927SOL    HW112680   5.459   2.065   6.402
 3927SOL    HW212681   5.565   2.027   6.521
 3928SOL     OW12682   3.391   5.835   2.139
 3928SOL    HW112683   3.350   5.768   2.077
 3928SOL    HW212684   3.395   5.796   2.231
 3929SOL     OW12685   0.638   1.998   5.442
 3929SOL    HW112686   0.598   1.935   5.376
 3929SOL    HW212687   0.586   1.993   5.528
 3930SOL     OW12688   2.471   4.718   3.823
 3930SOL    HW112689   2.442   4.774   3.900
 3930SOL    HW212690   2.471   4.621   3.849
 3931SOL     OW12691   1.985   3.018   0.929
 3931SOL    HW112692   1.991   2.919   0.914
 3931SOL    HW212693   1.948   3.036   1.020
 3932SOL     OW12694   2.459   4.439   3.742
 3932SOL    HW112695   2.429   4.344   3.749
 3932SOL    HW212696   2.459   4.467   3.646
 3933SOL     OW12697   1.530   6.418   1.230
 3933SOL    HW112698   1.546   6.515   1.249
 3933SOL    HW212699   1.606   6.364   1.265
 3934SOL     OW12700   1.145   7.021   1.709
 3934SOL    HW112701   1.135   0.067   1.637
 3934SOL    HW212702   1.056   6.979   1.727
 3935SOL     OW12703   6.647   3.547   5.586
 3935SOL    HW112704   6.555   3.542   5.623
 3935SOL    HW212705   6.686   3.637   5.603
 3936SOL     OW12706   6.610   4.005   5.569
 3936SOL    HW112707   6.620   4.104   5.558
 3936SOL    HW212708   6.515   3.983   5.593
 3937SOL     OW12709   0.867   6.415   1.453
 3937SOL    HW112710   0.955   6.408   1.500
 3937SOL    HW212711   0.799   6.360   1.502
 3938SOL     OW12712   0.963   3.303   1.556
 3938SOL    HW112713   0.876   3.351   1.545
 3938SOL    HW212714   1.038   3.368   1.554
 3939SOL     OW12715   0.723   1.104   3.273
 3939SOL    HW112716   0.792   1.166   3.309
 3939SOL    HW212717   0.763   1.014   3.257
 3940SOL     OW12718   3.239   6.584   0.723
 3940SOL    HW112719   3.275   6.634   0.802
 3940SOL    HW212720   3.307   6.519   0.690
 3941SOL     OW12721   5.470   5.706   2.059
 3941SOL    HW112722   5.443   5.610   2.074
 3941SOL    HW212723   5.541   5.730   2.124
 3942SOL     OW12724   6.858   5.913   5.626
 3942SOL    HW112725   6.771   5.894   5.582
 3942SOL    HW212726   6.852   5.998   5.678
 3943SOL     OW12727   1.563   3.242   0.515
 3943SOL    HW112728   1.621   3.161   0.518
 3943SOL    HW212729   1.580   3.292   0.430
 3944SOL     OW12730   4.872   2.833   6.879
 3944SOL    HW112731   4.772   2.833   6.883
 3944SOL    HW212732   4.904   2.925   6.856
 3945SOL     OW12733   5.367   0.137   3.896
 3945SOL    HW112734   5.340   0.186   3.979
 3945SOL    HW212735   5.348   0.040   3.906
 3946SOL     OW12736   0.179   3.587   0.834
 3946SOL    HW112737   0.089   3.548   0.814
 3946SOL    HW212738   0.216   3.630   0.751
 3947SOL     OW12739   6.155   5.449   1.968
 3947SOL    HW112740   6.093   5.526   1.959
 3947SOL    HW212741   6.139   5.383   1.895
 3948SOL     OW12742   1.518   2.570   5.973
 3948SOL    HW112743   1.540   2.666   5.956
 3948SOL    HW212744   1.426   2.563   6.012
 3949SOL     OW12745   6.129   0.051   2.152
 3949SOL    HW112746   6.108   6.990   2.201
 3949SOL    HW212747   6.076   0.055   2.067
 3950SOL     OW12748   2.692   4.651   1.695
 3950SOL    HW112749   2.718   4.634   1.790
 3950SOL    HW212750   2.725   4.577   1.637
 3951SOL     OW12751   0.577   2.332   4.781
 3951SOL    HW112752   0.642   2.261   4.755
 3951SOL    HW212753   0.626   2.412   4.814
 3952SOL     OW12754   5.412   3.952   0.458
 3952SOL    HW112755   5.475   3.880   0.430
 3952SOL    HW212756   5.458   4.041   0.452
 3953SOL     OW12757   3.406   3.292   6.753
 3953SOL    HW112758   3.357   3.377   6.735
 3953SOL    HW212759   3.386   3.261   6.846
 3954SOL     OW12760   0.551   2.685   5.714
 3954SOL    HW112761   0.487   2.683   5.791
 3954SOL    HW212762   0.619   2.756   5.730
 3955SOL     OW12763   6.580   3.704   0.323
 3955SOL    HW112764   6.647   3.667   0.259
 3955SOL    HW212765   6.528   3.630   0.365
 3956SOL     OW12766   6.543   2.586   5.405
 3956SOL    HW112767   6.558   2.650   5.329
 3956SOL    HW212768   6.590   2.620   5.486
 3957SOL     OW12769   0.783   1.481   3.652
 3957SOL    HW112770   0.744   1.554   3.596
 3957SOL    HW212771   0.879   1.499   3.668
 3958SOL     OW12772   5.456   6.303   0.001
 3958SOL    HW112773   5.435   6.363   0.079
 3958SOL    HW212774   5.371   6.266   6.987
 3959SOL     OW12775   2.549   6.364   1.162
 3959SOL    HW112776   2.509   6.413   1.085
 3959SOL    HW212777   2.519   6.269   1.161
 3960SOL     OW12778   5.202   3.455   1.116
 3960SOL    HW112779   5.177   3.359   1.110
 3960SOL    HW212780   5.161   3.495   1.198
 3961SOL     OW12781   5.222   0.535   0.998
 3961SOL    HW112782   5.203   0.591   1.079
 3961SOL    HW212783   5.212   0.438   1.021
 3962SOL     OW12784   0.669   0.078   5.938
 3962SOL    HW112785   0.656   0.084   6.036
 3962SOL    HW212786   0.763   0.048   5.918
 3963SOL     OW12787   4.559   5.136   2.944
 3963SOL    HW112788   4.561   5.139   2.844
 3963SOL    HW212789   4.502   5.060   2.974
 3964SOL     OW12790   6.154   6.318   6.231
 3964SOL    HW112791   6.217   6.391   6.259
 3964SOL    HW212792   6.204   6.246   6.185
 3965SOL     OW12793   4.076   3.201   0.395
 3965SOL    HW112794   4.096   3.272   0.463
 3965SOL    HW212795   4.037   3.121   0.442
 3966SOL     OW12796   6.188   3.650   5.468
 3966SOL    HW112797   6.170   3.691   5.379
 3966SOL    HW212798   6.115   3.586   5.491
 3967SOL     OW12799   1.972   0.042   6.664
 3967SOL    HW112800   2.056   7.019   6.633
 3967SOL    HW212801   1.997   0.118   6.724
 3968SOL     OW12802   5.262   0.527   1.716
 3968SOL    HW112803   5.289   0.620   1.693
 3968SOL    HW212804   5.253   0.473   1.633
 3969SOL     OW12805   0.880   6.120   1.945
 3969SOL    HW112806   0.844   6.197   1.892
 3969SOL    HW212807   0.964   6.087   1.903
 3970SOL     OW12808   4.725   4.123   4.074
 3970SOL    HW112809   4.806   4.143   4.130
 3970SOL    HW212810   4.652   4.187   4.097
 3971SOL     OW12811   1.566   5.970   3.429
 3971SOL    HW112812   1.572   6.011   3.338
 3971SOL    HW212813   1.502   6.022   3.485
 3972SOL     OW12814   1.062   0.517   0.113
 3972SOL    HW112815   0.999   0.459   0.165
 3972SOL    HW212816   1.115   0.460   0.050
 3973SOL     OW12817   3.519   2.896   3.323
 3973SOL    HW112818   3.548   2.954   3.248
 3973SOL    HW212819   3.423   2.871   3.311
 3974SOL     OW12820   5.648   0.221   6.180
 3974SOL    HW112821   5.717   0.172   6.233
 3974SOL    HW212822   5.689   0.251   6.093
 3975SOL     OW12823   6.834   6.196   5.699
 3975SOL    HW112824   6.847   6.253   5.780
 3975SOL    HW212825   6.920   6.188   5.649
 3976SOL     OW12826   1.349   3.059   6.774
 3976SOL    HW112827   1.308   3.133   6.721
 3976SOL    HW212828   1.392   3.097   6.856
 3977SOL     OW12829   3.880   6.037   5.875
 3977SOL    HW112830   3.938   6.116   5.853
 3977SOL    HW212831   3.938   5.962   5.907
 3978SOL     OW12832   6.228   4.176   6.433
 3978SOL    HW112833   6.204   4.083   6.405
 3978SOL    HW212834   6.166   4.207   6.504
 3979SOL     OW12835   1.089   6.551   3.235
 3979SOL    HW112836   1.038   6.495   3.301
 3979SOL    HW212837   1.084   6.647   3.263
 3980SOL     OW12838   4.947   3.500   4.860
 3980SOL    HW112839   4.907   3.411   4.838
 3980SOL    HW212840   4.897   3.542   4.936
 3981SOL     OW12841   6.417   2.122   5.530
 3981SOL    HW112842   6.454   2.215   5.536
 3981SOL    HW212843   6.323   2.126   5.495
 3982SOL     OW12844   2.449   2.478   4.039
 3982SOL    HW112845   2.386   2.405   4.063
 3982SOL    HW212846   2.433   2.557   4.099
 3983SOL     OW12847   3.653   0.164   3.776
 3983SOL    HW112848   3.554   0.149   3.778
 3983SOL    HW212849   3.680   0.196   3.685
 3984SOL     OW12850   1.580   0.541   1.856
 3984SOL    HW112851   1.509   0.483   1.896
 3984SOL    HW212852   1.617   0.602   1.927
 3985SOL     OW12853   1.663   3.202   1.761
 3985SOL    HW112854   1.725   3.171   1.689
 3985SOL    HW212855   1.708   3.272   1.816
 3986SOL     OW12856   1.363   2.561   2.108
 3986SOL    HW112857   1.395   2.469   2.131
 3986SOL    HW212858   1.266   2.558   2.085
 3987SOL     OW12859   1.624   4.169   5.805
 3987SOL    HW112860   1.562   4.092   5.821
 3987SOL    HW212861   1.704   4.137   5.754
 3988SOL     OW12862   4.819   1.262   6.764
 3988SOL    HW112863   4.811   1.293   6.859
 3988SOL    HW212864   4.866   1.332   6.710
 3989SOL     OW12865   4.196   0.510   6.494
 3989SOL    HW112866   4.181   0.604   6.463
 3989SOL    HW212867   4.118   0.453   6.469
 3990SOL     OW12868   1.685   2.871   3.944
 3990SOL    HW112869   1.706   2.795   4.005
 3990SOL    HW212870   1.722   2.852   3.853
 3991SOL     OW12871   0.581   1.096   4.284
 3991SOL    HW112872   0.675   1.076   4.255
 3991SOL    HW212873   0.580   1.116   4.382
 3992SOL     OW12874   5.575   4.060   6.569
 3992SOL    HW112875   5.564   4.134   6.636
 3992SOL    HW212876   5.607   3.977   6.616
 3993SOL     OW12877   1.204   1.086   3.922
 3993SOL    HW112878   1.148   1.159   3.962
 3993SOL    HW212879   1.260   1.044   3.993
 3994SOL     OW12880   2.464   1.475   3.512
 3994SOL    HW112881   2.529   1.508   3.581
 3994SOL    HW212882   2.408   1.552   3.479
 3995SOL     OW12883   0.905   3.658   2.063
 3995SOL    HW112884   0.844   3.654   1.983
 3995SOL    HW212885   0.999   3.670   2.032
 3996SOL     OW12886   5.976   6.346   4.103
 3996SOL    HW112887   5.948   6.297   4.186
 3996SOL    HW212888   5.913   6.325   4.029
 3997SOL     OW12889   5.296   3.551   2.726
 3997SOL    HW112890   5.375   3.504   2.766
 3997SOL    HW212891   5.292   3.645   2.761
 3998SOL     OW12892   5.845   2.317   2.909
 3998SOL    HW112893   5.813   2.222   2.900
 3998SOL    HW212894   5.773   2.379   2.879
 3999SOL     OW12895   4.822   2.622   1.312
 3999SOL    HW112896   4.765   2.545   1.342
 3999SOL    HW212897   4.838   2.684   1.389
 4000SOL     OW12898   3.605   5.099   2.262
 4000SOL    HW112899   3.648   5.067   2.347
 4000SOL    HW212900   3.518   5.143   2.283
 4001SOL     OW12901   1.280   4.739   4.493
 4001SOL    HW112902   1.304   4.643   4.509
 4001SOL    HW212903   1.309   4.794   4.571
 4002SOL     OW12904   3.577   4.159   3.396
 4002SOL    HW112905   3.596   4.192   3.488
 4002SOL    HW212906   3.481   4.177   3.373
 4003SOL     OW12907   2.269   1.059   5.657
 4003SOL    HW112908   2.226   0.976   5.693
 4003SOL    HW212909   2.205   1.108   5.598
 4004SOL     OW12910   1.142   3.730   3.751
 4004SOL    HW112911   1.070   3.763   3.690
 4004SOL    HW212912   1.222   3.789   3.743
 4005SOL     OW12913   4.900   3.157   0.105
 4005SOL    HW112914   4.966   3.092   0.141
 4005SOL    HW212915   4.809   3.115   0.101
 4006SOL     OW12916   5.090   5.509   3.225
 4006SOL    HW112917   5.063   5.423   3.269
 4006SOL    HW212918   5.114   5.490   3.130
 4007SOL     OW12919   0.133   1.009   3.035
 4007SOL    HW112920   0.213   1.026   3.092
 4007SOL    HW212921   0.162   0.996   2.940
 4008SOL     OW12922   3.439   1.128   0.589
 4008SOL    HW112923   3.484   1.139   0.678
 4008SOL    HW212924   3.492   1.065   0.532
 4009SOL     OW12925   4.671   2.051   0.375
 4009SOL    HW112926   4.608   2.124   0.399
 4009SOL    HW212927   4.765   2.081   0.393
 4010SOL     OW12928   2.750   5.099   1.827
 4010SOL    HW112929   2.792   5.183   1.792
 4010SOL    HW212930   2.821   5.042   1.868
 4011SOL     OW12931   4.759   6.019   6.808
 4011SOL    HW112932   4.821   6.018   6.730
 4011SOL    HW212933   4.793   5.956   6.878
 4012SOL     OW12934   4.774   6.147   2.538
 4012SOL    HW112935   4.810   6.173   2.628
 4012SOL    HW212936   4.773   6.226   2.478
 4013SOL     OW12937   0.078   1.165   6.165
 4013SOL    HW112938   0.037   1.255   6.180
 4013SOL    HW212939   0.160   1.157   6.220
 4014SOL     OW12940   3.360   4.863   2.473
 4014SOL    HW112941   3.312   4.876   2.559
 4014SOL    HW212942   3.316   4.790   2.420
 4015SOL     OW12943   4.223   4.672   5.781
 4015SOL    HW112944   4.297   4.683   5.847
 4015SOL    HW212945   4.192   4.577   5.781
 4016SOL     OW12946   4.070   4.976   5.389
 4016SOL    HW112947   4.065   5.073   5.367
 4016SOL    HW212948   4.005   4.955   5.462
 4017SOL     OW12949   0.863   4.738   5.393
 4017SOL    HW112950   0.795   4.687   5.446
 4017SOL    HW212951   0.828   4.829   5.372
 4018SOL     OW12952   4.745   6.176   1.917
 4018SOL    HW112953   4.661   6.126   1.895
 4018SOL    HW212954   4.775   6.151   2.009
 4019SOL     OW12955   5.494   3.282   3.255
 4019SOL    HW112956   5.523   3.307   3.347
 4019SOL    HW212957   5.575   3.272   3.196
 4020SOL     OW12958   6.517   5.339   4.330
 4020SOL    HW112959   6.423   5.337   4.364
 4020SOL    HW212960   6.556   5.248   4.336
 4021SOL     OW12961   4.304   3.733   6.354
 4021SOL    HW112962   4.340   3.710   6.444
 4021SOL    HW212963   4.374   3.717   6.284
 4022SOL     OW12964   2.029   0.567   1.624
 4022SOL    HW112965   1.963   0.493   1.635
 4022SOL    HW212966   1.996   0.649   1.670
 4023SOL     OW12967   0.744   1.587   4.973
 4023SOL    HW112968   0.720   1.679   5.002
 4023SOL    HW212969   0.662   1.541   4.937
 4024SOL     OW12970   0.762   5.937   4.513
 4024SOL    HW112971   0.666   5.928   4.485
 4024SOL    HW212972   0.794   5.851   4.552
 4025SOL     OW12973   0.339   5.606   4.038
 4025SOL    HW112974   0.374   5.686   4.087
 4025SOL    HW212975   0.318   5.534   4.105
 4026SOL     OW12976   6.742   6.951   3.773
 4026SOL    HW112977   6.728   0.014   3.821
 4026SOL    HW212978   6.793   6.967   3.689
 4027SOL     OW12979   2.391   3.834   6.059
 4027SOL    HW112980   2.365   3.798   6.148
 4027SOL    HW212981   2.389   3.934   6.062
 4028SOL     OW12982   4.382   1.811   3.090
 4028SOL    HW112983   4.290   1.802   3.130
 4028SOL    HW212984   4.449   1.772   3.153
 4029SOL     OW12985   2.020   6.042   6.798
 4029SOL    HW112986   1.997   6.091   6.882
 4029SOL    HW212987   2.111   6.002   6.806
 4030SOL     OW12988   6.928   1.240   2.989
 4030SOL    HW112989   6.871   1.224   2.909
 4030SOL    HW212990   7.017   1.196   2.977
 4031SOL     OW12991   6.254   6.415   1.014
 4031SOL    HW112992   6.285   6.355   1.088
 4031SOL    HW212993   6.189   6.482   1.050
 4032SOL     OW12994   5.367   0.807   1.725
 4032SOL    HW112995   5.328   0.786   1.815
 4032SOL    HW212996   5.462   0.836   1.736
 4033SOL     OW12997   1.738   2.457   2.519
 4033SOL    HW112998   1.817   2.487   2.573
 4033SOL    HW212999   1.700   2.535   2.468
 4034SOL     OW13000   0.027   3.184   5.346
 4034SOL    HW113001   0.010   3.280   5.367
 4034SOL    HW213002   0.017   3.129   5.429
 4035SOL     OW13003   4.698   1.625   1.854
 4035SOL    HW113004   4.767   1.624   1.926
 4035SOL    HW213005   4.624   1.688   1.879
 4036SOL     OW13006   2.464   5.394   2.888
 4036SOL    HW113007   2.456   5.335   2.808
 4036SOL    HW213008   2.387   5.378   2.949
 4037SOL     OW13009   2.396   1.123   6.178
 4037SOL    HW113010   2.472   1.129   6.113
 4037SOL    HW213011   2.368   1.027   6.186
 4038SOL     OW13012   3.352   3.649   5.851
 4038SOL    HW113013   3.400   3.689   5.929
 4038SOL    HW213014   3.254   3.653   5.867
 4039SOL     OW13015   6.293   4.670   1.555
 4039SOL    HW113016   6.249   4.595   1.605
 4039SOL    HW213017   6.335   4.634   1.472
 4040SOL     OW13018   3.243   6.077   4.776
 4040SOL    HW113019   3.266   5.985   4.807
 4040SOL    HW213020   3.324   6.135   4.782
 4041SOL     OW13021   2.672   6.418   0.705
 4041SOL    HW113022   2.699   6.469   0.623
 4041SOL    HW213023   2.623   6.479   0.767
 4042SOL     OW13024   5.908   0.964   3.552
 4042SOL    HW113025   5.891   0.935   3.457
 4042SOL    HW213026   5.985   0.913   3.589
 4043SOL     OW13027   5.419   3.475   6.818
 4043SOL    HW113028   5.380   3.438   6.902
 4043SOL    HW213029   5.405   3.411   6.743
 4044SOL     OW13030   4.504   5.576   2.917
 4044SOL    HW113031   4.589   5.620   2.888
 4044SOL    HW213032   4.525   5.505   2.985
 4045SOL     OW13033   4.981   0.230   5.537
 4045SOL    HW113034   4.949   0.178   5.458
 4045SOL    HW213035   4.921   0.307   5.553
 4046SOL     OW13036   5.989   1.798   2.476
 4046SOL    HW113037   6.045   1.876   2.449
 4046SOL    HW213038   5.948   1.757   2.394
 4047SOL     OW13039   2.891   3.676   6.913
 4047SOL    HW113040   2.981   3.685   6.957
 4047SOL    HW213041   2.892   3.597   6.851
 4048SOL     OW13042   4.444   1.486   2.115
 4048SOL    HW113043   4.450   1.571   2.064
 4048SOL    HW213044   4.482   1.499   2.207
 4049SOL     OW13045   3.753   4.551   6.654
 4049SOL    HW113046   3.764   4.571   6.557
 4049SOL    HW213047   3.822   4.485   6.683
 4050SOL     OW13048   0.567   5.600   2.453
 4050SOL    HW113049   0.516   5.538   2.513
 4050SOL    HW213050   0.620   5.664   2.508
 4051SOL     OW13051   5.398   0.965   5.132
 4051SOL    HW113052   5.313   1.016   5.119
 4051SOL    HW213053   5.476   1.021   5.103
 4052SOL     OW13054   6.294   2.369   3.701
 4052SOL    HW113055   6.284   2.447   3.639
 4052SOL    HW213056   6.222   2.302   3.683
 4053SOL     OW13057   0.969   5.075   4.538
 4053SOL    HW113058   0.961   5.143   4.465
 4053SOL    HW213059   0.878   5.046   4.566
 4054SOL     OW13060   4.425   4.077   0.288
 4054SOL    HW113061   4.392   4.162   0.247
 4054SOL    HW213062   4.349   4.030   0.333
 4055SOL     OW13063   0.341   4.539   0.958
 4055SOL    HW113064   0.412   4.524   0.889
 4055SOL    HW213065   0.267   4.593   0.917
 4056SOL     OW13066   5.049   3.256   0.727
 4056SOL    HW113067   5.128   3.200   0.703
 4056SOL    HW213068   5.079   3.347   0.753
 4057SOL     OW13069   6.778   2.989   6.866
 4057SOL    HW113070   6.789   2.948   6.957
 4057SOL    HW213071   6.685   3.023   6.856
 4058SOL     OW13072   2.698   6.365   5.757
 4058SOL    HW113073   2.679   6.432   5.685
 4058SOL    HW213074   2.786   6.322   5.740
 4059SOL     OW13075   1.237   1.643   4.624
 4059SOL    HW113076   1.286   1.580   4.564
 4059SOL    HW213077   1.249   1.737   4.592
 4060SOL     OW13078   6.402   5.944   5.908
 4060SOL    HW113079   6.324   5.898   5.864
 4060SOL    HW213080   6.418   6.032   5.863
 4061SOL     OW13081   2.211   5.735   0.973
 4061SOL    HW113082   2.306   5.705   0.966
 4061SOL    HW213083   2.202   5.801   1.047
 4062SOL     OW13084   1.700   2.001   1.825
 4062SOL    HW113085   1.621   2.019   1.766
 4062SOL    HW213086   1.717   2.080   1.883
 4063SOL     OW13087   5.303   1.411   0.423
 4063SOL    HW113088   5.324   1.390   0.518
 4063SOL    HW213089   5.373   1.373   0.363
 4064SOL     OW13090   1.982   2.215   5.441
 4064SOL    HW113091   1.911   2.164   5.490
 4064SOL    HW213092   2.000   2.171   5.353
 4065SOL     OW13093   2.327   6.680   1.234
 4065SOL    HW113094   2.269   6.678   1.152
 4065SOL    HW213095   2.420   6.706   1.208
 4066SOL     OW13096   0.107   4.266   3.754
 4066SOL    HW113097   0.112   4.322   3.837
 4066SOL    HW213098   0.100   4.169   3.780
 4067SOL     OW13099   4.916   5.061   1.696
 4067SOL    HW113100   4.932   5.159   1.683
 4067SOL    HW213101   4.900   5.018   1.608
 4068SOL     OW13102   1.723   2.834   5.218
 4068SOL    HW113103   1.788   2.880   5.157
 4068SOL    HW213104   1.770   2.760   5.267
 4069SOL     OW13105   4.362   0.171   0.158
 4069SOL    HW113106   4.266   0.161   0.184
 4069SOL    HW213107   4.401   0.080   0.142
 4070SOL     OW13108   1.651   3.211   3.365
 4070SOL    HW113109   1.657   3.250   3.457
 4070SOL    HW213110   1.732   3.237   3.313
 4071SOL     OW13111   0.519   0.535   3.919
 4071SOL    HW113112   0.483   0.523   3.826
 4071SOL    HW213113   0.474   0.470   3.981
 4072SOL     OW13114   2.263   5.625   3.417
 4072SOL    HW113115   2.176   5.578   3.407
 4072SOL    HW213116   2.299   5.611   3.509
 4073SOL     OW13117   3.161   4.629   0.032
 4073SOL    HW113118   3.190   4.592   6.967
 4073SOL    HW213119   3.238   4.677   0.076
 4074SOL     OW13120   1.330   6.160   3.020
 4074SOL    HW113121   1.424   6.172   3.052
 4074SOL    HW213122   1.319   6.068   2.983
 4075SOL     OW13123   5.863   0.660   0.459
 4075SOL    HW113124   5.781   0.717   0.454
 4075SOL    HW213125   5.872   0.607   0.375
 4076SOL     OW13126   2.853   3.680   5.244
 4076SOL    HW113127   2.769   3.697   5.192
 4076SOL    HW213128   2.927   3.734   5.206
 4077SOL     OW13129   3.675   1.733   1.606
 4077SOL    HW113130   3.666   1.634   1.591
 4077SOL    HW213131   3.766   1.762   1.579
 4078SOL     OW13132   2.665   4.824   2.686
 4078SOL    HW113133   2.636   4.770   2.766
 4078SOL    HW213134   2.630   4.780   2.603
 4079SOL     OW13135   0.951   2.151   4.144
 4079SOL    HW113136   0.877   2.100   4.188
 4079SOL    HW213137   1.019   2.177   4.213
 4080SOL     OW13138   6.331   1.302   4.973
 4080SOL    HW113139   6.289   1.378   5.023
 4080SOL    HW213140   6.428   1.322   4.956
 4081SOL     OW13141   1.900   3.274   3.527
 4081SOL    HW113142   1.868   3.368   3.519
 4081SOL    HW213143   2.000   3.272   3.530
 4082SOL     OW13144   0.759   2.690   1.357
 4082SOL    HW113145   0.800   2.751   1.425
 4082SOL    HW213146   0.797   2.598   1.367
 4083SOL     OW13147   5.461   2.399   5.020
 4083SOL    HW113148   5.533   2.396   5.089
 4083SOL    HW213149   5.374   2.419   5.065
 4084SOL     OW13150   0.420   1.538   4.357
 4084SOL    HW113151   0.340   1.516   4.302
 4084SOL    HW213152   0.417   1.488   4.443
 4085SOL     OW13153   3.684   6.714   0.188
 4085SOL    HW113154   3.713   6.731   0.282
 4085SOL    HW213155   3.700   6.618   0.165
 4086SOL     OW13156   1.693   4.432   1.057
 4086SOL    HW113157   1.623   4.366   1.030
 4086SOL    HW213158   1.710   4.424   1.155
 4087SOL     OW13159   2.015   1.833   3.360
 4087SOL    HW113160   2.051   1.854   3.270
 4087SOL    HW213161   1.940   1.767   3.351
 4088SOL     OW13162   6.510   1.843   1.337
 4088SOL    HW113163   6.494   1.882   1.428
 4088SOL    HW213164   6.515   1.915   1.269
 4089SOL     OW13165   0.933   0.804   4.374
 4089SOL    HW113166   0.938   0.896   4.336
 4089SOL    HW213167   0.981   0.740   4.313
 4090SOL     OW13168   2.116   4.490   6.324
 4090SOL    HW113169   2.037   4.537   6.363
 4090SOL    HW213170   2.199   4.540   6.350
 4091SOL     OW13171   4.331   5.907   0.144
 4091SOL    HW113172   4.333   5.890   0.243
 4091SOL    HW213173   4.392   5.843   0.098
 4092SOL     OW13174   0.421   2.748   4.899
 4092SOL    HW113175   0.418   2.660   4.946
 4092SOL    HW213176   0.415   2.734   4.801
 4093SOL     OW13177   5.582   0.510   3.917
 4093SOL    HW113178   5.539   0.488   4.005
 4093SOL    HW213179   5.568   0.607   3.897
 4094SOL     OW13180   1.767   3.944   5.325
 4094SOL    HW113181   1.787   3.847   5.335
 4094SOL    HW213182   1.839   3.998   5.369
 4095SOL     OW13183   0.880   3.213   6.339
 4095SOL    HW113184   0.960   3.154   6.350
 4095SOL    HW213185   0.832   3.189   6.255
 4096SOL     OW13186   4.400   4.570   0.076
 4096SOL    HW113187   4.370   4.500   0.011
 4096SOL    HW213188   4.320   4.612   0.119
 4097SOL     OW13189   3.346   3.870   6.118
 4097SOL    HW113190   3.387   3.778   6.120
 4097SOL    HW213191   3.248   3.863   6.134
 4098SOL     OW13192   0.503   2.232   3.036
 4098SOL    HW113193   0.556   2.288   3.100
 4098SOL    HW213194   0.418   2.203   3.079
 4099SOL     OW13195   3.608   5.972   1.743
 4099SOL    HW113196   3.623   5.886   1.694
 4099SOL    HW213197   3.695   6.007   1.776
 4100SOL     OW13198   4.138   5.683   3.606
 4100SOL    HW113199   4.153   5.588   3.632
 4100SOL    HW213200   4.220   5.720   3.563
 4101SOL     OW13201   5.864   1.479   6.291
 4101SOL    HW113202   5.851   1.566   6.243
 4101SOL    HW213203   5.961   1.468   6.315
 4102SOL     OW13204   6.013   1.168   0.487
 4102SOL    HW113205   6.081   1.132   0.551
 4102SOL    HW213206   5.926   1.182   0.535
 4103SOL     OW13207   0.674   0.358   2.028
 4103SOL    HW113208   0.585   0.397   2.052
 4103SOL    HW213209   0.703   0.296   2.101
 4104SOL     OW13210   1.327   4.970   2.525
 4104SOL    HW113211   1.240   4.971   2.476
 4104SOL    HW213212   1.402   4.960   2.459
 4105SOL     OW13213   3.555   5.063   0.395
 4105SOL    HW113214   3.533   5.083   0.299
 4105SOL    HW213215   3.480   5.012   0.437
 4106SOL     OW13216   0.283   3.724   4.657
 4106SOL    HW113217   0.299   3.765   4.567
 4106SOL    HW213218   0.370   3.700   4.699
 4107SOL     OW13219   0.083   0.135   1.222
 4107SOL    HW113220   0.019   0.059   1.227
 4107SOL    HW213221   0.173   0.105   1.255
 4108SOL     OW13222   6.666   3.545   6.452
 4108SOL    HW113223   6.711   3.494   6.378
 4108SOL    HW213224   6.570   3.559   6.430
 4109SOL     OW13225   3.801   6.648   3.807
 4109SOL    HW113226   3.828   6.598   3.889
 4109SOL    HW213227   3.849   6.736   3.804
 4110SOL     OW13228   5.130   3.801   5.869
 4110SOL    HW113229   5.156   3.830   5.961
 4110SOL    HW213230   5.175   3.859   5.801
 4111SOL     OW13231   4.148   2.650   6.784
 4111SOL    HW113232   4.163   2.552   6.770
 4111SOL    HW213233   4.126   2.668   6.880
 4112SOL     OW13234   3.442   1.755   3.802
 4112SOL    HW113235   3.407   1.763   3.895
 4112SOL    HW213236   3.542   1.761   3.804
 4113SOL     OW13237   3.513   4.940   5.215
 4113SOL    HW113238   3.497   5.025   5.266
 4113SOL    HW213239   3.594   4.949   5.158
 4114SOL     OW13240   2.874   1.757   3.804
 4114SOL    HW113241   2.965   1.715   3.800
 4114SOL    HW213242   2.882   1.856   3.792
 4115SOL     OW13243   4.666   4.812   2.003
 4115SOL    HW113244   4.589   4.761   1.965
 4115SOL    HW213245   4.686   4.778   2.095
 4116SOL     OW13246   3.732   1.930   1.370
 4116SOL    HW113247   3.686   1.861   1.314
 4116SOL    HW213248   3.664   1.985   1.419
 4117SOL     OW13249   1.112   5.435   1.359
 4117SOL    HW113250   1.203   5.476   1.365
 4117SOL    HW213251   1.120   5.342   1.323
 4118SOL     OW13252   1.209   6.700   0.783
 4118SOL    HW113253   1.238   6.677   0.876
 4118SOL    HW213254   1.192   6.616   0.732
 4119SOL     OW13255   3.483   0.749   4.444
 4119SOL    HW113256   3.386   0.736   4.468
 4119SOL    HW213257   3.493   0.749   4.345
 4120SOL     OW13258   4.052   6.782   1.271
 4120SOL    HW113259   4.064   6.880   1.255
 4120SOL    HW213260   4.032   6.766   1.367
 4121SOL     OW13261   6.915   2.704   3.983
 4121SOL    HW113262   6.944   2.750   4.067
 4121SOL    HW213263   6.867   2.768   3.924
 4122SOL     OW13264   0.796   5.502   5.558
 4122SOL    HW113265   0.832   5.523   5.649
 4122SOL    HW213266   0.743   5.580   5.525
 4123SOL     OW13267   5.457   3.869   5.882
 4123SOL    HW113268   5.435   3.772   5.869
 4123SOL    HW213269   5.545   3.889   5.838
 4124SOL     OW13270   5.465   6.565   4.495
 4124SOL    HW113271   5.442   6.555   4.592
 4124SOL    HW213272   5.503   6.657   4.480
 4125SOL     OW13273   4.350   0.833   1.251
 4125SOL    HW113274   4.409   0.892   1.306
 4125SOL    HW213275   4.290   0.780   1.310
 4126SOL     OW13276   2.220   4.105   4.747
 4126SOL    HW113277   2.261   4.067   4.830
 4126SOL    HW213278   2.213   4.204   4.756
 4127SOL     OW13279   5.582   3.223   5.064
 4127SOL    HW113280   5.540   3.133   5.058
 4127SOL    HW213281   5.609   3.241   5.158
 4128SOL     OW13282   1.374   3.317   2.240
 4128SOL    HW113283   1.466   3.349   2.263
 4128SOL    HW213284   1.319   3.312   2.324
 4129SOL     OW13285   5.714   2.132   5.880
 4129SOL    HW113286   5.760   2.097   5.961
 4129SOL    HW213287   5.661   2.058   5.837
 4130SOL     OW13288   6.630   4.288   6.247
 4130SOL    HW113289   6.627   4.199   6.293
 4130SOL    HW213290   6.536   4.316   6.224
 4131SOL     OW13291   7.000   4.753   4.024
 4131SOL    HW113292   6.923   4.736   3.962
 4131SOL    HW213293   0.062   4.724   3.981
 4132SOL     OW13294   5.294   3.030   3.317
 4132SOL    HW113295   5.314   3.125   3.340
 4132SOL    HW213296   5.378   2.984   3.287
 4133SOL     OW13297   2.562   1.318   1.295
 4133SOL    HW113298   2.590   1.375   1.372
 4133SOL    HW213299   2.481   1.358   1.252
 4134SOL     OW13300   2.183   1.915   0.208
 4134SOL    HW113301   2.118   1.875   0.273
 4134SOL    HW213302   2.146   1.909   0.116
 4135SOL     OW13303   2.339   1.370   2.362
 4135SOL    HW113304   2.396   1.291   2.385
 4135SOL    HW213305   2.396   1.451   2.352
 4136SOL     OW13306   0.032   2.168   4.010
 4136SOL    HW113307   0.060   2.105   4.083
 4136SOL    HW213308   6.992   2.122   3.948
 4137SOL     OW13309   3.318   3.470   6.256
 4137SOL    HW113310   3.318   3.373   6.281
 4137SOL    HW213311   3.299   3.525   6.338
 4138SOL     OW13312   4.116   4.815   3.599
 4138SOL    HW113313   4.179   4.783   3.670
 4138SOL    HW213314   4.154   4.797   3.509
 4139SOL     OW13315   1.583   1.739   6.127
 4139SOL    HW113316   1.569   1.823   6.075
 4139SOL    HW213317   1.642   1.677   6.075
 4140SOL     OW13318   4.043   1.027   5.478
 4140SOL    HW113319   4.103   0.978   5.416
 4140SOL    HW213320   4.004   1.107   5.431
 4141SOL     OW13321   5.330   5.118   0.507
 4141SOL    HW113322   5.296   5.212   0.503
 4141SOL    HW213323   5.385   5.106   0.589
 4142SOL     OW13324   6.895   4.293   1.236
 4142SOL    HW113325   6.941   4.228   1.296
 4142SOL    HW213326   6.879   4.379   1.285
 4143SOL     OW13327   6.817   3.190   0.674
 4143SOL    HW113328   6.811   3.108   0.730
 4143SOL    HW213329   6.910   3.224   0.674
 4144SOL     OW13330   5.057   1.333   2.347
 4144SOL    HW113331   5.044   1.423   2.387
 4144SOL    HW213332   5.080   1.267   2.419
 4145SOL     OW13333   1.721   0.463   1.633
 4145SOL    HW113334   1.673   0.463   1.721
 4145SOL    HW213335   1.686   0.536   1.576
 4146SOL     OW13336   5.113   6.859   6.755
 4146SOL    HW113337   5.184   6.801   6.795
 4146SOL    HW213338   5.125   6.861   6.655
 4147SOL     OW13339   3.282   1.915   5.683
 4147SOL    HW113340   3.373   1.953   5.666
 4147SOL    HW213341   3.278   1.822   5.646
 4148SOL     OW13342   6.362   0.569   3.462
 4148SOL    HW113343   6.419   0.631   3.408
 4148SOL    HW213344   6.340   0.488   3.408
 4149SOL     OW13345   6.170   4.033   1.451
 4149SOL    HW113346   6.184   4.015   1.548
 4149SOL    HW213347   6.252   4.075   1.413
 4150SOL     OW13348   5.727   0.102   6.701
 4150SOL    HW113349   5.757   0.013   6.736
 4150SOL    HW213350   5.694   0.158   6.777
 4151SOL     OW13351   0.245   6.248   0.359
 4151SOL    HW113352   0.171   6.278   0.299
 4151SOL    HW213353   0.329   6.298   0.337
 4152SOL     OW13354   4.050   4.702   1.858
 4152SOL    HW113355   4.099   4.716   1.772
 4152SOL    HW213356   4.026   4.605   1.867
 4153SOL     OW13357   6.225   4.782   6.420
 4153SOL    HW113358   6.313   4.830   6.419
 4153SOL    HW213359   6.168   4.818   6.494
 4154SOL     OW13360   5.984   2.899   5.588
 4154SOL    HW113361   6.021   2.920   5.679
 4154SOL    HW213362   6.059   2.893   5.523
 4155SOL     OW13363   0.581   3.406   1.747
 4155SOL    HW113364   0.619   3.484   1.796
 4155SOL    HW213365   0.598   3.415   1.649
 4156SOL     OW13366   5.415   6.573   5.787
 4156SOL    HW113367   5.423   6.670   5.811
 4156SOL    HW213368   5.499   6.526   5.813
 4157SOL     OW13369   4.458   0.728   3.960
 4157SOL    HW113370   4.364   0.741   3.992
 4157SOL    HW213371   4.463   0.749   3.862
 4158SOL     OW13372   0.593   5.530   3.137
 4158SOL    HW113373   0.572   5.586   3.217
 4158SOL    HW213374   0.521   5.462   3.125
 4159SOL     OW13375   1.066   2.788   4.019
 4159SOL    HW113376   1.039   2.788   3.923
 4159SOL    HW213377   1.112   2.873   4.042
 4160SOL     OW13378   6.730   0.253   1.113
 4160SOL    HW113379   6.634   0.263   1.139
 4160SOL    HW213380   6.737   0.192   1.034
 4161SOL     OW13381   0.901   2.028   0.231
 4161SOL    HW113382   0.852   1.943   0.214
 4161SOL    HW213383   1.000   2.010   0.229
 4162SOL     OW13384   5.846   6.378   4.850
 4162SOL    HW113385   5.866   6.474   4.835
 4162SOL    HW213386   5.890   6.348   4.935
 4163SOL     OW13387   5.540   1.518   3.795
 4163SOL    HW113388   5.458   1.468   3.824
 4163SOL    HW213389   5.575   1.478   3.711
 4164SOL     OW13390   1.328   0.769   6.898
 4164SOL    HW113391   1.255   0.809   6.843
 4164SOL    HW213392   1.332   0.670   6.880
 4165SOL     OW13393   3.798   6.824   1.156
 4165SOL    HW113394   3.898   6.825   1.168
 4165SOL    HW213395   3.759   6.908   1.194
 4166SOL     OW13396   4.658   3.087   0.370
 4166SOL    HW113397   4.702   3.107   0.458
 4166SOL    HW213398   4.569   3.044   0.385
 4167SOL     OW13399   2.267   2.611   1.704
 4167SOL    HW113400   2.254   2.634   1.800
 4167SOL    HW213401   2.235   2.687   1.647
 4168SOL     OW13402   0.790   5.211   1.440
 4168SOL    HW113403   0.814   5.278   1.369
 4168SOL    HW213404   0.770   5.123   1.397
 4169SOL     OW13405   5.207   3.294   3.434
 4169SOL    HW113406   5.230   3.335   3.522
 4169SOL    HW213407   5.178   3.366   3.370
 4170SOL     OW13408   3.746   2.842   5.193
 4170SOL    HW113409   3.793   2.894   5.264
 4170SOL    HW213410   3.780   2.870   5.103
 4171SOL     OW13411   5.171   3.454   1.413
 4171SOL    HW113412   5.106   3.387   1.379
 4171SOL    HW213413   5.124   3.518   1.474
 4172SOL     OW13414   0.889   1.789   0.701
 4172SOL    HW113415   0.858   1.792   0.796
 4172SOL    HW213416   0.913   1.881   0.671
 4173SOL     OW13417   5.083   2.837   5.227
 4173SOL    HW113418   4.986   2.855   5.246
 4173SOL    HW213419   5.122   2.915   5.177
 4174SOL     OW13420   4.638   0.530   3.655
 4174SOL    HW113421   4.690   0.527   3.569
 4174SOL    HW213422   4.573   0.455   3.656
 4175SOL     OW13423   3.333   6.836   3.481
 4175SOL    HW113424   3.395   6.758   3.495
 4175SOL    HW213425   3.381   6.908   3.430
 4176SOL     OW13426   4.985   6.858   3.144
 4176SOL    HW113427   5.053   6.924   3.110
 4176SOL    HW213428   4.944   6.894   3.228
 4177SOL     OW13429   0.375   6.355   2.829
 4177SOL    HW113430   0.343   6.314   2.915
 4177SOL    HW213431   0.326   6.314   2.753
 4178SOL     OW13432   3.548   1.937   5.655
 4178SOL    HW113433   3.574   1.865   5.720
 4178SOL    HW213434   3.593   1.921   5.568
 4179SOL     OW13435   5.383   3.421   5.291
 4179SOL    HW113436   5.478   3.422   5.323
 4179SOL    HW213437   5.381   3.440   5.193
 4180SOL     OW13438   4.608   4.302   1.447
 4180SOL    HW113439   4.599   4.315   1.545
 4180SOL    HW213440   4.527   4.339   1.400
 4181SOL     OW13441   0.875   1.554   0.110
 4181SOL    HW113442   0.924   1.568   0.196
 4181SOL    HW213443   0.816   1.474   0.118
 4182SOL     OW13444   5.885   0.044   2.712
 4182SOL    HW113445   5.852   0.125   2.759
 4182SOL    HW213446   5.963   0.068   2.654
 4183SOL     OW13447   1.649   1.771   1.914
 4183SOL    HW113448   1.681   1.865   1.896
 4183SOL    HW213449   1.726   1.708   1.904
 4184SOL     OW13450   3.840   5.471   0.256
 4184SOL    HW113451   3.857   5.421   0.341
 4184SOL    HW213452   3.862   5.567   0.269
 4185SOL     OW13453   0.370   7.015   3.657
 4185SOL    HW113454   0.457   6.973   3.629
 4185SOL    HW213455   0.300   6.990   3.590
 4186SOL     OW13456   2.262   4.003   1.172
 4186SOL    HW113457   2.319   3.922   1.177
 4186SOL    HW213458   2.165   3.976   1.173
 4187SOL     OW13459   3.554   3.312   6.189
 4187SOL    HW113460   3.489   3.316   6.114
 4187SOL    HW213461   3.647   3.319   6.152
 4188SOL     OW13462   4.610   0.275   4.351
 4188SOL    HW113463   4.652   0.264   4.261
 4188SOL    HW213464   4.649   0.354   4.398
 4189SOL     OW13465   2.232   1.843   4.607
 4189SOL    HW113466   2.243   1.743   4.611
 4189SOL    HW213467   2.147   1.869   4.653
 4190SOL     OW13468   3.191   1.105   6.908
 4190SOL    HW113469   3.144   1.138   6.990
 4190SOL    HW213470   3.259   1.036   6.934
 4191SOL     OW13471   6.435   2.046   2.522
 4191SOL    HW113472   6.449   2.145   2.528
 4191SOL    HW213473   6.485   2.010   2.443
 4192SOL     OW13474   5.947   1.375   3.569
 4192SOL    HW113475   5.964   1.359   3.667
 4192SOL    HW213476   5.931   1.287   3.524
 4193SOL     OW13477   1.882   6.918   2.179
 4193SOL    HW113478   1.864   6.823   2.153
 4193SOL    HW213479   1.929   6.965   2.104
 4194SOL     OW13480   0.196   1.286   3.940
 4194SOL    HW113481   0.224   1.254   3.850
 4194SOL    HW213482   0.269   1.268   4.006
 4195SOL     OW13483   5.218   0.369   1.488
 4195SOL    HW113484   5.193   0.286   1.539
 4195SOL    HW213485   5.154   0.382   1.413
 4196SOL     OW13486   4.836   2.438   4.294
 4196SOL    HW113487   4.935   2.429   4.283
 4196SOL    HW213488   4.790   2.359   4.254
 4197SOL     OW13489   4.708   4.208   4.422
 4197SOL    HW113490   4.624   4.194   4.369
 4197SOL    HW213491   4.785   4.221   4.360
 4198SOL     OW13492   6.234   3.837   0.109
 4198SOL    HW113493   6.280   3.840   0.020
 4198SOL    HW213494   6.216   3.931   0.140
 4199SOL     OW13495   2.872   3.673   5.536
 4199SOL    HW113496   2.964   3.641   5.557
 4199SOL    HW213497   2.863   3.687   5.438
 4200SOL     OW13498   2.024   0.268   6.823
 4200SOL    HW113499   1.963   0.250   6.900
 4200SOL    HW213500   2.013   0.362   6.792
 4201SOL     OW13501   5.839   6.408   3.655
 4201SOL    HW113502   5.757   6.455   3.691
 4201SOL    HW213503   5.903   6.476   3.621
 4202SOL     OW13504   5.500   4.810   4.506
 4202SOL    HW113505   5.536   4.786   4.416
 4202SOL    HW213506   5.558   4.880   4.548
 4203SOL     OW13507   5.438   5.948   3.113
 4203SOL    HW113508   5.394   6.025   3.067
 4203SOL    HW213509   5.535   5.967   3.127
 4204SOL     OW13510   2.766   2.850   1.663
 4204SOL    HW113511   2.805   2.929   1.711
 4204SOL    HW213512   2.723   2.880   1.578
 4205SOL     OW13513   2.559   5.248   3.913
 4205SOL    HW113514   2.472   5.227   3.958
 4205SOL    HW213515   2.632   5.195   3.956
 4206SOL     OW13516   4.971   0.620   4.833
 4206SOL    HW113517   5.030   0.609   4.753
 4206SOL    HW213518   4.896   0.554   4.828
 4207SOL     OW13519   1.099   1.509   2.036
 4207SOL    HW113520   1.027   1.580   2.040
 4207SOL    HW213521   1.168   1.536   1.969
 4208SOL     OW13522   1.181   2.942   0.471
 4208SOL    HW113523   1.244   2.900   0.536
 4208SOL    HW213524   1.201   3.040   0.463
 4209SOL     OW13525   2.673   0.034   5.010
 4209SOL    HW113526   2.722   0.038   5.097
 4209SOL    HW213527   2.702   0.109   4.952
 4210SOL     OW13528   4.448   2.942   0.448
 4210SOL    HW113529   4.396   2.926   0.532
 4210SOL    HW213530   4.387   2.979   0.377
 4211SOL     OW13531   4.380   5.012   3.505
 4211SOL    HW113532   4.346   4.927   3.464
 4211SOL    HW213533   4.444   5.056   3.441
 4212SOL     OW13534   6.331   1.495   2.632
 4212SOL    HW113535   6.426   1.483   2.662
 4212SOL    HW213536   6.327   1.497   2.532
 4213SOL     OW13537   1.252   0.990   2.631
 4213SOL    HW113538   1.304   0.945   2.558
 4213SOL    HW213539   1.162   1.017   2.595
 4214SOL     OW13540   0.676   2.958   4.580
 4214SOL    HW113541   0.708   2.863   4.571
 4214SOL    HW213542   0.581   2.964   4.550
 4215SOL     OW13543   0.282   5.552   4.387
 4215SOL    HW113544   0.348   5.477   4.396
 4215SOL    HW213545   0.221   5.552   4.466
 4216SOL     OW13546   0.997   2.679   4.638
 4216SOL    HW113547   1.023   2.725   4.722
 4216SOL    HW213548   1.014   2.739   4.560
 4217SOL     OW13549   6.879   0.617   2.960
 4217SOL    HW113550   6.917   0.702   2.923
 4217SOL    HW213551   6.864   0.627   3.059
 4218SOL     OW13552   3.957   0.137   1.792
 4218SOL    HW113553   4.026   0.198   1.829
 4218SOL    HW213554   3.998   0.080   1.721
 4219SOL     OW13555   4.385   5.814   3.525
 4219SOL    HW113556   4.438   5.763   3.457
 4219SOL    HW213557   4.441   5.887   3.563
 4220SOL     OW13558   6.137   2.680   3.937
 4220SOL    HW113559   6.137   2.582   3.953
 4220SOL    HW213560   6.127   2.728   4.024
 4221SOL     OW13561   5.579   5.652   6.193
 4221SOL    HW113562   5.490   5.654   6.237
 4221SOL    HW213563   5.619   5.744   6.194
 4222SOL     OW13564   4.779   2.226   1.000
 4222SOL    HW113565   4.832   2.145   0.975
 4222SOL    HW213566   4.791   2.297   0.930
 4223SOL     OW13567   3.403   4.145   2.235
 4223SOL    HW113568   3.444   4.118   2.148
 4223SOL    HW213569   3.351   4.230   2.222
 4224SOL     OW13570   4.452   2.307   5.033
 4224SOL    HW113571   4.510   2.377   4.991
 4224SOL    HW213572   4.360   2.344   5.047
 4225SOL     OW13573   5.554   6.895   5.094
 4225SOL    HW113574   5.477   6.919   5.036
 4225SOL    HW213575   5.521   6.859   5.181
 4226SOL     OW13576   0.733   1.288   4.040
 4226SOL    HW113577   0.698   1.343   4.116
 4226SOL    HW213578   0.701   1.326   3.954
 4227SOL     OW13579   4.939   4.529   0.206
 4227SOL    HW113580   4.936   4.535   0.106
 4227SOL    HW213581   4.896   4.609   0.246
 4228SOL     OW13582   6.058   5.277   2.773
 4228SOL    HW113583   6.021   5.300   2.863
 4228SOL    HW213584   6.101   5.358   2.733
 4229SOL     OW13585   4.947   4.795   5.799
 4229SOL    HW113586   4.917   4.831   5.710
 4229SOL    HW213587   4.911   4.703   5.812
 4230SOL     OW13588   3.836   7.014   4.961
 4230SOL    HW113589   3.933   6.998   4.942
 4230SOL    HW213590   3.822   0.002   5.059
 4231SOL     OW13591   4.686   0.209   5.500
 4231SOL    HW113592   4.700   0.295   5.550
 4231SOL    HW213593   4.600   0.215   5.449
 4232SOL     OW13594   2.422   4.427   2.483
 4232SOL    HW113595   2.325   4.404   2.473
 4232SOL    HW213596   2.469   4.411   2.396
 4233SOL     OW13597   6.347   6.164   0.097
 4233SOL    HW113598   6.406   6.125   0.026
 4233SOL    HW213599   6.363   6.117   0.183
 4234SOL     OW13600   3.051   4.237   6.018
 4234SOL    HW113601   3.125   4.176   5.988
 4234SOL    HW213602   3.038   4.309   5.949
 4235SOL     OW13603   6.393   3.611   5.648
 4235SOL    HW113604   6.387   3.676   5.724
 4235SOL    HW213605   6.332   3.642   5.574
 4236SOL     OW13606   1.023   2.870   4.413
 4236SOL    HW113607   0.960   2.947   4.404
 4236SOL    HW213608   1.001   2.801   4.345
 4237SOL     OW13609   5.182   3.059   5.053
 4237SOL    HW113610   5.145   3.147   5.083
 4237SOL    HW213611   5.188   3.058   4.953
 4238SOL     OW13612   4.408   5.688   3.933
 4238SOL    HW113613   4.311   5.679   3.915
 4238SOL    HW213614   4.426   5.668   4.029
 4239SOL     OW13615   4.914   5.657   5.917
 4239SOL    HW113616   4.848   5.582   5.927
 4239SOL    HW213617   4.873   5.732   5.866
 4240SOL     OW13618   2.401   4.516   6.696
 4240SOL    HW113619   2.318   4.564   6.724
 4240SOL    HW213620   2.389   4.418   6.709
 4241SOL     OW13621   4.016   0.703   6.867
 4241SOL    HW113622   4.018   0.770   6.940
 4241SOL    HW213623   3.929   0.709   6.818
 4242SOL     OW13624   2.565   0.742   2.653
 4242SOL    HW113625   2.613   0.783   2.731
 4242SOL    HW213626   2.513   0.813   2.606
 4243SOL     OW13627   1.759   3.128   2.687
 4243SOL    HW113628   1.800   3.082   2.766
 4243SOL    HW213629   1.659   3.119   2.691
 4244SOL     OW13630   4.318   6.731   1.214
 4244SOL    HW113631   4.357   6.822   1.201
 4244SOL    HW213632   4.219   6.735   1.204
 4245SOL     OW13633   6.274   3.553   1.052
 4245SOL    HW113634   6.238   3.595   0.969
 4245SOL    HW213635   6.312   3.463   1.030
 4246SOL     OW13636   5.069   1.957   3.225
 4246SOL    HW113637   5.021   2.028   3.173
 4246SOL    HW213638   5.022   1.941   3.311
 4247SOL     OW13639   1.336   5.093   5.493
 4247SOL    HW113640   1.376   5.144   5.569
 4247SOL    HW213641   1.358   4.996   5.503
 4248SOL     OW13642   1.738   1.055   3.389
 4248SOL    HW113643   1.804   0.984   3.364
 4248SOL    HW213644   1.656   1.014   3.429
 4249SOL     OW13645   6.914   6.856   4.750
 4249SOL    HW113646   6.970   6.937   4.767
 4249SOL    HW213647   6.958   6.800   4.680
 4250SOL     OW13648   0.355   5.283   4.361
 4250SOL    HW113649   0.297   5.255   4.284
 4250SOL    HW213650   0.447   5.246   4.348
 4251SOL     OW13651   5.938   1.990   5.720
 4251SOL    HW113652   5.973   2.023   5.632
 4251SOL    HW213653   5.961   2.056   5.791
 4252SOL     OW13654   0.055   6.516   0.233
 4252SOL    HW113655   0.099   6.592   0.186
 4252SOL    HW213656   0.021   6.547   0.322
 4253SOL     OW13657   4.744   5.651   2.842
 4253SOL    HW113658   4.814   5.706   2.796
 4253SOL    HW213659   4.787   5.576   2.891
 4254SOL     OW13660   1.772   3.269   0.121
 4254SOL    HW113661   1.857   3.321   0.127
 4254SOL    HW213662   1.784   3.179   0.164
 4255SOL     OW13663   1.237   3.777   2.834
 4255SOL    HW113664   1.160   3.819   2.883
 4255SOL    HW213665   1.267   3.838   2.761
 4256SOL     OW13666   0.680   5.616   2.118
 4256SOL    HW113667   0.584   5.634   2.137
 4256SOL    HW213668   0.722   5.698   2.079
 4257SOL     OW13669   5.929   1.088   4.490
 4257SOL    HW113670   5.956   1.180   4.516
 4257SOL    HW213671   6.010   1.033   4.472
 4258SOL     OW13672   3.922   6.089   0.852
 4258SOL    HW113673   3.995   6.031   0.815
 4258SOL    HW213674   3.855   6.108   0.781
 4259SOL     OW13675   1.072   0.295   2.441
 4259SOL    HW113676   1.015   0.272   2.362
 4259SOL    HW213677   1.035   0.376   2.486
 4260SOL     OW13678   5.393   0.733   4.726
 4260SOL    HW113679   5.478   0.785   4.725
 4260SOL    HW213680   5.324   0.783   4.777
 4261SOL     OW13681   2.119   6.498   4.389
 4261SOL    HW113682   2.130   6.538   4.298
 4261SOL    HW213683   2.072   6.563   4.449
 4262SOL     OW13684   1.854   4.041   6.636
 4262SOL    HW113685   1.801   4.040   6.721
 4262SOL    HW213686   1.852   3.950   6.594
 4263SOL     OW13687   2.714   2.332   4.199
 4263SOL    HW113688   2.743   2.271   4.272
 4263SOL    HW213689   2.762   2.420   4.208
 4264SOL     OW13690   5.115   1.174   5.224
 4264SOL    HW113691   5.043   1.234   5.258
 4264SOL    HW213692   5.203   1.204   5.260
 4265SOL     OW13693   3.573   0.943   0.001
 4265SOL    HW113694   3.626   0.980   0.077
 4265SOL    HW213695   3.632   0.885   6.968
 4266SOL     OW13696   1.205   6.027   1.162
 4266SOL    HW113697   1.188   6.033   1.063
 4266SOL    HW213698   1.119   6.036   1.211
 4267SOL     OW13699   1.750   4.061   5.059
 4267SOL    HW113700   1.841   4.082   5.024
 4267SOL    HW213701   1.758   4.006   5.142
 4268SOL     OW13702   1.228   4.711   0.039
 4268SOL    HW113703   1.214   4.810   0.039
 4268SOL    HW213704   1.177   4.669   0.114
 4269SOL     OW13705   2.686   1.350   4.600
 4269SOL    HW113706   2.725   1.333   4.691
 4269SOL    HW213707   2.651   1.444   4.596
 4270SOL     OW13708   3.987   3.005   0.592
 4270SOL    HW113709   4.043   3.071   0.642
 4270SOL    HW213710   3.909   2.978   0.648
 4271SOL     OW13711   0.168   0.632   1.553
 4271SOL    HW113712   0.104   0.694   1.507
 4271SOL    HW213713   0.260   0.670   1.549
 4272SOL     OW13714   6.767   1.424   6.439
 4272SOL    HW113715   6.759   1.477   6.524
 4272SOL    HW213716   6.746   1.483   6.361
 4273SOL     OW13717   3.362   6.075   4.440
 4273SOL    HW113718   3.346   6.036   4.530
 4273SOL    HW213719   3.404   6.166   4.450
 4274SOL     OW13720   6.870   1.611   1.921
 4274SOL    HW113721   6.925   1.596   2.003
 4274SOL    HW213722   6.848   1.523   1.879
 4275SOL     OW13723   6.766   2.983   3.014
 4275SOL    HW113724   6.794   2.887   3.019
 4275SOL    HW213725   6.836   3.036   2.966
 4276SOL     OW13726   2.356   5.747   4.322
 4276SOL    HW113727   2.407   5.706   4.397
 4276SOL    HW213728   2.418   5.768   4.247
 4277SOL     OW13729   6.003   5.330   3.248
 4277SOL    HW113730   6.080   5.280   3.210
 4277SOL    HW213731   6.011   5.427   3.223
 4278SOL     OW13732   1.358   6.896   1.835
 4278SOL    HW113733   1.448   6.936   1.815
 4278SOL    HW213734   1.289   6.942   1.779
 4279SOL     OW13735   1.589   1.542   3.389
 4279SOL    HW113736   1.528   1.586   3.324
 4279SOL    HW213737   1.616   1.452   3.354
 4280SOL     OW13738   0.600   6.615   6.518
 4280SOL    HW113739   0.641   6.581   6.433
 4280SOL    HW213740   0.665   6.605   6.593
 4281SOL     OW13741   4.946   5.726   3.318
 4281SOL    HW113742   5.015   5.666   3.277
 4281SOL    HW213743   4.857   5.710   3.273
 4282SOL     OW13744   3.748   4.170   1.005
 4282SOL    HW113745   3.806   4.088   1.004
 4282SOL    HW213746   3.663   4.150   1.053
 4283SOL     OW13747   5.047   1.219   4.282
 4283SOL    HW113748   5.048   1.319   4.283
 4283SOL    HW213749   4.970   1.187   4.228
 4284SOL     OW13750   4.504   5.660   5.917
 4284SOL    HW113751   4.566   5.669   5.839
 4284SOL    HW213752   4.431   5.596   5.894
 4285SOL     OW13753   2.843   0.327   5.604
 4285SOL    HW113754   2.924   0.359   5.555
 4285SOL    HW213755   2.766   0.388   5.585
 4286SOL     OW13756   5.749   0.773   6.298
 4286SOL    HW113757   5.687   0.834   6.347
 4286SOL    HW213758   5.838   0.818   6.288
 4287SOL     OW13759   4.533   0.247   0.373
 4287SOL    HW113760   4.513   0.188   0.294
 4287SOL    HW213761   4.629   0.236   0.400
 4288SOL     OW13762   6.750   6.424   2.168
 4288SOL    HW113763   6.802   6.354   2.118
 4288SOL    HW213764   6.810   6.468   2.235
 4289SOL     OW13765   0.443   3.819   4.000
 4289SOL    HW113766   0.512   3.784   3.937
 4289SOL    HW213767   0.405   3.743   4.053
 4290SOL     OW13768   0.313   0.875   3.731
 4290SOL    HW113769   0.354   0.841   3.647
 4290SOL    HW213770   0.268   0.799   3.780
 4291SOL     OW13771   4.841   3.254   6.218
 4291SOL    HW113772   4.768   3.212   6.165
 4291SOL    HW213773   4.830   3.354   6.217
 4292SOL     OW13774   5.704   2.148   1.368
 4292SOL    HW113775   5.630   2.164   1.303
 4292SOL    HW213776   5.710   2.224   1.431
 4293SOL     OW13777   3.803   4.436   6.930
 4293SOL    HW113778   3.759   4.363   6.877
 4293SOL    HW213779   3.861   4.491   6.870
 4294SOL     OW13780   1.876   1.791   6.509
 4294SOL    HW113781   1.833   1.701   6.502
 4294SOL    HW213782   1.839   1.851   6.438
 4295SOL     OW13783   4.056   6.008   2.833
 4295SOL    HW113784   4.100   6.082   2.883
 4295SOL    HW213785   3.956   6.014   2.844
 4296SOL     OW13786   3.020   6.119   2.330
 4296SOL    HW113787   3.039   6.055   2.255
 4296SOL    HW213788   3.106   6.159   2.361
 4297SOL     OW13789   6.025   4.600   0.939
 4297SOL    HW113790   6.082   4.674   0.902
 4297SOL    HW213791   5.931   4.633   0.951
 4298SOL     OW13792   2.354   6.683   0.085
 4298SOL    HW113793   2.380   6.763   0.138
 4298SOL    HW213794   2.434   6.624   0.071
 4299SOL     OW13795   0.503   3.290   0.159
 4299SOL    HW113796   0.434   3.221   0.181
 4299SOL    HW213797   0.591   3.264   0.200
 4300SOL     OW13798   2.701   1.391   0.857
 4300SOL    HW113799   2.720   1.342   0.942
 4300SOL    HW213800   2.657   1.329   0.792
 4301SOL     OW13801   2.935   0.018   1.061
 4301SOL    HW113802   2.916   0.012   1.159
 4301SOL    HW213803   3.025   0.061   1.048
 4302SOL     OW13804   2.358   6.048   6.292
 4302SOL    HW113805   2.419   6.052   6.214
 4302SOL    HW213806   2.354   5.955   6.327
 4303SOL     OW13807   5.898   5.056   3.144
 4303SOL    HW113808   5.911   5.001   3.062
 4303SOL    HW213809   5.987   5.083   3.181
 4304SOL     OW13810   3.605   3.970   1.370
 4304SOL    HW113811   3.616   3.973   1.469
 4304SOL    HW213812   3.516   3.930   1.348
 4305SOL     OW13813   1.871   0.038   5.160
 4305SOL    HW113814   1.893   0.087   5.076
 4305SOL    HW213815   1.840   0.104   5.230
 4306SOL     OW13816   5.981   3.228   5.177
 4306SOL    HW113817   5.955   3.136   5.148
 4306SOL    HW213818   6.039   3.223   5.258
 4307SOL     OW13819   0.195   1.528   5.631
 4307SOL    HW113820   0.160   1.531   5.725
 4307SOL    HW213821   0.119   1.508   5.568
 4308SOL     OW13822   4.448   5.689   7.008
 4308SOL    HW113823   4.547   5.704   7.009
 4308SOL    HW213824   4.406   5.752   6.943
 4309SOL     OW13825   0.899   2.824   0.721
 4309SOL    HW113826   0.993   2.802   0.748
 4309SOL    HW213827   0.900   2.880   0.638
 4310SOL     OW13828   6.467   1.823   3.179
 4310SOL    HW113829   6.498   1.891   3.113
 4310SOL    HW213830   6.515   1.836   3.266
 4311SOL     OW13831   0.602   0.450   2.422
 4311SOL    HW113832   0.580   0.474   2.517
 4311SOL    HW213833   0.618   0.533   2.370
 4312SOL     OW13834   0.519   4.946   2.712
 4312SOL    HW113835   0.537   4.868   2.652
 4312SOL    HW213836   0.529   5.030   2.660
 4313SOL     OW13837   6.415   2.321   0.026
 4313SOL    HW113838   6.350   2.318   0.102
 4313SOL    HW213839   6.505   2.290   0.058
 4314SOL     OW13840   6.461   1.846   5.587
 4314SOL    HW113841   6.560   1.830   5.597
 4314SOL    HW213842   6.446   1.942   5.563
 4315SOL     OW13843   2.892   1.274   4.178
 4315SOL    HW113844   2.991   1.279   4.166
 4315SOL    HW213845   2.867   1.315   4.266
 4316SOL     OW13846   5.247   6.906   1.675
 4316SOL    HW113847   5.345   6.914   1.694
 4316SOL    HW213848   5.216   6.815   1.701
 4317SOL     OW13849   4.578   0.836   5.717
 4317SOL    HW113850   4.494   0.882   5.687
 4317SOL    HW213851   4.629   0.897   5.778
 4318SOL     OW13852   0.398   0.525   4.378
 4318SOL    HW113853   0.426   0.620   4.366
 4318SOL    HW213854   0.315   0.507   4.325
 4319SOL     OW13855   1.795   4.938   2.801
 4319SOL    HW113856   1.730   4.866   2.778
 4319SOL    HW213857   1.777   5.019   2.744
 4320SOL     OW13858   3.470   6.454   1.089
 4320SOL    HW113859   3.515   6.453   1.000
 4320SOL    HW213860   3.536   6.432   1.161
 4321SOL     OW13861   6.514   6.679   2.657
 4321SOL    HW113862   6.509   6.779   2.661
 4321SOL    HW213863   6.563   6.645   2.737
 4322SOL     OW13864   0.843   3.192   5.423
 4322SOL    HW113865   0.887   3.139   5.350
 4322SOL    HW213866   0.905   3.264   5.454
 4323SOL     OW13867   3.935   5.103   6.499
 4323SOL    HW113868   3.969   5.190   6.533
 4323SOL    HW213869   3.920   5.110   6.400
 4324SOL     OW13870   6.686   4.072   5.931
 4324SOL    HW113871   6.761   4.128   5.967
 4324SOL    HW213872   6.710   3.976   5.936
 4325SOL     OW13873   2.560   0.609   2.366
 4325SOL    HW113874   2.557   0.639   2.462
 4325SOL    HW213875   2.565   0.689   2.307
 4326SOL     OW13876   4.753   2.719   2.335
 4326SOL    HW113877   4.705   2.656   2.396
 4326SOL    HW213878   4.716   2.711   2.243
 4327SOL     OW13879   2.940   5.735   4.007
 4327SOL    HW113880   2.922   5.649   3.960
 4327SOL    HW213881   3.036   5.761   3.995
 4328SOL     OW13882   5.823   6.804   4.569
 4328SOL    HW113883   5.842   6.742   4.644
 4328SOL    HW213884   5.820   6.898   4.603
 4329SOL     OW13885   0.234   1.950   6.259
 4329SOL    HW113886   0.190   1.874   6.210
 4329SOL    HW213887   0.199   2.037   6.223
 4330SOL     OW13888   2.992   4.812   5.050
 4330SOL    HW113889   3.079   4.840   5.089
 4330SOL    HW213890   2.958   4.731   5.099
 4331SOL     OW13891   5.883   0.973   2.184
 4331SOL    HW113892   5.875   1.071   2.198
 4331SOL    HW213893   5.826   0.945   2.107
 4332SOL     OW13894   0.347   5.415   2.514
 4332SOL    HW113895   0.361   5.414   2.415
 4332SOL    HW213896   0.259   5.458   2.534
 4333SOL     OW13897   3.512   2.249   5.478
 4333SOL    HW113898   3.487   2.339   5.442
 4333SOL    HW213899   3.459   2.231   5.561
 4334SOL     OW13900   0.051   2.461   4.241
 4334SOL    HW113901   0.123   2.429   4.179
 4334SOL    HW213902   7.004   2.391   4.251
 4335SOL     OW13903   2.655   4.176   1.633
 4335SOL    HW113904   2.621   4.167   1.540
 4335SOL    HW213905   2.713   4.097   1.655
 4336SOL     OW13906   2.645   4.829   5.601
 4336SOL    HW113907   2.590   4.784   5.531
 4336SOL    HW213908   2.678   4.917   5.566
 4337SOL     OW13909   1.481   5.281   3.829
 4337SOL    HW113910   1.568   5.246   3.794
 4337SOL    HW213911   1.497   5.368   3.877
 4338SOL     OW13912   3.888   1.094   5.899
 4338SOL    HW113913   3.801   1.108   5.946
 4338SOL    HW213914   3.876   1.027   5.826
 4339SOL     OW13915   3.501   3.612   6.143
 4339SOL    HW113916   3.596   3.597   6.170
 4339SOL    HW213917   3.444   3.540   6.182
 4340SOL     OW13918   6.447   3.784   1.043
 4340SOL    HW113919   6.478   3.863   1.096
 4340SOL    HW213920   6.353   3.761   1.070
 4341SOL     OW13921   0.458   6.972   2.783
 4341SOL    HW113922   0.487   6.971   2.879
 4341SOL    HW213923   0.399   6.894   2.765
 4342SOL     OW13924   5.293   3.734   2.483
 4342SOL    HW113925   5.205   3.778   2.498
 4342SOL    HW213926   5.302   3.656   2.545
 4343SOL     OW13927   4.435   0.360   5.699
 4343SOL    HW113928   4.493   0.441   5.700
 4343SOL    HW213929   4.340   0.386   5.717
 4344SOL     OW13930   0.315   3.226   3.837
 4344SOL    HW113931   0.323   3.313   3.788
 4344SOL    HW213932   0.362   3.155   3.785
 4345SOL     OW13933   3.169   3.212   2.371
 4345SOL    HW113934   3.175   3.139   2.438
 4345SOL    HW213935   3.219   3.186   2.288
 4346SOL     OW13936   1.016   2.943   2.309
 4346SOL    HW113937   0.982   2.853   2.336
 4346SOL    HW213938   1.092   2.932   2.245
 4347SOL     OW13939   5.892   5.436   0.779
 4347SOL    HW113940   5.870   5.387   0.695
 4347SOL    HW213941   5.849   5.390   0.857
 4348SOL     OW13942   6.153   5.580   4.337
 4348SOL    HW113943   6.150   5.480   4.343
 4348SOL    HW213944   6.167   5.618   4.428
 4349SOL     OW13945   0.190   3.819   4.315
 4349SOL    HW113946   0.252   3.893   4.339
 4349SOL    HW213947   0.241   3.747   4.267
 4350SOL     OW13948   4.384   1.611   4.748
 4350SOL    HW113949   4.425   1.544   4.809
 4350SOL    HW213950   4.305   1.569   4.702
 4351SOL     OW13951   0.914   6.689   0.353
 4351SOL    HW113952   0.912   6.762   0.421
 4351SOL    HW213953   0.821   6.652   0.341
 4352SOL     OW13954   3.823   3.994   0.687
 4352SOL    HW113955   3.796   3.953   0.774
 4352SOL    HW213956   3.828   3.923   0.617
 4353SOL     OW13957   3.104   3.380   1.210
 4353SOL    HW113958   3.149   3.410   1.294
 4353SOL    HW213959   3.038   3.308   1.232
 4354SOL     OW13960   5.193   6.668   3.787
 4354SOL    HW113961   5.246   6.744   3.825
 4354SOL    HW213962   5.165   6.690   3.694
 4355SOL     OW13963   1.594   6.173   3.035
 4355SOL    HW113964   1.631   6.089   3.075
 4355SOL    HW213965   1.608   6.171   2.936
 4356SOL     OW13966   5.436   2.319   5.873
 4356SOL    HW113967   5.447   2.417   5.889
 4356SOL    HW213968   5.527   2.277   5.863
 4357SOL     OW13969   5.815   0.479   2.441
 4357SOL    HW113970   5.790   0.536   2.362
 4357SOL    HW213971   5.734   0.431   2.474
 4358SOL     OW13972   2.117   6.801   6.823
 4358SOL    HW113973   2.154   6.848   6.743
 4358SOL    HW213974   2.189   6.789   6.891
 4359SOL     OW13975   2.866   2.229   6.961
 4359SOL    HW113976   2.921   2.158   6.917
 4359SOL    HW213977   2.857   2.307   6.900
 4360SOL     OW13978   1.667   3.710   3.840
 4360SOL    HW113979   1.662   3.619   3.880
 4360SOL    HW213980   1.635   3.778   3.906
 4361SOL     OW13981   6.606   1.867   0.639
 4361SOL    HW113982   6.636   1.959   0.615
 4361SOL    HW213983   6.558   1.827   0.561
 4362SOL     OW13984   1.262   5.628   3.584
 4362SOL    HW113985   1.265   5.539   3.631
 4362SOL    HW213986   1.241   5.614   3.487
 4363SOL     OW13987   4.661   1.668   2.534
 4363SOL    HW113988   4.695   1.717   2.614
 4363SOL    HW213989   4.562   1.655   2.542
 4364SOL     OW13990   3.833   3.660   2.780
 4364SOL    HW113991   3.790   3.570   2.790
 4364SOL    HW213992   3.831   3.707   2.869
 4365SOL     OW13993   2.743   2.051   1.364
 4365SOL    HW113994   2.775   2.047   1.459
 4365SOL    HW213995   2.758   1.962   1.321
 4366SOL     OW13996   4.342   5.933   4.726
 4366SOL    HW113997   4.341   5.843   4.770
 4366SOL    HW213998   4.433   5.949   4.686
 4367SOL     OW13999   2.591   5.317   3.510
 4367SOL    HW114000   2.605   5.231   3.558
 4367SOL    HW214001   2.636   5.391   3.560
 4368SOL     OW14002   4.693   4.364   2.958
 4368SOL    HW114003   4.695   4.310   2.874
 4368SOL    HW214004   4.679   4.461   2.934
 4369SOL     OW14005   4.153   4.844   3.155
 4369SOL    HW114006   4.078   4.834   3.220
 4369SOL    HW214007   4.122   4.815   3.064
 4370SOL     OW14008   3.747   4.212   1.646
 4370SOL    HW114009   3.666   4.257   1.607
 4370SOL    HW214010   3.777   4.263   1.726
 4371SOL     OW14011   3.011   1.697   0.865
 4371SOL    HW114012   3.027   1.767   0.796
 4371SOL    HW214013   2.993   1.610   0.820
 4372SOL     OW14014   1.970   3.052   4.482
 4372SOL    HW114015   2.026   3.045   4.400
 4372SOL    HW214016   2.030   3.056   4.562
 4373SOL     OW14017   4.157   1.604   5.492
 4373SOL    HW114018   4.186   1.678   5.431
 4373SOL    HW214019   4.159   1.636   5.587
 4374SOL     OW14020   2.435   1.309   1.585
 4374SOL    HW114021   2.510   1.354   1.538
 4374SOL    HW214022   2.358   1.296   1.522
 4375SOL     OW14023   4.766   1.290   3.550
 4375SOL    HW114024   4.840   1.245   3.499
 4375SOL    HW214025   4.753   1.382   3.515
 4376SOL     OW14026   1.142   6.460   0.637
 4376SOL    HW114027   1.166   6.413   0.722
 4376SOL    HW214028   1.042   6.466   0.630
 4377SOL     OW14029   6.081   6.893   6.538
 4377SOL    HW114030   6.142   6.816   6.518
 4377SOL    HW214031   5.986   6.864   6.527
 4378SOL     OW14032   2.007   5.814   2.572
 4378SOL    HW114033   1.929   5.799   2.633
 4378SOL    HW214034   2.068   5.882   2.612
 4379SOL     OW14035   1.233   0.762   2.108
 4379SOL    HW114036   1.287   0.732   2.187
 4379SOL    HW214037   1.286   0.827   2.054
 4380SOL     OW14038   1.885   5.562   5.391
 4380SOL    HW114039   1.974   5.583   5.350
 4380SOL    HW214040   1.840   5.647   5.417
 4381SOL     OW14041   4.177   6.081   4.887
 4381SOL    HW114042   4.244   6.022   4.842
 4381SOL    HW214043   4.221   6.167   4.914
 4382SOL     OW14044   4.809   3.879   3.211
 4382SOL    HW114045   4.816   3.978   3.227
 4382SOL    HW214046   4.722   3.858   3.167
 4383SOL     OW14047   0.740   3.096   6.558
 4383SOL    HW114048   0.803   3.061   6.627
 4383SOL    HW214049   0.788   3.159   6.498
 4384SOL     OW14050   4.219   5.857   0.769
 4384SOL    HW114051   4.213   5.783   0.835
 4384SOL    HW214052   4.235   5.944   0.817
 4385SOL     OW14053   0.295   1.612   2.640
 4385SOL    HW114054   0.328   1.623   2.546
 4385SOL    HW214055   0.365   1.644   2.704
 4386SOL     OW14056   1.088   3.279   6.936
 4386SOL    HW114057   1.123   3.273   6.842
 4386SOL    HW214058   1.074   3.186   6.971
 4387SOL     OW14059   0.155   3.236   1.877
 4387SOL    HW114060   0.185   3.270   1.966
 4387SOL    HW214061   0.234   3.201   1.826
 4388SOL     OW14062   3.379   1.022   5.553
 4388SOL    HW114063   3.442   1.082   5.602
 4388SOL    HW214064   3.331   1.074   5.482
 4389SOL     OW14065   5.085   2.416   2.989
 4389SOL    HW114066   5.093   2.370   3.077
 4389SOL    HW214067   5.034   2.501   3.001
 4390SOL     OW14068   4.665   2.742   2.074
 4390SOL    HW114069   4.606   2.722   1.996
 4390SOL    HW214070   4.693   2.838   2.070
 4391SOL     OW14071   1.066   5.636   0.661
 4391SOL    HW114072   1.012   5.556   0.636
 4391SOL    HW214073   1.163   5.616   0.647
 4392SOL     OW14074   5.187   3.077   4.413
 4392SOL    HW114075   5.211   3.142   4.485
 4392SOL    HW214076   5.094   3.043   4.429
 4393SOL     OW14077   4.912   6.485   3.223
 4393SOL    HW114078   4.842   6.474   3.294
 4393SOL    HW214079   4.884   6.556   3.159
 4394SOL     OW14080   5.155   0.102   2.293
 4394SOL    HW114081   5.178   0.032   2.226
 4394SOL    HW214082   5.221   0.098   2.369
 4395SOL     OW14083   5.300   1.788   2.434
 4395SOL    HW114084   5.361   1.833   2.499
 4395SOL    HW214085   5.254   1.856   2.377
 4396SOL     OW14086   1.365   0.489   4.025
 4396SOL    HW114087   1.348   0.516   3.930
 4396SOL    HW214088   1.441   0.542   4.062
 4397SOL     OW14089   6.588   0.474   5.491
 4397SOL    HW114090   6.618   0.536   5.563
 4397SOL    HW214091   6.505   0.509   5.449
 4398SOL     OW14092   0.265   4.562   4.351
 4398SOL    HW114093   0.321   4.568   4.269
 4398SOL    HW214094   0.278   4.644   4.407
 4399SOL     OW14095   2.679   1.408   1.512
 4399SOL    HW114096   2.764   1.460   1.496
 4399SOL    HW214097   2.680   1.373   1.606
 4400SOL     OW14098   3.576   6.700   4.921
 4400SOL    HW114099   3.676   6.705   4.912
 4400SOL    HW214100   3.535   6.779   4.876
 4401SOL     OW14101   5.635   6.005   4.131
 4401SOL    HW114102   5.732   6.006   4.105
 4401SOL    HW214103   5.591   6.089   4.098
 4402SOL     OW14104   0.277   6.761   2.786
 4402SOL    HW114105   0.182   6.744   2.810
 4402SOL    HW214106   0.290   6.743   2.688
 4403SOL     OW14107   0.648   0.273   3.466
 4403SOL    HW114108   0.716   0.343   3.489
 4403SOL    HW214109   0.560   0.297   3.507
 4404SOL     OW14110   1.249   3.770   3.429
 4404SOL    HW114111   1.303   3.763   3.513
 4404SOL    HW214112   1.153   3.787   3.453
 4405SOL     OW14113   3.125   4.397   5.608
 4405SOL    HW114114   3.160   4.489   5.627
 4405SOL    HW214115   3.177   4.357   5.533
 4406SOL     OW14116   5.333   3.791   1.226
 4406SOL    HW114117   5.354   3.757   1.135
 4406SOL    HW214118   5.326   3.891   1.223
 4407SOL     OW14119   6.028   6.939   0.062
 4407SOL    HW114120   6.065   7.003   7.018
 4407SOL    HW214121   6.022   6.848   0.022
 4408SOL     OW14122   4.345   5.746   6.695
 4408SOL    HW114123   4.368   5.758   6.599
 4408SOL    HW214124   4.284   5.668   6.705
 4409SOL     OW14125   3.510   1.270   1.578
 4409SOL    HW114126   3.497   1.354   1.630
 4409SOL    HW214127   3.516   1.292   1.481
 4410SOL     OW14128   2.708   5.475   2.065
 4410SOL    HW114129   2.668   5.554   2.019
 4410SOL    HW214130   2.651   5.394   2.047
 4411SOL     OW14131   3.996   3.289   2.769
 4411SOL    HW114132   3.976   3.213   2.707
 4411SOL    HW214133   4.059   3.353   2.725
 4412SOL     OW14134   3.791   1.894   6.466
 4412SOL    HW114135   3.792   1.835   6.546
 4412SOL    HW214136   3.803   1.989   6.495
 4413SOL     OW14137   4.322   6.273   4.484
 4413SOL    HW114138   4.271   6.206   4.537
 4413SOL    HW214139   4.400   6.228   4.440
 4414SOL     OW14140   3.749   4.750   1.641
 4414SOL    HW114141   3.801   4.815   1.696
 4414SOL    HW214142   3.692   4.693   1.700
 4415SOL     OW14143   5.367   2.664   0.164
 4415SOL    HW114144   5.419   2.700   0.242
 4415SOL    HW214145   5.270   2.661   0.188
 4416SOL     OW14146   3.961   0.629   3.501
 4416SOL    HW114147   4.056   0.616   3.531
 4416SOL    HW214148   3.949   0.724   3.473
 4417SOL     OW14149   0.032   6.629   2.140
 4417SOL    HW114150   0.100   6.558   2.156
 4417SOL    HW214151   0.078   6.713   2.111
 4418SOL     OW14152   4.330   7.007   3.140
 4418SOL    HW114153   4.263   0.011   3.208
 4418SOL    HW214154   4.422   7.009   3.179
 4419SOL     OW14155   0.288   4.848   6.562
 4419SOL    HW114156   0.191   4.862   6.582
 4419SOL    HW214157   0.338   4.843   6.649
 4420SOL     OW14158   5.134   2.001   6.520
 4420SOL    HW114159   5.069   1.952   6.578
 4420SOL    HW214160   5.105   2.096   6.510
 4421SOL     OW14161   1.682   1.680   4.087
 4421SOL    HW114162   1.778   1.699   4.065
 4421SOL    HW214163   1.664   1.583   4.075
 4422SOL     OW14164   2.217   3.629   5.929
 4422SOL    HW114165   2.249   3.698   5.993
 4422SOL    HW214166   2.256   3.647   5.839
 4423SOL     OW14167   1.078   1.895   6.562
 4423SOL    HW114168   1.024   1.818   6.595
 4423SOL    HW214169   1.139   1.927   6.635
 4424SOL     OW14170   6.515   0.310   2.954
 4424SOL    HW114171   6.461   0.236   2.913
 4424SOL    HW214172   6.468   0.397   2.938
 4425SOL     OW14173   4.748   4.785   6.416
 4425SOL    HW114174   4.696   4.843   6.478
 4425SOL    HW214175   4.836   4.828   6.394
 4426SOL     OW14176   0.686   0.331   6.251
 4426SOL    HW114177   0.637   0.393   6.190
 4426SOL    HW214178   0.763   0.289   6.203
 4427SOL     OW14179   0.891   0.397   3.547
 4427SOL    HW114180   0.926   0.466   3.484
 4427SOL    HW214181   0.943   0.312   3.536
 4428SOL     OW14182   2.327   5.463   3.166
 4428SOL    HW114183   2.385   5.543   3.183
 4428SOL    HW214184   2.372   5.382   3.204
 4429SOL     OW14185   4.196   6.925   2.894
 4429SOL    HW114186   4.280   6.943   2.944
 4429SOL    HW214187   4.118   6.933   2.956
 4430SOL     OW14188   1.941   1.195   2.058
 4430SOL    HW114189   2.005   1.215   2.132
 4430SOL    HW214190   1.979   1.123   2.000
 4431SOL     OW14191   2.158   2.328   2.962
 4431SOL    HW114192   2.059   2.318   2.963
 4431SOL    HW214193   2.188   2.367   3.050
 4432SOL     OW14194   3.064   3.934   2.993
 4432SOL    HW114195   3.039   3.975   3.080
 4432SOL    HW214196   3.160   3.905   2.996
 4433SOL     OW14197   6.556   6.958   2.624
 4433SOL    HW114198   6.637   7.016   2.617
 4433SOL    HW214199   6.506   6.981   2.708
 4434SOL     OW14200   6.037   2.320   4.423
 4434SOL    HW114201   6.121   2.268   4.409
 4434SOL    HW214202   6.052   2.416   4.398
 4435SOL     OW14203   3.286   2.858   1.501
 4435SOL    HW114204   3.348   2.925   1.460
 4435SOL    HW214205   3.339   2.785   1.544
 4436SOL     OW14206   4.773   2.029   6.580
 4436SOL    HW114207   4.810   1.948   6.624
 4436SOL    HW214208   4.825   2.110   6.609
 4437SOL     OW14209   3.618   0.775   4.824
 4437SOL    HW114210   3.711   0.785   4.859
 4437SOL    HW214211   3.555   0.827   4.882
 4438SOL     OW14212   4.357   2.861   6.703
 4438SOL    HW114213   4.359   2.762   6.714
 4438SOL    HW214214   4.355   2.905   6.792
 4439SOL     OW14215   2.171   6.218   2.157
 4439SOL    HW114216   2.159   6.198   2.255
 4439SOL    HW214217   2.191   6.315   2.146
 4440SOL     OW14218   0.898   6.764   6.464
 4440SOL    HW114219   0.856   6.832   6.524
 4440SOL    HW214220   0.834   6.741   6.391
 4441SOL     OW14221   6.101   2.673   3.023
 4441SOL    HW114222   6.110   2.585   2.975
 4441SOL    HW214223   6.037   2.732   2.972
 4442SOL     OW14224   2.913   6.717   2.857
 4442SOL    HW114225   2.855   6.797   2.840
 4442SOL    HW214226   2.909   6.656   2.778
 4443SOL     OW14227   2.604   1.761   5.313
 4443SOL    HW114228   2.647   1.824   5.377
 4443SOL    HW214229   2.631   1.785   5.220
 4444SOL     OW14230   5.511   0.893   1.339
 4444SOL    HW114231   5.425   0.867   1.383
 4444SOL    HW214232   5.554   0.966   1.392
 4445SOL     OW14233   1.262   1.105   6.364
 4445SOL    HW114234   1.310   1.141   6.285
 4445SOL    HW214235   1.260   1.005   6.360
 4446SOL     OW14236   6.387   0.048   2.828
 4446SOL    HW114237   6.299   0.018   2.792
 4446SOL    HW214238   6.416   7.009   2.901
 4447SOL     OW14239   5.529   2.577   5.615
 4447SOL    HW114240   5.524   2.503   5.682
 4447SOL    HW214241   5.625   2.603   5.602
 4448SOL     OW14242   2.518   3.539   6.619
 4448SOL    HW114243   2.493   3.456   6.668
 4448SOL    HW214244   2.475   3.618   6.663
 4449SOL     OW14245   1.212   1.140   5.226
 4449SOL    HW114246   1.225   1.043   5.247
 4449SOL    HW214247   1.188   1.189   5.310
 4450SOL     OW14248   3.702   3.657   3.256
 4450SOL    HW114249   3.740   3.682   3.345
 4450SOL    HW214250   3.630   3.722   3.231
 4451SOL     OW14251   6.328   4.290   2.376
 4451SOL    HW114252   6.258   4.220   2.393
 4451SOL    HW214253   6.300   4.375   2.422
 4452SOL     OW14254   6.307   6.115   6.760
 4452SOL    HW114255   6.215   6.078   6.772
 4452SOL    HW214256   6.306   6.214   6.778
 4453SOL     OW14257   5.569   2.382   1.136
 4453SOL    HW114258   5.612   2.394   1.046
 4453SOL    HW214259   5.516   2.464   1.158
 4454SOL     OW14260   5.362   3.296   1.651
 4454SOL    HW114261   5.285   3.248   1.609
 4454SOL    HW214262   5.412   3.346   1.581
 4455SOL     OW14263   3.917   1.249   2.175
 4455SOL    HW114264   3.925   1.213   2.081
 4455SOL    HW214265   4.001   1.229   2.225
 4456SOL     OW14266   1.146   5.611   3.029
 4456SOL    HW114267   1.134   5.596   2.930
 4456SOL    HW214268   1.062   5.586   3.077
 4457SOL     OW14269   5.265   2.401   6.405
 4457SOL    HW114270   5.345   2.369   6.455
 4457SOL    HW214271   5.289   2.413   6.308
 4458SOL     OW14272   3.829   2.242   5.825
 4458SOL    HW114273   3.746   2.297   5.828
 4458SOL    HW214274   3.907   2.301   5.804
 4459SOL     OW14275   4.831   6.326   4.701
 4459SOL    HW114276   4.827   6.385   4.782
 4459SOL    HW214277   4.924   6.290   4.691
 4460SOL     OW14278   2.356   1.795   6.224
 4460SOL    HW114279   2.280   1.850   6.259
 4460SOL    HW214280   2.431   1.796   6.291
 4461SOL     OW14281   2.317   0.295   2.192
 4461SOL    HW114282   2.225   0.257   2.184
 4461SOL    HW214283   2.326   0.375   2.131
 4462SOL     OW14284   0.228   5.303   1.676
 4462SOL    HW114285   0.296   5.258   1.619
 4462SOL    HW214286   0.271   5.339   1.759
 4463SOL     OW14287   1.234   3.792   6.098
 4463SOL    HW114288   1.290   3.730   6.043
 4463SOL    HW214289   1.195   3.743   6.175
 4464SOL     OW14290   5.649   3.165   6.562
 4464SOL    HW114291   5.646   3.240   6.496
 4464SOL    HW214292   5.558   3.123   6.569
 4465SOL     OW14293   1.424   6.673   2.354
 4465SOL    HW114294   1.363   6.609   2.308
 4465SOL    HW214295   1.493   6.623   2.406
 4466SOL     OW14296   0.830   2.075   3.498
 4466SOL    HW114297   0.791   2.094   3.407
 4466SOL    HW214298   0.826   2.157   3.554
 4467SOL     OW14299   1.105   6.793   3.378
 4467SOL    HW114300   1.175   6.802   3.448
 4467SOL    HW214301   1.058   6.881   3.367
 4468SOL     OW14302   1.246   2.398   0.660
 4468SOL    HW114303   1.218   2.364   0.570
 4468SOL    HW214304   1.329   2.453   0.651
 4469SOL     OW14305   3.840   0.481   0.395
 4469SOL    HW114306   3.797   0.392   0.400
 4469SOL    HW214307   3.911   0.480   0.324
 4470SOL     OW14308   4.899   4.466   0.949
 4470SOL    HW114309   4.937   4.437   0.861
 4470SOL    HW214310   4.926   4.560   0.967
 4471SOL     OW14311   6.223   3.294   1.185
 4471SOL    HW114312   6.206   3.222   1.251
 4471SOL    HW214313   6.308   3.342   1.208
 4472SOL     OW14314   1.465   4.166   2.549
 4472SOL    HW114315   1.484   4.174   2.646
 4472SOL    HW214316   1.401   4.091   2.533
 4473SOL     OW14317   0.286   6.509   4.419
 4473SOL    HW114318   0.253   6.603   4.409
 4473SOL    HW214319   0.221   6.446   4.378
 4474SOL     OW14320   4.587   0.372   2.836
 4474SOL    HW114321   4.606   0.436   2.911
 4474SOL    HW214322   4.533   0.295   2.871
 4475SOL     OW14323   1.946   3.986   0.328
 4475SOL    HW114324   2.039   4.024   0.335
 4475SOL    HW214325   1.880   4.055   0.358
 4476SOL     OW14326   5.012   6.256   1.884
 4476SOL    HW114327   4.915   6.233   1.894
 4476SOL    HW214328   5.042   6.309   1.963
 4477SOL     OW14329   1.329   1.430   0.892
 4477SOL    HW114330   1.426   1.410   0.879
 4477SOL    HW214331   1.277   1.395   0.814
 4478SOL     OW14332   2.215   6.166   1.764
 4478SOL    HW114333   2.189   6.174   1.668
 4478SOL    HW214334   2.286   6.233   1.785
 4479SOL     OW14335   0.912   7.014   5.792
 4479SOL    HW114336   0.957   0.078   5.774
 4479SOL    HW214337   0.929   6.951   5.716
 4480SOL     OW14338   0.610   5.086   3.725
 4480SOL    HW114339   0.545   5.026   3.678
 4480SOL    HW214340   0.635   5.045   3.813
 4481SOL     OW14341   1.313   6.325   4.318
 4481SOL    HW114342   1.226   6.364   4.290
 4481SOL    HW214343   1.375   6.399   4.345
 4482SOL     OW14344   0.079   4.407   4.003
 4482SOL    HW114345   0.035   4.457   4.077
 4482SOL    HW214346   0.096   4.313   4.031
 4483SOL     OW14347   5.411   2.872   2.169
 4483SOL    HW114348   5.325   2.875   2.219
 4483SOL    HW214349   5.463   2.956   2.187
 4484SOL     OW14350   4.489   2.903   5.594
 4484SOL    HW114351   4.400   2.879   5.555
 4484SOL    HW214352   4.516   2.834   5.661
 4485SOL     OW14353   5.333   1.855   6.719
 4485SOL    HW114354   5.347   1.879   6.623
 4485SOL    HW214355   5.347   1.757   6.731
 4486SOL     OW14356   6.045   3.031   4.357
 4486SOL    HW114357   6.013   3.072   4.272
 4486SOL    HW214358   5.970   2.983   4.401
 4487SOL     OW14359   3.014   2.813   6.296
 4487SOL    HW114360   2.959   2.874   6.354
 4487SOL    HW214361   3.110   2.818   6.324
 4488SOL     OW14362   0.130   1.118   4.368
 4488SOL    HW114363   0.084   1.106   4.281
 4488SOL    HW214364   0.182   1.035   4.390
 4489SOL     OW14365   6.341   6.869   4.443
 4489SOL    HW114366   6.354   6.775   4.412
 4489SOL    HW214367   6.268   6.912   4.389
 4490SOL     OW14368   6.598   1.798   2.800
 4490SOL    HW114369   6.669   1.800   2.870
 4490SOL    HW214370   6.516   1.755   2.838
 4491SOL     OW14371   1.023   3.249   2.961
 4491SOL    HW114372   0.976   3.197   2.890
 4491SOL    HW214373   0.968   3.247   3.045
 4492SOL     OW14374   4.794   3.393   6.857
 4492SOL    HW114375   4.800   3.312   6.799
 4492SOL    HW214376   4.803   3.366   6.953
 4493SOL     OW14377   5.678   4.939   4.679
 4493SOL    HW114378   5.729   5.022   4.656
 4493SOL    HW214379   5.679   4.926   4.778
 4494SOL     OW14380   5.820   4.007   4.823
 4494SOL    HW114381   5.820   3.915   4.785
 4494SOL    HW214382   5.735   4.053   4.800
 4495SOL     OW14383   5.027   6.375   1.238
 4495SOL    HW114384   4.937   6.332   1.231
 4495SOL    HW214385   5.059   6.371   1.332
 4496SOL     OW14386   4.878   3.926   5.185
 4496SOL    HW114387   4.964   3.921   5.134
 4496SOL    HW214388   4.861   3.839   5.230
 4497SOL     OW14389   6.369   4.744   0.553
 4497SOL    HW114390   6.432   4.716   0.481
 4497SOL    HW214391   6.285   4.690   0.547
 4498SOL     OW14392   6.701   3.573   0.128
 4498SOL    HW114393   6.717   3.475   0.134
 4498SOL    HW214394   6.611   3.591   0.090
 4499SOL     OW14395   6.828   2.597   5.940
 4499SOL    HW114396   6.829   2.694   5.917
 4499SOL    HW214397   6.900   2.577   6.006
 4500SOL     OW14398   3.170   4.072   4.880
 4500SOL    HW114399   3.226   4.098   4.802
 4500SOL    HW214400   3.130   3.982   4.865
 4501SOL     OW14401   0.119   4.444   5.409
 4501SOL    HW114402   0.218   4.459   5.410
 4501SOL    HW214403   0.082   4.469   5.320
 4502SOL     OW14404   0.309   2.571   0.534
 4502SOL    HW114405   0.363   2.612   0.607
 4502SOL    HW214406   0.370   2.535   0.464
 4503SOL     OW14407   1.202   1.695   4.058
 4503SOL    HW114408   1.118   1.641   4.057
 4503SOL    HW214409   1.213   1.741   3.970
 4504SOL     OW14410   5.196   1.995   4.107
 4504SOL    HW114411   5.207   2.065   4.036
 4504SOL    HW214412   5.131   2.026   4.176
 4505SOL     OW14413   1.746   6.579   5.906
 4505SOL    HW114414   1.839   6.613   5.919
 4505SOL    HW214415   1.746   6.479   5.912
 4506SOL     OW14416   4.511   0.237   5.258
 4506SOL    HW114417   4.415   0.227   5.232
 4506SOL    HW214418   4.553   0.308   5.201
 4507SOL     OW14419   6.145   4.597   0.480
 4507SOL    HW114420   6.125   4.526   0.547
 4507SOL    HW214421   6.061   4.625   0.434
 4508SOL     OW14422   0.904   3.867   0.266
 4508SOL    HW114423   0.983   3.872   0.327
 4508SOL    HW214424   0.929   3.899   0.175
 4509SOL     OW14425   2.583   1.765   3.872
 4509SOL    HW114426   2.568   1.720   3.960
 4509SOL    HW214427   2.680   1.789   3.863
 4510SOL     OW14428   4.293   6.372   4.970
 4510SOL    HW114429   4.308   6.452   5.028
 4510SOL    HW214430   4.343   6.384   4.884
 4511SOL     OW14431   6.064   2.497   0.606
 4511SOL    HW114432   6.115   2.427   0.656
 4511SOL    HW214433   6.122   2.535   0.534
 4512SOL     OW14434   3.222   5.643   6.747
 4512SOL    HW114435   3.221   5.743   6.757
 4512SOL    HW214436   3.294   5.605   6.806
 4513SOL     OW14437   4.875   1.008   1.704
 4513SOL    HW114438   4.970   0.984   1.686
 4513SOL    HW214439   4.852   0.988   1.799
 4514SOL     OW14440   3.240   1.342   5.143
 4514SOL    HW114441   3.219   1.263   5.201
 4514SOL    HW214442   3.334   1.371   5.159
 4515SOL     OW14443   0.514   5.202   1.154
 4515SOL    HW114444   0.524   5.110   1.193
 4515SOL    HW214445   0.507   5.195   1.055
 4516SOL     OW14446   0.734   0.617   5.265
 4516SOL    HW114447   0.700   0.583   5.177
 4516SOL    HW214448   0.806   0.555   5.298
 4517SOL     OW14449   3.373   6.880   5.257
 4517SOL    HW114450   3.336   6.927   5.177
 4517SOL    HW214451   3.435   6.942   5.306
 4518SOL     OW14452   1.380   2.178   4.577
 4518SOL    HW114453   1.413   2.241   4.507
 4518SOL    HW214454   1.285   2.200   4.600
 4519SOL     OW14455   0.022   2.933   3.688
 4519SOL    HW114456   0.030   2.987   3.772
 4519SOL    HW214457   6.972   2.866   3.698
 4520SOL     OW14458   6.958   3.873   3.250
 4520SOL    HW114459   6.977   3.879   3.348
 4520SOL    HW214460   6.859   3.869   3.235
 4521SOL     OW14461   5.631   2.151   0.017
 4521SOL    HW114462   5.661   2.245   0.002
 4521SOL    HW214463   5.679   2.112   0.095
 4522SOL     OW14464   5.928   0.264   4.107
 4522SOL    HW114465   5.908   0.355   4.070
 4522SOL    HW214466   5.858   0.240   4.175
 4523SOL     OW14467   3.377   4.062   0.070
 4523SOL    HW114468   3.290   4.108   0.055
 4523SOL    HW214469   3.450   4.131   0.076
 4524SOL     OW14470   5.561   0.128   4.677
 4524SOL    HW114471   5.647   0.091   4.641
 4524SOL    HW214472   5.489   0.060   4.667
 4525SOL     OW14473   6.433   1.636   5.443
 4525SOL    HW114474   6.427   1.716   5.503
 4525SOL    HW214475   6.480   1.662   5.358
 4526SOL     OW14476   4.886   6.754   0.738
 4526SOL    HW114477   4.825   6.798   0.804
 4526SOL    HW214478   4.898   6.813   0.659
 4527SOL     OW14479   4.852   0.846   2.715
 4527SOL    HW114480   4.825   0.934   2.677
 4527SOL    HW214481   4.930   0.858   2.777
 4528SOL     OW14482   5.756   0.259   0.299
 4528SOL    HW114483   5.678   0.273   0.361
 4528SOL    HW214484   5.749   0.324   0.222
 4529SOL     OW14485   3.904   6.437   3.085
 4529SOL    HW114486   3.904   6.337   3.086
 4529SOL    HW214487   3.811   6.470   3.070
 4530SOL     OW14488   0.635   3.468   5.634
 4530SOL    HW114489   0.685   3.547   5.668
 4530SOL    HW214490   0.585   3.424   5.709
 4531SOL     OW14491   0.321   3.602   4.133
 4531SOL    HW114492   0.261   3.596   4.053
 4531SOL    HW214493   0.304   3.524   4.193
 4532SOL     OW14494   6.342   1.481   0.778
 4532SOL    HW114495   6.427   1.433   0.802
 4532SOL    HW214496   6.331   1.481   0.679
 4533SOL     OW14497   2.333   5.681   2.664
 4533SOL    HW114498   2.412   5.739   2.681
 4533SOL    HW214499   2.310   5.632   2.748
 4534SOL     OW14500   5.920   3.461   5.026
 4534SOL    HW114501   5.918   3.372   5.071
 4534SOL    HW214502   5.956   3.450   4.933
 4535SOL     OW14503   4.987   3.143   1.931
 4535SOL    HW114504   5.064   3.099   1.977
 4535SOL    HW214505   4.903   3.095   1.954
 4536SOL     OW14506   6.354   0.757   4.631
 4536SOL    HW114507   6.293   0.678   4.632
 4536SOL    HW214508   6.383   0.777   4.724
 4537SOL     OW14509   3.554   2.877   6.761
 4537SOL    HW114510   3.542   2.912   6.853
 4537SOL    HW214511   3.584   2.781   6.765
 4538SOL     OW14512   3.031   1.340   2.977
 4538SOL    HW114513   2.953   1.306   3.029
 4538SOL    HW214514   3.053   1.277   2.903
 4539SOL     OW14515   2.030   1.725   2.978
 4539SOL    HW114516   1.960   1.761   2.917
 4539SOL    HW214517   2.056   1.632   2.950
 4540SOL     OW14518   3.759   3.266   4.305
 4540SOL    HW114519   3.841   3.261   4.362
 4540SOL    HW214520   3.735   3.362   4.290
 4541SOL     OW14521   4.685   1.903   1.141
 4541SOL    HW114522   4.680   1.988   1.088
 4541SOL    HW214523   4.779   1.868   1.140
 4542SOL     OW14524   5.560   0.143   2.419
 4542SOL    HW114525   5.519   0.165   2.331
 4542SOL    HW214526   5.503   0.076   2.467
 4543SOL     OW14527   5.319   1.412   1.067
 4543SOL    HW114528   5.401   1.376   1.024
 4543SOL    HW214529   5.328   1.511   1.080
 4544SOL     OW14530   3.244   5.192   6.468
 4544SOL    HW114531   3.169   5.198   6.401
 4544SOL    HW214532   3.323   5.147   6.425
 4545SOL     OW14533   3.840   2.180   5.549
 4545SOL    HW114534   3.821   2.195   5.646
 4545SOL    HW214535   3.885   2.092   5.536
 4546SOL     OW14536   1.407   6.296   6.417
 4546SOL    HW114537   1.471   6.219   6.424
 4546SOL    HW214538   1.380   6.326   6.508
 4547SOL     OW14539   5.076   2.133   1.685
 4547SOL    HW114540   5.079   2.125   1.585
 4547SOL    HW214541   5.012   2.066   1.722
 4548SOL     OW14542   1.162   4.165   3.521
 4548SOL    HW114543   1.071   4.150   3.481
 4548SOL    HW214544   1.184   4.262   3.518
 4549SOL     OW14545   6.599   2.960   2.300
 4549SOL    HW114546   6.515   2.952   2.246
 4549SOL    HW214547   6.625   2.869   2.332
 4550SOL     OW14548   1.369   5.527   4.148
 4550SOL    HW114549   1.271   5.513   4.158
 4550SOL    HW214550   1.386   5.600   4.082
 4551SOL     OW14551   0.688   2.530   6.145
 4551SOL    HW114552   0.599   2.560   6.180
 4551SOL    HW214553   0.693   2.430   6.148
 4552SOL     OW14554   0.380   3.287   4.719
 4552SOL    HW114555   0.446   3.338   4.775
 4552SOL    HW214556   0.329   3.350   4.661
 4553SOL     OW14557   4.578   4.718   0.391
 4553SOL    HW114558   4.555   4.754   0.300
 4553SOL    HW214559   4.568   4.618   0.390
 4554SOL     OW14560   5.166   6.697   2.529
 4554SOL    HW114561   5.213   6.741   2.452
 4554SOL    HW214562   5.092   6.640   2.494
 4555SOL     OW14563   5.137   2.521   6.842
 4555SOL    HW114564   5.051   2.522   6.893
 4555SOL    HW214565   5.214   2.527   6.905
 4556SOL     OW14566   4.815   1.428   3.783
 4556SOL    HW114567   4.727   1.456   3.823
 4556SOL    HW214568   4.798   1.361   3.710
 4557SOL     OW14569   5.289   6.936   5.891
 4557SOL    HW114570   5.190   6.931   5.874
 4557SOL    HW214571   5.312   6.873   5.965
 4558SOL     OW14572   6.281   3.303   6.464
 4558SOL    HW114573   6.225   3.357   6.525
 4558SOL    HW214574   6.353   3.360   6.424
 4559SOL     OW14575   1.287   6.705   1.547
 4559SOL    HW114576   1.277   6.654   1.632
 4559SOL    HW214577   1.293   6.641   1.470
 4560SOL     OW14578   4.928   3.248   3.037
 4560SOL    HW114579   4.924   3.169   2.977
 4560SOL    HW214580   4.954   3.329   2.984
 4561SOL     OW14581   3.301   0.304   6.405
 4561SOL    HW114582   3.395   0.309   6.369
 4561SOL    HW214583   3.238   0.347   6.340
 4562SOL     OW14584   2.570   5.277   6.712
 4562SOL    HW114585   2.643   5.223   6.671
 4562SOL    HW214586   2.521   5.222   6.779
 4563SOL     OW14587   5.970   2.271   6.896
 4563SOL    HW114588   5.902   2.332   6.936
 4563SOL    HW214589   5.959   2.271   6.796
 4564SOL     OW14590   1.569   6.248   0.368
 4564SOL    HW114591   1.503   6.201   0.427
 4564SOL    HW214592   1.590   6.338   0.406
 4565SOL     OW14593   1.776   0.209   5.340
 4565SOL    HW114594   1.785   0.225   5.439
 4565SOL    HW214595   1.841   0.265   5.291
 4566SOL     OW14596   6.739   1.452   0.053
 4566SOL    HW114597   6.711   1.357   0.066
 4566SOL    HW214598   6.834   1.455   0.024
 4567SOL     OW14599   6.657   1.096   1.137
 4567SOL    HW114600   6.595   1.139   1.203
 4567SOL    HW214601   6.611   1.088   1.049
 4568SOL     OW14602   3.205   4.476   5.911
 4568SOL    HW114603   3.269   4.409   5.874
 4568SOL    HW214604   3.250   4.529   5.983
 4569SOL     OW14605   0.920   1.766   4.306
 4569SOL    HW114606   0.996   1.820   4.343
 4569SOL    HW214607   0.936   1.750   4.209
 4570SOL     OW14608   0.392   5.313   4.016
 4570SOL    HW114609   0.486   5.301   4.047
 4570SOL    HW214610   0.383   5.402   3.971
 4571SOL     OW14611   3.372   3.269   4.643
 4571SOL    HW114612   3.366   3.239   4.738
 4571SOL    HW214613   3.465   3.257   4.610
 4572SOL     OW14614   1.873   0.068   1.771
 4572SOL    HW114615   1.874   0.073   1.672
 4572SOL    HW214616   1.888   0.159   1.810
 4573SOL     OW14617   5.508   6.675   0.974
 4573SOL    HW114618   5.475   6.759   0.931
 4573SOL    HW214619   5.587   6.640   0.923
 4574SOL     OW14620   6.917   4.530   1.649
 4574SOL    HW114621   6.894   4.468   1.725
 4574SOL    HW214622   6.989   4.593   1.678
 4575SOL     OW14623   6.515   0.229   2.324
 4575SOL    HW114624   6.427   0.277   2.322
 4575SOL    HW214625   6.564   0.251   2.408
 4576SOL     OW14626   3.073   5.838   5.950
 4576SOL    HW114627   3.159   5.818   5.999
 4576SOL    HW214628   3.025   5.912   5.997
 4577SOL     OW14629   1.517   3.177   3.670
 4577SOL    HW114630   1.446   3.173   3.599
 4577SOL    HW214631   1.475   3.169   3.760
 4578SOL     OW14632   6.587   3.549   4.274
 4578SOL    HW114633   6.502   3.574   4.321
 4578SOL    HW214634   6.643   3.631   4.261
 4579SOL     OW14635   5.655   2.049   3.644
 4579SOL    HW114636   5.691   1.984   3.576
 4579SOL    HW214637   5.635   2.136   3.600
 4580SOL     OW14638   6.750   5.852   0.780
 4580SOL    HW114639   6.674   5.915   0.797
 4580SOL    HW214640   6.719   5.758   0.793
 4581SOL     OW14641   3.072   5.285   2.800
 4581SOL    HW114642   3.042   5.380   2.794
 4581SOL    HW214643   3.042   5.247   2.888
 4582SOL     OW14644   5.476   6.382   2.779
 4582SOL    HW114645   5.396   6.329   2.749
 4582SOL    HW214646   5.557   6.351   2.729
 4583SOL     OW14647   3.630   1.857   5.389
 4583SOL    HW114648   3.564   1.933   5.394
 4583SOL    HW214649   3.594   1.786   5.328
 4584SOL     OW14650   0.654   5.321   5.408
 4584SOL    HW114651   0.685   5.323   5.313
 4584SOL    HW214652   0.717   5.373   5.465
 4585SOL     OW14653   3.785   6.043   2.836
 4585SOL    HW114654   3.702   6.007   2.793
 4585SOL    HW214655   3.764   6.073   2.929
 4586SOL     OW14656   3.449   5.431   2.327
 4586SOL    HW114657   3.410   5.339   2.328
 4586SOL    HW214658   3.544   5.428   2.357
 4587SOL     OW14659   2.486   3.931   1.373
 4587SOL    HW114660   2.450   3.858   1.314
 4587SOL    HW214661   2.583   3.944   1.354
 4588SOL     OW14662   4.104   3.675   4.493
 4588SOL    HW114663   4.084   3.714   4.582
 4588SOL    HW214664   4.068   3.735   4.421
 4589SOL     OW14665   6.541   2.039   4.435
 4589SOL    HW114666   6.637   2.049   4.407
 4589SOL    HW214667   6.527   2.087   4.522
 4590SOL     OW14668   4.115   5.177   2.505
 4590SOL    HW114669   4.142   5.110   2.574
 4590SOL    HW214670   4.160   5.264   2.524
 4591SOL     OW14671   5.694   5.949   5.461
 4591SOL    HW114672   5.675   5.941   5.559
 4591SOL    HW214673   5.630   5.892   5.410
 4592SOL     OW14674   3.840   2.422   6.493
 4592SOL    HW114675   3.855   2.511   6.450
 4592SOL    HW214676   3.875   2.349   6.434
 4593SOL     OW14677   3.778   6.260   2.648
 4593SOL    HW114678   3.782   6.348   2.694
 4593SOL    HW214679   3.817   6.189   2.707
 4594SOL     OW14680   2.125   1.538   2.257
 4594SOL    HW114681   2.030   1.514   2.277
 4594SOL    HW214682   2.186   1.468   2.296
 4595SOL     OW14683   3.807   3.340   6.101
 4595SOL    HW114684   3.844   3.281   6.029
 4595SOL    HW214685   3.819   3.436   6.074
 4596SOL     OW14686   5.493   0.202   1.808
 4596SOL    HW114687   5.548   0.260   1.868
 4596SOL    HW214688   5.397   0.211   1.832
 4597SOL     OW14689   5.543   4.255   6.804
 4597SOL    HW114690   5.475   4.184   6.820
 4597SOL    HW214691   5.615   4.249   6.872
 4598SOL     OW14692   2.330   4.912   6.767
 4598SOL    HW114693   2.412   4.855   6.758
 4598SOL    HW214694   2.305   4.950   6.678
 4599SOL     OW14695   1.727   4.402   0.749
 4599SOL    HW114696   1.814   4.407   0.700
 4599SOL    HW214697   1.743   4.407   0.847
 4600SOL     OW14698   2.876   5.526   1.274
 4600SOL    HW114699   2.905   5.596   1.340
 4600SOL    HW214700   2.929   5.535   1.190
 4601SOL     OW14701   1.699   6.807   5.459
 4601SOL    HW114702   1.694   6.861   5.543
 4601SOL    HW214703   1.660   6.860   5.384
 4602SOL     OW14704   1.819   0.680   2.031
 4602SOL    HW114705   1.868   0.620   2.094
 4602SOL    HW214706   1.871   0.689   1.946
 4603SOL     OW14707   3.530   0.077   1.153
 4603SOL    HW114708   3.476   0.049   1.232
 4603SOL    HW214709   3.619   0.112   1.183
 4604SOL     OW14710   3.445   6.754   2.015
 4604SOL    HW114711   3.503   6.740   1.935
 4604SOL    HW214712   3.476   6.835   2.065
 4605SOL     OW14713   5.302   6.863   4.814
 4605SOL    HW114714   5.401   6.853   4.802
 4605SOL    HW214715   5.272   6.946   4.768
 4606SOL     OW14716   6.973   6.310   5.459
 4606SOL    HW114717   6.940   6.236   5.400
 4606SOL    HW214718   6.919   6.392   5.444
 4607SOL     OW14719   3.297   2.059   1.605
 4607SOL    HW114720   3.360   2.002   1.659
 4607SOL    HW214721   3.216   2.080   1.660
 4608SOL     OW14722   2.069   3.479   5.692
 4608SOL    HW114723   2.147   3.519   5.740
 4608SOL    HW214724   1.984   3.513   5.732
 4609SOL     OW14725   4.705   6.863   6.963
 4609SOL    HW114726   4.790   6.915   6.968
 4609SOL    HW214727   4.724   6.769   6.935
 4610SOL     OW14728   0.221   3.254   6.868
 4610SOL    HW114729   0.124   3.247   6.842
 4610SOL    HW214730   0.232   3.325   6.937
 4611SOL     OW14731   0.407   4.388   0.080
 4611SOL    HW114732   0.380   4.424   7.014
 4611SOL    HW214733   0.336   4.327   0.115
 4612SOL     OW14734   2.354   6.639   6.810
 4612SOL    HW114735   2.375   6.646   6.907
 4612SOL    HW214736   2.421   6.692   6.758
 4613SOL     OW14737   3.336   5.185   2.340
 4613SOL    HW114738   3.329   5.142   2.430
 4613SOL    HW214739   3.288   5.128   2.273
 4614SOL     OW14740   1.636   5.537   0.362
 4614SOL    HW114741   1.631   5.563   0.458
 4614SOL    HW214742   1.579   5.457   0.345
 4615SOL     OW14743   0.524   2.763   0.587
 4615SOL    HW114744   0.463   2.794   0.660
 4615SOL    HW214745   0.586   2.693   0.622
 4616SOL     OW14746   5.269   1.080   6.808
 4616SOL    HW114747   5.265   0.984   6.781
 4616SOL    HW214748   5.347   1.094   6.869
 4617SOL     OW14749   0.311   2.596   1.711
 4617SOL    HW114750   0.269   2.535   1.643
 4617SOL    HW214751   0.300   2.556   1.802
 4618SOL     OW14752   1.110   2.141   6.440
 4618SOL    HW114753   1.079   2.055   6.481
 4618SOL    HW214754   1.097   2.216   6.505
 4619SOL     OW14755   3.404   0.830   3.439
 4619SOL    HW114756   3.339   0.868   3.373
 4619SOL    HW214757   3.495   0.829   3.399
 4620SOL     OW14758   2.354   4.592   6.407
 4620SOL    HW114759   2.329   4.670   6.465
 4620SOL    HW214760   2.404   4.525   6.462
 4621SOL     OW14761   0.687   6.341   5.643
 4621SOL    HW114762   0.676   6.341   5.742
 4621SOL    HW214763   0.666   6.250   5.607
 4622SOL     OW14764   1.843   3.786   0.735
 4622SOL    HW114765   1.819   3.880   0.709
 4622SOL    HW214766   1.922   3.788   0.797
 4623SOL     OW14767   6.571   5.159   1.608
 4623SOL    HW114768   6.663   5.125   1.632
 4623SOL    HW214769   6.502   5.097   1.646
 4624SOL     OW14770   5.269   0.121   4.674
 4624SOL    HW114771   5.305   0.213   4.660
 4624SOL    HW214772   5.233   0.086   4.587
 4625SOL     OW14773   1.133   3.858   6.750
 4625SOL    HW114774   1.086   3.801   6.683
 4625SOL    HW214775   1.229   3.870   6.722
 4626SOL     OW14776   6.937   5.460   1.192
 4626SOL    HW114777   6.963   5.525   1.120
 4626SOL    HW214778   6.888   5.383   1.151
 4627SOL     OW14779   3.353   6.245   5.570
 4627SOL    HW114780   3.304   6.226   5.655
 4627SOL    HW214781   3.379   6.159   5.527
 4628SOL     OW14782   6.882   4.399   1.885
 4628SOL    HW114783   6.958   4.445   1.929
 4628SOL    HW214784   6.873   4.306   1.923
 4629SOL     OW14785   2.019   4.633   5.547
 4629SOL    HW114786   2.064   4.552   5.582
 4629SOL    HW214787   2.067   4.715   5.579
 4630SOL     OW14788   1.853   6.547   3.060
 4630SOL    HW114789   1.899   6.472   3.109
 4630SOL    HW214790   1.905   6.568   2.977
 4631SOL     OW14791   2.940   6.693   2.502
 4631SOL    HW114792   2.933   6.629   2.425
 4631SOL    HW214793   2.849   6.729   2.523
 4632SOL     OW14794   5.311   5.524   4.108
 4632SOL    HW114795   5.302   5.518   4.008
 4632SOL    HW214796   5.354   5.610   4.132
 4633SOL     OW14797   6.400   1.770   4.435
 4633SOL    HW114798   6.445   1.858   4.448
 4633SOL    HW214799   6.429   1.706   4.506
 4634SOL     OW14800   3.288   4.401   0.767
 4634SOL    HW114801   3.223   4.390   0.692
 4634SOL    HW214802   3.328   4.313   0.790
 4635SOL     OW14803   5.002   3.543   1.646
 4635SOL    HW114804   4.910   3.576   1.664
 4635SOL    HW214805   5.010   3.448   1.679
 4636SOL     OW14806   2.717   5.610   0.826
 4636SOL    HW114807   2.643   5.673   0.805
 4636SOL    HW214808   2.728   5.603   0.925
 4637SOL     OW14809   1.437   1.372   5.354
 4637SOL    HW114810   1.506   1.401   5.420
 4637SOL    HW214811   1.405   1.451   5.301
 4638SOL     OW14812   5.422   3.644   5.529
 4638SOL    HW114813   5.495   3.592   5.486
 4638SOL    HW214814   5.419   3.736   5.491
 4639SOL     OW14815   0.065   3.878   5.225
 4639SOL    HW114816   0.021   3.967   5.224
 4639SOL    HW214817   0.161   3.888   5.249
 4640SOL     OW14818   5.573   4.116   2.632
 4640SOL    HW114819   5.667   4.102   2.599
 4640SOL    HW214820   5.552   4.214   2.630
 4641SOL     OW14821   2.134   4.994   4.986
 4641SOL    HW114822   2.216   4.955   5.029
 4641SOL    HW214823   2.081   5.044   5.054
 4642SOL     OW14824   6.145   5.958   4.662
 4642SOL    HW114825   6.082   6.034   4.680
 4642SOL    HW214826   6.239   5.991   4.665
 4643SOL     OW14827   3.960   2.189   1.925
 4643SOL    HW114828   4.033   2.224   1.867
 4643SOL    HW214829   3.873   2.232   1.899
 4644SOL     OW14830   2.372   5.781   5.455
 4644SOL    HW114831   2.471   5.771   5.468
 4644SOL    HW214832   2.356   5.839   5.375
 4645SOL     OW14833   2.018   6.052   4.514
 4645SOL    HW114834   1.943   6.004   4.468
 4645SOL    HW214835   2.003   6.050   4.613
 4646SOL     OW14836   3.706   0.761   1.656
 4646SOL    HW114837   3.721   0.725   1.748
 4646SOL    HW214838   3.704   0.861   1.660
 4647SOL     OW14839   6.228   0.688   4.349
 4647SOL    HW114840   6.282   0.767   4.380
 4647SOL    HW214841   6.290   0.618   4.315
 4648SOL     OW14842   2.606   5.603   2.911
 4648SOL    HW114843   2.652   5.617   2.824
 4648SOL    HW214844   2.548   5.522   2.905
 4649SOL     OW14845   4.982   0.807   6.041
 4649SOL    HW114846   5.060   0.871   6.039
 4649SOL    HW214847   5.013   0.716   6.013
 4650SOL     OW14848   5.900   4.797   2.356
 4650SOL    HW114849   5.889   4.865   2.284
 4650SOL    HW214850   5.853   4.713   2.330
 4651SOL     OW14851   0.296   2.511   1.968
 4651SOL    HW114852   0.258   2.581   2.029
 4651SOL    HW214853   0.253   2.422   1.989
 4652SOL     OW14854   6.746   6.663   5.743
 4652SOL    HW114855   6.843   6.648   5.728
 4652SOL    HW214856   6.695   6.639   5.660
 4653SOL     OW14857   0.220   6.317   6.952
 4653SOL    HW114858   0.308   6.280   6.922
 4653SOL    HW214859   0.236   6.391   7.016
 4654SOL     OW14860   1.059   0.893   6.873
 4654SOL    HW114861   0.983   0.941   6.916
 4654SOL    HW214862   1.115   0.958   6.822
 4655SOL     OW14863   0.371   4.624   3.156
 4655SOL    HW114864   0.340   4.563   3.229
 4655SOL    HW214865   0.323   4.711   3.163
 4656SOL     OW14866   1.921   6.956   3.513
 4656SOL    HW114867   1.938   6.867   3.472
 4656SOL    HW214868   1.985   6.972   3.588
 4657SOL     OW14869   5.171   0.012   0.816
 4657SOL    HW114870   5.171   6.939   0.789
 4657SOL    HW214871   5.127   0.021   0.905
 4658SOL     OW14872   5.112   0.331   3.187
 4658SOL    HW114873   5.189   0.280   3.150
 4658SOL    HW214874   5.146   0.407   3.244
 4659SOL     OW14875   1.751   2.537   4.977
 4659SOL    HW114876   1.656   2.569   4.979
 4659SOL    HW214877   1.753   2.437   4.984
 4660SOL     OW14878   0.077   0.707   6.111
 4660SOL    HW114879   0.053   0.702   6.014
 4660SOL    HW214880   0.008   0.759   6.160
 4661SOL     OW14881   3.241   4.151   3.824
 4661SOL    HW114882   3.175   4.091   3.869
 4661SOL    HW214883   3.246   4.128   3.727
 4662SOL     OW14884   5.259   0.348   5.192
 4662SOL    HW114885   5.229   0.283   5.123
 4662SOL    HW214886   5.203   0.430   5.188
 4663SOL     OW14887   0.280   2.187   2.828
 4663SOL    HW114888   0.357   2.187   2.763
 4663SOL    HW214889   0.226   2.270   2.816
 4664SOL     OW14890   3.011   1.988   0.126
 4664SOL    HW114891   2.997   1.967   0.029
 4664SOL    HW214892   2.954   1.928   0.182
 4665SOL     OW14893   4.979   0.223   0.179
 4665SOL    HW114894   4.905   0.239   0.113
 4665SOL    HW214895   5.063   0.201   0.130
 4666SOL     OW14896   2.269   1.353   0.847
 4666SOL    HW114897   2.172   1.374   0.852
 4666SOL    HW214898   2.305   1.382   0.758
 4667SOL     OW14899   0.393   5.028   6.384
 4667SOL    HW114900   0.361   4.951   6.439
 4667SOL    HW214901   0.438   5.095   6.443
 4668SOL     OW14902   6.523   1.737   4.153
 4668SOL    HW114903   6.424   1.725   4.163
 4668SOL    HW214904   6.570   1.665   4.204
 4669SOL     OW14905   1.695   0.652   0.487
 4669SOL    HW114906   1.624   0.598   0.533
 4669SOL    HW214907   1.784   0.629   0.526
 4670SOL     OW14908   2.411   2.184   3.964
 4670SOL    HW114909   2.337   2.160   3.902
 4670SOL    HW214910   2.490   2.215   3.911
 4671SOL     OW14911   5.752   3.340   1.558
 4671SOL    HW114912   5.844   3.302   1.567
 4671SOL    HW214913   5.705   3.297   1.481
 4672SOL     OW14914   1.827   3.577   6.117
 4672SOL    HW114915   1.860   3.489   6.085
 4672SOL    HW214916   1.753   3.563   6.183
 4673SOL     OW14917   4.324   0.903   2.617
 4673SOL    HW114918   4.318   0.887   2.716
 4673SOL    HW214919   4.420   0.913   2.591
 4674SOL     OW14920   4.385   5.426   5.588
 4674SOL    HW114921   4.345   5.495   5.527
 4674SOL    HW214922   4.318   5.400   5.658
 4675SOL     OW14923   1.113   4.093   0.168
 4675SOL    HW114924   1.020   4.111   0.200
 4675SOL    HW214925   1.120   4.119   0.072
 4676SOL     OW14926   1.111   5.656   3.883
 4676SOL    HW114927   1.138   5.750   3.860
 4676SOL    HW214928   1.170   5.592   3.833
 4677SOL     OW14929   1.616   2.945   6.969
 4677SOL    HW114930   1.710   2.977   6.959
 4677SOL    HW214931   1.611   2.878   0.020
 4678SOL     OW14932   2.305   4.793   2.521
 4678SOL    HW114933   2.404   4.779   2.523
 4678SOL    HW214934   2.264   4.743   2.598
 4679SOL     OW14935   5.148   0.136   1.603
 4679SOL    HW114936   5.209   0.061   1.631
 4679SOL    HW214937   5.092   0.164   1.681
 4680SOL     OW14938   2.108   1.436   1.809
 4680SOL    HW114939   2.203   1.463   1.790
 4680SOL    HW214940   2.088   1.350   1.763
 4681SOL     OW14941   5.286   4.061   1.249
 4681SOL    HW114942   5.353   4.049   1.323
 4681SOL    HW214943   5.287   4.157   1.220
 4682SOL     OW14944   3.908   3.688   6.514
 4682SOL    HW114945   3.957   3.731   6.590
 4682SOL    HW214946   3.911   3.589   6.524
 4683SOL     OW14947   6.234   4.211   3.379
 4683SOL    HW114948   6.293   4.130   3.377
 4683SOL    HW214949   6.226   4.244   3.473
 4684SOL     OW14950   4.934   6.221   0.187
 4684SOL    HW114951   4.915   6.302   0.243
 4684SOL    HW214952   5.032   6.206   0.182
 4685SOL     OW14953   2.569   3.313   5.882
 4685SOL    HW114954   2.645   3.347   5.937
 4685SOL    HW214955   2.604   3.256   5.808
 4686SOL     OW14956   2.863   5.764   0.367
 4686SOL    HW114957   2.938   5.749   0.302
 4686SOL    HW214958   2.822   5.854   0.350
 4687SOL     OW14959   3.111   0.524   2.745
 4687SOL    HW114960   3.017   0.543   2.716
 4687SOL    HW214961   3.148   0.449   2.691
 4688SOL     OW14962   5.726   3.546   5.829
 4688SOL    HW114963   5.646   3.588   5.784
 4688SOL    HW214964   5.809   3.594   5.800
 4689SOL     OW14965   5.686   1.040   1.143
 4689SOL    HW114966   5.728   1.124   1.179
 4689SOL    HW214967   5.619   1.006   1.208
 4690SOL     OW14968   2.500   1.376   0.319
 4690SOL    HW114969   2.459   1.305   0.261
 4690SOL    HW214970   2.599   1.363   0.322
 4691SOL     OW14971   0.083   4.244   1.530
 4691SOL    HW114972   0.135   4.329   1.522
 4691SOL    HW214973   0.143   4.166   1.510
 4692SOL     OW14974   6.191   3.795   3.042
 4692SOL    HW114975   6.209   3.710   2.992
 4692SOL    HW214976   6.269   3.857   3.031
 4693SOL     OW14977   1.711   0.718   3.697
 4693SOL    HW114978   1.646   0.755   3.764
 4693SOL    HW214979   1.728   0.622   3.717
 4694SOL     OW14980   2.374   1.559   7.005
 4694SOL    HW114981   2.302   1.572   6.936
 4694SOL    HW214982   2.386   1.644   0.033
 4695SOL     OW14983   1.007   6.047   1.619
 4695SOL    HW114984   1.040   6.141   1.614
 4695SOL    HW214985   1.045   6.003   1.700
 4696SOL     OW14986   0.836   5.060   5.936
 4696SOL    HW114987   0.885   5.091   5.854
 4696SOL    HW214988   0.784   4.978   5.914
 4697SOL     OW14989   3.015   4.891   0.631
 4697SOL    HW114990   3.080   4.889   0.556
 4697SOL    HW214991   2.950   4.966   0.617
 4698SOL     OW14992   5.642   1.039   3.293
 4698SOL    HW114993   5.660   0.997   3.204
 4698SOL    HW214994   5.680   0.981   3.366
 4699SOL     OW14995   1.262   6.876   2.867
 4699SOL    HW114996   1.220   6.800   2.916
 4699SOL    HW214997   1.281   6.849   2.773
 4700SOL     OW14998   5.793   2.201   2.616
 4700SOL    HW114999   5.825   2.135   2.684
 4700SOL    HW215000   5.698   2.179   2.592
 4701SOL     OW15001   3.331   1.755   1.908
 4701SOL    HW115002   3.359   1.842   1.950
 4701SOL    HW215003   3.290   1.696   1.978
 4702SOL     OW15004   5.233   4.758   6.475
 4702SOL    HW115005   5.192   4.700   6.546
 4702SOL    HW215006   5.330   4.772   6.495
 4703SOL     OW15007   0.730   4.781   3.575
 4703SOL    HW115008   0.669   4.739   3.507
 4703SOL    HW215009   0.820   4.738   3.570
 4704SOL     OW15010   1.063   4.964   5.471
 4704SOL    HW115011   1.152   4.991   5.434
 4704SOL    HW215012   1.069   4.873   5.511
 4705SOL     OW15013   3.048   2.832   1.808
 4705SOL    HW115014   3.056   2.794   1.900
 4705SOL    HW215015   3.058   2.758   1.740
 4706SOL     OW15016   1.697   0.993   0.602
 4706SOL    HW115017   1.769   0.952   0.545
 4706SOL    HW215018   1.612   0.941   0.590
 4707SOL     OW15019   1.615   7.015   1.445
 4707SOL    HW115020   1.632   0.067   1.509
 4707SOL    HW215021   1.663   0.009   1.360
 4708SOL     OW15022   0.711   2.993   4.080
 4708SOL    HW115023   0.618   2.971   4.110
 4708SOL    HW215024   0.717   3.091   4.061
 4709SOL     OW15025   4.682   3.818   5.461
 4709SOL    HW115026   4.739   3.756   5.407
 4709SOL    HW215027   4.587   3.787   5.458
 4710SOL     OW15028   5.916   6.210   4.373
 4710SOL    HW115029   5.978   6.264   4.430
 4710SOL    HW215030   5.824   6.247   4.379
 4711SOL     OW15031   6.050   3.090   3.053
 4711SOL    HW115032   5.951   3.078   3.056
 4711SOL    HW215033   6.087   3.093   3.146
 4712SOL     OW15034   4.521   4.296   5.256
 4712SOL    HW115035   4.459   4.334   5.187
 4712SOL    HW215036   4.583   4.231   5.213
 4713SOL     OW15037   5.702   4.626   0.866
 4713SOL    HW115038   5.645   4.705   0.842
 4713SOL    HW215039   5.664   4.580   0.946
 4714SOL     OW15040   5.692   0.823   5.890
 4714SOL    HW115041   5.741   0.910   5.898
 4714SOL    HW215042   5.676   0.785   5.981
 4715SOL     OW15043   6.136   1.297   1.576
 4715SOL    HW115044   6.160   1.339   1.664
 4715SOL    HW215045   6.146   1.366   1.503
 4716SOL     OW15046   3.859   4.232   5.539
 4716SOL    HW115047   3.864   4.133   5.548
 4716SOL    HW215048   3.891   4.259   5.448
 4717SOL     OW15049   2.898   5.345   5.222
 4717SOL    HW115050   2.840   5.418   5.260
 4717SOL    HW215051   2.840   5.274   5.182
 4718SOL     OW15052   4.956   4.220   1.063
 4718SOL    HW115053   4.913   4.275   0.993
 4718SOL    HW215054   4.957   4.270   1.150
 4719SOL     OW15055   6.903   3.478   4.085
 4719SOL    HW115056   6.968   3.426   4.140
 4719SOL    HW215057   6.827   3.418   4.059
 4720SOL     OW15058   2.693   4.364   6.751
 4720SOL    HW115059   2.679   4.272   6.789
 4720SOL    HW215060   2.704   4.429   6.825
 4721SOL     OW15061   6.439   3.725   2.671
 4721SOL    HW115062   6.376   3.702   2.597
 4721SOL    HW215063   6.495   3.645   2.693
 4722SOL     OW15064   1.179   4.528   6.847
 4722SOL    HW115065   1.086   4.510   6.815
 4722SOL    HW215066   1.179   4.609   6.905
 4723SOL     OW15067   3.981   4.099   6.389
 4723SOL    HW115068   4.036   4.095   6.306
 4723SOL    HW215069   3.884   4.107   6.365
 4724SOL     OW15070   1.320   0.107   4.902
 4724SOL    HW115071   1.418   0.109   4.885
 4724SOL    HW215072   1.300   0.156   4.987
 4725SOL     OW15073   5.771   5.881   0.405
 4725SOL    HW115074   5.834   5.957   0.394
 4725SOL    HW215075   5.697   5.907   0.467
 4726SOL     OW15076   1.287   3.064   5.335
 4726SOL    HW115077   1.329   2.973   5.328
 4726SOL    HW215078   1.318   3.108   5.420
 4727SOL     OW15079   1.184   5.670   0.328
 4727SOL    HW115080   1.226   5.722   0.403
 4727SOL    HW215081   1.165   5.577   0.359
 4728SOL     OW15082   6.346   1.098   4.299
 4728SOL    HW115083   6.278   1.064   4.364
 4728SOL    HW215084   6.350   1.198   4.304
 4729SOL     OW15085   6.367   1.222   1.001
 4729SOL    HW115086   6.399   1.145   0.945
 4729SOL    HW215087   6.309   1.282   0.945
 4730SOL     OW15088   3.733   0.305   4.873
 4730SOL    HW115089   3.775   0.395   4.891
 4730SOL    HW215090   3.751   0.279   4.778
 4731SOL     OW15091   3.344   0.767   0.607
 4731SOL    HW115092   3.260   0.816   0.582
 4731SOL    HW215093   3.396   0.746   0.525
 4732SOL     OW15094   0.181   4.277   4.329
 4732SOL    HW115095   0.216   4.370   4.337
 4732SOL    HW215096   0.095   4.268   4.380
 4733SOL     OW15097   2.153   3.480   3.019
 4733SOL    HW115098   2.227   3.434   3.068
 4733SOL    HW215099   2.109   3.416   2.956
 4734SOL     OW15100   4.893   3.857   6.511
 4734SOL    HW115101   4.797   3.834   6.521
 4734SOL    HW215102   4.948   3.799   6.571
 4735SOL     OW15103   0.000   6.765   4.987
 4735SOL    HW115104   0.075   6.788   4.924
 4735SOL    HW215105   6.936   6.772   4.939
 4736SOL     OW15106   6.290   1.603   3.170
 4736SOL    HW115107   6.338   1.687   3.145
 4736SOL    HW215108   6.243   1.616   3.258
 4737SOL     OW15109   2.273   4.763   0.971
 4737SOL    HW115110   2.352   4.739   0.914
 4737SOL    HW215111   2.301   4.767   1.067
 4738SOL     OW15112   2.085   6.854   3.924
 4738SOL    HW115113   2.182   6.832   3.909
 4738SOL    HW215114   2.028   6.781   3.888
 4739SOL     OW15115   5.960   3.056   4.101
 4739SOL    HW115116   5.907   2.973   4.121
 4739SOL    HW215117   5.991   3.053   4.006
 4740SOL     OW15118   0.096   0.889   1.155
 4740SOL    HW115119   0.094   0.946   1.237
 4740SOL    HW215120   0.028   0.922   1.090
 4741SOL     OW15121   4.678   4.797   1.668
 4741SOL    HW115122   4.739   4.778   1.745
 4741SOL    HW215123   4.588   4.760   1.686
 4742SOL     OW15124   2.724   6.237   1.709
 4742SOL    HW115125   2.660   6.199   1.776
 4742SOL    HW215126   2.772   6.161   1.664
 4743SOL     OW15127   2.627   2.384   0.290
 4743SOL    HW115128   2.619   2.408   0.387
 4743SOL    HW215129   2.597   2.289   0.278
 4744SOL     OW15130   1.851   2.988   5.483
 4744SOL    HW115131   1.846   2.888   5.479
 4744SOL    HW215132   1.887   3.023   5.397
 4745SOL     OW15133   3.032   6.073   4.944
 4745SOL    HW115134   3.105   6.074   4.876
 4745SOL    HW215135   2.943   6.076   4.898
 4746SOL     OW15136   6.701   6.889   0.624
 4746SOL    HW115137   6.612   6.934   0.614
 4746SOL    HW215138   6.729   6.892   0.720
 4747SOL     OW15139   6.423   2.548   1.017
 4747SOL    HW115140   6.383   2.565   0.927
 4747SOL    HW215141   6.355   2.566   1.088
 4748SOL     OW15142   1.171   1.062   1.409
 4748SOL    HW115143   1.179   1.014   1.322
 4748SOL    HW215144   1.246   1.035   1.469
 4749SOL     OW15145   1.999   0.021   0.183
 4749SOL    HW115146   2.021   0.090   0.252
 4749SOL    HW215147   1.957   0.065   0.103
 4750SOL     OW15148   6.930   0.398   4.588
 4750SOL    HW115149   6.914   0.493   4.616
 4750SOL    HW215150   0.005   0.382   4.580
 4751SOL     OW15151   1.308   4.258   6.564
 4751SOL    HW115152   1.325   4.240   6.468
 4751SOL    HW215153   1.254   4.342   6.574
 4752SOL     OW15154   3.099   5.927   1.862
 4752SOL    HW115155   3.154   5.862   1.809
 4752SOL    HW215156   3.151   6.012   1.875
 4753SOL     OW15157   5.764   6.483   5.296
 4753SOL    HW115158   5.752   6.383   5.299
 4753SOL    HW215159   5.676   6.526   5.276
 4754SOL     OW15160   0.536   0.498   6.108
 4754SOL    HW115161   0.591   0.557   6.048
 4754SOL    HW215162   0.500   0.422   6.055
 4755SOL     OW15163   2.274   1.502   6.446
 4755SOL    HW115164   2.225   1.524   6.361
 4755SOL    HW215165   2.262   1.575   6.512
 4756SOL     OW15166   4.823   2.942   1.243
 4756SOL    HW115167   4.802   2.846   1.262
 4756SOL    HW215168   4.920   2.959   1.259
 4757SOL     OW15169   2.026   2.446   1.306
 4757SOL    HW115170   2.101   2.430   1.370
 4757SOL    HW215171   1.941   2.459   1.357
 4758SOL     OW15172   5.195   5.011   5.264
 4758SOL    HW115173   5.180   4.917   5.294
 4758SOL    HW215174   5.113   5.044   5.216
 4759SOL     OW15175   5.344   5.374   6.235
 4759SOL    HW115176   5.407   5.308   6.195
 4759SOL    HW215177   5.254   5.365   6.192
 4760SOL     OW15178   1.811   1.310   1.700
 4760SOL    HW115179   1.790   1.324   1.797
 4760SOL    HW215180   1.781   1.390   1.648
 4761SOL     OW15181   0.157   6.847   6.514
 4761SOL    HW115182   0.184   6.937   6.481
 4761SOL    HW215183   0.144   6.850   6.613
 4762SOL     OW15184   2.351   5.730   1.957
 4762SOL    HW115185   2.349   5.642   1.910
 4762SOL    HW215186   2.268   5.781   1.935
 4763SOL     OW15187   6.131   6.055   3.707
 4763SOL    HW115188   6.217   6.104   3.696
 4763SOL    HW215189   6.112   6.042   3.804
 4764SOL     OW15190   3.717   3.539   4.252
 4764SOL    HW115191   3.628   3.519   4.212
 4764SOL    HW215192   3.712   3.623   4.306
 4765SOL     OW15193   5.123   5.889   4.847
 4765SOL    HW115194   5.199   5.903   4.910
 4765SOL    HW215195   5.154   5.834   4.769
 4766SOL     OW15196   2.907   0.104   3.339
 4766SOL    HW115197   3.006   0.117   3.327
 4766SOL    HW215198   2.884   0.008   3.323
 4767SOL     OW15199   4.391   6.532   6.601
 4767SOL    HW115200   4.441   6.605   6.553
 4767SOL    HW215201   4.294   6.553   6.602
 4768SOL     OW15202   6.570   0.422   5.112
 4768SOL    HW115203   6.621   0.440   5.028
 4768SOL    HW215204   6.627   0.443   5.191
 4769SOL     OW15205   3.941   6.728   1.512
 4769SOL    HW115206   3.849   6.749   1.544
 4769SOL    HW215207   3.944   6.634   1.476
 4770SOL     OW15208   2.924   0.557   3.194
 4770SOL    HW115209   2.906   0.501   3.275
 4770SOL    HW215210   2.845   0.616   3.176
 4771SOL     OW15211   3.903   4.286   5.210
 4771SOL    HW115212   3.942   4.194   5.206
 4771SOL    HW215213   3.804   4.280   5.221
 4772SOL     OW15214   2.778   2.092   1.643
 4772SOL    HW115215   2.825   2.033   1.709
 4772SOL    HW215216   2.720   2.157   1.692
 4773SOL     OW15217   0.101   5.712   3.824
 4773SOL    HW115218   0.139   5.686   3.913
 4773SOL    HW215219   0.157   5.673   3.751
 4774SOL     OW15220   0.809   3.750   1.188
 4774SOL    HW115221   0.728   3.732   1.133
 4774SOL    HW215222   0.878   3.796   1.131
 4775SOL     OW15223   4.241   0.263   2.274
 4775SOL    HW115224   4.256   0.207   2.355
 4775SOL    HW215225   4.154   0.237   2.230
 4776SOL     OW15226   3.052   5.467   2.415
 4776SOL    HW115227   3.129   5.407   2.396
 4776SOL    HW215228   2.970   5.432   2.369
 4777SOL     OW15229   2.902   3.995   1.027
 4777SOL    HW115230   2.946   4.040   1.105
 4777SOL    HW215231   2.926   3.898   1.026
 4778SOL     OW15232   4.694   4.196   2.233
 4778SOL    HW115233   4.761   4.228   2.166
 4778SOL    HW215234   4.602   4.216   2.199
 4779SOL     OW15235   5.877   0.855   2.887
 4779SOL    HW115236   5.966   0.839   2.930
 4779SOL    HW215237   5.867   0.794   2.808
 4780SOL     OW15238   0.651   6.831   6.813
 4780SOL    HW115239   0.653   6.742   6.768
 4780SOL    HW215240   0.700   6.825   6.900
 4781SOL     OW15241   2.493   5.313   1.679
 4781SOL    HW115242   2.493   5.350   1.586
 4781SOL    HW215243   2.498   5.213   1.675
 4782SOL     OW15244   5.601   6.105   6.621
 4782SOL    HW115245   5.653   6.170   6.677
 4782SOL    HW215246   5.648   6.092   6.534
 4783SOL     OW15247   5.331   4.302   1.067
 4783SOL    HW115248   5.428   4.276   1.058
 4783SOL    HW215249   5.284   4.283   0.981
 4784SOL     OW15250   5.281   5.098   4.679
 4784SOL    HW115251   5.371   5.130   4.707
 4784SOL    HW215252   5.264   5.008   4.720
 4785SOL     OW15253   6.970   6.543   1.424
 4785SOL    HW115254   0.023   6.605   1.441
 4785SOL    HW215255   6.998   6.473   1.359
 4786SOL     OW15256   1.997   3.425   2.118
 4786SOL    HW115257   1.958   3.463   2.202
 4786SOL    HW215258   2.072   3.484   2.087
 4787SOL     OW15259   3.241   2.146   3.372
 4787SOL    HW115260   3.189   2.121   3.290
 4787SOL    HW215261   3.179   2.184   3.440
 4788SOL     OW15262   1.296   5.043   4.268
 4788SOL    HW115263   1.225   4.975   4.284
 4788SOL    HW215264   1.310   5.054   4.169
 4789SOL     OW15265   5.785   0.761   6.741
 4789SOL    HW115266   5.765   0.663   6.740
 4789SOL    HW215267   5.781   0.797   6.648
 4790SOL     OW15268   5.633   2.398   6.352
 4790SOL    HW115269   5.655   2.491   6.381
 4790SOL    HW215270   5.579   2.353   6.424
 4791SOL     OW15271   5.515   6.981   2.029
 4791SOL    HW115272   5.604   0.002   2.038
 4791SOL    HW215273   5.513   6.898   2.086
 4792SOL     OW15274   2.089   2.367   2.495
 4792SOL    HW115275   2.035   2.408   2.568
 4792SOL    HW215276   2.181   2.406   2.495
 4793SOL     OW15277   1.361   6.857   6.529
 4793SOL    HW115278   1.299   6.778   6.532
 4793SOL    HW215279   1.353   6.909   6.614
 4794SOL     OW15280   3.051   0.463   2.383
 4794SOL    HW115281   3.098   0.402   2.445
 4794SOL    HW215282   3.014   0.541   2.434
 4795SOL     OW15283   6.302   2.914   4.339
 4795SOL    HW115284   6.209   2.951   4.346
 4795SOL    HW215285   6.357   2.946   4.416
 4796SOL     OW15286   6.074   4.142   0.803
 4796SOL    HW115287   6.052   4.073   0.735
 4796SOL    HW215288   5.989   4.171   0.849
 4797SOL     OW15289   0.389   4.586   5.414
 4797SOL    HW115290   0.418   4.490   5.411
 4797SOL    HW215291   0.410   4.628   5.326
 4798SOL     OW15292   6.971   3.942   4.050
 4798SOL    HW115293   0.021   4.005   4.075
 4798SOL    HW215294   6.884   3.975   4.087
 4799SOL     OW15295   4.219   1.489   5.091
 4799SOL    HW115296   4.133   1.524   5.055
 4799SOL    HW215297   4.206   1.397   5.127
 4800SOL     OW15298   2.273   2.394   5.180
 4800SOL    HW115299   2.278   2.397   5.280
 4800SOL    HW215300   2.200   2.455   5.148
 4801SOL     OW15301   1.220   1.664   0.958
 4801SOL    HW115302   1.285   1.588   0.963
 4801SOL    HW215303   1.128   1.629   0.974
 4802SOL     OW15304   3.040   0.392   1.928
 4802SOL    HW115305   3.063   0.309   1.878
 4802SOL    HW215306   2.974   0.370   2.000
 4803SOL     OW15307   0.892   0.395   0.524
 4803SOL    HW115308   0.876   0.492   0.510
 4803SOL    HW215309   0.882   0.373   0.621
 4804SOL     OW15310   3.999   5.450   6.218
 4804SOL    HW115311   4.035   5.371   6.168
 4804SOL    HW215312   3.921   5.422   6.273
 4805SOL     OW15313   7.002   1.985   0.845
 4805SOL    HW115314   6.935   1.929   0.798
 4805SOL    HW215315   6.955   2.049   0.906
 4806SOL     OW15316   0.532   3.002   2.866
 4806SOL    HW115317   0.531   2.950   2.952
 4806SOL    HW215318   0.552   2.941   2.790
 4807SOL     OW15319   0.496   6.781   0.992
 4807SOL    HW115320   0.425   6.718   0.962
 4807SOL    HW215321   0.505   6.775   1.092
 4808SOL     OW15322   5.063   3.206   1.092
 4808SOL    HW115323   5.079   3.186   0.996
 4808SOL    HW215324   5.059   3.120   1.144
 4809SOL     OW15325   3.521   5.498   6.628
 4809SOL    HW115326   3.456   5.553   6.575
 4809SOL    HW215327   3.614   5.527   6.607
 4810SOL     OW15328   0.728   6.997   1.229
 4810SOL    HW115329   0.738   0.065   1.189
 4810SOL    HW215330   0.753   6.928   1.161
 4811SOL     OW15331   3.779   5.157   1.800
 4811SOL    HW115332   3.819   5.069   1.825
 4811SOL    HW215333   3.711   5.183   1.868
 4812SOL     OW15334   0.016   5.217   4.390
 4812SOL    HW115335   0.084   5.185   4.456
 4812SOL    HW215336   0.059   5.230   4.301
 4813SOL     OW15337   5.062   2.235   2.569
 4813SOL    HW115338   4.973   2.268   2.601
 4813SOL    HW215339   5.097   2.296   2.498
 4814SOL     OW15340   0.044   3.973   1.088
 4814SOL    HW115341   0.073   3.937   1.177
 4814SOL    HW215342   0.114   3.955   1.020
 4815SOL     OW15343   4.930   5.726   1.148
 4815SOL    HW115344   5.029   5.720   1.138
 4815SOL    HW215345   4.901   5.670   1.226
 4816SOL     OW15346   5.440   5.317   3.074
 4816SOL    HW115347   5.380   5.364   3.010
 4816SOL    HW215348   5.462   5.226   3.038
 4817SOL     OW15349   1.186   2.578   6.456
 4817SOL    HW115350   1.124   2.641   6.503
 4817SOL    HW215351   1.268   2.565   6.512
 4818SOL     OW15352   0.228   6.970   3.883
 4818SOL    HW115353   0.270   6.892   3.930
 4818SOL    HW215354   0.276   6.987   3.797
 4819SOL     OW15355   1.300   3.452   0.560
 4819SOL    HW115356   1.312   3.426   0.655
 4819SOL    HW215357   1.378   3.507   0.530
 4820SOL     OW15358   6.996   3.017   1.896
 4820SOL    HW115359   7.006   2.978   1.804
 4820SOL    HW215360   0.040   3.090   1.908
 4821SOL     OW15361   6.894   5.784   2.527
 4821SOL    HW115362   6.810   5.730   2.522
 4821SOL    HW215363   6.950   5.752   2.603
 4822SOL     OW15364   1.368   3.843   4.512
 4822SOL    HW115365   1.389   3.914   4.445
 4822SOL    HW215366   1.399   3.754   4.477
 4823SOL     OW15367   2.036   2.843   2.199
 4823SOL    HW115368   2.068   2.937   2.209
 4823SOL    HW215369   2.007   2.827   2.105
 4824SOL     OW15370   6.011   1.343   5.450
 4824SOL    HW115371   6.075   1.300   5.386
 4824SOL    HW215372   6.020   1.442   5.444
 4825SOL     OW15373   1.520   6.709   4.108
 4825SOL    HW115374   1.503   6.630   4.166
 4825SOL    HW215375   1.597   6.762   4.144
 4826SOL     OW15376   4.476   0.464   1.784
 4826SOL    HW115377   4.488   0.563   1.794
 4826SOL    HW215378   4.430   0.428   1.866
 4827SOL     OW15379   6.990   1.441   1.117
 4827SOL    HW115380   6.974   1.345   1.140
 4827SOL    HW215381   0.052   1.448   1.064
 4828SOL     OW15382   4.706   0.558   2.999
 4828SOL    HW115383   4.652   0.574   3.082
 4828SOL    HW215384   4.779   0.492   3.018
 4829SOL     OW15385   4.037   0.464   5.138
 4829SOL    HW115386   4.019   0.438   5.233
 4829SOL    HW215387   3.954   0.501   5.097
 4830SOL     OW15388   3.140   5.921   3.260
 4830SOL    HW115389   3.121   5.848   3.195
 4830SOL    HW215390   3.178   6.000   3.212
 4831SOL     OW15391   3.281   4.860   6.263
 4831SOL    HW115392   3.336   4.944   6.261
 4831SOL    HW215393   3.192   4.879   6.304
 4832SOL     OW15394   3.359   3.280   4.269
 4832SOL    HW115395   3.380   3.277   4.171
 4832SOL    HW215396   3.343   3.375   4.297
 4833SOL     OW15397   0.236   2.741   3.683
 4833SOL    HW115398   0.164   2.812   3.679
 4833SOL    HW215399   0.203   2.659   3.637
 4834SOL     OW15400   1.427   5.382   1.799
 4834SOL    HW115401   1.462   5.465   1.842
 4834SOL    HW215402   1.503   5.332   1.758
 4835SOL     OW15403   6.704   2.343   5.326
 4835SOL    HW115404   6.691   2.384   5.236
 4835SOL    HW215405   6.789   2.377   5.366
 4836SOL     OW15406   5.345   1.412   5.321
 4836SOL    HW115407   5.437   1.389   5.352
 4836SOL    HW215408   5.284   1.420   5.400
 4837SOL     OW15409   6.982   4.246   4.505
 4837SOL    HW115410   0.022   4.211   4.575
 4837SOL    HW215411   6.919   4.174   4.477
 4838SOL     OW15412   1.846   4.391   6.744
 4838SOL    HW115413   1.813   4.320   6.806
 4838SOL    HW215414   1.931   4.362   6.702
 4839SOL     OW15415   2.546   1.346   6.981
 4839SOL    HW115416   2.477   1.419   6.979
 4839SOL    HW215417   2.635   1.386   7.000
 4840SOL     OW15418   5.667   3.268   4.806
 4840SOL    HW115419   5.633   3.264   4.900
 4840SOL    HW215420   5.766   3.264   4.806
 4841SOL     OW15421   2.960   5.729   2.497
 4841SOL    HW115422   2.977   5.631   2.490
 4841SOL    HW215423   3.032   5.779   2.449
 4842SOL     OW15424   2.967   5.372   3.231
 4842SOL    HW115425   2.971   5.287   3.178
 4842SOL    HW215426   2.909   5.438   3.185
 4843SOL     OW15427   0.256   1.571   2.071
 4843SOL    HW115428   0.205   1.569   1.985
 4843SOL    HW215429   0.194   1.596   2.145
 4844SOL     OW15430   1.083   5.723   4.467
 4844SOL    HW115431   1.168   5.724   4.414
 4844SOL    HW215432   1.101   5.685   4.558
 4845SOL     OW15433   4.948   3.791   4.936
 4845SOL    HW115434   4.896   3.720   4.983
 4845SOL    HW215435   4.902   3.879   4.947
 4846SOL     OW15436   0.036   3.631   4.579
 4846SOL    HW115437   0.116   3.673   4.622
 4846SOL    HW215438   7.012   3.700   4.523
 4847SOL     OW15439   2.408   6.370   6.115
 4847SOL    HW115440   2.382   6.280   6.080
 4847SOL    HW215441   2.338   6.436   6.090
 4848SOL     OW15442   3.296   0.859   4.145
 4848SOL    HW115443   3.314   0.943   4.095
 4848SOL    HW215444   3.325   0.780   4.091
 4849SOL     OW15445   1.875   6.932   1.187
 4849SOL    HW115446   1.901   6.893   1.099
 4849SOL    HW215447   1.899   6.868   1.260
 4850SOL     OW15448   4.238   0.322   0.448
 4850SOL    HW115449   4.273   0.234   0.415
 4850SOL    HW215450   4.250   0.326   0.548
 4851SOL     OW15451   3.481   5.098   6.390
 4851SOL    HW115452   3.562   5.076   6.443
 4851SOL    HW215453   3.503   5.171   6.325
 4852SOL     OW15454   4.933   5.591   4.656
 4852SOL    HW115455   4.984   5.565   4.738
 4852SOL    HW215456   4.994   5.587   4.577
 4853SOL     OW15457   4.021   0.166   2.164
 4853SOL    HW115458   4.025   0.071   2.195
 4853SOL    HW215459   3.930   0.203   2.182
 4854SOL     OW15460   5.809   6.203   1.554
 4854SOL    HW115461   5.809   6.248   1.465
 4854SOL    HW215462   5.715   6.177   1.578
 4855SOL     OW15463   5.919   4.947   5.457
 4855SOL    HW115464   5.897   5.042   5.476
 4855SOL    HW215465   5.847   4.887   5.494
 4856SOL     OW15466   0.030   3.609   3.247
 4856SOL    HW115467   0.008   3.705   3.234
 4856SOL    HW215468   7.017   3.555   3.170
 4857SOL     OW15469   2.788   2.134   4.941
 4857SOL    HW115470   2.791   2.180   5.030
 4857SOL    HW215471   2.820   2.196   4.870
 4858SOL     OW15472   0.743   5.937   3.959
 4858SOL    HW115473   0.700   5.862   3.908
 4858SOL    HW215474   0.737   5.919   4.057
 4859SOL     OW15475   1.130   6.284   2.462
 4859SOL    HW115476   1.048   6.325   2.421
 4859SOL    HW215477   1.163   6.211   2.402
 4860SOL     OW15478   4.209   5.637   0.919
 4860SOL    HW115479   4.250   5.558   0.873
 4860SOL    HW215480   4.111   5.623   0.926
 4861SOL     OW15481   0.145   4.525   6.737
 4861SOL    HW115482   0.197   4.555   6.817
 4861SOL    HW215483   0.207   4.485   6.670
 4862SOL     OW15484   2.499   5.229   5.470
 4862SOL    HW115485   2.497   5.205   5.567
 4862SOL    HW215486   2.409   5.263   5.442
 4863SOL     OW15487   4.552   1.734   2.868
 4863SOL    HW115488   4.490   1.773   2.936
 4863SOL    HW215489   4.577   1.804   2.801
 4864SOL     OW15490   2.373   1.501   1.771
 4864SOL    HW115491   2.384   1.596   1.741
 4864SOL    HW215492   2.403   1.440   1.698
 4865SOL     OW15493   3.809   5.831   5.245
 4865SOL    HW115494   3.716   5.859   5.269
 4865SOL    HW215495   3.875   5.884   5.299
 4866SOL     OW15496   6.553   4.421   1.535
 4866SOL    HW115497   6.515   4.496   1.590
 4866SOL    HW215498   6.652   4.419   1.546
 4867SOL     OW15499   5.298   6.204   3.426
 4867SOL    HW115500   5.301   6.114   3.381
 4867SOL    HW215501   5.277   6.191   3.523
 4868SOL     OW15502   0.750   5.845   1.194
 4868SOL    HW115503   0.747   5.772   1.125
 4868SOL    HW215504   0.740   5.805   1.285
 4869SOL     OW15505   6.144   0.571   0.795
 4869SOL    HW115506   6.231   0.522   0.797
 4869SOL    HW215507   6.084   0.535   0.866
 4870SOL     OW15508   6.533   6.488   1.658
 4870SOL    HW115509   6.481   6.438   1.588
 4870SOL    HW215510   6.618   6.438   1.677
 4871SOL     OW15511   0.957   3.725   3.987
 4871SOL    HW115512   0.948   3.626   4.001
 4871SOL    HW215513   0.999   3.742   3.897
 4872SOL     OW15514   0.960   0.616   3.152
 4872SOL    HW115515   0.955   0.522   3.186
 4872SOL    HW215516   0.996   0.616   3.059
 4873SOL     OW15517   0.190   5.621   5.474
 4873SOL    HW115518   0.119   5.567   5.520
 4873SOL    HW215519   0.159   5.716   5.466
 4874SOL     OW15520   5.256   3.705   3.120
 4874SOL    HW115521   5.308   3.744   3.195
 4874SOL    HW215522   5.196   3.774   3.080
 4875SOL     OW15523   6.082   2.594   6.942
 4875SOL    HW115524   6.078   2.528   6.867
 4875SOL    HW215525   6.031   2.676   6.916
 4876SOL     OW15526   0.472   1.492   6.697
 4876SOL    HW115527   0.491   1.491   6.795
 4876SOL    HW215528   0.516   1.413   6.654
 4877SOL     OW15529   6.389   1.596   1.352
 4877SOL    HW115530   6.438   1.683   1.346
 4877SOL    HW215531   6.446   1.529   1.400
 4878SOL     OW15532   6.971   1.924   1.270
 4878SOL    HW115533   7.002   1.890   1.181
 4878SOL    HW215534   6.906   1.859   1.310
 4879SOL     OW15535   4.392   5.456   3.551
 4879SOL    HW115536   4.401   5.507   3.466
 4879SOL    HW215537   4.473   5.399   3.565
 4880SOL     OW15538   5.522   2.146   6.143
 4880SOL    HW115539   5.523   2.182   6.049
 4880SOL    HW215540   5.464   2.204   6.200
 4881SOL     OW15541   3.498   6.257   6.511
 4881SOL    HW115542   3.578   6.309   6.542
 4881SOL    HW215543   3.497   6.167   6.555
 4882SOL     OW15544   5.734   0.708   5.630
 4882SOL    HW115545   5.661   0.732   5.565
 4882SOL    HW215546   5.720   0.759   5.715
 4883SOL     OW15547   0.116   5.759   1.200
 4883SOL    HW115548   0.200   5.813   1.193
 4883SOL    HW215549   0.037   5.816   1.175
 4884SOL     OW15550   3.451   6.690   1.352
 4884SOL    HW115551   3.548   6.665   1.346
 4884SOL    HW215552   3.411   6.649   1.434
 4885SOL     OW15553   2.038   0.004   2.013
 4885SOL    HW115554   1.983   0.020   1.930
 4885SOL    HW215555   2.116   6.969   1.990
 4886SOL     OW15556   6.263   0.872   6.478
 4886SOL    HW115557   6.235   0.915   6.564
 4886SOL    HW215558   6.294   0.778   6.496
 4887SOL     OW15559   0.442   1.870   4.510
 4887SOL    HW115560   0.349   1.834   4.504
 4887SOL    HW215561   0.439   1.970   4.507
 4888SOL     OW15562   2.723   5.397   2.629
 4888SOL    HW115563   2.651   5.329   2.644
 4888SOL    HW215564   2.681   5.487   2.614
 4889SOL     OW15565   1.474   2.204   0.175
 4889SOL    HW115566   1.493   2.245   0.085
 4889SOL    HW215567   1.541   2.237   0.241
 4890SOL     OW15568   1.400   0.654   4.710
 4890SOL    HW115569   1.411   0.574   4.769
 4890SOL    HW215570   1.330   0.635   4.641
 4891SOL     OW15571   1.191   4.569   0.278
 4891SOL    HW115572   1.154   4.527   0.361
 4891SOL    HW215573   1.267   4.629   0.301
 4892SOL     OW15574   0.846   5.410   1.257
 4892SOL    HW115575   0.941   5.418   1.284
 4892SOL    HW215576   0.822   5.484   1.194
 4893SOL     OW15577   0.257   3.695   6.505
 4893SOL    HW115578   0.345   3.739   6.488
 4893SOL    HW215579   0.187   3.735   6.445
 4894SOL     OW15580   2.659   0.618   3.139
 4894SOL    HW115581   2.589   0.580   3.199
 4894SOL    HW215582   2.634   0.601   3.044
 4895SOL     OW15583   0.451   3.525   0.468
 4895SOL    HW115584   0.390   3.469   0.523
 4895SOL    HW215585   0.544   3.489   0.473
 4896SOL     OW15586   4.068   5.403   4.305
 4896SOL    HW115587   4.029   5.418   4.214
 4896SOL    HW215588   3.993   5.393   4.371
 4897SOL     OW15589   3.111   5.528   6.322
 4897SOL    HW115590   3.184   5.526   6.254
 4897SOL    HW215591   3.069   5.438   6.329
 4898SOL     OW15592   5.624   2.343   5.248
 4898SOL    HW115593   5.702   2.288   5.279
 4898SOL    HW215594   5.543   2.319   5.303
 4899SOL     OW15595   5.578   3.934   4.178
 4899SOL    HW115596   5.547   3.929   4.083
 4899SOL    HW215597   5.583   4.030   4.206
 4900SOL     OW15598   1.099   6.856   5.364
 4900SOL    HW115599   1.196   6.848   5.387
 4900SOL    HW215600   1.079   6.802   5.282
 4901SOL     OW15601   1.463   6.611   3.852
 4901SOL    HW115602   1.380   6.636   3.801
 4901SOL    HW215603   1.486   6.683   3.917
 4902SOL     OW15604   2.985   4.912   1.881
 4902SOL    HW115605   3.068   4.859   1.866
 4902SOL    HW215606   2.956   4.902   1.976
 4903SOL     OW15607   4.771   6.820   6.602
 4903SOL    HW115608   4.831   6.898   6.584
 4903SOL    HW215609   4.815   6.758   6.667
 4904SOL     OW15610   3.333   5.798   3.766
 4904SOL    HW115611   3.410   5.735   3.751
 4904SOL    HW215612   3.330   5.865   3.692
 4905SOL     OW15613   5.971   3.487   2.334
 4905SOL    HW115614   5.950   3.575   2.291
 4905SOL    HW215615   5.946   3.490   2.431
 4906SOL     OW15616   5.588   0.756   0.640
 4906SOL    HW115617   5.548   0.666   0.657
 4906SOL    HW215618   5.600   0.769   0.542
 4907SOL     OW15619   3.321   1.071   2.394
 4907SOL    HW115620   3.229   1.072   2.357
 4907SOL    HW215621   3.382   1.125   2.336
 4908SOL     OW15622   3.098   5.920   6.957
 4908SOL    HW115623   3.036   5.842   6.959
 4908SOL    HW215624   3.069   5.988   0.001
 4909SOL     OW15625   7.011   6.951   5.528
 4909SOL    HW115626   6.925   6.934   5.576
 4909SOL    HW215627   0.035   6.865   5.511
 4910SOL     OW15628   6.109   6.921   5.047
 4910SOL    HW115629   6.176   6.869   4.994
 4910SOL    HW215630   6.017   6.891   5.024
 4911SOL     OW15631   6.525   2.852   6.040
 4911SOL    HW115632   6.619   2.845   6.007
 4911SOL    HW215633   6.467   2.790   5.987
 4912SOL     OW15634   2.388   2.210   2.099
 4912SOL    HW115635   2.306   2.256   2.134
 4912SOL    HW215636   2.466   2.273   2.103
 4913SOL     OW15637   2.965   3.677   2.930
 4913SOL    HW115638   2.993   3.770   2.951
 4913SOL    HW215639   2.955   3.666   2.831
 4914SOL     OW15640   1.855   6.361   3.538
 4914SOL    HW115641   1.836   6.285   3.476
 4914SOL    HW215642   1.954   6.378   3.540
 4915SOL     OW15643   3.249   5.685   3.381
 4915SOL    HW115644   3.234   5.782   3.362
 4915SOL    HW215645   3.203   5.630   3.311
 4916SOL     OW15646   3.017   1.070   2.374
 4916SOL    HW115647   3.009   1.150   2.434
 4916SOL    HW215648   2.982   1.092   2.283
 4917SOL     OW15649   1.931   4.983   0.766
 4917SOL    HW115650   2.014   4.994   0.819
 4917SOL    HW215651   1.877   5.067   0.769
 4918SOL     OW15652   2.431   0.514   2.074
 4918SOL    HW115653   2.521   0.558   2.083
 4918SOL    HW215654   2.368   0.575   2.027
 4919SOL     OW15655   2.683   2.281   1.823
 4919SOL    HW115656   2.601   2.336   1.809
 4919SOL    HW215657   2.755   2.337   1.863
 4920SOL     OW15658   4.407   0.566   6.967
 4920SOL    HW115659   4.361   0.478   6.972
 4920SOL    HW215660   4.374   0.616   6.887
 4921SOL     OW15661   1.512   5.001   1.758
 4921SOL    HW115662   1.576   5.063   1.713
 4921SOL    HW215663   1.511   4.914   1.709
 4922SOL     OW15664   1.638   2.792   5.894
 4922SOL    HW115665   1.621   2.801   5.796
 4922SOL    HW215666   1.581   2.857   5.944
 4923SOL     OW15667   4.239   1.157   0.727
 4923SOL    HW115668   4.203   1.071   0.763
 4923SOL    HW215669   4.208   1.232   0.785
 4924SOL     OW15670   0.540   3.659   4.741
 4924SOL    HW115671   0.600   3.732   4.774
 4924SOL    HW215672   0.570   3.572   4.780
 4925SOL     OW15673   4.093   6.172   6.954
 4925SOL    HW115674   4.101   6.086   6.903
 4925SOL    HW215675   4.060   6.244   6.892
 4926SOL     OW15676   4.677   2.382   1.934
 4926SOL    HW115677   4.713   2.302   1.982
 4926SOL    HW215678   4.750   2.448   1.918
 4927SOL     OW15679   3.730   3.376   3.387
 4927SOL    HW115680   3.824   3.363   3.356
 4927SOL    HW215681   3.713   3.473   3.401
 4928SOL     OW15682   0.576   6.107   0.419
 4928SOL    HW115683   0.579   6.199   0.380
 4928SOL    HW215684   0.487   6.065   0.400
 4929SOL     OW15685   0.853   5.178   4.145
 4929SOL    HW115686   0.800   5.251   4.102
 4929SOL    HW215687   0.949   5.187   4.120
 4930SOL     OW15688   0.172   1.892   0.640
 4930SOL    HW115689   0.130   1.934   0.721
 4930SOL    HW215690   0.103   1.840   0.590
 4931SOL     OW15691   0.080   1.062   0.754
 4931SOL    HW115692   0.149   1.106   0.812
 4931SOL    HW215693   0.044   1.128   0.688
 4932SOL     OW15694   2.687   2.347   1.529
 4932SOL    HW115695   2.732   2.259   1.545
 4932SOL    HW215696   2.739   2.420   1.574
 4933SOL     OW15697   3.148   0.969   4.355
 4933SOL    HW115698   3.205   0.923   4.287
 4933SOL    HW215699   3.052   0.945   4.340
 4934SOL     OW15700   1.336   6.274   4.948
 4934SOL    HW115701   1.261   6.337   4.932
 4934SOL    HW215702   1.369   6.285   5.042
 4935SOL     OW15703   1.447   1.124   0.912
 4935SOL    HW115704   1.401   1.067   0.844
 4935SOL    HW215705   1.545   1.105   0.910
 4936SOL     OW15706   3.750   5.316   0.481
 4936SOL    HW115707   3.654   5.310   0.456
 4936SOL    HW215708   3.766   5.401   0.532
 4937SOL     OW15709   0.300   3.382   6.644
 4937SOL    HW115710   0.234   3.335   6.585
 4937SOL    HW215711   0.296   3.344   6.736
 4938SOL     OW15712   3.453   4.639   1.332
 4938SOL    HW115713   3.408   4.689   1.406
 4938SOL    HW215714   3.409   4.550   1.321
 4939SOL     OW15715   1.706   1.754   2.289
 4939SOL    HW115716   1.799   1.718   2.281
 4939SOL    HW215717   1.640   1.679   2.279
 4940SOL     OW15718   6.981   2.130   4.956
 4940SOL    HW115719   0.019   2.197   4.998
 4940SOL    HW215720   6.998   2.128   4.857
 4941SOL     OW15721   3.977   1.943   5.297
 4941SOL    HW115722   3.965   1.940   5.396
 4941SOL    HW215723   4.029   2.025   5.272
 4942SOL     OW15724   6.721   1.808   3.923
 4942SOL    HW115725   6.792   1.738   3.923
 4942SOL    HW215726   6.665   1.798   4.005
 4943SOL     OW15727   5.290   3.338   6.545
 4943SOL    HW115728   5.195   3.306   6.546
 4943SOL    HW215729   5.314   3.366   6.452
 4944SOL     OW15730   1.552   5.332   1.006
 4944SOL    HW115731   1.589   5.411   1.056
 4944SOL    HW215732   1.596   5.249   1.038
 4945SOL     OW15733   1.686   1.363   5.152
 4945SOL    HW115734   1.767   1.304   5.153
 4945SOL    HW215735   1.619   1.328   5.218
 4946SOL     OW15736   2.442   5.119   6.965
 4946SOL    HW115737   2.361   5.153   7.012
 4946SOL    HW215738   2.417   5.038   6.911
 4947SOL     OW15739   1.398   1.199   1.884
 4947SOL    HW115740   1.335   1.244   1.821
 4947SOL    HW215741   1.426   1.265   1.955
 4948SOL     OW15742   1.232   2.733   1.821
 4948SOL    HW115743   1.321   2.686   1.827
 4948SOL    HW215744   1.161   2.665   1.804
 4949SOL     OW15745   7.022   3.844   6.878
 4949SOL    HW115746   0.052   3.783   6.820
 4949SOL    HW215747   0.061   3.904   6.929
 4950SOL     OW15748   2.430   3.764   5.358
 4950SOL    HW115749   2.528   3.785   5.365
 4950SOL    HW215750   2.390   3.821   5.286
 4951SOL     OW15751   4.911   5.518   3.552
 4951SOL    HW115752   5.000   5.561   3.541
 4951SOL    HW215753   4.840   5.578   3.513
 4952SOL     OW15754   0.446   6.400   5.835
 4952SOL    HW115755   0.439   6.483   5.779
 4952SOL    HW215756   0.404   6.324   5.786
 4953SOL     OW15757   0.725   2.159   5.123
 4953SOL    HW115758   0.627   2.137   5.113
 4953SOL    HW215759   0.741   2.253   5.094
 4954SOL     OW15760   3.281   4.317   5.358
 4954SOL    HW115761   3.242   4.260   5.285
 4954SOL    HW215762   3.381   4.311   5.354
 4955SOL     OW15763   3.372   5.274   6.701
 4955SOL    HW115764   3.318   5.243   6.623
 4955SOL    HW215765   3.412   5.364   6.680
 4956SOL     OW15766   2.723   0.462   4.678
 4956SOL    HW115767   2.672   0.464   4.592
 4956SOL    HW215768   2.813   0.504   4.663
 4957SOL     OW15769   6.139   4.246   6.886
 4957SOL    HW115770   6.071   4.301   6.935
 4957SOL    HW215771   6.104   4.224   6.795
 4958SOL     OW15772   3.433   5.983   0.156
 4958SOL    HW115773   3.499   6.012   0.225
 4958SOL    HW215774   3.431   6.050   0.082
 4959SOL     OW15775   0.682   3.346   2.615
 4959SOL    HW115776   0.669   3.410   2.691
 4959SOL    HW215777   0.763   3.290   2.633
 4960SOL     OW15778   4.394   5.640   4.220
 4960SOL    HW115779   4.436   5.691   4.295
 4960SOL    HW215780   4.295   5.639   4.231
 4961SOL     OW15781   4.423   1.070   6.946
 4961SOL    HW115782   4.510   1.056   6.993
 4961SOL    HW215783   4.399   1.167   6.948
 4962SOL     OW15784   1.202   4.402   1.141
 4962SOL    HW115785   1.167   4.308   1.142
 4962SOL    HW215786   1.259   4.416   1.060
 4963SOL     OW15787   1.112   4.068   6.399
 4963SOL    HW115788   1.079   4.077   6.493
 4963SOL    HW215789   1.208   4.094   6.395
 4964SOL     OW15790   3.211   0.164   4.669
 4964SOL    HW115791   3.164   0.121   4.746
 4964SOL    HW215792   3.301   0.122   4.658
 4965SOL     OW15793   1.940   6.156   3.001
 4965SOL    HW115794   1.914   6.216   3.076
 4965SOL    HW215795   1.943   6.208   2.916
 4966SOL     OW15796   3.233   6.575   4.171
 4966SOL    HW115797   3.204   6.539   4.260
 4966SOL    HW215798   3.268   6.668   4.183
 4967SOL     OW15799   4.251   4.792   4.819
 4967SOL    HW115800   4.325   4.830   4.765
 4967SOL    HW215801   4.278   4.703   4.855
 4968SOL     OW15802   6.139   2.281   3.161
 4968SOL    HW115803   6.055   2.226   3.169
 4968SOL    HW215804   6.152   2.307   3.065
 4969SOL     OW15805   0.683   6.290   3.153
 4969SOL    HW115806   0.655   6.330   3.240
 4969SOL    HW215807   0.750   6.218   3.169
 4970SOL     OW15808   0.391   1.667   1.709
 4970SOL    HW115809   0.477   1.711   1.737
 4970SOL    HW215810   0.334   1.734   1.661
 4971SOL     OW15811   6.690   6.054   3.047
 4971SOL    HW115812   6.705   6.005   3.134
 4971SOL    HW215813   6.704   6.152   3.062
 4972SOL     OW15814   1.546   4.676   1.345
 4972SOL    HW115815   1.502   4.586   1.349
 4972SOL    HW215816   1.644   4.664   1.331
 4973SOL     OW15817   6.600   0.528   1.075
 4973SOL    HW115818   6.663   0.593   1.117
 4973SOL    HW215819   6.642   0.437   1.072
 4974SOL     OW15820   3.460   5.550   5.148
 4974SOL    HW115821   3.466   5.642   5.186
 4974SOL    HW215822   3.551   5.508   5.148
 4975SOL     OW15823   5.760   4.170   0.621
 4975SOL    HW115824   5.773   4.261   0.661
 4975SOL    HW215825   5.706   4.113   0.684
 4976SOL     OW15826   1.904   6.984   4.107
 4976SOL    HW115827   1.942   0.049   4.133
 4976SOL    HW215828   1.960   6.943   4.035
 4977SOL     OW15829   1.892   4.684   6.160
 4977SOL    HW115830   1.949   4.693   6.079
 4977SOL    HW215831   1.925   4.746   6.231
 4978SOL     OW15832   5.120   4.775   4.537
 4978SOL    HW115833   5.203   4.775   4.593
 4978SOL    HW215834   5.040   4.781   4.596
 4979SOL     OW15835   2.582   7.022   6.072
 4979SOL    HW115836   2.590   0.036   6.165
 4979SOL    HW215837   2.525   6.940   6.074
 4980SOL     OW15838   5.663   3.622   3.250
 4980SOL    HW115839   5.706   3.657   3.167
 4980SOL    HW215840   5.564   3.634   3.244
 4981SOL     OW15841   3.448   4.938   1.831
 4981SOL    HW115842   3.392   4.861   1.801
 4981SOL    HW215843   3.540   4.906   1.855
 4982SOL     OW15844   4.218   1.416   6.408
 4982SOL    HW115845   4.150   1.343   6.395
 4982SOL    HW215846   4.185   1.500   6.366
 4983SOL     OW15847   6.241   5.395   2.964
 4983SOL    HW115848   6.286   5.342   3.036
 4983SOL    HW215849   6.261   5.354   2.875
 4984SOL     OW15850   5.256   4.635   3.055
 4984SOL    HW115851   5.332   4.585   3.014
 4984SOL    HW215852   5.276   4.655   3.151
 4985SOL     OW15853   5.657   6.517   2.480
 4985SOL    HW115854   5.602   6.599   2.487
 4985SOL    HW215855   5.671   6.477   2.571
 4986SOL     OW15856   0.523   4.723   2.549
 4986SOL    HW115857   0.490   4.744   2.457
 4986SOL    HW215858   0.511   4.626   2.568
 4987SOL     OW15859   0.658   0.904   2.492
 4987SOL    HW115860   0.716   0.845   2.548
 4987SOL    HW215861   0.622   0.979   2.548
 4988SOL     OW15862   5.928   6.878   3.806
 4988SOL    HW115863   5.877   6.932   3.872
 4988SOL    HW215864   6.026   6.888   3.823
 4989SOL     OW15865   4.388   0.486   2.506
 4989SOL    HW115866   4.341   0.411   2.460
 4989SOL    HW215867   4.487   0.469   2.505
 4990SOL     OW15868   4.851   2.112   5.502
 4990SOL    HW115869   4.795   2.195   5.511
 4990SOL    HW215870   4.799   2.033   5.535
 4991SOL     OW15871   1.338   5.343   4.613
 4991SOL    HW115872   1.376   5.428   4.649
 4991SOL    HW215873   1.294   5.292   4.687
 4992SOL     OW15874   0.389   2.007   3.494
 4992SOL    HW115875   0.343   1.923   3.467
 4992SOL    HW215876   0.398   2.011   3.593
 4993SOL     OW15877   3.941   6.326   4.480
 4993SOL    HW115878   3.959   6.236   4.519
 4993SOL    HW215879   3.846   6.352   4.498
 4994SOL     OW15880   3.063   4.859   5.676
 4994SOL    HW115881   3.021   4.898   5.758
 4994SOL    HW215882   2.991   4.824   5.615
 4995SOL     OW15883   0.454   0.421   5.518
 4995SOL    HW115884   0.546   0.391   5.542
 4995SOL    HW215885   0.422   0.487   5.586
 4996SOL     OW15886   7.005   1.116   4.842
 4996SOL    HW115887   7.004   1.017   4.854
 4996SOL    HW215888   6.995   1.138   4.745
 4997SOL     OW15889   3.836   2.249   1.105
 4997SOL    HW115890   3.865   2.163   1.062
 4997SOL    HW215891   3.775   2.229   1.181
 4998SOL     OW15892   0.899   3.443   4.019
 4998SOL    HW115893   0.925   3.378   3.948
 4998SOL    HW215894   0.897   3.396   4.108
 4999SOL     OW15895   0.608   4.129   4.410
 4999SOL    HW115896   0.592   4.228   4.419
 4999SOL    HW215897   0.707   4.112   4.408
 5000SOL     OW15898   2.936   5.387   3.495
 5000SOL    HW115899   2.855   5.424   3.540
 5000SOL    HW215900   2.941   5.421   3.401
 5001SOL     OW15901   0.731   5.298   2.765
 5001SOL    HW115902   0.783   5.290   2.681
 5001SOL    HW215903   0.788   5.273   2.843
 5002SOL     OW15904   0.588   3.166   3.255
 5002SOL    HW115905   0.593   3.214   3.342
 5002SOL    HW215906   0.500   3.185   3.211
 5003SOL     OW15907   3.957   6.868   4.218
 5003SOL    HW115908   4.041   6.868   4.165
 5003SOL    HW215909   3.977   6.842   4.313
 5004SOL     OW15910   2.434   6.342   6.630
 5004SOL    HW115911   2.418   6.338   6.531
 5004SOL    HW215912   2.360   6.391   6.675
 5005SOL     OW15913   2.790   2.855   6.834
 5005SOL    HW115914   2.811   2.790   6.761
 5005SOL    HW215915   2.785   2.806   6.921
 5006SOL     OW15916   5.508   1.832   2.033
 5006SOL    HW115917   5.527   1.735   2.046
 5006SOL    HW215918   5.419   1.843   1.989
 5007SOL     OW15919   6.060   6.685   1.836
 5007SOL    HW115920   6.117   6.603   1.842
 5007SOL    HW215921   5.998   6.687   1.914
 5008SOL     OW15922   5.547   6.720   2.070
 5008SOL    HW115923   5.577   6.637   2.118
 5008SOL    HW215924   5.462   6.701   2.020
 5009SOL     OW15925   0.312   2.240   0.640
 5009SOL    HW115926   0.235   2.251   0.577
 5009SOL    HW215927   0.287   2.275   0.730
 5010SOL     OW15928   3.925   3.587   0.114
 5010SOL    HW115929   3.837   3.539   0.116
 5010SOL    HW215930   3.908   3.686   0.104
 5011SOL     OW15931   2.320   3.759   6.677
 5011SOL    HW115932   2.290   3.667   6.653
 5011SOL    HW215933   2.257   3.826   6.636
 5012SOL     OW15934   6.167   1.660   5.461
 5012SOL    HW115935   6.150   1.711   5.545
 5012SOL    HW215936   6.261   1.626   5.460
 5013SOL     OW15937   5.997   0.274   5.651
 5013SOL    HW115938   5.993   0.175   5.664
 5013SOL    HW215939   5.914   0.316   5.687
 5014SOL     OW15940   6.873   3.306   1.366
 5014SOL    HW115941   6.869   3.256   1.279
 5014SOL    HW215942   6.969   3.321   1.391
 5015SOL     OW15943   5.766   6.756   4.146
 5015SOL    HW115944   5.837   6.717   4.088
 5015SOL    HW215945   5.676   6.724   4.114
 5016SOL     OW15946   1.462   3.502   5.200
 5016SOL    HW115947   1.409   3.578   5.236
 5016SOL    HW215948   1.522   3.535   5.126
 5017SOL     OW15949   0.712   2.429   1.739
 5017SOL    HW115950   0.791   2.422   1.800
 5017SOL    HW215951   0.727   2.372   1.658
 5018SOL     OW15952   1.090   6.322   1.594
 5018SOL    HW115953   1.172   6.356   1.548
 5018SOL    HW215954   1.099   6.337   1.692
 5019SOL     OW15955   1.311   5.427   5.012
 5019SOL    HW115956   1.402   5.457   5.038
 5019SOL    HW215957   1.248   5.504   5.018
 5020SOL     OW15958   1.436   0.115   4.618
 5020SOL    HW115959   1.379   0.146   4.542
 5020SOL    HW215960   1.378   0.073   4.688
 5021SOL     OW15961   1.662   1.211   1.305
 5021SOL    HW115962   1.566   1.234   1.287
 5021SOL    HW215963   1.709   1.291   1.343
 5022SOL     OW15964   0.486   3.133   1.461
 5022SOL    HW115965   0.526   3.129   1.370
 5022SOL    HW215966   0.534   3.068   1.521
 5023SOL     OW15967   0.172   4.781   2.681
 5023SOL    HW115968   0.250   4.771   2.619
 5023SOL    HW215969   0.178   4.712   2.753
 5024SOL     OW15970   4.668   3.686   1.343
 5024SOL    HW115971   4.667   3.785   1.351
 5024SOL    HW215972   4.760   3.654   1.323
 5025SOL     OW15973   4.228   0.985   3.411
 5025SOL    HW115974   4.261   1.034   3.331
 5025SOL    HW215975   4.207   1.051   3.484
 5026SOL     OW15976   5.342   6.377   5.319
 5026SOL    HW115977   5.356   6.280   5.298
 5026SOL    HW215978   5.394   6.432   5.253
 5027SOL     OW15979   5.087   0.385   6.658
 5027SOL    HW115980   5.026   0.331   6.716
 5027SOL    HW215981   5.040   0.410   6.574
 5028SOL     OW15982   0.560   2.286   2.783
 5028SOL    HW115983   0.657   2.300   2.766
 5028SOL    HW215984   0.547   2.245   2.874
 5029SOL     OW15985   6.268   1.813   2.565
 5029SOL    HW115986   6.299   1.906   2.585
 5029SOL    HW215987   6.170   1.814   2.543
 5030SOL     OW15988   6.946   4.875   0.026
 5030SOL    HW115989   6.946   4.926   6.963
 5030SOL    HW215990   6.879   4.801   0.020
 5031SOL     OW15991   0.247   0.539   5.932
 5031SOL    HW115992   0.294   0.599   5.996
 5031SOL    HW215993   0.178   0.486   5.981
 5032SOL     OW15994   3.174   3.377   5.782
 5032SOL    HW115995   3.136   3.441   5.715
 5032SOL    HW215996   3.225   3.305   5.735
 5033SOL     OW15997   2.153   1.288   0.250
 5033SOL    HW115998   2.082   1.228   0.215
 5033SOL    HW215999   2.238   1.274   0.199
 5034SOL     OW16000   4.451   6.327   4.152
 5034SOL    HW116001   4.425   6.233   4.129
 5034SOL    HW216002   4.548   6.341   4.131
 5035SOL     OW16003   1.082   4.887   4.369
 5035SOL    HW116004   1.162   4.846   4.413
 5035SOL    HW216005   1.030   4.939   4.438
 5036SOL     OW16006   6.950   2.916   5.028
 5036SOL    HW116007   6.916   2.883   4.940
 5036SOL    HW216008   6.897   2.996   5.057
 5037SOL     OW16009   4.504   4.175   1.109
 5037SOL    HW116010   4.530   4.262   1.069
 5037SOL    HW216011   4.504   4.182   1.209
 5038SOL     OW16012   3.160   3.432   3.849
 5038SOL    HW116013   3.062   3.423   3.828
 5038SOL    HW216014   3.213   3.428   3.765
 5039SOL     OW16015   0.884   3.412   0.027
 5039SOL    HW116016   0.805   3.368   7.007
 5039SOL    HW216017   0.968   3.375   7.011
 5040SOL     OW16018   1.334   5.532   6.272
 5040SOL    HW116019   1.427   5.498   6.260
 5040SOL    HW216020   1.269   5.456   6.266
 5041SOL     OW16021   0.302   3.099   2.166
 5041SOL    HW116022   0.213   3.054   2.155
 5041SOL    HW216023   0.325   3.103   2.263
 5042SOL     OW16024   0.047   3.645   6.192
 5042SOL    HW116025   0.035   3.581   6.116
 5042SOL    HW216026   0.065   3.736   6.156
 5043SOL     OW16027   3.907   0.606   0.635
 5043SOL    HW116028   3.857   0.579   0.553
 5043SOL    HW216029   3.967   0.683   0.613
 5044SOL     OW16030   6.322   5.318   0.961
 5044SOL    HW116031   6.309   5.411   0.929
 5044SOL    HW216032   6.281   5.307   1.052
 5045SOL     OW16033   6.150   3.715   6.070
 5045SOL    HW116034   6.080   3.783   6.091
 5045SOL    HW216035   6.170   3.660   6.151
 5046SOL     OW16036   3.230   3.371   3.582
 5046SOL    HW116037   3.300   3.346   3.516
 5046SOL    HW216038   3.175   3.291   3.605
 5047SOL     OW16039   1.964   3.793   3.318
 5047SOL    HW116040   1.940   3.750   3.231
 5047SOL    HW216041   1.888   3.782   3.382
 5048SOL     OW16042   1.107   0.963   5.733
 5048SOL    HW116043   1.121   0.865   5.745
 5048SOL    HW216044   1.061   0.979   5.646
 5049SOL     OW16045   5.971   0.540   6.090
 5049SOL    HW116046   5.969   0.585   6.180
 5049SOL    HW216047   5.995   0.444   6.101
 5050SOL     OW16048   2.029   1.143   0.763
 5050SOL    HW116049   2.035   1.243   0.765
 5050SOL    HW216050   2.093   1.108   0.694
 5051SOL     OW16051   3.683   4.773   1.366
 5051SOL    HW116052   3.597   4.732   1.336
 5051SOL    HW216053   3.687   4.771   1.466
 5052SOL     OW16054   3.678   1.463   5.057
 5052SOL    HW116055   3.670   1.453   4.958
 5052SOL    HW216056   3.685   1.561   5.080
 5053SOL     OW16057   0.875   6.318   2.335
 5053SOL    HW116058   0.843   6.406   2.301
 5053SOL    HW216059   0.827   6.245   2.287
 5054SOL     OW16060   4.267   4.679   4.430
 5054SOL    HW116061   4.247   4.591   4.388
 5054SOL    HW216062   4.181   4.725   4.455
 5055SOL     OW16063   6.276   3.003   6.393
 5055SOL    HW116064   6.236   2.961   6.474
 5055SOL    HW216065   6.270   3.102   6.400
 5056SOL     OW16066   5.167   3.664   5.042
 5056SOL    HW116067   5.080   3.709   5.022
 5056SOL    HW216068   5.150   3.581   5.095
 5057SOL     OW16069   1.202   6.663   3.006
 5057SOL    HW116070   1.157   6.612   2.933
 5057SOL    HW216071   1.160   6.638   3.094
 5058SOL     OW16072   3.148   4.617   6.499
 5058SOL    HW116073   3.215   4.577   6.436
 5058SOL    HW216074   3.065   4.562   6.497
 5059SOL     OW16075   0.557   0.291   3.040
 5059SOL    HW116076   0.522   0.249   3.124
 5059SOL    HW216077   0.488   0.283   2.968
 5060SOL     OW16078   6.133   1.745   6.183
 5060SOL    HW116079   6.164   1.823   6.129
 5060SOL    HW216080   6.046   1.712   6.146
 5061SOL     OW16081   4.849   3.411   0.138
 5061SOL    HW116082   4.884   3.317   0.138
 5061SOL    HW216083   4.848   3.446   0.232
 5062SOL     OW16084   0.354   0.100   1.365
 5062SOL    HW116085   0.364   0.193   1.400
 5062SOL    HW216086   0.442   0.053   1.369
 5063SOL     OW16087   1.081   6.975   2.222
 5063SOL    HW116088   1.020   0.026   2.250
 5063SOL    HW216089   1.163   6.976   2.281
 5064SOL     OW16090   4.569   3.473   0.111
 5064SOL    HW116091   4.664   3.466   0.081
 5064SOL    HW216092   4.565   3.528   0.195
 5065SOL     OW16093   2.983   6.587   5.375
 5065SOL    HW116094   2.926   6.632   5.306
 5065SOL    HW216095   3.059   6.648   5.399
 5066SOL     OW16096   6.030   4.748   1.271
 5066SOL    HW116097   6.068   4.839   1.258
 5066SOL    HW216098   6.103   4.680   1.259
 5067SOL     OW16099   4.987   0.741   0.274
 5067SOL    HW116100   4.976   0.713   0.179
 5067SOL    HW216101   5.022   0.835   0.277
 5068SOL     OW16102   2.585   5.147   0.217
 5068SOL    HW116103   2.516   5.161   0.289
 5068SOL    HW216104   2.540   5.147   0.127
 5069SOL     OW16105   0.768   4.339   2.491
 5069SOL    HW116106   0.802   4.325   2.584
 5069SOL    HW216107   0.668   4.334   2.491
 5070SOL     OW16108   4.926   3.164   3.899
 5070SOL    HW116109   4.967   3.073   3.901
 5070SOL    HW216110   4.890   3.187   3.990
 5071SOL     OW16111   4.752   2.349   6.306
 5071SOL    HW116112   4.829   2.307   6.258
 5071SOL    HW216113   4.669   2.296   6.289
 5072SOL     OW16114   0.439   4.232   1.355
 5072SOL    HW116115   0.470   4.265   1.266
 5072SOL    HW216116   0.423   4.309   1.416
 5073SOL     OW16117   5.224   0.415   2.627
 5073SOL    HW116118   5.248   0.502   2.671
 5073SOL    HW216119   5.203   0.348   2.698
 5074SOL     OW16120   2.477   4.087   6.539
 5074SOL    HW116121   2.549   4.029   6.576
 5074SOL    HW216122   2.416   4.033   6.482
 5075SOL     OW16123   0.107   5.702   4.848
 5075SOL    HW116124   0.139   5.611   4.874
 5075SOL    HW216125   0.121   5.765   4.924
 5076SOL     OW16126   3.706   0.928   0.664
 5076SOL    HW116127   3.653   0.961   0.587
 5076SOL    HW216128   3.741   0.836   0.644
 5077SOL     OW16129   0.652   2.501   3.531
 5077SOL    HW116130   0.637   2.418   3.586
 5077SOL    HW216131   0.565   2.530   3.491
 5078SOL     OW16132   1.767   2.014   4.451
 5078SOL    HW116133   1.794   2.006   4.355
 5078SOL    HW216134   1.822   2.084   4.496
 5079SOL     OW16135   3.381   4.930   5.671
 5079SOL    HW116136   3.306   4.993   5.689
 5079SOL    HW216137   3.346   4.848   5.626
 5080SOL     OW16138   5.687   0.026   5.696
 5080SOL    HW116139   5.783   0.031   5.723
 5080SOL    HW216140   5.676   0.059   5.603
 5081SOL     OW16141   3.494   3.547   3.578
 5081SOL    HW116142   3.471   3.470   3.637
 5081SOL    HW216143   3.456   3.533   3.487
 5082SOL     OW16144   5.168   5.896   5.278
 5082SOL    HW116145   5.167   5.802   5.244
 5082SOL    HW216146   5.127   5.957   5.210
 5083SOL     OW16147   1.571   6.451   2.017
 5083SOL    HW116148   1.642   6.431   1.949
 5083SOL    HW216149   1.563   6.550   2.029
 5084SOL     OW16150   1.464   5.750   3.981
 5084SOL    HW116151   1.504   5.831   4.025
 5084SOL    HW216152   1.415   5.778   3.899
 5085SOL     OW16153   5.702   1.859   6.585
 5085SOL    HW116154   5.728   1.881   6.679
 5085SOL    HW216155   5.784   1.861   6.527
 5086SOL     OW16156   6.471   5.046   3.704
 5086SOL    HW116157   6.379   5.010   3.687
 5086SOL    HW216158   6.491   5.041   3.802
 5087SOL     OW16159   6.816   5.302   5.443
 5087SOL    HW116160   6.746   5.363   5.479
 5087SOL    HW216161   6.814   5.305   5.343
 5088SOL     OW16162   5.621   0.618   6.113
 5088SOL    HW116163   5.657   0.676   6.186
 5088SOL    HW216164   5.694   0.562   6.076
 5089SOL     OW16165   5.723   3.781   3.011
 5089SOL    HW116166   5.725   3.698   2.955
 5089SOL    HW216167   5.678   3.855   2.961
 5090SOL     OW16168   2.048   5.451   1.471
 5090SOL    HW116169   2.081   5.494   1.556
 5090SOL    HW216170   2.119   5.459   1.401
 5091SOL     OW16171   1.227   6.301   2.815
 5091SOL    HW116172   1.202   6.230   2.749
 5091SOL    HW216173   1.279   6.261   2.890
 5092SOL     OW16174   4.130   2.337   1.118
 5092SOL    HW116175   4.149   2.241   1.138
 5092SOL    HW216176   4.057   2.342   1.049
 5093SOL     OW16177   1.164   1.920   2.108
 5093SOL    HW116178   1.246   1.884   2.152
 5093SOL    HW216179   1.086   1.860   2.128
 5094SOL     OW16180   0.693   5.953   4.810
 5094SOL    HW116181   0.767   6.011   4.843
 5094SOL    HW216182   0.689   5.958   4.710
 5095SOL     OW16183   3.051   0.437   5.077
 5095SOL    HW116184   2.969   0.494   5.087
 5095SOL    HW216185   3.078   0.435   4.981
 5096SOL     OW16186   4.657   3.726   0.615
 5096SOL    HW116187   4.665   3.627   0.612
 5096SOL    HW216188   4.583   3.752   0.677
 5097SOL     OW16189   1.411   6.293   5.766
 5097SOL    HW116190   1.384   6.389   5.778
 5097SOL    HW216191   1.357   6.236   5.828
 5098SOL     OW16192   0.234   1.506   3.007
 5098SOL    HW116193   0.230   1.462   3.097
 5098SOL    HW216194   0.314   1.566   3.002
 5099SOL     OW16195   1.778   0.413   5.609
 5099SOL    HW116196   1.683   0.424   5.637
 5099SOL    HW216197   1.834   0.485   5.649
 5100SOL     OW16198   5.681   6.620   0.099
 5100SOL    HW116199   5.662   6.539   0.155
 5100SOL    HW216200   5.599   6.646   0.048
 5101SOL     OW16201   4.158   6.310   0.293
 5101SOL    HW116202   4.159   6.230   0.353
 5101SOL    HW216203   4.129   6.390   0.346
 5102SOL     OW16204   3.917   6.109   5.228
 5102SOL    HW116205   4.015   6.129   5.219
 5102SOL    HW216206   3.865   6.171   5.170
 5103SOL     OW16207   0.232   0.170   4.036
 5103SOL    HW116208   0.212   0.108   3.960
 5103SOL    HW216209   0.174   0.148   4.114
 5104SOL     OW16210   1.388   0.592   1.433
 5104SOL    HW116211   1.480   0.616   1.463
 5104SOL    HW216212   1.347   0.529   1.499
 5105SOL     OW16213   3.337   3.976   6.401
 5105SOL    HW116214   3.305   4.071   6.407
 5105SOL    HW216215   3.335   3.946   6.305
 5106SOL     OW16216   3.560   0.591   2.054
 5106SOL    HW116217   3.529   0.517   1.995
 5106SOL    HW216218   3.582   0.555   2.145
 5107SOL     OW16219   2.445   6.883   5.784
 5107SOL    HW116220   2.364   6.893   5.842
 5107SOL    HW216221   2.417   6.858   5.691
 5108SOL     OW16222   3.357   3.683   4.334
 5108SOL    HW116223   3.296   3.659   4.259
 5108SOL    HW216224   3.322   3.764   4.381
 5109SOL     OW16225   7.011   1.093   1.366
 5109SOL    HW116226   0.026   1.132   1.282
 5109SOL    HW216227   6.969   1.166   1.420
 5110SOL     OW16228   1.810   5.568   5.703
 5110SOL    HW116229   1.741   5.495   5.703
 5110SOL    HW216230   1.815   5.610   5.793
 5111SOL     OW16231   1.550   1.271   0.426
 5111SOL    HW116232   1.573   1.174   0.426
 5111SOL    HW216233   1.578   1.312   0.339
 5112SOL     OW16234   0.353   6.186   4.000
 5112SOL    HW116235   0.354   6.284   4.022
 5112SOL    HW216236   0.426   6.139   4.050
 5113SOL     OW16237   1.380   0.402   0.109
 5113SOL    HW116238   1.398   0.319   0.162
 5113SOL    HW216239   1.390   0.482   0.168
 5114SOL     OW16240   3.572   5.071   6.764
 5114SOL    HW116241   3.624   5.036   6.686
 5114SOL    HW216242   3.530   5.159   6.740
 5115SOL     OW16243   1.584   3.318   5.338
 5115SOL    HW116244   1.519   3.381   5.295
 5115SOL    HW216245   1.628   3.262   5.267
 5116SOL     OW16246   6.484   4.544   0.817
 5116SOL    HW116247   6.417   4.594   0.762
 5116SOL    HW216248   6.555   4.606   0.849
 5117SOL     OW16249   2.317   4.418   4.555
 5117SOL    HW116250   2.226   4.453   4.534
 5117SOL    HW216251   2.333   4.421   4.653
 5118SOL     OW16252   4.379   6.286   0.680
 5118SOL    HW116253   4.344   6.317   0.769
 5118SOL    HW216254   4.472   6.253   0.692
 5119SOL     OW16255   5.771   0.025   2.011
 5119SOL    HW116256   5.800   6.958   1.979
 5119SOL    HW216257   5.820   0.048   2.095
 5120SOL     OW16258   4.914   1.969   2.549
 5120SOL    HW116259   4.964   1.922   2.476
 5120SOL    HW216260   4.948   2.063   2.557
 5121SOL     OW16261   0.288   3.457   5.205
 5121SOL    HW116262   0.351   3.535   5.207
 5121SOL    HW216263   0.195   3.489   5.221
 5122SOL     OW16264   2.294   6.724   3.682
 5122SOL    HW116265   2.334   6.776   3.606
 5122SOL    HW216266   2.328   6.630   3.680
 5123SOL     OW16267   5.198   4.990   1.924
 5123SOL    HW116268   5.124   4.923   1.920
 5123SOL    HW216269   5.285   4.942   1.942
 5124SOL     OW16270   2.806   6.562   6.967
 5124SOL    HW116271   2.851   6.475   6.951
 5124SOL    HW216272   2.751   6.556   0.027
 5125SOL     OW16273   0.125   2.712   4.350
 5125SOL    HW116274   0.098   2.630   4.299
 5125SOL    HW216275   0.222   2.729   4.336
 5126SOL     OW16276   5.751   4.122   6.373
 5126SOL    HW116277   5.685   4.127   6.448
 5126SOL    HW216278   5.812   4.043   6.387
 5127SOL     OW16279   5.860   2.969   6.628
 5127SOL    HW116280   5.796   3.041   6.600
 5127SOL    HW216281   5.949   3.010   6.649
 5128SOL     OW16282   0.255   0.632   6.781
 5128SOL    HW116283   0.343   0.585   6.772
 5128SOL    HW216284   0.228   0.669   6.692
 5129SOL     OW16285   4.372   2.098   2.418
 5129SOL    HW116286   4.437   2.133   2.486
 5129SOL    HW216287   4.340   2.008   2.447
 5130SOL     OW16288   0.890   6.155   3.958
 5130SOL    HW116289   0.913   6.153   4.055
 5130SOL    HW216290   0.825   6.082   3.937
 5131SOL     OW16291   3.284   4.850   3.536
 5131SOL    HW116292   3.186   4.846   3.555
 5131SOL    HW216293   3.335   4.849   3.622
 5132SOL     OW16294   3.322   1.565   6.739
 5132SOL    HW116295   3.373   1.604   6.815
 5132SOL    HW216296   3.386   1.532   6.670
 5133SOL     OW16297   4.492   4.633   6.272
 5133SOL    HW116298   4.413   4.678   6.313
 5133SOL    HW216299   4.576   4.671   6.310
 5134SOL     OW16300   6.726   6.038   1.219
 5134SOL    HW116301   6.821   6.035   1.251
 5134SOL    HW216302   6.668   5.983   1.279
 5135SOL     OW16303   6.706   3.186   2.204
 5135SOL    HW116304   6.628   3.246   2.185
 5135SOL    HW216305   6.674   3.099   2.240
 5136SOL     OW16306   0.851   0.584   6.170
 5136SOL    HW116307   0.892   0.522   6.237
 5136SOL    HW216308   0.769   0.625   6.209
 5137SOL     OW16309   5.487   0.902   4.347
 5137SOL    HW116310   5.507   0.961   4.268
 5137SOL    HW216311   5.573   0.869   4.385
 5138SOL     OW16312   3.069   3.158   3.587
 5138SOL    HW116313   3.054   3.125   3.493
 5138SOL    HW216314   3.106   3.083   3.643
 5139SOL     OW16315   2.412   0.062   4.900
 5139SOL    HW116316   2.418   0.122   4.820
 5139SOL    HW216317   2.503   0.049   4.939
 5140SOL     OW16318   4.406   2.553   6.503
 5140SOL    HW116319   4.402   2.455   6.523
 5140SOL    HW216320   4.319   2.582   6.465
 5141SOL     OW16321   6.559   2.823   1.762
 5141SOL    HW116322   6.485   2.878   1.801
 5141SOL    HW216323   6.629   2.807   1.831
 5142SOL     OW16324   6.964   0.208   2.840
 5142SOL    HW116325   7.000   0.124   2.800
 5142SOL    HW216326   6.905   0.185   2.918
 5143SOL     OW16327   0.229   6.210   3.265
 5143SOL    HW116328   0.247   6.292   3.319
 5143SOL    HW216329   0.315   6.175   3.228
 5144SOL     OW16330   2.515   2.784   5.595
 5144SOL    HW116331   2.572   2.846   5.540
 5144SOL    HW216332   2.574   2.723   5.649
 5145SOL     OW16333   2.529   6.076   0.066
 5145SOL    HW116334   2.577   6.020   7.022
 5145SOL    HW216335   2.451   6.121   0.022
 5146SOL     OW16336   5.011   4.845   6.347
 5146SOL    HW116337   5.091   4.803   6.391
 5146SOL    HW216338   5.027   4.852   6.249
 5147SOL     OW16339   4.679   2.625   3.722
 5147SOL    HW116340   4.685   2.723   3.743
 5147SOL    HW216341   4.653   2.574   3.803
 5148SOL     OW16342   0.953   0.050   0.111
 5148SOL    HW116343   0.956   0.125   0.045
 5148SOL    HW216344   0.859   0.034   0.139
 5149SOL     OW16345   4.926   5.227   3.561
 5149SOL    HW116346   4.959   5.169   3.635
 5149SOL    HW216347   4.874   5.304   3.599
 5150SOL     OW16348   0.149   5.982   3.982
 5150SOL    HW116349   0.167   5.905   3.921
 5150SOL    HW216350   0.228   6.043   3.984
 5151SOL     OW16351   6.115   5.080   1.568
 5151SOL    HW116352   6.164   5.005   1.614
 5151SOL    HW216353   6.163   5.104   1.483
 5152SOL     OW16354   1.067   1.510   0.306
 5152SOL    HW116355   1.147   1.515   0.246
 5152SOL    HW216356   1.069   1.424   0.357
 5153SOL     OW16357   0.966   1.560   1.032
 5153SOL    HW116358   0.949   1.504   0.952
 5153SOL    HW216359   1.003   1.504   1.105
 5154SOL     OW16360   6.937   2.943   0.096
 5154SOL    HW116361   6.944   3.043   0.098
 5154SOL    HW216362   6.923   2.909   0.189
 5155SOL     OW16363   1.723   1.417   0.943
 5155SOL    HW116364   1.652   1.475   0.985
 5155SOL    HW216365   1.690   1.384   0.855
 5156SOL     OW16366   5.402   5.960   5.724
 5156SOL    HW116367   5.378   6.052   5.694
 5156SOL    HW216368   5.342   5.894   5.679
 5157SOL     OW16369   3.197   0.173   1.030
 5157SOL    HW116370   3.216   0.075   1.042
 5157SOL    HW216371   3.220   0.200   0.937
 5158SOL     OW16372   2.344   1.958   2.188
 5158SOL    HW116373   2.341   2.034   2.123
 5158SOL    HW216374   2.318   1.873   2.142
 5159SOL     OW16375   6.402   2.877   5.636
 5159SOL    HW116376   6.466   2.813   5.595
 5159SOL    HW216377   6.315   2.874   5.587
 5160SOL     OW16378   6.597   6.261   3.593
 5160SOL    HW116379   6.665   6.244   3.521
 5160SOL    HW216380   6.641   6.311   3.668
 5161SOL     OW16381   0.823   3.791   0.534
 5161SOL    HW116382   0.914   3.775   0.494
 5161SOL    HW216383   0.764   3.834   0.466
 5162SOL     OW16384   0.384   6.699   3.548
 5162SOL    HW116385   0.440   6.768   3.502
 5162SOL    HW216386   0.378   6.617   3.490
 5163SOL     OW16387   3.014   6.810   2.154
 5163SOL    HW116388   2.927   6.846   2.119
 5163SOL    HW216389   3.061   6.760   2.081
 5164SOL     OW16390   3.167   3.665   0.323
 5164SOL    HW116391   3.132   3.688   0.233
 5164SOL    HW216392   3.251   3.718   0.340
 5165SOL     OW16393   1.612   4.290   6.354
 5165SOL    HW116394   1.518   4.259   6.344
 5165SOL    HW216395   1.628   4.368   6.293
 5166SOL     OW16396   1.536   5.762   1.180
 5166SOL    HW116397   1.632   5.763   1.209
 5166SOL    HW216398   1.498   5.854   1.190
 5167SOL     OW16399   5.288   2.753   4.941
 5167SOL    HW116400   5.291   2.683   5.013
 5167SOL    HW216401   5.198   2.796   4.941
 5168SOL     OW16402   4.412   2.447   2.679
 5168SOL    HW116403   4.325   2.397   2.686
 5168SOL    HW216404   4.427   2.499   2.763
 5169SOL     OW16405   3.974   6.371   3.850
 5169SOL    HW116406   3.916   6.315   3.791
 5169SOL    HW216407   3.916   6.419   3.916
 5170SOL     OW16408   1.315   3.208   6.397
 5170SOL    HW116409   1.372   3.287   6.419
 5170SOL    HW216410   1.323   3.188   6.299
 5171SOL     OW16411   2.098   5.870   5.162
 5171SOL    HW116412   2.128   5.779   5.133
 5171SOL    HW216413   2.003   5.865   5.193
 5172SOL     OW16414   6.569   4.989   4.684
 5172SOL    HW116415   6.523   4.915   4.732
 5172SOL    HW216416   6.584   5.066   4.746
 5173SOL     OW16417   4.328   3.791   5.735
 5173SOL    HW116418   4.268   3.864   5.769
 5173SOL    HW216419   4.423   3.819   5.744
 5174SOL     OW16420   2.604   6.466   3.381
 5174SOL    HW116421   2.593   6.374   3.342
 5174SOL    HW216422   2.608   6.459   3.480
 5175SOL     OW16423   3.310   3.645   6.957
 5175SOL    HW116424   3.287   3.588   6.878
 5175SOL    HW216425   3.341   3.586   0.008
 5176SOL     OW16426   5.901   6.157   6.953
 5176SOL    HW116427   5.930   6.100   6.877
 5176SOL    HW216428   5.981   6.195   6.999
 5177SOL     OW16429   6.204   0.193   0.331
 5177SOL    HW116430   6.188   0.291   0.339
 5177SOL    HW216431   6.134   0.143   0.382
 5178SOL     OW16432   0.691   4.759   1.978
 5178SOL    HW116433   0.707   4.664   2.006
 5178SOL    HW216434   0.670   4.815   2.059
 5179SOL     OW16435   5.496   5.513   2.820
 5179SOL    HW116436   5.521   5.474   2.731
 5179SOL    HW216437   5.580   5.539   2.869
 5180SOL     OW16438   2.458   6.718   2.638
 5180SOL    HW116439   2.426   6.807   2.606
 5180SOL    HW216440   2.443   6.649   2.567
 5181SOL     OW16441   0.475   0.261   5.982
 5181SOL    HW116442   0.421   0.286   5.902
 5181SOL    HW216443   0.554   0.206   5.953
 5182SOL     OW16444   3.217   5.337   3.371
 5182SOL    HW116445   3.223   5.330   3.470
 5182SOL    HW216446   3.122   5.347   3.344
 5183SOL     OW16447   3.842   1.825   3.614
 5183SOL    HW116448   3.885   1.737   3.594
 5183SOL    HW216449   3.786   1.854   3.536
 5184SOL     OW16450   2.638   0.904   3.880
 5184SOL    HW116451   2.660   0.806   3.878
 5184SOL    HW216452   2.676   0.944   3.964
 5185SOL     OW16453   6.226   0.597   1.710
 5185SOL    HW116454   6.171   0.632   1.786
 5185SOL    HW216455   6.313   0.562   1.744
 5186SOL     OW16456   6.897   3.182   6.693
 5186SOL    HW116457   6.900   3.138   6.604
 5186SOL    HW216458   6.860   3.118   6.761
 5187SOL     OW16459   1.877   4.849   5.305
 5187SOL    HW116460   1.823   4.813   5.381
 5187SOL    HW216461   1.826   4.922   5.260
 5188SOL     OW16462   6.054   6.563   2.190
 5188SOL    HW116463   6.125   6.493   2.193
 5188SOL    HW216464   6.091   6.650   2.223
 5189SOL     OW16465   5.351   6.738   6.100
 5189SOL    HW116466   5.271   6.730   6.159
 5189SOL    HW216467   5.402   6.653   6.100
 5190SOL     OW16468   1.307   4.191   0.465
 5190SOL    HW116469   1.384   4.252   0.488
 5190SOL    HW216470   1.251   4.233   0.394
 5191SOL     OW16471   3.614   4.940   2.507
 5191SOL    HW116472   3.520   4.908   2.500
 5191SOL    HW216473   3.675   4.861   2.515
 5192SOL     OW16474   1.992   4.725   2.235
 5192SOL    HW116475   2.083   4.685   2.247
 5192SOL    HW216476   1.924   4.653   2.232
 5193SOL     OW16477   5.106   0.072   5.714
 5193SOL    HW116478   5.058   0.117   5.639
 5193SOL    HW216479   5.205   0.073   5.696
 5194SOL     OW16480   5.467   2.354   6.587
 5194SOL    HW116481   5.419   2.283   6.638
 5194SOL    HW216482   5.497   2.426   6.650
 5195SOL     OW16483   6.865   0.113   4.631
 5195SOL    HW116484   6.892   0.209   4.635
 5195SOL    HW216485   6.863   0.084   4.535
 5196SOL     OW16486   5.536   6.156   2.453
 5196SOL    HW116487   5.481   6.218   2.398
 5196SOL    HW216488   5.632   6.180   2.445
 5197SOL     OW16489   1.420   3.829   5.420
 5197SOL    HW116490   1.339   3.829   5.478
 5197SOL    HW216491   1.490   3.770   5.460
 5198SOL     OW16492   6.105   5.653   2.878
 5198SOL    HW116493   6.137   5.724   2.816
 5198SOL    HW216494   6.154   5.567   2.859
 5199SOL     OW16495   0.031   4.715   1.362
 5199SOL    HW116496   0.048   4.625   1.320
 5199SOL    HW216497   7.000   4.771   1.299
 5200SOL     OW16498   0.262   3.985   4.896
 5200SOL    HW116499   0.275   4.081   4.922
 5200SOL    HW216500   0.285   3.926   4.974
 5201SOL     OW16501   1.796   5.156   3.934
 5201SOL    HW116502   1.749   5.176   3.848
 5201SOL    HW216503   1.891   5.129   3.916
 5202SOL     OW16504   0.356   4.735   1.248
 5202SOL    HW116505   0.292   4.802   1.212
 5202SOL    HW216506   0.372   4.664   1.179
 5203SOL     OW16507   1.198   2.330   0.369
 5203SOL    HW116508   1.196   2.252   0.306
 5203SOL    HW216509   1.226   2.412   0.319
 5204SOL     OW16510   4.839   4.882   6.982
 5204SOL    HW116511   4.749   4.863   6.942
 5204SOL    HW216512   4.854   4.981   6.982
 5205SOL     OW16513   1.386   0.410   1.982
 5205SOL    HW116514   1.349   0.330   1.934
 5205SOL    HW216515   1.344   0.416   2.073
 5206SOL     OW16516   0.347   4.426   6.003
 5206SOL    HW116517   0.309   4.466   5.920
 5206SOL    HW216518   0.399   4.343   5.980
 5207SOL     OW16519   1.746   4.496   4.420
 5207SOL    HW116520   1.763   4.582   4.468
 5207SOL    HW216521   1.763   4.509   4.322
 5208SOL     OW16522   3.783   1.626   6.617
 5208SOL    HW116523   3.841   1.608   6.697
 5208SOL    HW216524   3.687   1.628   6.646
 5209SOL     OW16525   5.639   6.419   3.066
 5209SOL    HW116526   5.570   6.369   3.117
 5209SOL    HW216527   5.596   6.494   3.015
 5210SOL     OW16528   4.950   5.056   3.799
 5210SOL    HW116529   4.954   4.956   3.804
 5210SOL    HW216530   5.042   5.094   3.808
 5211SOL     OW16531   4.121   3.418   3.177
 5211SOL    HW116532   4.095   3.335   3.128
 5211SOL    HW216533   4.138   3.396   3.273
 5212SOL     OW16534   0.944   2.288   0.536
 5212SOL    HW116535   1.000   2.309   0.456
 5212SOL    HW216536   0.897   2.201   0.521
 5213SOL     OW16537   4.534   2.189   6.243
 5213SOL    HW116538   4.564   2.096   6.220
 5213SOL    HW216539   4.435   2.191   6.250
 5214SOL     OW16540   5.556   1.349   5.521
 5214SOL    HW116541   5.591   1.425   5.576
 5214SOL    HW216542   5.584   1.262   5.562
 5215SOL     OW16543   5.060   5.024   2.907
 5215SOL    HW116544   5.141   5.017   2.849
 5215SOL    HW216545   4.992   4.957   2.877
 5216SOL     OW16546   4.859   4.917   0.725
 5216SOL    HW116547   4.802   4.849   0.771
 5216SOL    HW216548   4.952   4.913   0.763
 5217SOL     OW16549   2.441   4.884   4.039
 5217SOL    HW116550   2.539   4.864   4.040
 5217SOL    HW216551   2.406   4.882   4.132
 5218SOL     OW16552   1.807   6.736   3.852
 5218SOL    HW116553   1.881   6.710   3.791
 5218SOL    HW216554   1.738   6.787   3.801
 5219SOL     OW16555   3.551   6.761   6.857
 5219SOL    HW116556   3.501   6.682   6.892
 5219SOL    HW216557   3.491   6.841   6.857
 5220SOL     OW16558   0.762   6.474   2.958
 5220SOL    HW116559   0.678   6.512   2.919
 5220SOL    HW216560   0.739   6.405   3.027
 5221SOL     OW16561   5.047   1.342   4.555
 5221SOL    HW116562   5.073   1.252   4.519
 5221SOL    HW216563   5.029   1.404   4.480
 5222SOL     OW16564   1.592   0.650   3.305
 5222SOL    HW116565   1.615   0.727   3.245
 5222SOL    HW216566   1.664   0.580   3.299
 5223SOL     OW16567   4.733   0.223   1.796
 5223SOL    HW116568   4.699   0.247   1.887
 5223SOL    HW216569   4.695   0.287   1.729
 5224SOL     OW16570   5.569   1.884   2.317
 5224SOL    HW116571   5.521   1.865   2.231
 5224SOL    HW216572   5.605   1.799   2.354
 5225SOL     OW16573   5.652   5.987   4.516
 5225SOL    HW116574   5.654   6.047   4.436
 5225SOL    HW216575   5.655   6.042   4.599
 5226SOL     OW16576   1.503   6.420   4.032
 5226SOL    HW116577   1.499   6.326   3.997
 5226SOL    HW216578   1.470   6.483   3.963
 5227SOL     OW16579   5.936   4.521   3.054
 5227SOL    HW116580   5.920   4.617   3.031
 5227SOL    HW216581   5.878   4.495   3.131
 5228SOL     OW16582   5.360   1.367   0.725
 5228SOL    HW116583   5.266   1.392   0.748
 5228SOL    HW216584   5.414   1.356   0.809
 5229SOL     OW16585   1.221   4.026   5.312
 5229SOL    HW116586   1.320   4.018   5.322
 5229SOL    HW216587   1.179   4.032   5.403
 5230SOL     OW16588   0.094   0.233   0.048
 5230SOL    HW116589   0.163   0.173   0.007
 5230SOL    HW216590   0.023   0.253   7.004
 5231SOL     OW16591   3.964   3.158   3.575
 5231SOL    HW116592   3.901   3.103   3.630
 5231SOL    HW216593   3.962   3.126   3.480
 5232SOL     OW16594   4.500   2.600   6.746
 5232SOL    HW116595   4.450   2.590   6.659
 5232SOL    HW216596   4.585   2.548   6.742
 5233SOL     OW16597   1.172   7.018   2.543
 5233SOL    HW116598   1.194   0.071   2.482
 5233SOL    HW216599   1.256   6.966   2.562
 5234SOL     OW16600   3.782   6.914   0.707
 5234SOL    HW116601   3.842   6.981   0.663
 5234SOL    HW216602   3.822   6.886   0.794
 5235SOL     OW16603   0.887   2.728   1.072
 5235SOL    HW116604   0.854   2.710   1.165
 5235SOL    HW216605   0.816   2.776   1.020
 5236SOL     OW16606   5.425   3.436   0.939
 5236SOL    HW116607   5.358   3.472   1.004
 5236SOL    HW216608   5.383   3.426   0.849
 5237SOL     OW16609   2.546   2.106   5.241
 5237SOL    HW116610   2.472   2.123   5.306
 5237SOL    HW216611   2.615   2.178   5.250
 5238SOL     OW16612   2.103   4.589   0.850
 5238SOL    HW116613   2.152   4.675   0.835
 5238SOL    HW216614   2.166   4.521   0.889
 5239SOL     OW16615   2.917   3.251   3.969
 5239SOL    HW116616   3.008   3.233   4.006
 5239SOL    HW216617   2.850   3.193   4.016
 5240SOL     OW16618   3.430   2.151   5.125
 5240SOL    HW116619   3.434   2.105   5.214
 5240SOL    HW216620   3.355   2.217   5.125
 5241SOL     OW16621   1.866   6.246   0.023
 5241SOL    HW116622   1.799   6.309   0.063
 5241SOL    HW216623   1.825   6.155   0.015
 5242SOL     OW16624   6.126   1.352   5.740
 5242SOL    HW116625   6.220   1.325   5.760
 5242SOL    HW216626   6.087   1.288   5.673
 5243SOL     OW16627   1.581   4.944   1.430
 5243SOL    HW116628   1.550   5.014   1.365
 5243SOL    HW216629   1.556   4.854   1.395
 5244SOL     OW16630   4.949   4.216   5.484
 5244SOL    HW116631   5.026   4.217   5.548
 5244SOL    HW216632   4.886   4.143   5.509
 5245SOL     OW16633   4.886   4.028   6.752
 5245SOL    HW116634   4.907   3.984   6.839
 5245SOL    HW216635   4.895   3.961   6.678
 5246SOL     OW16636   1.499   3.319   2.799
 5246SOL    HW116637   1.492   3.222   2.780
 5246SOL    HW216638   1.421   3.348   2.855
 5247SOL     OW16639   0.475   5.155   0.872
 5247SOL    HW116640   0.489   5.066   0.829
 5247SOL    HW216641   0.379   5.182   0.863
 5248SOL     OW16642   5.151   0.883   5.811
 5248SOL    HW116643   5.198   0.817   5.752
 5248SOL    HW216644   5.211   0.910   5.886
 5249SOL     OW16645   1.027   5.009   4.798
 5249SOL    HW116646   1.020   5.027   4.700
 5249SOL    HW216647   1.104   5.060   4.836
 5250SOL     OW16648   0.676   1.447   6.337
 5250SOL    HW116649   0.688   1.402   6.425
 5250SOL    HW216650   0.707   1.385   6.264
 5251SOL     OW16651   6.500   2.972   1.541
 5251SOL    HW116652   6.416   2.939   1.499
 5251SOL    HW216653   6.517   2.920   1.625
 5252SOL     OW16654   4.021   5.764   0.595
 5252SOL    HW116655   4.097   5.787   0.655
 5252SOL    HW216656   4.005   5.839   0.531
 5253SOL     OW16657   5.593   3.618   3.996
 5253SOL    HW116658   5.607   3.714   4.019
 5253SOL    HW216659   5.534   3.611   3.915
 5254SOL     OW16660   4.821   0.910   3.857
 5254SOL    HW116661   4.830   0.811   3.849
 5254SOL    HW216662   4.729   0.933   3.889
 5255SOL     OW16663   3.145   6.495   4.902
 5255SOL    HW116664   3.224   6.445   4.867
 5255SOL    HW216665   3.092   6.435   4.963
 5256SOL     OW16666   5.533   6.710   4.038
 5256SOL    HW116667   5.453   6.678   4.088
 5256SOL    HW216668   5.525   6.684   3.941
 5257SOL     OW16669   3.848   0.156   0.560
 5257SOL    HW116670   3.847   0.195   0.468
 5257SOL    HW216671   3.940   0.121   0.581
 5258SOL     OW16672   5.214   4.026   2.326
 5258SOL    HW116673   5.126   4.019   2.279
 5258SOL    HW216674   5.207   3.986   2.417
 5259SOL     OW16675   4.802   5.201   2.830
 5259SOL    HW116676   4.887   5.216   2.881
 5259SOL    HW216677   4.779   5.104   2.832
 5260SOL     OW16678   5.648   3.530   1.251
 5260SOL    HW116679   5.696   3.611   1.217
 5260SOL    HW216680   5.600   3.553   1.336
 5261SOL     OW16681   0.896   2.320   4.553
 5261SOL    HW116682   0.988   2.358   4.544
 5261SOL    HW216683   0.862   2.336   4.646
 5262SOL     OW16684   2.734   6.813   2.011
 5262SOL    HW116685   2.675   6.893   2.024
 5262SOL    HW216686   2.755   6.802   1.914
 5263SOL     OW16687   1.546   6.869   6.327
 5263SOL    HW116688   1.517   6.813   6.404
 5263SOL    HW216689   1.558   6.810   6.246
 5264SOL     OW16690   0.219   2.366   0.856
 5264SOL    HW116691   0.129   2.399   0.827
 5264SOL    HW216692   0.274   2.443   0.887
 5265SOL     OW16693   5.289   4.811   1.620
 5265SOL    HW116694   5.382   4.814   1.584
 5265SOL    HW216695   5.226   4.784   1.547
 5266SOL     OW16696   1.359   6.588   1.820
 5266SOL    HW116697   1.362   6.680   1.861
 5266SOL    HW216698   1.284   6.536   1.861
 5267SOL     OW16699   5.086   4.885   4.947
 5267SOL    HW116700   5.182   4.860   4.937
 5267SOL    HW216701   5.036   4.810   4.990
 5268SOL     OW16702   5.870   5.530   5.273
 5268SOL    HW116703   5.825   5.575   5.350
 5268SOL    HW216704   5.933   5.460   5.307
 5269SOL     OW16705   1.970   5.503   3.992
 5269SOL    HW116706   2.056   5.462   3.962
 5269SOL    HW216707   1.954   5.481   4.088
 5270SOL     OW16708   6.162   2.392   1.748
 5270SOL    HW116709   6.134   2.332   1.823
 5270SOL    HW216710   6.081   2.426   1.700
 5271SOL     OW16711   5.042   4.428   4.839
 5271SOL    HW116712   5.126   4.401   4.886
 5271SOL    HW216713   4.998   4.346   4.801
 5272SOL     OW16714   0.816   0.467   4.788
 5272SOL    HW116715   0.849   0.559   4.809
 5272SOL    HW216716   0.775   0.426   4.869
 5273SOL     OW16717   0.645   1.610   3.959
 5273SOL    HW116718   0.619   1.579   4.051
 5273SOL    HW216719   0.632   1.536   3.894
 5274SOL     OW16720   6.551   5.082   3.972
 5274SOL    HW116721   6.612   5.004   3.956
 5274SOL    HW216722   6.597   5.167   3.945
 5275SOL     OW16723   2.262   0.289   6.599
 5275SOL    HW116724   2.206   0.268   6.680
 5275SOL    HW216725   2.228   0.373   6.557
 5276SOL     OW16726   0.105   6.808   1.455
 5276SOL    HW116727   0.023   6.821   1.511
 5276SOL    HW216728   0.178   6.866   1.491
 5277SOL     OW16729   1.044   1.722   3.575
 5277SOL    HW116730   0.987   1.679   3.505
 5277SOL    HW216731   1.097   1.651   3.622
 5278SOL     OW16732   0.737   5.099   5.540
 5278SOL    HW116733   0.735   5.173   5.473
 5278SOL    HW216734   0.824   5.100   5.588
 5279SOL     OW16735   1.641   5.824   6.464
 5279SOL    HW116736   1.707   5.825   6.539
 5279SOL    HW216737   1.667   5.754   6.398
 5280SOL     OW16738   4.133   5.519   4.544
 5280SOL    HW116739   4.229   5.547   4.541
 5280SOL    HW216740   4.105   5.485   4.454
 5281SOL     OW16741   2.040   0.387   4.846
 5281SOL    HW116742   2.095   0.349   4.921
 5281SOL    HW216743   2.100   0.415   4.771
 5282SOL     OW16744   1.279   0.565   2.584
 5282SOL    HW116745   1.191   0.607   2.564
 5282SOL    HW216746   1.268   0.497   2.657
 5283SOL     OW16747   0.039   1.113   4.121
 5283SOL    HW116748   6.963   1.100   4.111
 5283SOL    HW216749   0.070   1.184   4.059
 5284SOL     OW16750   5.128   2.380   1.806
 5284SOL    HW116751   5.118   2.459   1.744
 5284SOL    HW216752   5.130   2.296   1.752
 5285SOL     OW16753   0.703   2.754   3.872
 5285SOL    HW116754   0.700   2.818   3.948
 5285SOL    HW216755   0.712   2.661   3.906
 5286SOL     OW16756   6.076   2.655   1.229
 5286SOL    HW116757   5.983   2.620   1.217
 5286SOL    HW216758   6.129   2.592   1.286
 5287SOL     OW16759   2.912   4.939   1.352
 5287SOL    HW116760   2.959   4.855   1.325
 5287SOL    HW216761   2.906   4.943   1.452
 5288SOL     OW16762   5.231   0.753   2.671
 5288SOL    HW116763   5.159   0.719   2.610
 5288SOL    HW216764   5.223   0.709   2.760
 5289SOL     OW16765   1.773   4.988   6.511
 5289SOL    HW116766   1.781   5.072   6.565
 5289SOL    HW216767   1.737   4.915   6.569
 5290SOL     OW16768   1.525   2.867   5.644
 5290SOL    HW116769   1.557   2.778   5.609
 5290SOL    HW216770   1.520   2.932   5.568
 5291SOL     OW16771   2.571   4.631   4.857
 5291SOL    HW116772   2.652   4.614   4.913
 5291SOL    HW216773   2.507   4.689   4.908
 5292SOL     OW16774   6.633   4.073   6.407
 5292SOL    HW116775   6.657   3.982   6.439
 5292SOL    HW216776   6.700   4.139   6.441
 5293SOL     OW16777   2.172   5.485   4.645
 5293SOL    HW116778   2.185   5.581   4.666
 5293SOL    HW216779   2.156   5.474   4.546
 5294SOL     OW16780   4.039   0.737   5.206
 5294SOL    HW116781   4.097   0.813   5.177
 5294SOL    HW216782   4.079   0.651   5.175
 5295SOL     OW16783   3.420   0.822   1.763
 5295SOL    HW116784   3.421   0.727   1.731
 5295SOL    HW216785   3.361   0.877   1.704
 5296SOL     OW16786   4.022   4.312   0.942
 5296SOL    HW116787   4.053   4.226   0.903
 5296SOL    HW216788   4.027   4.307   1.042
 5297SOL     OW16789   2.172   4.375   0.464
 5297SOL    HW116790   2.181   4.308   0.390
 5297SOL    HW216791   2.263   4.407   0.491
 5298SOL     OW16792   2.200   6.898   0.326
 5298SOL    HW116793   2.142   6.870   0.403
 5298SOL    HW216794   2.143   6.933   0.252
 5299SOL     OW16795   2.994   2.121   0.531
 5299SOL    HW116796   3.040   2.202   0.569
 5299SOL    HW216797   2.897   2.141   0.518
 5300SOL     OW16798   2.010   4.752   0.092
 5300SOL    HW116799   2.063   4.668   0.098
 5300SOL    HW216800   1.951   4.748   0.011
 5301SOL     OW16801   4.658   0.348   6.319
 5301SOL    HW116802   4.718   0.418   6.281
 5301SOL    HW216803   4.565   0.362   6.288
 5302SOL     OW16804   5.494   5.804   3.505
 5302SOL    HW116805   5.472   5.707   3.488
 5302SOL    HW216806   5.556   5.811   3.583
 5303SOL     OW16807   6.759   5.058   6.509
 5303SOL    HW116808   6.841   5.005   6.487
 5303SOL    HW216809   6.722   5.097   6.425
 5304SOL     OW16810   6.453   1.242   1.261
 5304SOL    HW116811   6.435   1.225   1.165
 5304SOL    HW216812   6.438   1.338   1.283
 5305SOL     OW16813   1.306   5.615   2.628
 5305SOL    HW116814   1.360   5.633   2.710
 5305SOL    HW216815   1.324   5.522   2.595
 5306SOL     OW16816   6.766   3.786   5.602
 5306SOL    HW116817   6.704   3.862   5.582
 5306SOL    HW216818   6.856   3.807   5.565
 5307SOL     OW16819   4.824   2.640   0.460
 5307SOL    HW116820   4.831   2.685   0.549
 5307SOL    HW216821   4.734   2.659   0.421
 5308SOL     OW16822   1.489   4.957   2.942
 5308SOL    HW116823   1.504   4.917   2.851
 5308SOL    HW216824   1.453   4.888   3.004
 5309SOL     OW16825   4.417   6.096   3.151
 5309SOL    HW116826   4.498   6.127   3.102
 5309SOL    HW216827   4.435   6.096   3.250
 5310SOL     OW16828   6.079   3.138   2.756
 5310SOL    HW116829   5.993   3.101   2.722
 5310SOL    HW216830   6.100   3.096   2.845
 5311SOL     OW16831   5.997   6.936   0.691
 5311SOL    HW116832   5.933   6.915   0.764
 5311SOL    HW216833   5.949   6.983   0.617
 5312SOL     OW16834   0.272   6.279   1.699
 5312SOL    HW116835   0.335   6.213   1.739
 5312SOL    HW216836   0.323   6.342   1.640
 5313SOL     OW16837   6.539   5.109   5.354
 5313SOL    HW116838   6.518   5.027   5.407
 5313SOL    HW216839   6.608   5.088   5.286
 5314SOL     OW16840   6.187   0.007   1.049
 5314SOL    HW116841   6.171   6.932   1.057
 5314SOL    HW216842   6.172   0.035   0.954
 5315SOL     OW16843   4.189   1.788   3.272
 5315SOL    HW116844   4.210   1.860   3.338
 5315SOL    HW216845   4.221   1.700   3.308
 5316SOL     OW16846   0.584   3.128   5.311
 5316SOL    HW116847   0.678   3.153   5.336
 5316SOL    HW216848   0.585   3.039   5.266
 5317SOL     OW16849   6.489   1.584   5.885
 5317SOL    HW116850   6.520   1.502   5.837
 5317SOL    HW216851   6.417   1.560   5.950
 5318SOL     OW16852   6.453   3.583   0.007
 5318SOL    HW116853   6.460   3.538   6.941
 5318SOL    HW216854   6.436   3.681   7.017
 5319SOL     OW16855   4.208   6.912   0.952
 5319SOL    HW116856   4.267   6.883   1.027
 5319SOL    HW216857   4.200   7.012   0.951
 5320SOL     OW16858   3.499   5.985   1.446
 5320SOL    HW116859   3.456   5.937   1.522
 5320SOL    HW216860   3.518   6.080   1.472
 5321SOL     OW16861   1.501   4.555   4.985
 5321SOL    HW116862   1.458   4.469   5.012
 5321SOL    HW216863   1.496   4.565   4.886
 5322SOL     OW16864   5.508   6.924   1.743
 5322SOL    HW116865   5.521   6.946   1.840
 5322SOL    HW216866   5.571   6.850   1.718
 5323SOL     OW16867   4.641   1.812   5.133
 5323SOL    HW116868   4.560   1.870   5.146
 5323SOL    HW216869   4.614   1.716   5.142
 5324SOL     OW16870   2.545   2.575   6.939
 5324SOL    HW116871   2.492   2.559   6.856
 5324SOL    HW216872   2.492   2.548   7.019
 5325SOL     OW16873   2.671   1.916   5.077
 5325SOL    HW116874   2.728   1.961   5.008
 5325SOL    HW216875   2.629   1.986   5.135
 5326SOL     OW16876   6.538   5.952   2.487
 5326SOL    HW116877   6.469   5.910   2.427
 5326SOL    HW216878   6.492   5.995   2.565
 5327SOL     OW16879   5.466   2.572   4.822
 5327SOL    HW116880   5.446   2.662   4.862
 5327SOL    HW216881   5.455   2.502   4.893
 5328SOL     OW16882   3.732   4.045   6.218
 5328SOL    HW116883   3.697   4.016   6.308
 5328SOL    HW216884   3.655   4.059   6.156
 5329SOL     OW16885   1.380   5.750   6.483
 5329SOL    HW116886   1.344   5.678   6.424
 5329SOL    HW216887   1.474   5.772   6.456
 5330SOL     OW16888   3.455   3.507   0.442
 5330SOL    HW116889   3.536   3.449   0.433
 5330SOL    HW216890   3.459   3.557   0.529
 5331SOL     OW16891   6.566   1.655   6.498
 5331SOL    HW116892   6.583   1.720   6.572
 5331SOL    HW216893   6.530   1.570   6.536
 5332SOL     OW16894   1.557   4.720   1.755
 5332SOL    HW116895   1.641   4.694   1.708
 5332SOL    HW216896   1.528   4.646   1.815
 5333SOL     OW16897   1.501   0.063   3.723
 5333SOL    HW116898   1.542   0.019   3.644
 5333SOL    HW216899   1.567   0.067   3.798
 5334SOL     OW16900   3.165   0.444   4.819
 5334SOL    HW116901   3.144   0.361   4.768
 5334SOL    HW216902   3.260   0.470   4.803
 5335SOL     OW16903   0.119   5.427   0.877
 5335SOL    HW116904   0.051   5.361   0.847
 5335SOL    HW216905   0.075   5.515   0.896
 5336SOL     OW16906   1.751   3.553   2.197
 5336SOL    HW116907   1.748   3.526   2.101
 5336SOL    HW216908   1.703   3.485   2.252
 5337SOL     OW16909   5.002   3.970   0.984
 5337SOL    HW116910   4.986   4.060   1.025
 5337SOL    HW216911   5.058   3.915   1.046
 5338SOL     OW16912   6.504   2.192   0.342
 5338SOL    HW116913   6.525   2.131   0.266
 5338SOL    HW216914   6.424   2.158   0.392
 5339SOL     OW16915   7.016   1.714   3.491
 5339SOL    HW116916   6.994   1.720   3.394
 5339SOL    HW216917   6.939   1.748   3.546
 5340SOL     OW16918   5.566   3.065   0.137
 5340SOL    HW116919   5.641   3.129   0.125
 5340SOL    HW216920   5.539   3.028   0.048
 5341SOL     OW16921   3.946   1.875   5.570
 5341SOL    HW116922   4.011   1.852   5.642
 5341SOL    HW216923   3.892   1.794   5.547
 5342SOL     OW16924   4.277   0.330   5.127
 5342SOL    HW116925   4.308   0.275   5.049
 5342SOL    HW216926   4.181   0.356   5.113
 5343SOL     OW16927   3.890   3.325   2.403
 5343SOL    HW116928   3.871   3.416   2.438
 5343SOL    HW216929   3.926   3.267   2.476
 5344SOL     OW16930   1.633   2.936   3.258
 5344SOL    HW116931   1.727   2.903   3.262
 5344SOL    HW216932   1.627   3.025   3.304
 5345SOL     OW16933   4.743   6.539   1.161
 5345SOL    HW116934   4.723   6.602   1.236
 5345SOL    HW216935   4.825   6.568   1.112
 5346SOL     OW16936   3.396   6.158   3.383
 5346SOL    HW116937   3.360   6.172   3.291
 5346SOL    HW216938   3.496   6.149   3.378
 5347SOL     OW16939   0.008   1.642   1.587
 5347SOL    HW116940   0.090   1.700   1.595
 5347SOL    HW216941   6.950   1.697   1.603
 5348SOL     OW16942   1.088   1.253   0.393
 5348SOL    HW116943   1.030   1.177   0.423
 5348SOL    HW216944   1.167   1.217   0.344
 5349SOL     OW16945   6.982   1.733   0.487
 5349SOL    HW116946   6.947   1.818   0.448
 5349SOL    HW216947   6.914   1.695   0.551
 5350SOL     OW16948   2.414   0.819   6.153
 5350SOL    HW116949   2.461   0.802   6.240
 5350SOL    HW216950   2.476   0.800   6.077
 5351SOL     OW16951   5.167   6.001   1.332
 5351SOL    HW116952   5.078   5.958   1.348
 5351SOL    HW216953   5.209   6.025   1.419
 5352SOL     OW16954   2.344   5.607   3.681
 5352SOL    HW116955   2.436   5.599   3.719
 5352SOL    HW216956   2.282   5.640   3.752
 5353SOL     OW16957   4.618   5.975   4.729
 5353SOL    HW116958   4.618   6.052   4.793
 5353SOL    HW216959   4.708   5.932   4.728
 5354SOL     OW16960   2.268   4.833   2.204
 5354SOL    HW116961   2.291   4.916   2.254
 5354SOL    HW216962   2.179   4.844   2.159
 5355SOL     OW16963   4.469   1.788   3.588
 5355SOL    HW116964   4.449   1.761   3.493
 5355SOL    HW216965   4.384   1.818   3.631
 5356SOL     OW16966   5.936   3.846   1.365
 5356SOL    HW116967   6.009   3.781   1.347
 5356SOL    HW216968   5.968   3.916   1.428
 5357SOL     OW16969   3.812   0.222   0.108
 5357SOL    HW116970   3.741   0.176   0.055
 5357SOL    HW216971   3.825   0.315   0.072
 5358SOL     OW16972   4.311   2.628   0.788
 5358SOL    HW116973   4.216   2.605   0.770
 5358SOL    HW216974   4.323   2.649   0.885
 5359SOL     OW16975   2.326   1.886   1.124
 5359SOL    HW116976   2.330   1.805   1.065
 5359SOL    HW216977   2.418   1.909   1.155
 5360SOL     OW16978   4.008   6.611   5.558
 5360SOL    HW116979   4.050   6.521   5.545
 5360SOL    HW216980   3.912   6.600   5.582
 5361SOL     OW16981   1.928   1.270   5.075
 5361SOL    HW116982   1.887   1.302   4.990
 5361SOL    HW216983   1.965   1.178   5.062
 5362SOL     OW16984   4.566   4.790   3.202
 5362SOL    HW116985   4.561   4.859   3.274
 5362SOL    HW216986   4.502   4.814   3.129
 5363SOL     OW16987   1.084   5.688   6.204
 5363SOL    HW116988   1.149   5.632   6.256
 5363SOL    HW216989   1.065   5.644   6.116
 5364SOL     OW16990   6.528   6.003   0.811
 5364SOL    HW116991   6.545   6.031   0.906
 5364SOL    HW216992   6.499   6.083   0.758
 5365SOL     OW16993   4.351   2.636   5.955
 5365SOL    HW116994   4.429   2.661   5.899
 5365SOL    HW216995   4.346   2.536   5.962
 5366SOL     OW16996   4.227   4.396   0.414
 5366SOL    HW116997   4.317   4.421   0.448
 5366SOL    HW216998   4.195   4.314   0.461
 5367SOL     OW16999   0.305   4.840   0.857
 5367SOL    HW117000   0.278   4.925   0.901
 5367SOL    HW217001   0.223   4.787   0.833
 5368SOL     OW17002   5.384   2.144   2.576
 5368SOL    HW117003   5.303   2.152   2.518
 5368SOL    HW217004   5.461   2.188   2.531
 5369SOL     OW17005   2.331   4.646   3.071
 5369SOL    HW117006   2.295   4.578   3.136
 5369SOL    HW217007   2.422   4.618   3.041
 5370SOL     OW17008   3.737   3.158   1.631
 5370SOL    HW117009   3.795   3.082   1.660
 5370SOL    HW217010   3.641   3.128   1.630
 5371SOL     OW17011   1.945   4.516   4.764
 5371SOL    HW117012   1.934   4.474   4.855
 5371SOL    HW217013   1.936   4.445   4.694
 5372SOL     OW17014   2.924   4.906   2.708
 5372SOL    HW117015   2.914   5.005   2.705
 5372SOL    HW217016   2.835   4.862   2.696
 5373SOL     OW17017   3.225   4.886   4.572
 5373SOL    HW117018   3.321   4.892   4.546
 5373SOL    HW217019   3.218   4.879   4.672
 5374SOL     OW17020   1.881   2.881   6.645
 5374SOL    HW117021   1.896   2.913   6.551
 5374SOL    HW217022   1.968   2.873   6.692
 5375SOL     OW17023   1.436   4.191   5.155
 5375SOL    HW117024   1.366   4.261   5.167
 5375SOL    HW217025   1.502   4.197   5.230
 5376SOL     OW17026   1.539   3.513   1.909
 5376SOL    HW117027   1.638   3.522   1.897
 5376SOL    HW217028   1.510   3.569   1.986
 5377SOL     OW17029   0.257   6.990   1.612
 5377SOL    HW117030   0.292   0.040   1.554
 5377SOL    HW217031   0.185   0.002   1.671
 5378SOL     OW17032   6.394   0.491   0.099
 5378SOL    HW117033   6.412   0.551   0.021
 5378SOL    HW217034   6.468   0.501   0.166
 5379SOL     OW17035   0.356   5.274   3.502
 5379SOL    HW117036   0.371   5.371   3.520
 5379SOL    HW217037   0.430   5.239   3.444
 5380SOL     OW17038   1.987   0.255   3.554
 5380SOL    HW117039   2.006   0.203   3.471
 5380SOL    HW217040   2.051   0.228   3.626
 5381SOL     OW17041   6.228   4.051   1.016
 5381SOL    HW117042   6.310   4.011   0.977
 5381SOL    HW217043   6.173   4.091   0.943
 5382SOL     OW17044   3.351   0.670   1.092
 5382SOL    HW117045   3.273   0.728   1.114
 5382SOL    HW217046   3.391   0.698   1.004
 5383SOL     OW17047   2.874   2.189   5.603
 5383SOL    HW117048   2.917   2.268   5.560
 5383SOL    HW217049   2.908   2.179   5.696
 5384SOL     OW17050   6.386   6.563   4.660
 5384SOL    HW117051   6.420   6.474   4.631
 5384SOL    HW217052   6.463   6.620   4.689
 5385SOL     OW17053   2.922   3.661   2.649
 5385SOL    HW117054   2.923   3.751   2.606
 5385SOL    HW217055   2.828   3.633   2.667
 5386SOL     OW17056   4.795   6.308   4.101
 5386SOL    HW117057   4.816   6.239   4.031
 5386SOL    HW217058   4.740   6.381   4.061
 5387SOL     OW17059   2.785   5.405   2.313
 5387SOL    HW117060   2.767   5.451   2.225
 5387SOL    HW217061   2.736   5.453   2.386
 5388SOL     OW17062   5.653   6.476   2.178
 5388SOL    HW117063   5.582   6.421   2.222
 5388SOL    HW217064   5.741   6.459   2.222
 5389SOL     OW17065   4.474   1.145   1.728
 5389SOL    HW117066   4.484   1.243   1.745
 5389SOL    HW217067   4.507   1.094   1.807
 5390SOL     OW17068   5.448   5.084   5.058
 5390SOL    HW117069   5.404   4.996   5.038
 5390SOL    HW217070   5.507   5.109   4.981
 5391SOL     OW17071   2.674   3.678   0.514
 5391SOL    HW117072   2.675   3.609   0.586
 5391SOL    HW217073   2.658   3.768   0.554
 5392SOL     OW17074   5.875   2.897   1.550
 5392SOL    HW117075   5.778   2.878   1.538
 5392SOL    HW217076   5.903   2.867   1.642
 5393SOL     OW17077   6.865   6.878   6.924
 5393SOL    HW117078   6.850   6.921   7.013
 5393SOL    HW217079   6.955   6.905   6.890
 5394SOL     OW17080   0.765   3.989   6.472
 5394SOL    HW117081   0.687   3.961   6.415
 5394SOL    HW217082   0.827   4.045   6.417
 5395SOL     OW17083   4.458   0.395   0.625
 5395SOL    HW117084   4.491   0.356   0.539
 5395SOL    HW217085   4.463   0.494   0.621
 5396SOL     OW17086   5.113   3.788   2.142
 5396SOL    HW117087   5.083   3.878   2.173
 5396SOL    HW217088   5.035   3.738   2.104
 5397SOL     OW17089   6.757   3.291   1.659
 5397SOL    HW117090   6.831   3.358   1.662
 5397SOL    HW217091   6.672   3.337   1.632
 5398SOL     OW17092   3.208   2.564   1.748
 5398SOL    HW117093   3.274   2.497   1.713
 5398SOL    HW217094   3.157   2.604   1.671
 5399SOL     OW17095   2.712   6.137   0.724
 5399SOL    HW117096   2.686   6.092   0.638
 5399SOL    HW217097   2.710   6.236   0.712
 5400SOL     OW17098   2.812   4.447   0.516
 5400SOL    HW117099   2.771   4.384   0.450
 5400SOL    HW217100   2.909   4.460   0.494
 5401SOL     OW17101   6.022   3.459   1.969
 5401SOL    HW117102   5.941   3.434   1.915
 5401SOL    HW217103   6.066   3.539   1.927
 5402SOL     OW17104   2.553   6.046   1.868
 5402SOL    HW117105   2.495   6.068   1.947
 5402SOL    HW217106   2.644   6.019   1.900
 5403SOL     OW17107   0.162   3.476   6.359
 5403SOL    HW117108   0.104   3.530   6.297
 5403SOL    HW217109   0.204   3.537   6.427
 5404SOL     OW17110   1.385   2.845   3.773
 5404SOL    HW117111   1.394   2.778   3.847
 5404SOL    HW217112   1.473   2.855   3.726
 5405SOL     OW17113   0.089   5.095   6.338
 5405SOL    HW117114   0.030   5.088   6.258
 5405SOL    HW217115   0.178   5.053   6.318
 5406SOL     OW17116   1.842   1.997   0.283
 5406SOL    HW117117   1.915   1.930   0.298
 5406SOL    HW217118   1.879   2.089   0.290
 5407SOL     OW17119   4.190   3.551   0.105
 5407SOL    HW117120   4.223   3.563   0.199
 5407SOL    HW217121   4.092   3.571   0.102
 5408SOL     OW17122   2.518   0.986   5.279
 5408SOL    HW117123   2.437   1.044   5.273
 5408SOL    HW217124   2.599   1.038   5.252
 5409SOL     OW17125   5.413   0.626   2.958
 5409SOL    HW117126   5.481   0.682   2.911
 5409SOL    HW217127   5.459   0.560   3.017
 5410SOL     OW17128   3.384   2.050   1.960
 5410SOL    HW117129   3.311   2.060   2.028
 5410SOL    HW217130   3.469   2.088   1.997
 5411SOL     OW17131   6.510   4.874   6.159
 5411SOL    HW117132   6.599   4.863   6.116
 5411SOL    HW217133   6.456   4.791   6.146
 5412SOL     OW17134   5.294   3.135   0.593
 5412SOL    HW117135   5.377   3.087   0.621
 5412SOL    HW217136   5.318   3.210   0.532
 5413SOL     OW17137   3.099   2.046   1.422
 5413SOL    HW117138   3.067   2.139   1.404
 5413SOL    HW217139   3.188   2.049   1.469
 5414SOL     OW17140   4.598   1.293   4.738
 5414SOL    HW117141   4.693   1.325   4.743
 5414SOL    HW217142   4.547   1.328   4.816
 5415SOL     OW17143   0.247   5.984   0.962
 5415SOL    HW117144   0.248   5.900   0.907
 5415SOL    HW217145   0.294   5.967   1.049
 5416SOL     OW17146   4.042   4.964   4.941
 5416SOL    HW117147   4.118   4.914   4.900
 5416SOL    HW217148   4.006   4.912   5.019
 5417SOL     OW17149   3.735   0.005   5.218
 5417SOL    HW117150   3.774   6.945   5.257
 5417SOL    HW217151   3.681   0.052   5.289
 5418SOL     OW17152   3.585   7.006   2.569
 5418SOL    HW117153   3.659   0.009   2.506
 5418SOL    HW217154   3.552   6.915   2.545
 5419SOL     OW17155   3.405   4.714   0.110
 5419SOL    HW117156   3.381   4.795   0.057
 5419SOL    HW217157   3.471   4.659   0.059
 5420SOL     OW17158   1.953   2.627   3.453
 5420SOL    HW117159   1.989   2.537   3.477
 5420SOL    HW217160   2.017   2.674   3.393
 5421SOL     OW17161   1.566   3.910   0.965
 5421SOL    HW117162   1.494   3.881   1.027
 5421SOL    HW217163   1.652   3.918   1.014
 5422SOL     OW17164   1.397   4.442   1.330
 5422SOL    HW117165   1.338   4.461   1.408
 5422SOL    HW217166   1.342   4.406   1.255
 5423SOL     OW17167   6.108   2.676   6.140
 5423SOL    HW117168   6.128   2.754   6.079
 5423SOL    HW217169   6.179   2.669   6.209
 5424SOL     OW17170   5.078   3.682   4.367
 5424SOL    HW117171   5.176   3.660   4.370
 5424SOL    HW217172   5.035   3.653   4.452
 5425SOL     OW17173   3.976   1.119   4.850
 5425SOL    HW117174   3.901   1.184   4.840
 5425SOL    HW217175   4.047   1.139   4.782
 5426SOL     OW17176   5.701   6.330   4.589
 5426SOL    HW117177   5.639   6.395   4.632
 5426SOL    HW217178   5.752   6.281   4.660
 5427SOL     OW17179   4.537   5.854   6.163
 5427SOL    HW117180   4.621   5.892   6.200
 5427SOL    HW217181   4.558   5.770   6.111
 5428SOL     OW17182   0.430   0.582   0.996
 5428SOL    HW117183   0.483   0.519   0.939
 5428SOL    HW217184   0.346   0.537   1.025
 5429SOL     OW17185   1.901   1.724   6.937
 5429SOL    HW117186   1.854   1.666   6.871
 5429SOL    HW217187   1.836   1.755   7.007
 5430SOL     OW17188   0.410   2.267   6.378
 5430SOL    HW117189   0.497   2.256   6.426
 5430SOL    HW217190   0.390   2.364   6.369
 5431SOL     OW17191   3.229   6.772   6.663
 5431SOL    HW117192   3.183   6.759   6.751
 5431SOL    HW217193   3.245   6.684   6.620
 5432SOL     OW17194   5.449   6.767   0.104
 5432SOL    HW117195   5.390   6.765   0.023
 5432SOL    HW217196   5.501   6.852   0.105
 5433SOL     OW17197   0.025   1.553   4.533
 5433SOL    HW117198   0.060   1.507   4.452
 5433SOL    HW217199   0.090   1.623   4.562
 5434SOL     OW17200   2.955   6.871   6.036
 5434SOL    HW117201   2.934   6.805   6.108
 5434SOL    HW217202   2.947   6.964   6.073
 5435SOL     OW17203   4.231   6.860   1.879
 5435SOL    HW117204   4.217   6.765   1.850
 5435SOL    HW217205   4.329   6.881   1.878
 5436SOL     OW17206   4.555   4.550   3.330
 5436SOL    HW117207   4.583   4.629   3.275
 5436SOL    HW217208   4.625   4.478   3.324
 5437SOL     OW17209   2.943   4.534   0.143
 5437SOL    HW117210   2.863   4.532   0.082
 5437SOL    HW217211   3.016   4.586   0.099
 5438SOL     OW17212   6.313   2.216   1.593
 5438SOL    HW117213   6.234   2.156   1.605
 5438SOL    HW217214   6.290   2.308   1.622
 5439SOL     OW17215   1.601   2.144   1.342
 5439SOL    HW117216   1.641   2.235   1.324
 5439SOL    HW217217   1.524   2.129   1.279
 5440SOL     OW17218   1.333   1.728   1.494
 5440SOL    HW117219   1.376   1.807   1.450
 5440SOL    HW217220   1.347   1.647   1.438
 5441SOL     OW17221   3.724   2.115   3.969
 5441SOL    HW117222   3.627   2.125   3.990
 5441SOL    HW217223   3.776   2.113   4.055
 5442SOL     OW17224   4.082   6.547   2.161
 5442SOL    HW117225   4.020   6.469   2.157
 5442SOL    HW217226   4.154   6.536   2.092
 5443SOL     OW17227   3.267   7.015   5.043
 5443SOL    HW117228   3.193   0.011   4.978
 5443SOL    HW217229   3.309   0.078   5.073
 5444SOL     OW17230   0.873   0.081   4.001
 5444SOL    HW117231   0.961   0.074   4.047
 5444SOL    HW217232   0.886   0.118   3.909
 5445SOL     OW17233   6.379   3.974   3.114
 5445SOL    HW117234   6.438   4.013   3.044
 5445SOL    HW217235   6.427   3.973   3.202
 5446SOL     OW17236   5.742   5.834   4.849
 5446SOL    HW117237   5.762   5.779   4.768
 5446SOL    HW217238   5.770   5.783   4.931
 5447SOL     OW17239   3.397   2.640   0.102
 5447SOL    HW117240   3.298   2.625   0.097
 5447SOL    HW217241   3.445   2.559   0.068
 5448SOL     OW17242   5.129   2.041   5.574
 5448SOL    HW117243   5.037   2.079   5.582
 5448SOL    HW217244   5.122   1.944   5.550
 5449SOL     OW17245   1.118   3.042   0.045
 5449SOL    HW117246   1.176   3.012   0.120
 5449SOL    HW217247   1.126   2.977   6.992
 5450SOL     OW17248   2.079   1.008   1.854
 5450SOL    HW117249   2.103   1.064   1.774
 5450SOL    HW217250   2.153   1.011   1.920
 5451SOL     OW17251   0.699   5.850   3.142
 5451SOL    HW117252   0.732   5.816   3.054
 5451SOL    HW217253   0.601   5.871   3.135
 5452SOL     OW17254   1.840   4.483   0.119
 5452SOL    HW117255   1.814   4.389   0.097
 5452SOL    HW217256   1.923   4.482   0.174
 5453SOL     OW17257   6.143   3.999   0.431
 5453SOL    HW117258   6.229   4.035   0.394
 5453SOL    HW217259   6.153   3.901   0.446
 5454SOL     OW17260   6.918   4.858   6.409
 5454SOL    HW117261   6.835   4.811   6.438
 5454SOL    HW217262   6.934   4.840   6.312
 5455SOL     OW17263   0.195   3.126   1.429
 5455SOL    HW117264   0.201   3.126   1.529
 5455SOL    HW217265   0.265   3.066   1.391
 5456SOL     OW17266   3.011   0.758   6.684
 5456SOL    HW117267   3.018   0.853   6.715
 5456SOL    HW217268   2.947   0.708   6.743
 5457SOL     OW17269   5.563   2.628   0.609
 5457SOL    HW117270   5.542   2.531   0.597
 5457SOL    HW217271   5.605   2.642   0.699
 5458SOL     OW17272   0.812   4.587   6.976
 5458SOL    HW117273   0.874   4.541   0.017
 5458SOL    HW217274   0.824   4.548   6.885
 5459SOL     OW17275   2.255   5.199   0.130
 5459SOL    HW117276   2.163   5.231   0.108
 5459SOL    HW217277   2.314   5.278   0.149
 5460SOL     OW17278   3.247   0.579   1.385
 5460SOL    HW117279   3.265   0.490   1.427
 5460SOL    HW217280   3.308   0.594   1.308
 5461SOL     OW17281   5.120   6.481   5.195
 5461SOL    HW117282   5.093   6.576   5.207
 5461SOL    HW217283   5.207   6.464   5.243
 5462SOL     OW17284   1.924   0.587   0.645
 5462SOL    HW117285   2.014   0.544   0.657
 5462SOL    HW217286   1.920   0.670   0.701
 5463SOL     OW17287   5.941   2.715   0.716
 5463SOL    HW117288   5.845   2.711   0.745
 5463SOL    HW217289   5.969   2.626   0.679
 5464SOL     OW17290   1.809   0.774   4.033
 5464SOL    HW117291   1.773   0.795   4.124
 5464SOL    HW217292   1.742   0.799   3.963
 5465SOL     OW17293   3.751   0.204   4.610
 5465SOL    HW117294   3.837   0.166   4.645
 5465SOL    HW217295   3.762   0.224   4.513
 5466SOL     OW17296   4.943   4.432   4.537
 5466SOL    HW117297   4.859   4.401   4.581
 5466SOL    HW217298   4.920   4.499   4.466
 5467SOL     OW17299   5.636   1.222   2.872
 5467SOL    HW117300   5.624   1.210   2.773
 5467SOL    HW217301   5.556   1.185   2.919
 5468SOL     OW17302   4.745   1.823   4.502
 5468SOL    HW117303   4.760   1.900   4.564
 5468SOL    HW217304   4.647   1.806   4.493
 5469SOL     OW17305   4.183   4.691   6.208
 5469SOL    HW117306   4.236   4.747   6.144
 5469SOL    HW217307   4.133   4.621   6.158
 5470SOL     OW17308   1.980   4.892   3.591
 5470SOL    HW117309   1.886   4.924   3.606
 5470SOL    HW217310   1.998   4.887   3.493
 5471SOL     OW17311   5.991   5.722   1.198
 5471SOL    HW117312   6.039   5.662   1.262
 5471SOL    HW217313   5.903   5.682   1.173
 5472SOL     OW17314   3.965   3.965   6.119
 5472SOL    HW117315   3.881   4.001   6.161
 5472SOL    HW217316   4.007   3.899   6.181
 5473SOL     OW17317   1.278   3.220   3.494
 5473SOL    HW117318   1.210   3.288   3.468
 5473SOL    HW217319   1.241   3.128   3.482
 5474SOL     OW17320   2.027   4.773   3.886
 5474SOL    HW117321   2.047   4.774   3.788
 5474SOL    HW217322   2.052   4.862   3.926
 5475SOL     OW17323   2.967   2.100   0.844
 5475SOL    HW117324   2.991   2.154   0.763
 5475SOL    HW217325   3.033   2.117   0.917
 5476SOL     OW17326   1.337   3.138   6.124
 5476SOL    HW117327   1.282   3.220   6.108
 5476SOL    HW217328   1.343   3.085   6.040
 5477SOL     OW17329   2.219   3.111   3.312
 5477SOL    HW117330   2.189   3.183   3.374
 5477SOL    HW217331   2.196   3.022   3.352
 5478SOL     OW17332   5.113   6.025   5.898
 5478SOL    HW117333   5.204   5.993   5.875
 5478SOL    HW217334   5.056   6.027   5.816
 5479SOL     OW17335   5.073   0.075   4.446
 5479SOL    HW117336   4.998   0.068   4.513
 5479SOL    HW217337   5.035   0.080   4.354
 5480SOL     OW17338   0.984   4.150   4.792
 5480SOL    HW117339   0.922   4.093   4.739
 5480SOL    HW217340   0.933   4.223   4.838
 5481SOL     OW17341   3.497   0.088   4.643
 5481SOL    HW117342   3.522   0.021   4.713
 5481SOL    HW217343   3.579   0.134   4.609
 5482SOL     OW17344   3.514   4.303   1.791
 5482SOL    HW117345   3.544   4.398   1.799
 5482SOL    HW217346   3.490   4.284   1.696
 5483SOL     OW17347   0.350   2.668   5.898
 5483SOL    HW117348   0.269   2.714   5.861
 5483SOL    HW217349   0.340   2.569   5.887
 5484SOL     OW17350   4.486   0.639   4.241
 5484SOL    HW117351   4.410   0.691   4.279
 5484SOL    HW217352   4.502   0.667   4.147
 5485SOL     OW17353   3.040   6.317   5.430
 5485SOL    HW117354   3.019   6.415   5.424
 5485SOL    HW217355   2.955   6.265   5.418
 5486SOL     OW17356   2.871   5.872   4.638
 5486SOL    HW117357   2.829   5.950   4.684
 5486SOL    HW217358   2.812   5.840   4.564
 5487SOL     OW17359   2.256   4.733   5.875
 5487SOL    HW117360   2.306   4.648   5.895
 5487SOL    HW217361   2.302   4.810   5.919
 5488SOL     OW17362   6.172   1.021   0.650
 5488SOL    HW117363   6.157   1.031   0.749
 5488SOL    HW217364   6.121   0.942   0.617
 5489SOL     OW17365   6.970   3.162   2.304
 5489SOL    HW117366   7.006   3.255   2.307
 5489SOL    HW217367   6.871   3.164   2.313
 5490SOL     OW17368   0.872   6.744   2.861
 5490SOL    HW117369   0.909   6.768   2.771
 5490SOL    HW217370   0.928   6.672   2.902
 5491SOL     OW17371   6.972   3.481   0.747
 5491SOL    HW117372   6.906   3.527   0.688
 5491SOL    HW217373   6.929   3.462   0.836
 5492SOL     OW17374   0.662   1.315   5.394
 5492SOL    HW117375   0.665   1.216   5.383
 5492SOL    HW217376   0.725   1.358   5.329
 5493SOL     OW17377   4.163   3.735   1.738
 5493SOL    HW117378   4.087   3.702   1.682
 5493SOL    HW217379   4.155   3.698   1.831
 5494SOL     OW17380   5.847   4.166   5.058
 5494SOL    HW117381   5.874   4.216   4.976
 5494SOL    HW217382   5.816   4.074   5.032
 5495SOL     OW17383   6.184   0.481   0.355
 5495SOL    HW117384   6.146   0.553   0.296
 5495SOL    HW217385   6.116   0.457   0.424
 5496SOL     OW17386   4.278   0.780   4.309
 5496SOL    HW117387   4.299   0.876   4.287
 5496SOL    HW217388   4.231   0.738   4.231
 5497SOL     OW17389   0.990   1.091   6.288
 5497SOL    HW117390   1.089   1.092   6.301
 5497SOL    HW217391   0.945   1.074   6.375
 5498SOL     OW17392   0.895   4.946   2.185
 5498SOL    HW117393   0.799   4.918   2.197
 5498SOL    HW217394   0.913   4.962   2.087
 5499SOL     OW17395   0.679   0.367   5.016
 5499SOL    HW117396   0.707   0.355   5.111
 5499SOL    HW217397   0.679   0.278   4.970
 5500SOL     OW17398   2.320   0.531   0.379
 5500SOL    HW117399   2.284   0.517   0.287
 5500SOL    HW217400   2.257   0.590   0.430
 5501SOL     OW17401   3.886   2.479   6.776
 5501SOL    HW117402   3.974   2.520   6.799
 5501SOL    HW217403   3.881   2.465   6.677
 5502SOL     OW17404   4.649   1.832   0.142
 5502SOL    HW117405   4.658   1.897   0.217
 5502SOL    HW217406   4.650   1.881   0.055
 5503SOL     OW17407   0.287   3.683   0.612
 5503SOL    HW117408   0.202   3.641   0.579
 5503SOL    HW217409   0.360   3.662   0.547
 5504SOL     OW17410   3.805   0.966   6.639
 5504SOL    HW117411   3.838   0.940   6.549
 5504SOL    HW217412   3.872   1.026   6.683
 5505SOL     OW17413   2.467   4.425   4.320
 5505SOL    HW117414   2.545   4.363   4.334
 5505SOL    HW217415   2.424   4.444   4.409
 5506SOL     OW17416   0.286   3.886   6.216
 5506SOL    HW117417   0.236   3.854   6.135
 5506SOL    HW217418   0.221   3.920   6.284
 5507SOL     OW17419   2.895   0.181   6.543
 5507SOL    HW117420   2.887   0.229   6.631
 5507SOL    HW217421   2.941   0.093   6.558
 5508SOL     OW17422   0.442   0.841   6.751
 5508SOL    HW117423   0.511   0.777   6.717
 5508SOL    HW217424   0.363   0.790   6.784
 5509SOL     OW17425   0.010   5.466   7.004
 5509SOL    HW117426   6.933   5.470   7.008
 5509SOL    HW217427   0.045   5.425   0.065
 5510SOL     OW17428   3.917   5.152   6.850
 5510SOL    HW117429   3.874   5.074   6.805
 5510SOL    HW217430   3.899   5.148   6.949
 5511SOL     OW17431   0.537   1.226   5.612
 5511SOL    HW117432   0.565   1.297   5.547
 5511SOL    HW217433   0.502   1.147   5.561
 5512SOL     OW17434   3.984   0.977   2.250
 5512SOL    HW117435   4.010   0.927   2.167
 5512SOL    HW217436   4.061   1.035   2.280
 5513SOL     OW17437   4.205   5.063   6.516
 5513SOL    HW117438   4.106   5.061   6.505
 5513SOL    HW217439   4.248   5.015   6.440
 5514SOL     OW17440   2.917   0.276   6.289
 5514SOL    HW117441   2.859   0.358   6.292
 5514SOL    HW217442   2.919   0.233   6.379
 5515SOL     OW17443   2.631   6.042   2.301
 5515SOL    HW117444   2.550   6.057   2.245
 5515SOL    HW217445   2.614   6.074   2.394
 5516SOL     OW17446   2.482   2.747   5.179
 5516SOL    HW117447   2.558   2.770   5.241
 5516SOL    HW217448   2.451   2.829   5.132
 5517SOL     OW17449   1.809   3.651   2.827
 5517SOL    HW117450   1.802   3.573   2.765
 5517SOL    HW217451   1.721   3.699   2.829
 5518SOL     OW17452   4.620   4.190   5.684
 5518SOL    HW117453   4.712   4.211   5.715
 5518SOL    HW217454   4.613   4.206   5.586
 5519SOL     OW17455   4.698   2.253   3.735
 5519SOL    HW117456   4.756   2.211   3.665
 5519SOL    HW217457   4.602   2.234   3.714
 5520SOL     OW17458   5.286   6.689   1.981
 5520SOL    HW117459   5.195   6.658   2.008
 5520SOL    HW217460   5.303   6.665   1.886
 5521SOL     OW17461   6.061   6.090   1.511
 5521SOL    HW117462   6.022   6.050   1.428
 5521SOL    HW217463   5.989   6.135   1.563
 5522SOL     OW17464   5.994   5.813   0.850
 5522SOL    HW117465   6.035   5.886   0.904
 5522SOL    HW217466   6.042   5.805   0.763
 5523SOL     OW17467   5.632   0.945   2.382
 5523SOL    HW117468   5.584   0.877   2.438
 5523SOL    HW217469   5.623   0.922   2.286
 5524SOL     OW17470   2.895   0.919   4.277
 5524SOL    HW117471   2.848   0.925   4.365
 5524SOL    HW217472   2.848   0.978   4.210
 5525SOL     OW17473   6.205   1.817   1.289
 5525SOL    HW117474   6.290   1.770   1.265
 5525SOL    HW217475   6.131   1.783   1.231
 5526SOL     OW17476   4.538   5.154   3.318
 5526SOL    HW117477   4.600   5.232   3.321
 5526SOL    HW217478   4.471   5.167   3.245
 5527SOL     OW17479   5.921   1.954   3.866
 5527SOL    HW117480   5.888   2.046   3.887
 5527SOL    HW217481   5.977   1.957   3.783
 5528SOL     OW17482   0.883   1.829   1.612
 5528SOL    HW117483   0.926   1.913   1.645
 5528SOL    HW217484   0.952   1.772   1.567
 5529SOL     OW17485   3.756   0.761   1.972
 5529SOL    HW117486   3.686   0.697   2.005
 5529SOL    HW217487   3.733   0.854   2.002
 5530SOL     OW17488   6.554   2.191   1.403
 5530SOL    HW117489   6.548   2.221   1.307
 5530SOL    HW217490   6.468   2.213   1.450
 5531SOL     OW17491   2.973   4.161   1.253
 5531SOL    HW117492   2.966   4.197   1.346
 5531SOL    HW217493   2.990   4.237   1.189
 5532SOL     OW17494   1.825   3.102   1.558
 5532SOL    HW117495   1.902   3.144   1.509
 5532SOL    HW217496   1.752   3.081   1.493
 5533SOL     OW17497   4.221   1.811   3.667
 5533SOL    HW117498   4.158   1.853   3.732
 5533SOL    HW217499   4.213   1.711   3.673
 5534SOL     OW17500   0.826   1.106   4.816
 5534SOL    HW117501   0.919   1.070   4.814
 5534SOL    HW217502   0.828   1.205   4.825
 5535SOL     OW17503   0.808   2.143   3.179
 5535SOL    HW117504   0.898   2.151   3.222
 5535SOL    HW217505   0.757   2.229   3.191
 5536SOL     OW17506   3.709   0.247   4.328
 5536SOL    HW117507   3.705   0.345   4.307
 5536SOL    HW217508   3.798   0.210   4.301
 5537SOL     OW17509   3.375   0.981   3.171
 5537SOL    HW117510   3.333   1.070   3.186
 5537SOL    HW217511   3.468   0.982   3.207
 5538SOL     OW17512   4.428   5.787   4.426
 5538SOL    HW117513   4.507   5.847   4.437
 5538SOL    HW217514   4.399   5.753   4.516
 5539SOL     OW17515   2.234   3.705   0.346
 5539SOL    HW117516   2.197   3.733   0.434
 5539SOL    HW217517   2.161   3.705   0.277
 5540SOL     OW17518   5.523   4.565   2.207
 5540SOL    HW117519   5.533   4.605   2.115
 5540SOL    HW217520   5.439   4.599   2.249
 5541SOL     OW17521   4.463   1.597   5.254
 5541SOL    HW117522   4.483   1.500   5.269
 5541SOL    HW217523   4.388   1.606   5.188
 5542SOL     OW17524   5.103   4.273   5.700
 5542SOL    HW117525   5.113   4.350   5.764
 5542SOL    HW217526   5.174   4.206   5.718
 5543SOL     OW17527   6.632   2.490   5.772
 5543SOL    HW117528   6.704   2.517   5.836
 5543SOL    HW217529   6.547   2.536   5.796
 5544SOL     OW17530   5.902   1.272   5.910
 5544SOL    HW117531   5.975   1.283   5.843
 5544SOL    HW217532   5.829   1.338   5.890
 5545SOL     OW17533   3.146   2.078   2.114
 5545SOL    HW117534   3.057   2.124   2.109
 5545SOL    HW217535   3.171   2.065   2.210
 5546SOL     OW17536   1.845   5.155   5.911
 5546SOL    HW117537   1.905   5.101   5.852
 5546SOL    HW217538   1.809   5.096   5.984
 5547SOL     OW17539   3.978   5.588   4.946
 5547SOL    HW117540   3.903   5.593   4.881
 5547SOL    HW217541   4.045   5.659   4.925
 5548SOL     OW17542   6.687   3.347   5.364
 5548SOL    HW117543   6.668   3.423   5.426
 5548SOL    HW217544   6.643   3.264   5.399
 5549SOL     OW17545   2.804   4.775   6.597
 5549SOL    HW117546   2.835   4.763   6.503
 5549SOL    HW217547   2.876   4.747   6.660
 5550SOL     OW17548   3.916   6.468   1.431
 5550SOL    HW117549   3.965   6.403   1.373
 5550SOL    HW217550   3.946   6.457   1.526
 5551SOL     OW17551   0.800   1.410   3.368
 5551SOL    HW117552   0.884   1.390   3.318
 5551SOL    HW217553   0.811   1.382   3.463
 5552SOL     OW17554   0.224   2.748   2.110
 5552SOL    HW117555   0.229   2.710   2.202
 5552SOL    HW217556   0.161   2.826   2.110
 5553SOL     OW17557   4.896   5.951   0.290
 5553SOL    HW117558   4.841   5.981   0.368
 5553SOL    HW217559   4.906   6.026   0.225
 5554SOL     OW17560   2.855   1.931   4.609
 5554SOL    HW117561   2.813   1.882   4.534
 5554SOL    HW217562   2.904   1.867   4.668
 5555SOL     OW17563   0.130   5.705   2.640
 5555SOL    HW117564   0.137   5.789   2.586
 5555SOL    HW217565   0.139   5.728   2.737
 5556SOL     OW17566   0.402   0.968   4.718
 5556SOL    HW117567   0.345   0.886   4.710
 5556SOL    HW217568   0.377   1.018   4.801
 5557SOL     OW17569   2.557   0.282   3.662
 5557SOL    HW117570   2.638   0.237   3.624
 5557SOL    HW217571   2.559   0.379   3.638
 5558SOL     OW17572   5.050   2.842   4.756
 5558SOL    HW117573   5.084   2.935   4.749
 5558SOL    HW217574   5.123   2.777   4.734
 5559SOL     OW17575   1.767   0.951   1.408
 5559SOL    HW117576   1.837   0.931   1.339
 5559SOL    HW217577   1.727   1.041   1.391
 5560SOL     OW17578   0.212   0.866   4.066
 5560SOL    HW117579   0.132   0.926   4.058
 5560SOL    HW217580   0.296   0.919   4.054
 5561SOL     OW17581   1.467   3.740   3.648
 5561SOL    HW117582   1.538   3.767   3.713
 5561SOL    HW217583   1.476   3.642   3.628
 5562SOL     OW17584   2.284   2.473   5.595
 5562SOL    HW117585   2.284   2.552   5.533
 5562SOL    HW217586   2.373   2.467   5.640
 5563SOL     OW17587   4.246   5.067   1.221
 5563SOL    HW117588   4.224   5.111   1.135
 5563SOL    HW217589   4.212   4.973   1.220
 5564SOL     OW17590   6.156   4.449   1.672
 5564SOL    HW117591   6.090   4.379   1.695
 5564SOL    HW217592   6.221   4.460   1.748
 5565SOL     OW17593   2.838   3.435   5.667
 5565SOL    HW117594   2.817   3.466   5.760
 5565SOL    HW217595   2.843   3.514   5.606
 5566SOL     OW17596   1.969   4.712   1.127
 5566SOL    HW117597   1.897   4.727   1.059
 5566SOL    HW217598   2.055   4.748   1.092
 5567SOL     OW17599   1.689   5.920   2.389
 5567SOL    HW117600   1.618   5.851   2.377
 5567SOL    HW217601   1.777   5.882   2.359
 5568SOL     OW17602   3.414   2.051   1.361
 5568SOL    HW117603   3.384   2.051   1.456
 5568SOL    HW217604   3.374   1.973   1.313
 5569SOL     OW17605   5.677   1.811   0.294
 5569SOL    HW117606   5.599   1.799   0.356
 5569SOL    HW217607   5.693   1.726   0.244
 5570SOL     OW17608   6.348   4.087   5.672
 5570SOL    HW117609   6.300   4.175   5.674
 5570SOL    HW217610   6.413   4.083   5.748
 5571SOL     OW17611   6.671   4.599   6.009
 5571SOL    HW117612   6.621   4.557   6.085
 5571SOL    HW217613   6.609   4.613   5.932
 5572SOL     OW17614   4.979   2.763   5.701
 5572SOL    HW117615   5.017   2.725   5.785
 5572SOL    HW217616   4.990   2.863   5.701
 5573SOL     OW17617   0.941   4.132   0.801
 5573SOL    HW117618   1.037   4.131   0.828
 5573SOL    HW217619   0.930   4.186   0.717
 5574SOL     OW17620   0.333   5.929   4.750
 5574SOL    HW117621   0.237   5.933   4.776
 5574SOL    HW217622   0.379   6.013   4.778
 5575SOL     OW17623   1.864   1.085   1.143
 5575SOL    HW117624   1.791   1.122   1.201
 5575SOL    HW217625   1.823   1.035   1.066
 5576SOL     OW17626   6.552   6.083   6.602
 5576SOL    HW117627   6.570   6.144   6.524
 5576SOL    HW217628   6.453   6.075   6.615
 5577SOL     OW17629   2.185   3.773   5.181
 5577SOL    HW117630   2.266   3.824   5.152
 5577SOL    HW217631   2.103   3.822   5.154
 5578SOL     OW17632   3.897   1.999   5.927
 5578SOL    HW117633   3.988   2.016   5.966
 5578SOL    HW217634   3.865   2.080   5.880
 5579SOL     OW17635   5.121   4.636   0.589
 5579SOL    HW117636   5.063   4.716   0.602
 5579SOL    HW217637   5.209   4.650   0.635
 5580SOL     OW17638   5.052   1.129   1.272
 5580SOL    HW117639   5.146   1.140   1.239
 5580SOL    HW217640   4.997   1.206   1.241
 5581SOL     OW17641   2.815   2.568   0.275
 5581SOL    HW117642   2.799   2.595   0.370
 5581SOL    HW217643   2.750   2.496   0.249
 5582SOL     OW17644   3.799   3.450   3.722
 5582SOL    HW117645   3.800   3.359   3.681
 5582SOL    HW217646   3.888   3.494   3.708
 5583SOL     OW17647   3.616   0.719   0.311
 5583SOL    HW117648   3.662   0.650   0.367
 5583SOL    HW217649   3.517   0.703   0.312
 5584SOL     OW17650   5.895   2.806   2.943
 5584SOL    HW117651   5.841   2.790   3.026
 5584SOL    HW217652   5.923   2.902   2.941
 5585SOL     OW17653   6.611   6.867   4.286
 5585SOL    HW117654   6.520   6.884   4.323
 5585SOL    HW217655   6.615   6.776   4.246
 5586SOL     OW17656   2.187   1.235   6.526
 5586SOL    HW117657   2.138   1.192   6.602
 5586SOL    HW217658   2.241   1.312   6.561
 5587SOL     OW17659   3.439   0.465   3.717
 5587SOL    HW117660   3.437   0.507   3.808
 5587SOL    HW217661   3.533   0.442   3.692
 5588SOL     OW17662   4.482   0.063   6.177
 5588SOL    HW117663   4.526   0.115   6.104
 5588SOL    HW217664   4.387   0.045   6.153
 5589SOL     OW17665   3.618   3.029   6.347
 5589SOL    HW117666   3.647   2.975   6.426
 5589SOL    HW217667   3.667   2.998   6.266
 5590SOL     OW17668   6.963   6.787   3.585
 5590SOL    HW117669   0.007   6.714   3.570
 5590SOL    HW217670   6.898   6.789   3.510
 5591SOL     OW17671   4.922   0.667   0.032
 5591SOL    HW117672   4.843   0.605   0.033
 5591SOL    HW217673   5.005   0.614   0.047
 5592SOL     OW17674   2.599   1.910   3.103
 5592SOL    HW117675   2.553   1.917   3.015
 5592SOL    HW217676   2.659   1.829   3.104
 5593SOL     OW17677   1.021   3.066   5.240
 5593SOL    HW117678   1.117   3.054   5.265
 5593SOL    HW217679   1.009   3.155   5.196
 5594SOL     OW17680   2.556   0.786   6.369
 5594SOL    HW117681   2.631   0.726   6.343
 5594SOL    HW217682   2.593   0.870   6.409
 5595SOL     OW17683   0.254   1.411   5.338
 5595SOL    HW117684   0.232   1.335   5.399
 5595SOL    HW217685   0.174   1.432   5.281
 5596SOL     OW17686   4.801   1.724   2.768
 5596SOL    HW117687   4.724   1.696   2.826
 5596SOL    HW217688   4.870   1.770   2.823
 5597SOL     OW17689   0.302   1.177   6.366
 5597SOL    HW117690   0.370   1.143   6.302
 5597SOL    HW217691   0.336   1.260   6.410
 5598SOL     OW17692   6.889   2.266   4.188
 5598SOL    HW117693   6.952   2.238   4.115
 5598SOL    HW217694   6.798   2.278   4.150
 5599SOL     OW17695   4.772   2.762   3.502
 5599SOL    HW117696   4.781   2.857   3.531
 5599SOL    HW217697   4.707   2.715   3.562
 5600SOL     OW17698   2.501   1.193   2.171
 5600SOL    HW117699   2.444   1.246   2.108
 5600SOL    HW217700   2.586   1.242   2.188
 5601SOL     OW17701   6.183   2.620   5.305
 5601SOL    HW117702   6.166   2.637   5.208
 5601SOL    HW217703   6.216   2.527   5.318
 5602SOL     OW17704   6.595   2.357   2.331
 5602SOL    HW117705   6.543   2.327   2.251
 5602SOL    HW217706   6.693   2.339   2.315
 5603SOL     OW17707   4.338   0.994   5.616
 5603SOL    HW117708   4.261   1.018   5.675
 5603SOL    HW217709   4.326   0.901   5.582
 5604SOL     OW17710   1.057   0.186   3.585
 5604SOL    HW117711   1.120   0.151   3.654
 5604SOL    HW217712   1.105   0.199   3.499
 5605SOL     OW17713   4.353   6.562   4.151
 5605SOL    HW117714   4.269   6.562   4.096
 5605SOL    HW217715   4.387   6.468   4.160
 5606SOL     OW17716   4.583   2.725   0.321
 5606SOL    HW117717   4.550   2.800   0.378
 5606SOL    HW217718   4.559   2.742   0.225
 5607SOL     OW17719   6.277   2.478   2.654
 5607SOL    HW117720   6.349   2.411   2.635
 5607SOL    HW217721   6.198   2.460   2.596
 5608SOL     OW17722   5.049   0.889   3.354
 5608SOL    HW117723   5.118   0.870   3.424
 5608SOL    HW217724   4.969   0.831   3.369
 5609SOL     OW17725   7.020   0.381   0.723
 5609SOL    HW117726   0.058   0.426   0.788
 5609SOL    HW217727   6.971   0.450   0.670
 5610SOL     OW17728   4.960   5.370   1.208
 5610SOL    HW117729   5.024   5.425   1.153
 5610SOL    HW217730   4.897   5.431   1.256
 5611SOL     OW17731   6.210   5.106   1.944
 5611SOL    HW117732   6.205   5.154   1.856
 5611SOL    HW217733   6.298   5.060   1.951
 5612SOL     OW17734   3.660   2.154   0.373
 5612SOL    HW117735   3.713   2.144   0.457
 5612SOL    HW217736   3.644   2.063   0.333
 5613SOL     OW17737   5.756   4.480   6.212
 5613SOL    HW117738   5.809   4.434   6.283
 5613SOL    HW217739   5.659   4.477   6.236
 5614SOL     OW17740   5.034   3.394   3.788
 5614SOL    HW117741   5.011   3.307   3.833
 5614SOL    HW217742   4.968   3.411   3.715
 5615SOL     OW17743   0.061   2.177   3.239
 5615SOL    HW117744   0.058   2.150   3.335
 5615SOL    HW217745   6.991   2.175   3.201
 5616SOL     OW17746   1.790   3.145   2.425
 5616SOL    HW117747   1.774   3.131   2.523
 5616SOL    HW217748   1.747   3.071   2.373
 5617SOL     OW17749   1.843   5.388   6.062
 5617SOL    HW117750   1.871   5.478   6.029
 5617SOL    HW217751   1.861   5.320   5.991
 5618SOL     OW17752   5.331   6.819   2.294
 5618SOL    HW117753   5.336   6.761   2.213
 5618SOL    HW217754   5.306   6.912   2.266
 5619SOL     OW17755   3.284   2.971   3.614
 5619SOL    HW117756   3.380   2.965   3.589
 5619SOL    HW217757   3.275   3.002   3.708
 5620SOL     OW17758   4.675   4.418   4.599
 5620SOL    HW117759   4.674   4.346   4.530
 5620SOL    HW217760   4.614   4.493   4.570
 5621SOL     OW17761   0.364   2.536   6.369
 5621SOL    HW117762   0.264   2.544   6.362
 5621SOL    HW217763   0.407   2.589   6.296
 5622SOL     OW17764   4.922   5.978   3.704
 5622SOL    HW117765   4.868   5.907   3.747
 5622SOL    HW217766   4.958   5.945   3.616
 5623SOL     OW17767   4.956   5.287   4.353
 5623SOL    HW117768   4.858   5.302   4.370
 5623SOL    HW217769   4.979   5.192   4.373
 5624SOL     OW17770   5.639   5.403   3.251
 5624SOL    HW117771   5.731   5.413   3.214
 5624SOL    HW217772   5.577   5.372   3.179
 5625SOL     OW17773   1.864   5.804   5.547
 5625SOL    HW117774   1.873   5.724   5.606
 5625SOL    HW217775   1.809   5.873   5.593
 5626SOL     OW17776   0.951   4.815   6.591
 5626SOL    HW117777   0.906   4.791   6.505
 5626SOL    HW217778   1.050   4.816   6.577
 5627SOL     OW17779   1.050   5.923   6.960
 5627SOL    HW117780   1.087   5.981   0.009
 5627SOL    HW217781   0.953   5.907   6.976
 5628SOL     OW17782   2.644   3.391   0.624
 5628SOL    HW117783   2.608   3.298   0.623
 5628SOL    HW217784   2.717   3.399   0.557
 5629SOL     OW17785   5.657   3.481   2.605
 5629SOL    HW117786   5.594   3.413   2.567
 5629SOL    HW217787   5.747   3.440   2.617
 5630SOL     OW17788   1.013   4.103   6.643
 5630SOL    HW117789   0.992   4.009   6.669
 5630SOL    HW217790   1.051   4.152   6.722
 5631SOL     OW17791   3.668   1.810   1.940
 5631SOL    HW117792   3.614   1.868   1.879
 5631SOL    HW217793   3.746   1.862   1.975
 5632SOL     OW17794   5.031   6.859   5.808
 5632SOL    HW117795   5.084   6.796   5.751
 5632SOL    HW217796   5.035   6.951   5.769
 5633SOL     OW17797   0.946   5.137   5.047
 5633SOL    HW117798   0.943   5.038   5.042
 5633SOL    HW217799   1.032   5.166   5.089
 5634SOL     OW17800   2.227   0.648   1.388
 5634SOL    HW117801   2.166   0.599   1.451
 5634SOL    HW217802   2.321   0.616   1.401
 5635SOL     OW17803   2.985   0.570   0.910
 5635SOL    HW117804   2.953   0.664   0.921
 5635SOL    HW217805   3.048   0.565   0.832
 5636SOL     OW17806   5.388   1.415   5.943
 5636SOL    HW117807   5.437   1.333   5.916
 5636SOL    HW217808   5.413   1.491   5.882
 5637SOL     OW17809   5.125   6.740   4.645
 5637SOL    HW117810   5.137   6.771   4.551
 5637SOL    HW217811   5.184   6.793   4.706
 5638SOL     OW17812   6.279   4.988   1.163
 5638SOL    HW117813   6.187   5.005   1.128
 5638SOL    HW217814   6.314   4.903   1.124
 5639SOL     OW17815   2.198   0.639   1.988
 5639SOL    HW117816   2.204   0.644   1.888
 5639SOL    HW217817   2.110   0.674   2.018
 5640SOL     OW17818   3.163   6.766   2.638
 5640SOL    HW117819   3.164   6.812   2.727
 5640SOL    HW217820   3.068   6.756   2.607
 5641SOL     OW17821   6.615   4.287   3.546
 5641SOL    HW117822   6.669   4.256   3.469
 5641SOL    HW217823   6.558   4.365   3.518
 5642SOL     OW17824   1.913   3.845   6.859
 5642SOL    HW117825   1.957   3.762   6.894
 5642SOL    HW217826   1.876   3.826   6.768
 5643SOL     OW17827   4.779   2.165   4.940
 5643SOL    HW117828   4.812   2.089   4.995
 5643SOL    HW217829   4.679   2.170   4.946
 5644SOL     OW17830   4.491   1.005   4.750
 5644SOL    HW117831   4.469   0.911   4.722
 5644SOL    HW217832   4.480   1.066   4.672
 5645SOL     OW17833   6.274   5.782   4.172
 5645SOL    HW117834   6.225   5.786   4.086
 5645SOL    HW217835   6.243   5.702   4.224
 5646SOL     OW17836   0.553   5.897   4.184
 5646SOL    HW117837   0.584   5.982   4.226
 5646SOL    HW217838   0.454   5.889   4.196
 5647SOL     OW17839   5.917   4.820   6.408
 5647SOL    HW117840   5.970   4.796   6.326
 5647SOL    HW217841   5.820   4.799   6.391
 5648SOL     OW17842   1.993   1.524   5.150
 5648SOL    HW117843   1.970   1.427   5.162
 5648SOL    HW217844   1.998   1.545   5.053
 5649SOL     OW17845   1.082   0.507   5.205
 5649SOL    HW117846   1.132   0.430   5.166
 5649SOL    HW217847   1.065   0.575   5.134
 5650SOL     OW17848   6.359   5.152   0.131
 5650SOL    HW117849   6.316   5.086   0.193
 5650SOL    HW217850   6.395   5.104   0.051
 5651SOL     OW17851   6.588   1.329   2.960
 5651SOL    HW117852   6.669   1.384   2.941
 5651SOL    HW217853   6.583   1.253   2.895
 5652SOL     OW17854   5.193   4.471   0.353
 5652SOL    HW117855   5.170   4.529   0.431
 5652SOL    HW217856   5.109   4.445   0.305
 5653SOL     OW17857   1.901   6.372   6.177
 5653SOL    HW117858   1.993   6.396   6.205
 5653SOL    HW217859   1.835   6.437   6.215
 5654SOL     OW17860   0.885   5.844   5.640
 5654SOL    HW117861   0.815   5.850   5.712
 5654SOL    HW217862   0.925   5.934   5.626
 5655SOL     OW17863   0.151   3.551   3.920
 5655SOL    HW117864   0.190   3.495   3.848
 5655SOL    HW217865   0.110   3.634   3.881
 5656SOL     OW17866   3.004   4.691   6.761
 5656SOL    HW117867   3.067   4.614   6.750
 5656SOL    HW217868   3.055   4.773   6.784
 5657SOL     OW17869   4.214   5.983   1.832
 5657SOL    HW117870   4.145   6.052   1.856
 5657SOL    HW217871   4.258   6.009   1.746
 5658SOL     OW17872   4.823   6.784   5.285
 5658SOL    HW117873   4.878   6.748   5.360
 5658SOL    HW217874   4.778   6.869   5.315
 5659SOL     OW17875   3.632   3.414   2.994
 5659SOL    HW117876   3.699   3.441   3.064
 5659SOL    HW217877   3.670   3.429   2.903
 5660SOL     OW17878   5.821   6.867   0.883
 5660SOL    HW117879   5.725   6.894   0.879
 5660SOL    HW217880   5.851   6.866   0.979
 5661SOL     OW17881   6.654   5.865   4.691
 5661SOL    HW117882   6.621   5.895   4.602
 5661SOL    HW217883   6.754   5.865   4.692
 5662SOL     OW17884   2.299   4.208   4.272
 5662SOL    HW117885   2.348   4.294   4.287
 5662SOL    HW217886   2.304   4.184   4.175
 5663SOL     OW17887   1.328   3.907   0.221
 5663SOL    HW117888   1.248   3.960   0.192
 5663SOL    HW217889   1.325   3.817   0.177
 5664SOL     OW17890   0.479   4.956   2.979
 5664SOL    HW117891   0.513   4.872   3.021
 5664SOL    HW217892   0.510   4.961   2.884
 5665SOL     OW17893   2.373   2.154   6.182
 5665SOL    HW117894   2.327   2.220   6.241
 5665SOL    HW217895   2.323   2.067   6.184
 5666SOL     OW17896   6.036   5.508   0.353
 5666SOL    HW117897   6.119   5.560   0.337
 5666SOL    HW217898   6.059   5.419   0.393
 5667SOL     OW17899   0.386   5.554   3.515
 5667SOL    HW117900   0.313   5.620   3.532
 5667SOL    HW217901   0.445   5.587   3.441
 5668SOL     OW17902   6.132   2.278   5.422
 5668SOL    HW117903   6.162   2.341   5.494
 5668SOL    HW217904   6.194   2.285   5.344
 5669SOL     OW17905   6.826   3.379   5.790
 5669SOL    HW117906   6.778   3.396   5.703
 5669SOL    HW217907   6.920   3.351   5.771
 5670SOL     OW17908   1.112   4.092   3.889
 5670SOL    HW117909   1.147   4.028   3.820
 5670SOL    HW217910   1.131   4.185   3.860
 5671SOL     OW17911   1.904   1.396   5.810
 5671SOL    HW117912   1.884   1.350   5.723
 5671SOL    HW217913   2.002   1.386   5.831
 5672SOL     OW17914   5.194   4.701   5.623
 5672SOL    HW117915   5.196   4.609   5.584
 5672SOL    HW217916   5.183   4.695   5.722
 5673SOL     OW17917   1.126   0.606   1.901
 5673SOL    HW117918   1.196   0.649   1.957
 5673SOL    HW217919   1.126   0.647   1.810
 5674SOL     OW17920   6.802   3.562   1.288
 5674SOL    HW117921   6.830   3.483   1.343
 5674SOL    HW217922   6.703   3.571   1.289
 5675SOL     OW17923   4.155   2.073   5.534
 5675SOL    HW117924   4.095   2.005   5.576
 5675SOL    HW217925   4.208   2.031   5.461
 5676SOL     OW17926   3.073   0.685   1.569
 5676SOL    HW117927   3.134   0.639   1.504
 5676SOL    HW217928   2.978   0.661   1.548
 5677SOL     OW17929   0.063   0.127   4.240
 5677SOL    HW117930   0.032   0.076   4.320
 5677SOL    HW217931   7.008   0.147   4.181
 5678SOL     OW17932   1.672   5.437   3.204
 5678SOL    HW117933   1.573   5.438   3.212
 5678SOL    HW217934   1.711   5.508   3.263
 5679SOL     OW17935   2.148   6.161   5.132
 5679SOL    HW117936   2.052   6.177   5.108
 5679SOL    HW217937   2.159   6.068   5.164
 5680SOL     OW17938   2.283   6.697   6.526
 5680SOL    HW117939   2.256   6.629   6.594
 5680SOL    HW217940   2.381   6.691   6.510
 5681SOL     OW17941   1.012   3.368   0.777
 5681SOL    HW117942   0.942   3.422   0.825
 5681SOL    HW217943   1.071   3.429   0.724
 5682SOL     OW17944   0.872   3.850   4.243
 5682SOL    HW117945   0.947   3.823   4.183
 5682SOL    HW217946   0.878   3.800   4.329
 5683SOL     OW17947   3.753   2.583   5.335
 5683SOL    HW117948   3.707   2.629   5.411
 5683SOL    HW217949   3.756   2.644   5.256
 5684SOL     OW17950   3.250   3.814   3.291
 5684SOL    HW117951   3.346   3.812   3.263
 5684SOL    HW217952   3.233   3.741   3.357
 5685SOL     OW17953   0.033   5.147   2.019
 5685SOL    HW117954   0.002   5.060   2.057
 5685SOL    HW217955   6.987   5.182   1.955
 5686SOL     OW17956   3.404   6.486   6.888
 5686SOL    HW117957   3.339   6.499   6.964
 5686SOL    HW217958   3.357   6.443   6.811
 5687SOL     OW17959   5.142   5.299   6.071
 5687SOL    HW117960   5.203   5.317   5.994
 5687SOL    HW217961   5.067   5.240   6.040
 5688SOL     OW17962   5.857   1.579   1.968
 5688SOL    HW117963   5.803   1.529   1.901
 5688SOL    HW217964   5.953   1.582   1.939
 5689SOL     OW17965   3.538   2.680   0.597
 5689SOL    HW117966   3.491   2.759   0.636
 5689SOL    HW217967   3.555   2.695   0.500
 5690SOL     OW17968   4.915   6.720   1.318
 5690SOL    HW117969   4.943   6.744   1.226
 5690SOL    HW217970   4.869   6.798   1.361
 5691SOL     OW17971   1.565   0.264   2.225
 5691SOL    HW117972   1.568   0.228   2.319
 5691SOL    HW217973   1.470   0.277   2.197
 5692SOL     OW17974   5.429   2.789   6.630
 5692SOL    HW117975   5.381   2.703   6.615
 5692SOL    HW217976   5.429   2.842   6.545
 5693SOL     OW17977   4.792   2.696   3.259
 5693SOL    HW117978   4.703   2.657   3.235
 5693SOL    HW217979   4.795   2.714   3.357
 5694SOL     OW17980   0.379   1.962   4.143
 5694SOL    HW117981   0.411   1.908   4.220
 5694SOL    HW217982   0.406   1.917   4.057
 5695SOL     OW17983   1.927   3.660   3.083
 5695SOL    HW117984   2.017   3.618   3.071
 5695SOL    HW217985   1.878   3.659   2.996
 5696SOL     OW17986   3.173   0.065   5.521
 5696SOL    HW117987   3.174   0.139   5.453
 5696SOL    HW217988   3.079   0.032   5.532
 5697SOL     OW17989   6.450   3.331   0.144
 5697SOL    HW117990   6.436   3.405   0.078
 5697SOL    HW217991   6.548   3.320   0.160
 5698SOL     OW17992   0.317   3.965   2.007
 5698SOL    HW117993   0.338   3.950   1.910
 5698SOL    HW217994   0.218   3.958   2.021
 5699SOL     OW17995   6.070   0.928   5.248
 5699SOL    HW117996   5.983   0.953   5.207
 5699SOL    HW217997   6.145   0.973   5.200
 5700SOL     OW17998   1.510   5.710   3.339
 5700SOL    HW117999   1.523   5.800   3.378
 5700SOL    HW218000   1.527   5.640   3.408
 5701SOL     OW18001   6.219   5.195   1.339
 5701SOL    HW118002   6.236   5.114   1.284
 5701SOL    HW218003   6.178   5.266   1.282
 5702SOL     OW18004   1.710   0.632   6.533
 5702SOL    HW118005   1.723   0.533   6.537
 5702SOL    HW218006   1.753   0.675   6.612
 5703SOL     OW18007   4.200   4.274   0.689
 5703SOL    HW118008   4.151   4.194   0.725
 5703SOL    HW218009   4.298   4.252   0.682
 5704SOL     OW18010   3.636   5.400   3.496
 5704SOL    HW118011   3.724   5.443   3.514
 5704SOL    HW218012   3.562   5.466   3.509
 5705SOL     OW18013   6.271   1.008   1.843
 5705SOL    HW118014   6.241   0.975   1.754
 5705SOL    HW218015   6.221   0.959   1.915
 5706SOL     OW18016   1.543   1.328   6.790
 5706SOL    HW118017   1.457   1.283   6.764
 5706SOL    HW218018   1.597   1.346   6.708
 5707SOL     OW18019   3.071   2.615   0.186
 5707SOL    HW118020   3.093   2.565   0.102
 5707SOL    HW218021   2.983   2.585   0.221
 5708SOL     OW18022   5.329   6.694   1.438
 5708SOL    HW118023   5.299   6.779   1.395
 5708SOL    HW218024   5.321   6.619   1.373
 5709SOL     OW18025   1.603   0.688   3.022
 5709SOL    HW118026   1.521   0.634   3.039
 5709SOL    HW218027   1.579   0.771   2.972
 5710SOL     OW18028   3.089   3.297   6.401
 5710SOL    HW118029   3.057   3.289   6.306
 5710SOL    HW218030   3.039   3.232   6.458
 5711SOL     OW18031   3.928   1.167   3.937
 5711SOL    HW118032   3.877   1.241   3.982
 5711SOL    HW218033   3.865   1.108   3.886
 5712SOL     OW18034   0.023   6.188   6.234
 5712SOL    HW118035   0.069   6.149   6.155
 5712SOL    HW218036   7.019   6.115   6.297
 5713SOL     OW18037   6.455   2.036   2.793
 5713SOL    HW118038   6.499   1.946   2.788
 5713SOL    HW218039   6.425   2.063   2.701
 5714SOL     OW18040   1.581   1.044   6.711
 5714SOL    HW118041   1.645   0.997   6.771
 5714SOL    HW218042   1.625   1.123   6.671
 5715SOL     OW18043   1.126   6.386   3.455
 5715SOL    HW118044   1.209   6.332   3.462
 5715SOL    HW218045   1.046   6.326   3.450
 5716SOL     OW18046   2.189   3.288   6.246
 5716SOL    HW118047   2.245   3.351   6.192
 5716SOL    HW218048   2.197   3.196   6.207
 5717SOL     OW18049   0.721   3.954   0.730
 5717SOL    HW118050   0.787   4.021   0.765
 5717SOL    HW218051   0.765   3.899   0.660
 5718SOL     OW18052   2.397   4.370   5.495
 5718SOL    HW118053   2.395   4.301   5.422
 5718SOL    HW218054   2.486   4.366   5.541
 5719SOL     OW18055   3.419   0.851   6.396
 5719SOL    HW118056   3.435   0.835   6.298
 5719SOL    HW218057   3.494   0.812   6.449
 5720SOL     OW18058   1.610   4.763   4.232
 5720SOL    HW118059   1.640   4.792   4.323
 5720SOL    HW218060   1.602   4.842   4.172
 5721SOL     OW18061   0.932   4.406   1.547
 5721SOL    HW118062   0.839   4.372   1.561
 5721SOL    HW218063   0.997   4.344   1.590
 5722SOL     OW18064   5.565   0.311   4.440
 5722SOL    HW118065   5.581   0.277   4.533
 5722SOL    HW218066   5.476   0.356   4.436
 5723SOL     OW18067   2.172   5.042   0.896
 5723SOL    HW118068   2.213   4.951   0.892
 5723SOL    HW218069   2.239   5.108   0.929
 5724SOL     OW18070   5.067   1.745   6.817
 5724SOL    HW118071   5.160   1.782   6.811
 5724SOL    HW218072   5.072   1.649   6.843
 5725SOL     OW18073   5.029   5.343   6.354
 5725SOL    HW118074   5.055   5.360   6.259
 5725SOL    HW218075   4.971   5.418   6.386
 5726SOL     OW18076   5.656   3.577   6.105
 5726SOL    HW118077   5.708   3.658   6.133
 5726SOL    HW218078   5.669   3.562   6.007
 5727SOL     OW18079   6.386   2.121   3.930
 5727SOL    HW118080   6.428   2.116   4.021
 5727SOL    HW218081   6.409   2.039   3.878
 5728SOL     OW18082   6.136   0.613   5.893
 5728SOL    HW118083   6.067   0.569   5.950
 5728SOL    HW218084   6.168   0.697   5.937
 5729SOL     OW18085   0.445   2.235   6.039
 5729SOL    HW118086   0.529   2.265   6.086
 5729SOL    HW218087   0.446   2.135   6.031
 5730SOL     OW18088   5.405   4.546   5.928
 5730SOL    HW118089   5.419   4.509   6.020
 5730SOL    HW218090   5.429   4.477   5.860
 5731SOL     OW18091   3.521   0.725   3.874
 5731SOL    HW118092   3.501   0.807   3.820
 5731SOL    HW218093   3.435   0.682   3.901
 5732SOL     OW18094   5.654   4.236   4.546
 5732SOL    HW118095   5.639   4.331   4.572
 5732SOL    HW218096   5.610   4.176   4.614
 5733SOL     OW18097   2.907   1.312   0.231
 5733SOL    HW118098   2.941   1.344   0.319
 5733SOL    HW218099   2.951   1.225   0.207
 5734SOL     OW18100   2.466   6.214   5.742
 5734SOL    HW118101   2.544   6.275   5.757
 5734SOL    HW218102   2.469   6.177   5.649
 5735SOL     OW18103   4.166   0.914   2.029
 5735SOL    HW118104   4.251   0.939   2.076
 5735SOL    HW218105   4.152   0.815   2.035
 5736SOL     OW18106   5.062   4.353   6.432
 5736SOL    HW118107   5.098   4.394   6.516
 5736SOL    HW218108   4.977   4.399   6.407
 5737SOL     OW18109   3.943   5.526   0.869
 5737SOL    HW118110   3.938   5.466   0.949
 5737SOL    HW218111   3.882   5.604   0.883
 5738SOL     OW18112   3.116   1.374   6.777
 5738SOL    HW118113   3.098   1.377   6.875
 5738SOL    HW218114   3.191   1.436   6.755
 5739SOL     OW18115   2.001   0.567   5.658
 5739SOL    HW118116   2.019   0.533   5.751
 5739SOL    HW218117   2.078   0.545   5.599
 5740SOL     OW18118   5.551   3.101   2.185
 5740SOL    HW118119   5.503   3.189   2.195
 5740SOL    HW218120   5.632   3.100   2.244
 5741SOL     OW18121   0.185   3.400   4.545
 5741SOL    HW118122   0.250   3.412   4.470
 5741SOL    HW218123   0.126   3.481   4.550
 5742SOL     OW18124   5.166   0.561   3.646
 5742SOL    HW118125   5.119   0.595   3.727
 5742SOL    HW218126   5.190   0.464   3.660
 5743SOL     OW18127   4.188   3.570   5.992
 5743SOL    HW118128   4.269   3.621   6.023
 5743SOL    HW218129   4.216   3.497   5.930
 5744SOL     OW18130   5.889   6.703   2.463
 5744SOL    HW118131   5.827   6.624   2.460
 5744SOL    HW218132   5.966   6.683   2.524
 5745SOL     OW18133   1.900   1.767   2.449
 5745SOL    HW118134   1.826   1.806   2.395
 5745SOL    HW218135   1.988   1.791   2.407
 5746SOL     OW18136   4.452   0.728   3.670
 5746SOL    HW118137   4.536   0.674   3.669
 5746SOL    HW218138   4.440   0.773   3.582
 5747SOL     OW18139   0.788   6.074   1.023
 5747SOL    HW118140   0.796   6.115   1.114
 5747SOL    HW218141   0.744   5.985   1.031
 5748SOL     OW18142   0.694   5.841   0.506
 5748SOL    HW118143   0.632   5.915   0.478
 5748SOL    HW218144   0.775   5.881   0.548
 5749SOL     OW18145   1.733   5.962   5.730
 5749SOL    HW118146   1.671   6.037   5.707
 5749SOL    HW218147   1.818   6.000   5.766
 5750SOL     OW18148   6.464   4.711   4.243
 5750SOL    HW118149   6.413   4.788   4.203
 5750SOL    HW218150   6.418   4.680   4.326
 5751SOL     OW18151   1.874   3.705   4.448
 5751SOL    HW118152   1.962   3.685   4.490
 5751SOL    HW218153   1.876   3.677   4.352
 5752SOL     OW18154   5.061   0.523   0.419
 5752SOL    HW118155   5.054   0.615   0.379
 5752SOL    HW218156   4.971   0.493   0.451
 5753SOL     OW18157   3.419   4.141   4.962
 5753SOL    HW118158   3.428   4.230   4.917
 5753SOL    HW218159   3.322   4.115   4.965
 5754SOL     OW18160   0.999   6.073   1.330
 5754SOL    HW118161   0.912   6.044   1.290
 5754SOL    HW218162   0.991   6.076   1.429
 5755SOL     OW18163   1.454   2.610   6.583
 5755SOL    HW118164   1.459   2.527   6.639
 5755SOL    HW218165   1.493   2.687   6.633
 5756SOL     OW18166   5.884   5.925   1.340
 5756SOL    HW118167   5.938   5.860   1.285
 5756SOL    HW218168   5.841   5.992   1.280
 5757SOL     OW18169   6.193   6.901   4.194
 5757SOL    HW118170   6.122   6.866   4.254
 5757SOL    HW218171   6.246   6.825   4.157
 5758SOL     OW18172   0.247   0.371   2.623
 5758SOL    HW118173   0.256   0.271   2.615
 5758SOL    HW218174   0.225   0.410   2.534
 5759SOL     OW18175   4.129   0.154   0.888
 5759SOL    HW118176   4.070   0.164   0.967
 5759SOL    HW218177   4.115   0.230   0.825
 5760SOL     OW18178   0.912   3.021   1.202
 5760SOL    HW118179   0.824   3.052   1.238
 5760SOL    HW218180   0.900   2.931   1.161
 5761SOL     OW18181   5.754   6.104   4.789
 5761SOL    HW118182   5.843   6.138   4.760
 5761SOL    HW218183   5.759   6.006   4.807
 5762SOL     OW18184   5.899   4.853   6.968
 5762SOL    HW118185   5.842   4.800   0.008
 5762SOL    HW218186   5.990   4.866   7.007
 5763SOL     OW18187   5.384   0.076   0.289
 5763SOL    HW118188   5.352   0.022   0.211
 5763SOL    HW218189   5.380   0.020   0.372
 5764SOL     OW18190   4.208   6.180   3.836
 5764SOL    HW118191   4.132   6.240   3.861
 5764SOL    HW218192   4.253   6.216   3.754
 5765SOL     OW18193   6.367   5.790   1.392
 5765SOL    HW118194   6.339   5.699   1.424
 5765SOL    HW218195   6.338   5.802   1.298
 5766SOL     OW18196   0.427   2.146   4.477
 5766SOL    HW118197   0.360   2.221   4.472
 5766SOL    HW218198   0.513   2.177   4.436
 5767SOL     OW18199   2.571   0.580   0.395
 5767SOL    HW118200   2.476   0.548   0.395
 5767SOL    HW218201   2.617   0.549   0.478
 5768SOL     OW18202   0.605   6.644   4.805
 5768SOL    HW118203   0.570   6.567   4.752
 5768SOL    HW218204   0.542   6.665   4.879
 5769SOL     OW18205   1.429   4.821   6.159
 5769SOL    HW118206   1.476   4.764   6.227
 5769SOL    HW218207   1.383   4.897   6.205
 5770SOL     OW18208   2.177   4.774   1.655
 5770SOL    HW118209   2.141   4.710   1.723
 5770SOL    HW218210   2.274   4.788   1.672
 5771SOL     OW18211   2.185   5.370   3.644
 5771SOL    HW118212   2.237   5.449   3.678
 5771SOL    HW218213   2.207   5.355   3.547
 5772SOL     OW18214   4.000   0.660   2.087
 5772SOL    HW118215   4.021   0.570   2.050
 5772SOL    HW218216   3.913   0.692   2.051
 5773SOL     OW18217   4.196   2.252   2.724
 5773SOL    HW118218   4.244   2.164   2.725
 5773SOL    HW218219   4.165   2.273   2.632
 5774SOL     OW18220   6.867   6.299   3.142
 5774SOL    HW118221   6.878   6.273   3.046
 5774SOL    HW218222   6.882   6.220   3.201
 5775SOL     OW18223   0.257   5.693   1.846
 5775SOL    HW118224   0.352   5.665   1.862
 5775SOL    HW218225   0.209   5.701   1.934
 5776SOL     OW18226   2.083   0.110   3.809
 5776SOL    HW118227   2.177   0.120   3.779
 5776SOL    HW218228   2.075   0.029   3.867
 5777SOL     OW18229   1.945   6.694   3.466
 5777SOL    HW118230   1.999   6.642   3.531
 5777SOL    HW218231   1.848   6.683   3.486
 5778SOL     OW18232   0.732   1.335   0.472
 5778SOL    HW118233   0.668   1.408   0.449
 5778SOL    HW218234   0.771   1.352   0.563
 5779SOL     OW18235   5.591   2.614   7.013
 5779SOL    HW118236   5.646   2.696   0.003
 5779SOL    HW218237   5.507   2.621   0.044
 5780SOL     OW18238   5.711   5.507   3.704
 5780SOL    HW118239   5.639   5.488   3.771
 5780SOL    HW218240   5.715   5.433   3.638
 5781SOL     OW18241   0.883   3.942   5.764
 5781SOL    HW118242   0.901   3.955   5.667
 5781SOL    HW218243   0.927   4.014   5.817
 5782SOL     OW18244   7.005   1.232   0.565
 5782SOL    HW118245   6.993   1.329   0.549
 5782SOL    HW218246   7.004   1.182   0.478
 5783SOL     OW18247   1.938   1.913   1.711
 5783SOL    HW118248   2.003   1.865   1.770
 5783SOL    HW218249   1.859   1.942   1.765
 5784SOL     OW18250   0.400   6.207   6.501
 5784SOL    HW118251   0.486   6.168   6.533
 5784SOL    HW218252   0.369   6.278   6.565
 5785SOL     OW18253   1.525   1.552   1.072
 5785SOL    HW118254   1.471   1.511   1.145
 5785SOL    HW218255   1.538   1.650   1.091
 5786SOL     OW18256   6.487   3.852   0.771
 5786SOL    HW118257   6.479   3.950   0.788
 5786SOL    HW218258   6.482   3.802   0.857
 5787SOL     OW18259   3.023   1.878   5.794
 5787SOL    HW118260   3.107   1.872   5.740
 5787SOL    HW218261   2.994   1.785   5.820
 5788SOL     OW18262   3.111   0.817   2.804
 5788SOL    HW118263   3.134   0.881   2.731
 5788SOL    HW218264   3.104   0.724   2.766
 5789SOL     OW18265   4.076   4.895   5.865
 5789SOL    HW118266   4.096   4.802   5.834
 5789SOL    HW218267   3.978   4.905   5.880
 5790SOL     OW18268   0.918   2.669   4.255
 5790SOL    HW118269   0.920   2.571   4.273
 5790SOL    HW218270   0.953   2.687   4.163
 5791SOL     OW18271   2.720   0.410   2.586
 5791SOL    HW118272   2.684   0.411   2.493
 5791SOL    HW218273   2.795   0.345   2.592
 5792SOL     OW18274   6.835   1.968   3.195
 5792SOL    HW118275   6.835   2.026   3.114
 5792SOL    HW218276   6.872   1.878   3.172
 5793SOL     OW18277   6.213   1.095   3.837
 5793SOL    HW118278   6.267   1.176   3.813
 5793SOL    HW218279   6.249   1.054   3.920
 5794SOL     OW18280   3.615   3.599   6.732
 5794SOL    HW118281   3.697   3.544   6.716
 5794SOL    HW218282   3.639   3.678   6.789
 5795SOL     OW18283   5.766   4.426   5.707
 5795SOL    HW118284   5.713   4.411   5.791
 5795SOL    HW218285   5.848   4.478   5.729
 5796SOL     OW18286   3.780   1.985   6.769
 5796SOL    HW118287   3.767   2.084   6.770
 5796SOL    HW218288   3.691   1.939   6.772
 5797SOL     OW18289   3.465   2.087   4.877
 5797SOL    HW118290   3.460   2.113   4.973
 5797SOL    HW218291   3.388   2.127   4.827
 5798SOL     OW18292   6.617   4.455   5.110
 5798SOL    HW118293   6.659   4.510   5.182
 5798SOL    HW218294   6.584   4.515   5.037
 5799SOL     OW18295   5.665   6.840   3.353
 5799SOL    HW118296   5.585   6.840   3.413
 5799SOL    HW218297   5.701   6.747   3.345
 5800SOL     OW18298   5.785   4.445   0.687
 5800SOL    HW118299   5.731   4.482   0.611
 5800SOL    HW218300   5.761   4.493   0.771
 5801SOL     OW18301   0.814   0.869   3.496
 5801SOL    HW118302   0.825   0.890   3.593
 5801SOL    HW218303   0.901   0.878   3.449
 5802SOL     OW18304   0.213   4.102   5.914
 5802SOL    HW118305   0.228   4.005   5.930
 5802SOL    HW218306   0.292   4.141   5.866
 5803SOL     OW18307   1.310   4.459   0.634
 5803SOL    HW118308   1.296   4.558   0.624
 5803SOL    HW218309   1.380   4.428   0.570
 5804SOL     OW18310   6.113   4.160   4.337
 5804SOL    HW118311   6.198   4.213   4.337
 5804SOL    HW218312   6.085   4.142   4.431
 5805SOL     OW18313   4.983   3.748   6.270
 5805SOL    HW118314   4.951   3.794   6.353
 5805SOL    HW218315   4.922   3.672   6.249
 5806SOL     OW18316   0.312   6.571   0.102
 5806SOL    HW118317   0.318   6.593   0.005
 5806SOL    HW218318   0.342   6.649   0.156
 5807SOL     OW18319   1.636   3.518   1.082
 5807SOL    HW118320   1.541   3.526   1.111
 5807SOL    HW218321   1.687   3.598   1.112
 5808SOL     OW18322   5.770   4.560   2.312
 5808SOL    HW118323   5.674   4.570   2.288
 5808SOL    HW218324   5.782   4.477   2.367
 5809SOL     OW18325   0.127   3.113   4.465
 5809SOL    HW118326   0.058   3.049   4.497
 5809SOL    HW218327   0.095   3.207   4.479
 5810SOL     OW18328   3.230   1.436   3.744
 5810SOL    HW118329   3.328   1.414   3.742
 5810SOL    HW218330   3.208   1.483   3.830
 5811SOL     OW18331   2.772   0.512   4.282
 5811SOL    HW118332   2.820   0.462   4.354
 5811SOL    HW218333   2.673   0.505   4.297
 5812SOL     OW18334   4.853   0.240   3.002
 5812SOL    HW118335   4.934   0.242   3.061
 5812SOL    HW218336   4.875   0.281   2.914
 5813SOL     OW18337   1.663   1.114   5.301
 5813SOL    HW118338   1.695   1.149   5.389
 5813SOL    HW218339   1.651   1.015   5.307
 5814SOL     OW18340   6.912   4.901   1.232
 5814SOL    HW118341   6.967   4.962   1.289
 5814SOL    HW218342   6.943   4.907   1.137
 5815SOL     OW18343   3.703   2.067   2.925
 5815SOL    HW118344   3.643   2.099   2.998
 5815SOL    HW218345   3.762   2.142   2.896
 5816SOL     OW18346   4.617   0.761   0.235
 5816SOL    HW118347   4.648   0.767   0.329
 5816SOL    HW218348   4.666   0.686   0.188
 5817SOL     OW18349   4.931   3.398   5.844
 5817SOL    HW118350   4.933   3.328   5.773
 5817SOL    HW218351   5.020   3.400   5.891
 5818SOL     OW18352   5.517   0.098   5.907
 5818SOL    HW118353   5.437   0.041   5.893
 5818SOL    HW218354   5.588   0.074   5.840
 5819SOL     OW18355   5.493   0.530   0.988
 5819SOL    HW118356   5.520   0.583   1.068
 5819SOL    HW218357   5.393   0.535   0.978
 5820SOL     OW18358   5.287   6.702   3.244
 5820SOL    HW118359   5.284   6.692   3.144
 5820SOL    HW218360   5.359   6.642   3.280
 5821SOL     OW18361   2.981   0.679   1.873
 5821SOL    HW118362   2.942   0.595   1.911
 5821SOL    HW218363   3.038   0.656   1.794
 5822SOL     OW18364   0.527   1.877   2.520
 5822SOL    HW118365   0.540   1.840   2.612
 5822SOL    HW218366   0.431   1.899   2.506
 5823SOL     OW18367   1.506   1.759   4.577
 5823SOL    HW118368   1.505   1.779   4.479
 5823SOL    HW218369   1.470   1.667   4.593
 5824SOL     OW18370   6.162   6.903   3.303
 5824SOL    HW118371   6.104   6.952   3.367
 5824SOL    HW218372   6.195   6.818   3.346
 5825SOL     OW18373   2.568   0.712   0.146
 5825SOL    HW118374   2.557   0.643   0.075
 5825SOL    HW218375   2.572   0.668   0.235
 5826SOL     OW18376   6.721   6.179   4.692
 5826SOL    HW118377   6.698   6.144   4.782
 5826SOL    HW218378   6.782   6.115   4.645
 5827SOL     OW18379   0.466   5.579   5.048
 5827SOL    HW118380   0.507   5.666   5.019
 5827SOL    HW218381   0.427   5.590   5.140
 5828SOL     OW18382   0.316   3.526   2.754
 5828SOL    HW118383   0.258   3.598   2.791
 5828SOL    HW218384   0.282   3.436   2.783
 5829SOL     OW18385   2.699   1.310   1.820
 5829SOL    HW118386   2.737   1.243   1.885
 5829SOL    HW218387   2.717   1.402   1.854
 5830SOL     OW18388   3.349   0.882   5.857
 5830SOL    HW118389   3.386   0.974   5.854
 5830SOL    HW218390   3.251   0.884   5.838
 5831SOL     OW18391   5.830   6.667   2.881
 5831SOL    HW118392   5.732   6.674   2.862
 5831SOL    HW218393   5.849   6.699   2.974
 5832SOL     OW18394   4.200   3.646   4.986
 5832SOL    HW118395   4.215   3.721   4.922
 5832SOL    HW218396   4.126   3.669   5.049
 5833SOL     OW18397   2.941   3.671   3.776
 5833SOL    HW118398   2.938   3.577   3.741
 5833SOL    HW218399   2.915   3.671   3.873
 5834SOL     OW18400   5.652   1.794   0.793
 5834SOL    HW118401   5.670   1.831   0.884
 5834SOL    HW218402   5.575   1.844   0.752
 5835SOL     OW18403   4.890   2.474   3.550
 5835SOL    HW118404   4.859   2.401   3.488
 5835SOL    HW218405   4.816   2.540   3.562
 5836SOL     OW18406   3.656   6.275   2.119
 5836SOL    HW118407   3.614   6.185   2.128
 5836SOL    HW218408   3.587   6.345   2.140
 5837SOL     OW18409   4.713   4.079   0.316
 5837SOL    HW118410   4.765   4.104   0.235
 5837SOL    HW218411   4.617   4.102   0.302
 5838SOL     OW18412   1.513   1.910   5.740
 5838SOL    HW118413   1.515   1.970   5.660
 5838SOL    HW218414   1.602   1.912   5.785
 5839SOL     OW18415   6.758   3.306   2.938
 5839SOL    HW118416   6.785   3.289   3.033
 5839SOL    HW218417   6.660   3.290   2.929
 5840SOL     OW18418   1.643   5.525   6.941
 5840SOL    HW118419   1.664   5.458   7.013
 5840SOL    HW218420   1.546   5.551   6.948
 5841SOL     OW18421   6.393   2.857   3.549
 5841SOL    HW118422   6.389   2.930   3.480
 5841SOL    HW218423   6.418   2.896   3.637
 5842SOL     OW18424   4.127   3.428   0.586
 5842SOL    HW118425   4.219   3.461   0.604
 5842SOL    HW218426   4.067   3.506   0.567
 5843SOL     OW18427   1.616   2.690   2.439
 5843SOL    HW118428   1.675   2.761   2.401
 5843SOL    HW218429   1.521   2.722   2.440
 5844SOL     OW18430   0.616   5.978   6.315
 5844SOL    HW118431   0.529   5.933   6.336
 5844SOL    HW218432   0.691   5.913   6.326
 5845SOL     OW18433   1.275   2.507   3.854
 5845SOL    HW118434   1.220   2.429   3.885
 5845SOL    HW218435   1.297   2.565   3.932
 5846SOL     OW18436   6.879   2.512   5.489
 5846SOL    HW118437   6.877   2.591   5.428
 5846SOL    HW218438   6.811   2.522   5.561
 5847SOL     OW18439   1.957   2.547   2.683
 5847SOL    HW118440   1.951   2.642   2.654
 5847SOL    HW218441   1.912   2.537   2.772
 5848SOL     OW18442   1.710   4.981   3.109
 5848SOL    HW118443   1.785   4.921   3.081
 5848SOL    HW218444   1.628   4.959   3.056
 5849SOL     OW18445   1.831   0.489   5.960
 5849SOL    HW118446   1.921   0.451   5.934
 5849SOL    HW218447   1.759   0.436   5.915
 5850SOL     OW18448   1.070   4.660   2.412
 5850SOL    HW118449   1.167   4.644   2.427
 5850SOL    HW218450   1.042   4.741   2.462
 5851SOL     OW18451   6.135   4.108   2.409
 5851SOL    HW118452   6.085   4.062   2.482
 5851SOL    HW218453   6.082   4.102   2.324
 5852SOL     OW18454   3.948   6.231   2.410
 5852SOL    HW118455   3.878   6.262   2.474
 5852SOL    HW218456   4.037   6.232   2.455
 5853SOL     OW18457   2.989   4.671   5.919
 5853SOL    HW118458   3.073   4.619   5.901
 5853SOL    HW218459   2.938   4.682   5.834
 5854SOL     OW18460   6.950   1.532   5.918
 5854SOL    HW118461   6.933   1.463   5.848
 5854SOL    HW218462   6.872   1.595   5.922
 5855SOL     OW18463   1.482   1.068   4.809
 5855SOL    HW118464   1.399   1.032   4.765
 5855SOL    HW218465   1.460   1.098   4.902
 5856SOL     OW18466   2.062   5.411   3.117
 5856SOL    HW118467   2.071   5.315   3.091
 5856SOL    HW218468   2.151   5.456   3.112
 5857SOL     OW18469   6.816   2.324   4.694
 5857SOL    HW118470   6.755   2.245   4.692
 5857SOL    HW218471   6.812   2.373   4.607
 5858SOL     OW18472   3.195   1.047   2.637
 5858SOL    HW118473   3.218   1.036   2.540
 5858SOL    HW218474   3.267   1.100   2.682
 5859SOL     OW18475   6.736   6.391   0.929
 5859SOL    HW118476   6.746   6.487   0.904
 5859SOL    HW218477   6.787   6.335   0.863
 5860SOL     OW18478   1.734   4.301   1.892
 5860SOL    HW118479   1.773   4.259   1.975
 5860SOL    HW218480   1.701   4.229   1.831
 5861SOL     OW18481   5.393   2.531   4.297
 5861SOL    HW118482   5.465   2.539   4.366
 5861SOL    HW218483   5.418   2.584   4.216
 5862SOL     OW18484   4.038   5.078   2.960
 5862SOL    HW118485   3.985   5.005   2.916
 5862SOL    HW218486   3.993   5.105   3.046
 5863SOL     OW18487   2.096   0.959   6.174
 5863SOL    HW118488   2.076   1.010   6.091
 5863SOL    HW218489   2.114   0.863   6.150
 5864SOL     OW18490   4.203   4.197   1.697
 5864SOL    HW118491   4.194   4.105   1.660
 5864SOL    HW218492   4.289   4.205   1.747
 5865SOL     OW18493   5.272   0.872   3.062
 5865SOL    HW118494   5.239   0.836   3.149
 5865SOL    HW218495   5.324   0.801   3.014
 5866SOL     OW18496   4.183   6.448   5.400
 5866SOL    HW118497   4.261   6.388   5.416
 5866SOL    HW218498   4.144   6.428   5.310
 5867SOL     OW18499   0.600   2.965   1.711
 5867SOL    HW118500   0.581   2.888   1.772
 5867SOL    HW218501   0.659   3.031   1.759
 5868SOL     OW18502   1.602   0.353   5.959
 5868SOL    HW118503   1.558   0.432   5.917
 5868SOL    HW218504   1.534   0.280   5.973
 5869SOL     OW18505   2.525   4.727   4.616
 5869SOL    HW118506   2.436   4.771   4.632
 5869SOL    HW218507   2.554   4.680   4.699
 5870SOL     OW18508   5.270   5.104   4.161
 5870SOL    HW118509   5.270   5.185   4.219
 5870SOL    HW218510   5.256   5.023   4.218
 5871SOL     OW18511   3.473   2.785   0.349
 5871SOL    HW118512   3.492   2.883   0.352
 5871SOL    HW218513   3.376   2.769   0.335
 5872SOL     OW18514   4.280   5.996   6.117
 5872SOL    HW118515   4.306   6.083   6.075
 5872SOL    HW218516   4.362   5.939   6.129
 5873SOL     OW18517   2.973   3.178   0.051
 5873SOL    HW118518   2.920   3.165   0.135
 5873SOL    HW218519   2.996   3.275   0.041
 5874SOL     OW18520   2.347   3.544   1.629
 5874SOL    HW118521   2.346   3.477   1.704
 5874SOL    HW218522   2.290   3.622   1.654
 5875SOL     OW18523   3.436   2.241   0.236
 5875SOL    HW118524   3.517   2.232   0.294
 5875SOL    HW218525   3.375   2.164   0.252
 5876SOL     OW18526   3.145   3.673   6.454
 5876SOL    HW118527   3.164   3.771   6.447
 5876SOL    HW218528   3.053   3.654   6.420
 5877SOL     OW18529   6.653   0.799   1.884
 5877SOL    HW118530   6.623   0.882   1.837
 5877SOL    HW218531   6.727   0.757   1.832
 5878SOL     OW18532   4.389   4.991   1.832
 5878SOL    HW118533   4.485   5.020   1.824
 5878SOL    HW218534   4.345   5.045   1.904
 5879SOL     OW18535   3.455   3.001   6.119
 5879SOL    HW118536   3.458   2.902   6.111
 5879SOL    HW218537   3.474   3.028   6.213
 5880SOL     OW18538   5.251   3.395   5.576
 5880SOL    HW118539   5.316   3.427   5.507
 5880SOL    HW218540   5.169   3.452   5.573
 5881SOL     OW18541   1.197   6.561   2.212
 5881SOL    HW118542   1.145   6.487   2.168
 5881SOL    HW218543   1.205   6.638   2.149
 5882SOL     OW18544   1.409   5.879   5.926
 5882SOL    HW118545   1.426   5.781   5.910
 5882SOL    HW218546   1.433   5.901   6.020
 5883SOL     OW18547   0.323   4.031   0.814
 5883SOL    HW118548   0.241   4.089   0.813
 5883SOL    HW218549   0.304   3.947   0.865
 5884SOL     OW18550   6.300   1.714   3.850
 5884SOL    HW118551   6.229   1.662   3.802
 5884SOL    HW218552   6.258   1.768   3.923
 5885SOL     OW18553   0.232   5.053   6.810
 5885SOL    HW118554   0.200   5.103   6.730
 5885SOL    HW218555   0.330   5.032   6.800
 5886SOL     OW18556   1.552   3.989   3.466
 5886SOL    HW118557   1.562   3.894   3.495
 5886SOL    HW218558   1.626   4.044   3.505
 5887SOL     OW18559   1.963   3.259   0.796
 5887SOL    HW118560   1.869   3.282   0.768
 5887SOL    HW218561   1.963   3.169   0.840
 5888SOL     OW18562   3.215   6.932   1.137
 5888SOL    HW118563   3.148   6.899   1.203
 5888SOL    HW218564   3.304   6.889   1.155
 5889SOL     OW18565   6.707   0.759   1.432
 5889SOL    HW118566   6.803   0.735   1.446
 5889SOL    HW218567   6.649   0.689   1.475
 5890SOL     OW18568   2.888   6.548   2.293
 5890SOL    HW118569   2.807   6.514   2.341
 5890SOL    HW218570   2.861   6.585   2.204
 5891SOL     OW18571   2.436   3.568   0.748
 5891SOL    HW118572   2.497   3.490   0.736
 5891SOL    HW218573   2.353   3.555   0.694
 5892SOL     OW18574   1.032   3.238   1.078
 5892SOL    HW118575   1.068   3.224   0.985
 5892SOL    HW218576   0.990   3.153   1.110
 5893SOL     OW18577   0.962   5.577   1.773
 5893SOL    HW118578   1.056   5.566   1.805
 5893SOL    HW218579   0.963   5.608   1.678
 5894SOL     OW18580   1.984   6.001   6.158
 5894SOL    HW118581   1.992   5.915   6.207
 5894SOL    HW218582   1.891   6.036   6.166
 5895SOL     OW18583   5.700   2.800   4.653
 5895SOL    HW118584   5.661   2.835   4.738
 5895SOL    HW218585   5.627   2.762   4.596
 5896SOL     OW18586   5.890   2.440   1.681
 5896SOL    HW118587   5.909   2.527   1.726
 5896SOL    HW218588   5.825   2.388   1.736
 5897SOL     OW18589   4.561   1.681   0.611
 5897SOL    HW118590   4.548   1.779   0.600
 5897SOL    HW218591   4.642   1.652   0.560
 5898SOL     OW18592   2.139   1.596   5.396
 5898SOL    HW118593   2.096   1.587   5.306
 5898SOL    HW218594   2.216   1.661   5.390
 5899SOL     OW18595   6.598   4.934   5.606
 5899SOL    HW118596   6.624   4.853   5.552
 5899SOL    HW218597   6.678   4.994   5.614
 5900SOL     OW18598   6.388   6.542   3.315
 5900SOL    HW118599   6.417   6.452   3.347
 5900SOL    HW218600   6.323   6.532   3.240
 5901SOL     OW18601   2.253   0.003   5.926
 5901SOL    HW118602   2.224   6.972   6.005
 5901SOL    HW218603   2.276   0.095   5.956
 5902SOL     OW18604   5.055   4.273   5.204
 5902SOL    HW118605   5.067   4.189   5.151
 5902SOL    HW218606   5.047   4.251   5.301
 5903SOL     OW18607   5.908   1.860   6.413
 5903SOL    HW118608   5.913   1.801   6.333
 5903SOL    HW218609   5.992   1.852   6.467
 5904SOL     OW18610   2.038   4.286   2.737
 5904SOL    HW118611   1.964   4.309   2.800
 5904SOL    HW218612   2.068   4.370   2.691
 5905SOL     OW18613   5.981   1.354   4.554
 5905SOL    HW118614   5.919   1.353   4.633
 5905SOL    HW218615   5.960   1.433   4.496
 5906SOL     OW18616   5.027   0.561   5.110
 5906SOL    HW118617   4.935   0.555   5.148
 5906SOL    HW218618   5.022   0.569   5.010
 5907SOL     OW18619   1.575   2.841   6.701
 5907SOL    HW118620   1.571   2.901   6.781
 5907SOL    HW218621   1.659   2.786   6.704
 5908SOL     OW18622   4.384   3.310   6.040
 5908SOL    HW118623   4.367   3.254   6.121
 5908SOL    HW218624   4.481   3.329   6.033
 5909SOL     OW18625   0.079   4.961   4.548
 5909SOL    HW118626   0.056   4.922   4.459
 5909SOL    HW218627   7.022   4.956   4.608
 5910SOL     OW18628   2.368   4.120   1.522
 5910SOL    HW118629   2.366   4.108   1.621
 5910SOL    HW218630   2.419   4.044   1.480
 5911SOL     OW18631   6.688   6.040   6.278
 5911SOL    HW118632   6.689   5.945   6.310
 5911SOL    HW218633   6.770   6.087   6.309
 5912SOL     OW18634   6.376   4.105   6.833
 5912SOL    HW118635   6.455   4.165   6.843
 5912SOL    HW218636   6.292   4.158   6.838
 5913SOL     OW18637   2.017   1.638   5.671
 5913SOL    HW118638   1.995   1.565   5.735
 5913SOL    HW218639   2.045   1.598   5.584
 5914SOL     OW18640   1.903   6.068   0.631
 5914SOL    HW118641   1.958   6.152   0.636
 5914SOL    HW218642   1.866   6.058   0.539
 5915SOL     OW18643   5.080   2.606   2.607
 5915SOL    HW118644   5.041   2.615   2.515
 5915SOL    HW218645   5.111   2.696   2.639
 5916SOL     OW18646   3.701   0.284   5.986
 5916SOL    HW118647   3.759   0.205   5.967
 5916SOL    HW218648   3.622   0.255   6.040
 5917SOL     OW18649   3.388   3.497   3.076
 5917SOL    HW118650   3.486   3.481   3.082
 5917SOL    HW218651   3.343   3.463   3.158
 5918SOL     OW18652   1.981   3.341   4.484
 5918SOL    HW118653   1.988   3.362   4.582
 5918SOL    HW218654   1.959   3.244   4.472
 5919SOL     OW18655   1.822   3.241   6.537
 5919SOL    HW118656   1.853   3.251   6.442
 5919SOL    HW218657   1.738   3.186   6.539
 5920SOL     OW18658   3.588   0.083   0.012
 5920SOL    HW118659   3.634   7.018   0.025
 5920SOL    HW218660   3.515   0.073   6.968
 5921SOL     OW18661   3.942   4.847   5.180
 5921SOL    HW118662   3.993   4.889   5.256
 5921SOL    HW218663   3.901   4.761   5.212
 5922SOL     OW18664   6.042   4.360   2.615
 5922SOL    HW118665   5.955   4.400   2.644
 5922SOL    HW218666   6.096   4.335   2.696
 5923SOL     OW18667   0.257   6.647   3.818
 5923SOL    HW118668   0.256   6.693   3.729
 5923SOL    HW218669   0.172   6.595   3.829
 5924SOL     OW18670   5.100   2.495   4.678
 5924SOL    HW118671   5.185   2.547   4.667
 5924SOL    HW218672   5.074   2.492   4.774
 5925SOL     OW18673   5.510   5.860   1.121
 5925SOL    HW118674   5.584   5.915   1.082
 5925SOL    HW218675   5.423   5.907   1.108
 5926SOL     OW18676   3.676   5.055   1.340
 5926SOL    HW118677   3.696   4.958   1.329
 5926SOL    HW218678   3.620   5.086   1.263
 5927SOL     OW18679   2.912   5.937   2.705
 5927SOL    HW118680   2.992   5.953   2.762
 5927SOL    HW218681   2.939   5.888   2.622
 5928SOL     OW18682   1.564   0.123   2.834
 5928SOL    HW118683   1.651   0.144   2.789
 5928SOL    HW218684   1.553   0.024   2.841
 5929SOL     OW18685   1.306   6.370   6.652
 5929SOL    HW118686   1.240   6.306   6.692
 5929SOL    HW218687   1.374   6.394   6.721
 5930SOL     OW18688   6.804   1.369   4.487
 5930SOL    HW118689   6.705   1.371   4.471
 5930SOL    HW218690   6.842   1.460   4.471
 5931SOL     OW18691   6.757   5.613   1.382
 5931SOL    HW118692   6.830   5.568   1.331
 5931SOL    HW218693   6.754   5.576   1.475
 5932SOL     OW18694   2.768   6.975   0.836
 5932SOL    HW118695   2.808   6.993   0.926
 5932SOL    HW218696   2.840   6.949   0.773
 5933SOL     OW18697   6.679   3.914   3.075
 5933SOL    HW118698   6.709   3.886   2.984
 5933SOL    HW218699   6.644   4.008   3.071
 5934SOL     OW18700   3.860   3.458   3.126
 5934SOL    HW118701   3.959   3.442   3.126
 5934SOL    HW218702   3.842   3.555   3.144
 5935SOL     OW18703   4.060   3.673   4.191
 5935SOL    HW118704   4.143   3.619   4.205
 5935SOL    HW218705   3.990   3.617   4.146
 5936SOL     OW18706   5.557   5.548   6.503
 5936SOL    HW118707   5.616   5.549   6.422
 5936SOL    HW218708   5.523   5.640   6.522
 5937SOL     OW18709   2.040   3.507   0.992
 5937SOL    HW118710   2.048   3.420   0.943
 5937SOL    HW218711   2.070   3.581   0.933
 5938SOL     OW18712   1.545   4.480   2.829
 5938SOL    HW118713   1.507   4.541   2.760
 5938SOL    HW218714   1.471   4.431   2.874
 5939SOL     OW18715   3.829   0.078   2.914
 5939SOL    HW118716   3.873   0.099   3.001
 5939SOL    HW218717   3.898   0.060   2.844
 5940SOL     OW18718   4.308   6.431   2.944
 5940SOL    HW118719   4.365   6.412   3.023
 5940SOL    HW218720   4.236   6.496   2.969
 5941SOL     OW18721   6.100   4.916   2.505
 5941SOL    HW118722   6.159   4.971   2.447
 5941SOL    HW218723   6.046   4.854   2.449
 5942SOL     OW18724   4.282   3.120   6.282
 5942SOL    HW118725   4.195   3.113   6.233
 5942SOL    HW218726   4.270   3.087   6.376
 5943SOL     OW18727   1.411   6.102   0.568
 5943SOL    HW118728   1.456   6.093   0.658
 5943SOL    HW218729   1.312   6.094   0.580
 5944SOL     OW18730   5.056   1.597   2.417
 5944SOL    HW118731   4.980   1.631   2.362
 5944SOL    HW218732   5.137   1.655   2.401
 5945SOL     OW18733   6.267   4.974   5.697
 5945SOL    HW118734   6.319   5.014   5.773
 5945SOL    HW218735   6.328   4.918   5.641
 5946SOL     OW18736   4.844   3.187   5.705
 5946SOL    HW118737   4.755   3.195   5.751
 5946SOL    HW218738   4.830   3.191   5.606
 5947SOL     OW18739   4.557   3.635   1.575
 5947SOL    HW118740   4.611   3.640   1.491
 5947SOL    HW218741   4.480   3.698   1.569
 5948SOL     OW18742   3.911   4.833   2.849
 5948SOL    HW118743   3.853   4.806   2.925
 5948SOL    HW218744   3.993   4.775   2.847
 5949SOL     OW18745   4.637   4.767   1.388
 5949SOL    HW118746   4.546   4.727   1.403
 5949SOL    HW218747   4.677   4.793   1.476
 5950SOL     OW18748   6.539   2.432   4.201
 5950SOL    HW118749   6.578   2.348   4.162
 5950SOL    HW218750   6.612   2.498   4.219
 5951SOL     OW18751   2.096   5.786   3.806
 5951SOL    HW118752   2.016   5.795   3.865
 5951SOL    HW218753   2.068   5.792   3.710
 5952SOL     OW18754   0.171   6.453   4.182
 5952SOL    HW118755   0.116   6.536   4.192
 5952SOL    HW218756   0.242   6.468   4.114
 5953SOL     OW18757   6.880   3.074   6.451
 5953SOL    HW118758   6.804   3.119   6.405
 5953SOL    HW218759   6.889   2.980   6.416
 5954SOL     OW18760   0.166   4.749   0.089
 5954SOL    HW118761   0.094   4.809   0.054
 5954SOL    HW218762   0.251   4.801   0.100
 5955SOL     OW18763   4.954   5.314   1.691
 5955SOL    HW118764   4.871   5.370   1.680
 5955SOL    HW218765   5.031   5.360   1.647
 5956SOL     OW18766   5.776   2.410   0.006
 5956SOL    HW118767   5.708   2.484   0.012
 5956SOL    HW218768   5.799   2.378   0.098
 5957SOL     OW18769   5.888   6.351   6.319
 5957SOL    HW118770   5.980   6.384   6.302
 5957SOL    HW218771   5.875   6.337   6.418
 5958SOL     OW18772   6.746   5.660   2.154
 5958SOL    HW118773   6.803   5.580   2.172
 5958SOL    HW218774   6.797   5.743   2.178
 5959SOL     OW18775   1.926   1.733   6.190
 5959SOL    HW118776   1.883   1.814   6.230
 5959SOL    HW218777   1.947   1.751   6.094
 5960SOL     OW18778   3.233   0.283   3.729
 5960SOL    HW118779   3.296   0.360   3.718
 5960SOL    HW218780   3.280   0.208   3.775
 5961SOL     OW18781   2.880   0.995   4.968
 5961SOL    HW118782   2.864   1.075   4.910
 5961SOL    HW218783   2.837   0.915   4.927
 5962SOL     OW18784   4.922   5.085   2.401
 5962SOL    HW118785   4.976   5.131   2.331
 5962SOL    HW218786   4.882   5.153   2.463
 5963SOL     OW18787   3.887   3.864   2.600
 5963SOL    HW118788   3.820   3.931   2.632
 5963SOL    HW218789   3.890   3.787   2.664
 5964SOL     OW18790   0.294   5.086   5.561
 5964SOL    HW118791   0.311   5.166   5.502
 5964SOL    HW218792   0.296   5.115   5.657
 5965SOL     OW18793   2.516   2.477   5.722
 5965SOL    HW118794   2.588   2.547   5.719
 5965SOL    HW218795   2.513   2.436   5.813
 5966SOL     OW18796   2.972   6.075   4.325
 5966SOL    HW118797   2.971   5.975   4.323
 5966SOL    HW218798   2.923   6.110   4.245
 5967SOL     OW18799   5.082   6.362   2.871
 5967SOL    HW118800   5.066   6.461   2.881
 5967SOL    HW218801   5.152   6.347   2.800
 5968SOL     OW18802   6.511   2.392   3.544
 5968SOL    HW118803   6.423   2.396   3.591
 5968SOL    HW218804   6.504   2.330   3.466
 5969SOL     OW18805   6.066   3.607   3.377
 5969SOL    HW118806   6.151   3.597   3.326
 5969SOL    HW218807   5.990   3.622   3.313
 5970SOL     OW18808   1.728   3.429   2.691
 5970SOL    HW118809   1.754   3.341   2.653
 5970SOL    HW218810   1.663   3.416   2.765
 5971SOL     OW18811   2.067   6.934   2.644
 5971SOL    HW118812   2.163   6.911   2.657
 5971SOL    HW218813   2.046   6.938   2.546
 5972SOL     OW18814   4.819   6.423   0.337
 5972SOL    HW118815   4.891   6.479   0.376
 5972SOL    HW218816   4.769   6.477   0.269
 5973SOL     OW18817   1.346   4.829   3.135
 5973SOL    HW118818   1.385   4.773   3.208
 5973SOL    HW218819   1.259   4.790   3.106
 5974SOL     OW18820   6.972   3.922   0.221
 5974SOL    HW118821   6.997   3.826   0.213
 5974SOL    HW218822   0.019   3.971   0.273
 5975SOL     OW18823   2.616   2.999   1.018
 5975SOL    HW118824   2.530   3.010   1.068
 5975SOL    HW218825   2.654   3.089   0.996
 5976SOL     OW18826   2.990   3.357   4.783
 5976SOL    HW118827   3.078   3.330   4.822
 5976SOL    HW218828   2.955   3.436   4.832
 5977SOL     OW18829   1.323   3.977   2.261
 5977SOL    HW118830   1.238   3.985   2.209
 5977SOL    HW218831   1.319   3.895   2.319
 5978SOL     OW18832   5.574   4.622   1.899
 5978SOL    HW118833   5.632   4.702   1.882
 5978SOL    HW218834   5.609   4.544   1.847
 5979SOL     OW18835   6.634   0.975   3.220
 5979SOL    HW118836   6.613   0.900   3.282
 5979SOL    HW218837   6.730   1.001   3.231
 5980SOL     OW18838   5.967   4.729   0.327
 5980SOL    HW118839   5.892   4.721   0.261
 5980SOL    HW218840   5.996   4.824   0.332
 5981SOL     OW18841   5.365   1.008   2.734
 5981SOL    HW118842   5.295   0.939   2.714
 5981SOL    HW218843   5.320   1.091   2.769
 5982SOL     OW18844   6.872   1.882   6.887
 5982SOL    HW118845   6.932   1.907   6.811
 5982SOL    HW218846   6.819   1.963   6.915
 5983SOL     OW18847   1.667   1.023   4.444
 5983SOL    HW118848   1.761   1.017   4.411
 5983SOL    HW218849   1.645   0.942   4.498
 5984SOL     OW18850   0.181   6.071   5.005
 5984SOL    HW118851   0.236   6.014   5.065
 5984SOL    HW218852   0.087   6.037   5.004
 5985SOL     OW18853   4.439   1.796   3.995
 5985SOL    HW118854   4.396   1.710   3.967
 5985SOL    HW218855   4.526   1.776   4.041
 5986SOL     OW18856   3.459   3.082   2.410
 5986SOL    HW118857   3.389   3.053   2.475
 5986SOL    HW218858   3.444   3.035   2.322
 5987SOL     OW18859   4.104   6.603   4.908
 5987SOL    HW118860   4.168   6.676   4.881
 5987SOL    HW218861   4.147   6.544   4.976
 5988SOL     OW18862   4.363   6.622   4.425
 5988SOL    HW118863   4.303   6.592   4.499
 5988SOL    HW218864   4.345   6.568   4.343
 5989SOL     OW18865   3.088   0.315   6.061
 5989SOL    HW118866   3.033   0.303   6.144
 5989SOL    HW218867   3.031   0.299   5.980
 5990SOL     OW18868   3.113   5.267   1.359
 5990SOL    HW118869   3.152   5.311   1.440
 5990SOL    HW218870   3.130   5.325   1.279
 5991SOL     OW18871   2.962   5.345   4.591
 5991SOL    HW118872   2.915   5.374   4.675
 5991SOL    HW218873   3.026   5.271   4.614
 5992SOL     OW18874   4.347   7.014   3.902
 5992SOL    HW118875   4.395   6.986   3.819
 5992SOL    HW218876   4.387   0.076   3.936
 5993SOL     OW18877   2.646   6.101   5.464
 5993SOL    HW118878   2.692   6.107   5.375
 5993SOL    HW218879   2.708   6.060   5.531
 5994SOL     OW18880   6.164   2.564   2.318
 5994SOL    HW118881   6.097   2.590   2.387
 5994SOL    HW218882   6.163   2.631   2.244
 5995SOL     OW18883   7.003   4.906   0.969
 5995SOL    HW118884   6.983   4.809   0.952
 5995SOL    HW218885   6.987   4.958   0.885
 5996SOL     OW18886   6.952   5.021   5.822
 5996SOL    HW118887   6.939   4.924   5.838
 5996SOL    HW218888   6.907   5.047   5.736
 5997SOL     OW18889   0.738   6.896   2.348
 5997SOL    HW118890   0.708   6.877   2.441
 5997SOL    HW218891   0.793   6.980   2.347
 5998SOL     OW18892   5.576   2.273   2.473
 5998SOL    HW118893   5.576   2.372   2.465
 5998SOL    HW218894   5.608   2.233   2.387
 5999SOL     OW18895   1.661   1.999   2.592
 5999SOL    HW118896   1.668   1.957   2.682
 5999SOL    HW218897   1.751   2.032   2.563
 6000SOL     OW18898   4.578   5.683   2.328
 6000SOL    HW118899   4.561   5.740   2.407
 6000SOL    HW218900   4.504   5.616   2.319
 6001SOL     OW18901   6.673   2.238   6.650
 6001SOL    HW118902   6.748   2.298   6.675
 6001SOL    HW218903   6.680   2.212   6.554
 6002SOL     OW18904   1.946   0.310   1.902
 6002SOL    HW118905   1.899   0.329   1.989
 6002SOL    HW218906   2.032   0.361   1.899
 6003SOL     OW18907   4.741   4.252   4.913
 6003SOL    HW118908   4.673   4.280   4.846
 6003SOL    HW218909   4.804   4.187   4.870
 6004SOL     OW18910   0.313   3.115   2.466
 6004SOL    HW118911   0.213   3.124   2.466
 6004SOL    HW218912   0.349   3.137   2.557
 6005SOL     OW18913   3.287   5.401   3.088
 6005SOL    HW118914   3.214   5.469   3.098
 6005SOL    HW218915   3.326   5.381   3.178
 6006SOL     OW18916   2.893   6.776   6.544
 6006SOL    HW118917   2.955   6.854   6.535
 6006SOL    HW218918   2.834   6.771   6.463
 6007SOL     OW18919   5.893   2.439   4.024
 6007SOL    HW118920   5.980   2.465   3.980
 6007SOL    HW218921   5.837   2.389   3.958
 6008SOL     OW18922   2.831   4.702   6.330
 6008SOL    HW118923   2.812   4.636   6.257
 6008SOL    HW218924   2.895   4.771   6.298
 6009SOL     OW18925   2.485   2.013   4.169
 6009SOL    HW118926   2.465   2.084   4.101
 6009SOL    HW218927   2.432   1.931   4.149
 6010SOL     OW18928   1.502   4.125   2.825
 6010SOL    HW118929   1.562   4.140   2.904
 6010SOL    HW218930   1.410   4.103   2.858
 6011SOL     OW18931   5.095   3.044   2.516
 6011SOL    HW118932   5.004   3.003   2.515
 6011SOL    HW218933   5.164   2.971   2.526
 6012SOL     OW18934   6.589   3.302   0.786
 6012SOL    HW118935   6.674   3.250   0.777
 6012SOL    HW218936   6.605   3.382   0.845
 6013SOL     OW18937   5.641   0.810   3.068
 6013SOL    HW118938   5.595   0.829   2.981
 6013SOL    HW218939   5.739   0.799   3.052
 6014SOL     OW18940   6.081   0.668   0.215
 6014SOL    HW118941   6.060   0.763   0.237
 6014SOL    HW218942   6.069   0.652   0.117
 6015SOL     OW18943   5.789   1.545   3.896
 6015SOL    HW118944   5.696   1.550   3.858
 6015SOL    HW218945   5.855   1.542   3.821
 6016SOL     OW18946   1.811   0.717   5.310
 6016SOL    HW118947   1.816   0.679   5.218
 6016SOL    HW218948   1.735   0.782   5.315
 6017SOL     OW18949   6.512   5.214   2.756
 6017SOL    HW118950   6.591   5.242   2.701
 6017SOL    HW218951   6.428   5.230   2.704
 6018SOL     OW18952   2.534   3.825   0.748
 6018SOL    HW118953   2.555   3.861   0.839
 6018SOL    HW218954   2.487   3.737   0.757
 6019SOL     OW18955   3.806   0.517   4.000
 6019SOL    HW118956   3.863   0.593   3.972
 6019SOL    HW218957   3.834   0.487   4.092
 6020SOL     OW18958   3.932   0.640   2.702
 6020SOL    HW118959   3.975   0.726   2.674
 6020SOL    HW218960   3.906   0.645   2.798
 6021SOL     OW18961   4.380   1.658   2.532
 6021SOL    HW118962   4.361   1.753   2.554
 6021SOL    HW218963   4.311   1.624   2.468
 6022SOL     OW18964   4.275   1.578   3.422
 6022SOL    HW118965   4.337   1.509   3.386
 6022SOL    HW218966   4.193   1.534   3.457
 6023SOL     OW18967   0.464   1.178   2.915
 6023SOL    HW118968   0.389   1.180   2.849
 6023SOL    HW218969   0.434   1.215   3.002
 6024SOL     OW18970   0.513   4.831   1.795
 6024SOL    HW118971   0.575   4.908   1.784
 6024SOL    HW218972   0.556   4.763   1.855
 6025SOL     OW18973   4.666   1.489   0.787
 6025SOL    HW118974   4.748   1.455   0.741
 6025SOL    HW218975   4.611   1.543   0.723
 6026SOL     OW18976   6.749   4.557   5.372
 6026SOL    HW118977   6.822   4.609   5.329
 6026SOL    HW218978   6.721   4.602   5.456
 6027SOL     OW18979   2.949   3.960   6.641
 6027SOL    HW118980   2.967   4.031   6.573
 6027SOL    HW218981   3.036   3.931   6.682
 6028SOL     OW18982   1.352   3.416   0.198
 6028SOL    HW118983   1.440   3.415   0.246
 6028SOL    HW218984   1.361   3.367   0.111
 6029SOL     OW18985   2.374   6.351   1.401
 6029SOL    HW118986   2.353   6.406   1.483
 6029SOL    HW218987   2.426   6.406   1.337
 6030SOL     OW18988   1.761   0.912   1.676
 6030SOL    HW118989   1.781   1.008   1.697
 6030SOL    HW218990   1.739   0.903   1.579
 6031SOL     OW18991   5.219   6.758   5.645
 6031SOL    HW118992   5.240   6.669   5.603
 6031SOL    HW218993   5.304   6.808   5.662
 6032SOL     OW18994   0.812   2.747   2.646
 6032SOL    HW118995   0.820   2.647   2.646
 6032SOL    HW218996   0.716   2.773   2.650
 6033SOL     OW18997   0.686   1.019   4.032
 6033SOL    HW118998   0.711   1.116   4.037
 6033SOL    HW218999   0.769   0.963   4.036
 6034SOL     OW19000   1.904   4.320   4.578
 6034SOL    HW119001   1.865   4.401   4.534
 6034SOL    HW219002   1.967   4.275   4.515
 6035SOL     OW19003   6.165   0.163   4.131
 6035SOL    HW119004   6.143   0.066   4.143
 6035SOL    HW219005   6.083   0.211   4.097
 6036SOL     OW19006   0.697   6.092   5.285
 6036SOL    HW119007   0.751   6.024   5.236
 6036SOL    HW219008   0.715   6.183   5.246
 6037SOL     OW19009   6.050   5.781   5.056
 6037SOL    HW119010   5.951   5.768   5.057
 6037SOL    HW219011   6.091   5.724   4.985
 6038SOL     OW19012   6.021   3.935   6.170
 6038SOL    HW119013   6.000   3.963   6.264
 6038SOL    HW219014   6.076   4.005   6.125
 6039SOL     OW19015   3.311   3.406   2.481
 6039SOL    HW119016   3.242   3.348   2.438
 6039SOL    HW219017   3.268   3.459   2.555
 6040SOL     OW19018   0.233   2.277   0.180
 6040SOL    HW119019   0.146   2.250   0.138
 6040SOL    HW219020   0.271   2.199   0.230
 6041SOL     OW19021   1.119   2.095   6.971
 6041SOL    HW119022   1.156   2.091   0.041
 6041SOL    HW219023   1.096   2.190   6.948
 6042SOL     OW19024   4.731   5.372   3.347
 6042SOL    HW119025   4.825   5.341   3.330
 6042SOL    HW219026   4.703   5.435   3.275
 6043SOL     OW19027   1.098   4.703   4.754
 6043SOL    HW119028   1.040   4.726   4.675
 6043SOL    HW219029   1.178   4.764   4.755
 6044SOL     OW19030   0.350   0.867   1.059
 6044SOL    HW119031   0.252   0.884   1.067
 6044SOL    HW219032   0.366   0.788   1.000
 6045SOL     OW19033   6.876   4.158   1.635
 6045SOL    HW119034   6.960   4.136   1.585
 6045SOL    HW219035   6.893   4.234   1.697
 6046SOL     OW19036   3.033   2.328   0.716
 6046SOL    HW119037   3.009   2.386   0.793
 6046SOL    HW219038   3.065   2.385   0.640
 6047SOL     OW19039   6.635   0.106   4.212
 6047SOL    HW119040   6.683   0.174   4.268
 6047SOL    HW219041   6.653   0.015   4.250
 6048SOL     OW19042   4.295   6.815   4.803
 6048SOL    HW119043   4.284   6.882   4.731
 6048SOL    HW219044   4.383   6.767   4.791
 6049SOL     OW19045   5.734   4.511   6.908
 6049SOL    HW119046   5.778   4.490   6.820
 6049SOL    HW219047   5.654   4.569   6.892
 6050SOL     OW19048   4.385   4.546   5.511
 6050SOL    HW119049   4.317   4.595   5.458
 6050SOL    HW219050   4.344   4.465   5.553
 6051SOL     OW19051   1.901   2.000   2.952
 6051SOL    HW119052   1.912   1.942   2.872
 6051SOL    HW219053   1.990   2.016   2.994
 6052SOL     OW19054   0.184   1.490   0.646
 6052SOL    HW119055   0.172   1.468   0.549
 6052SOL    HW219056   0.251   1.564   0.655
 6053SOL     OW19057   1.689   6.611   6.540
 6053SOL    HW119058   1.769   6.561   6.572
 6053SOL    HW219059   1.654   6.669   6.614
 6054SOL     OW19060   1.683   4.599   0.424
 6054SOL    HW119061   1.773   4.618   0.383
 6054SOL    HW219062   1.650   4.680   0.471
 6055SOL     OW19063   4.876   0.851   5.110
 6055SOL    HW119064   4.975   0.844   5.095
 6055SOL    HW219065   4.830   0.864   5.022
 6056SOL     OW19066   4.445   2.001   6.603
 6056SOL    HW119067   4.535   1.974   6.567
 6056SOL    HW219068   4.373   1.949   6.557
 6057SOL     OW19069   2.933   1.220   4.774
 6057SOL    HW119070   3.025   1.193   4.748
 6057SOL    HW219071   2.868   1.186   4.706
 6058SOL     OW19072   5.543   2.278   4.000
 6058SOL    HW119073   5.541   2.178   4.010
 6058SOL    HW219074   5.454   2.316   4.026
 6059SOL     OW19075   5.324   4.169   0.090
 6059SOL    HW119076   5.247   4.209   0.040
 6059SOL    HW219077   5.398   4.236   0.096
 6060SOL     OW19078   4.382   5.236   5.810
 6060SOL    HW119079   4.335   5.161   5.764
 6060SOL    HW219080   4.315   5.305   5.838
 6061SOL     OW19081   3.290   1.797   6.498
 6061SOL    HW119082   3.284   1.741   6.581
 6061SOL    HW219083   3.385   1.824   6.483
 6062SOL     OW19084   1.657   0.503   4.705
 6062SOL    HW119085   1.575   0.483   4.652
 6062SOL    HW219086   1.632   0.544   4.792
 6063SOL     OW19087   4.480   0.855   6.654
 6063SOL    HW119088   4.390   0.824   6.685
 6063SOL    HW219089   4.545   0.847   6.729
 6064SOL     OW19090   1.185   5.482   3.345
 6064SOL    HW119091   1.101   5.528   3.375
 6064SOL    HW219092   1.170   5.441   3.255
 6065SOL     OW19093   6.974   0.126   0.448
 6065SOL    HW119094   7.013   0.216   0.432
 6065SOL    HW219095   6.904   0.131   0.520
 6066SOL     OW19096   4.007   2.626   0.360
 6066SOL    HW119097   3.949   2.705   0.375
 6066SOL    HW219098   3.960   2.543   0.390
 6067SOL     OW19099   6.120   1.439   6.422
 6067SOL    HW119100   6.213   1.470   6.406
 6067SOL    HW219101   6.122   1.356   6.477
 6068SOL     OW19102   4.490   2.486   4.571
 6068SOL    HW119103   4.553   2.547   4.619
 6068SOL    HW219104   4.418   2.456   4.634
 6069SOL     OW19105   6.945   4.276   4.829
 6069SOL    HW119106   6.928   4.270   4.927
 6069SOL    HW219107   6.916   4.190   4.785
 6070SOL     OW19108   4.075   2.352   5.664
 6070SOL    HW119109   4.164   2.379   5.627
 6070SOL    HW219110   4.042   2.271   5.617
 6071SOL     OW19111   4.182   6.126   5.185
 6071SOL    HW119112   4.251   6.181   5.137
 6071SOL    HW219113   4.227   6.053   5.236
 6072SOL     OW19114   0.213   1.864   1.594
 6072SOL    HW119115   0.263   1.919   1.660
 6072SOL    HW219116   0.166   1.924   1.529
 6073SOL     OW19117   6.561   2.925   0.917
 6073SOL    HW119118   6.568   2.875   1.003
 6073SOL    HW219119   6.478   2.897   0.869
 6074SOL     OW19120   0.479   0.009   5.277
 6074SOL    HW119121   0.438   0.012   5.186
 6074SOL    HW219122   0.451   0.089   5.329
 6075SOL     OW19123   5.582   3.749   0.467
 6075SOL    HW119124   5.638   3.688   0.411
 6075SOL    HW219125   5.590   3.723   0.563
 6076SOL     OW19126   2.195   6.082   3.942
 6076SOL    HW119127   2.134   6.013   3.981
 6076SOL    HW219128   2.263   6.038   3.885
 6077SOL     OW19129   5.890   6.322   2.198
 6077SOL    HW119130   5.951   6.400   2.187
 6077SOL    HW219131   5.943   6.238   2.205
 6078SOL     OW19132   2.696   4.784   4.059
 6078SOL    HW119133   2.764   4.794   3.987
 6078SOL    HW219134   2.643   4.701   4.044
 6079SOL     OW19135   2.575   2.083   6.472
 6079SOL    HW119136   2.608   2.036   6.390
 6079SOL    HW219137   2.555   2.178   6.449
 6080SOL     OW19138   5.687   2.393   1.499
 6080SOL    HW119139   5.774   2.394   1.548
 6080SOL    HW219140   5.622   2.453   1.545
 6081SOL     OW19141   6.743   3.263   3.689
 6081SOL    HW119142   6.685   3.339   3.662
 6081SOL    HW219143   6.729   3.186   3.626
 6082SOL     OW19144   3.974   1.319   3.039
 6082SOL    HW119145   3.881   1.356   3.033
 6082SOL    HW219146   4.038   1.387   3.004
 6083SOL     OW19147   1.524   6.413   6.872
 6083SOL    HW119148   1.498   6.504   6.905
 6083SOL    HW219149   1.617   6.392   6.902
 6084SOL     OW19150   7.001   5.454   5.561
 6084SOL    HW119151   6.998   5.364   5.517
 6084SOL    HW219152   6.908   5.490   5.570
 6085SOL     OW19153   5.675   3.544   0.298
 6085SOL    HW119154   5.751   3.565   0.359
 6085SOL    HW219155   5.708   3.493   0.219
 6086SOL     OW19156   3.329   2.129   4.318
 6086SOL    HW119157   3.410   2.099   4.367
 6086SOL    HW219158   3.266   2.174   4.382
 6087SOL     OW19159   5.619   6.577   6.538
 6087SOL    HW119160   5.587   6.671   6.534
 6087SOL    HW219161   5.563   6.525   6.602
 6088SOL     OW19162   1.008   0.065   5.193
 6088SOL    HW119163   0.918   0.058   5.150
 6088SOL    HW219164   1.017   7.019   5.265
 6089SOL     OW19165   6.985   3.354   1.082
 6089SOL    HW119166   0.017   3.338   1.164
 6089SOL    HW219167   6.969   3.452   1.071
 6090SOL     OW19168   0.737   5.353   5.156
 6090SOL    HW119169   0.817   5.311   5.114
 6090SOL    HW219170   0.662   5.355   5.090
 6091SOL     OW19171   6.268   1.564   2.046
 6091SOL    HW119172   6.215   1.589   1.965
 6091SOL    HW219173   6.335   1.493   2.021
 6092SOL     OW19174   1.908   1.590   2.657
 6092SOL    HW119175   1.890   1.657   2.585
 6092SOL    HW219176   2.002   1.601   2.689
 6093SOL     OW19177   1.366   2.535   1.272
 6093SOL    HW119178   1.346   2.495   1.182
 6093SOL    HW219179   1.373   2.635   1.263
 6094SOL     OW19180   0.692   0.927   1.636
 6094SOL    HW119181   0.702   0.939   1.734
 6094SOL    HW219182   0.595   0.933   1.611
 6095SOL     OW19183   6.418   3.511   6.329
 6095SOL    HW119184   6.350   3.582   6.351
 6095SOL    HW219185   6.424   3.501   6.230
 6096SOL     OW19186   3.804   2.142   3.500
 6096SOL    HW119187   3.711   2.118   3.529
 6096SOL    HW219188   3.832   2.082   3.426
 6097SOL     OW19189   2.724   1.347   2.276
 6097SOL    HW119190   2.693   1.311   2.364
 6097SOL    HW219191   2.810   1.303   2.251
 6098SOL     OW19192   2.063   2.461   5.772
 6098SOL    HW119193   2.101   2.487   5.860
 6098SOL    HW219194   2.134   2.415   5.717
 6099SOL     OW19195   6.219   5.993   5.113
 6099SOL    HW119196   6.234   6.057   5.038
 6099SOL    HW219197   6.180   5.908   5.077
 6100SOL     OW19198   6.362   2.601   6.956
 6100SOL    HW119199   6.379   2.508   6.990
 6100SOL    HW219200   6.265   2.623   6.966
 6101SOL     OW19201   6.708   0.931   5.351
 6101SOL    HW119202   6.657   0.896   5.429
 6101SOL    HW219203   6.755   0.856   5.304
 6102SOL     OW19204   2.941   0.695   4.558
 6102SOL    HW119205   2.855   0.670   4.513
 6102SOL    HW219206   3.017   0.687   4.492
 6103SOL     OW19207   6.368   6.649   5.355
 6103SOL    HW119208   6.303   6.575   5.373
 6103SOL    HW219209   6.345   6.727   5.413
 6104SOL     OW19210   6.427   1.884   6.857
 6104SOL    HW119211   6.508   1.838   6.822
 6104SOL    HW219212   6.410   1.855   6.951
 6105SOL     OW19213   3.470   5.930   5.004
 6105SOL    HW119214   3.406   5.876   4.949
 6105SOL    HW219215   3.545   5.962   4.946
 6106SOL     OW19216   3.431   5.171   6.031
 6106SOL    HW119217   3.467   5.256   5.992
 6106SOL    HW219218   3.362   5.133   5.969
 6107SOL     OW19219   1.998   4.659   5.136
 6107SOL    HW119220   1.969   4.734   5.195
 6107SOL    HW219221   1.917   4.613   5.098
 6108SOL     OW19222   0.690   2.200   4.414
 6108SOL    HW119223   0.725   2.118   4.368
 6108SOL    HW219224   0.762   2.241   4.470
 6109SOL     OW19225   5.758   3.761   0.971
 6109SOL    HW119226   5.748   3.661   0.965
 6109SOL    HW219227   5.669   3.804   0.957
 6110SOL     OW19228   3.201   1.841   4.595
 6110SOL    HW119229   3.112   1.807   4.626
 6110SOL    HW219230   3.273   1.779   4.625
 6111SOL     OW19231   1.280   5.094   3.134
 6111SOL    HW119232   1.297   4.996   3.125
 6111SOL    HW219233   1.316   5.127   3.222
 6112SOL     OW19234   0.808   2.026   2.787
 6112SOL    HW119235   0.807   2.122   2.816
 6112SOL    HW219236   0.722   1.982   2.814
 6113SOL     OW19237   1.900   6.687   5.612
 6113SOL    HW119238   1.950   6.771   5.594
 6113SOL    HW219239   1.815   6.687   5.559
 6114SOL     OW19240   4.431   5.677   0.622
 6114SOL    HW119241   4.391   5.741   0.689
 6114SOL    HW219242   4.530   5.684   0.626
 6115SOL     OW19243   5.302   5.095   2.479
 6115SOL    HW119244   5.247   5.012   2.481
 6115SOL    HW219245   5.399   5.071   2.480
 6116SOL     OW19246   3.791   1.286   1.765
 6116SOL    HW119247   3.729   1.333   1.828
 6116SOL    HW219248   3.856   1.231   1.818
 6117SOL     OW19249   5.891   6.920   4.855
 6117SOL    HW119250   5.841   6.992   4.902
 6117SOL    HW219251   5.958   6.961   4.793
 6118SOL     OW19252   6.125   0.704   3.506
 6118SOL    HW119253   6.207   0.646   3.501
 6118SOL    HW219254   6.147   0.788   3.555
 6119SOL     OW19255   6.916   5.134   4.879
 6119SOL    HW119256   6.919   5.124   4.979
 6119SOL    HW219257   6.962   5.218   4.853
 6120SOL     OW19258   2.791   0.270   2.886
 6120SOL    HW119259   2.822   0.301   2.975
 6120SOL    HW219260   2.692   0.282   2.878
 6121SOL     OW19261   0.269   2.394   4.071
 6121SOL    HW119262   0.284   2.432   3.980
 6121SOL    HW219263   0.337   2.323   4.088
 6122SOL     OW19264   4.220   5.646   3.208
 6122SOL    HW119265   4.157   5.622   3.134
 6122SOL    HW219266   4.282   5.718   3.177
 6123SOL     OW19267   6.334   1.155   2.592
 6123SOL    HW119268   6.257   1.166   2.654
 6123SOL    HW219269   6.407   1.103   2.636
 6124SOL     OW19270   3.531   0.097   5.741
 6124SOL    HW119271   3.462   0.168   5.730
 6124SOL    HW219272   3.495   0.010   5.707
 6125SOL     OW19273   2.423   6.075   2.109
 6125SOL    HW119274   2.422   5.983   2.149
 6125SOL    HW219275   2.336   6.120   2.130
 6126SOL     OW19276   5.022   5.008   3.172
 6126SOL    HW119277   5.057   5.092   3.212
 6126SOL    HW219278   5.014   5.019   3.073
 6127SOL     OW19279   2.047   5.876   1.546
 6127SOL    HW119280   2.084   5.867   1.638
 6127SOL    HW219281   2.112   5.837   1.480
 6128SOL     OW19282   5.797   2.102   0.501
 6128SOL    HW119283   5.699   2.096   0.514
 6128SOL    HW219284   5.821   2.063   0.412
 6129SOL     OW19285   6.138   4.494   3.354
 6129SOL    HW119286   6.202   4.422   3.378
 6129SOL    HW219287   6.062   4.454   3.301
 6130SOL     OW19288   4.871   3.734   2.490
 6130SOL    HW119289   4.889   3.650   2.439
 6130SOL    HW219290   4.868   3.715   2.588
 6131SOL     OW19291   6.241   1.001   5.726
 6131SOL    HW119292   6.181   0.961   5.656
 6131SOL    HW219293   6.325   1.033   5.682
 6132SOL     OW19294   4.147   3.176   0.713
 6132SOL    HW119295   4.224   3.152   0.772
 6132SOL    HW219296   4.154   3.272   0.686
 6133SOL     OW19297   0.958   4.098   1.473
 6133SOL    HW119298   0.980   4.010   1.514
 6133SOL    HW219299   0.876   4.136   1.516
 6134SOL     OW19300   4.452   3.627   6.583
 6134SOL    HW119301   4.516   3.564   6.627
 6134SOL    HW219302   4.395   3.670   6.653
 6135SOL     OW19303   5.843   0.181   1.286
 6135SOL    HW119304   5.942   0.199   1.283
 6135SOL    HW219305   5.822   0.103   1.227
 6136SOL     OW19306   1.126   1.834   1.858
 6136SOL    HW119307   1.188   1.757   1.841
 6136SOL    HW219308   1.158   1.886   1.937
 6137SOL     OW19309   2.999   6.569   5.827
 6137SOL    HW119310   3.037   6.626   5.755
 6137SOL    HW219311   2.980   6.477   5.791
 6138SOL     OW19312   3.892   5.743   3.106
 6138SOL    HW119313   3.872   5.651   3.138
 6138SOL    HW219314   3.955   5.738   3.028
 6139SOL     OW19315   1.526   4.562   4.725
 6139SOL    HW119316   1.481   4.498   4.662
 6139SOL    HW219317   1.613   4.591   4.685
 6140SOL     OW19318   1.648   6.689   1.524
 6140SOL    HW119319   1.635   6.668   1.621
 6140SOL    HW219320   1.598   6.772   1.502
 6141SOL     OW19321   6.595   5.498   6.217
 6141SOL    HW119322   6.682   5.513   6.169
 6141SOL    HW219323   6.530   5.455   6.155
 6142SOL     OW19324   0.093   4.498   1.198
 6142SOL    HW119325   0.027   4.423   1.202
 6142SOL    HW219326   0.154   4.485   1.120
 6143SOL     OW19327   5.808   5.146   6.569
 6143SOL    HW119328   5.729   5.090   6.594
 6143SOL    HW219329   5.809   5.160   6.470
 6144SOL     OW19330   0.443   4.519   4.163
 6144SOL    HW119331   0.422   4.595   4.102
 6144SOL    HW219332   0.513   4.461   4.121
 6145SOL     OW19333   5.217   5.728   3.039
 6145SOL    HW119334   5.149   5.801   3.046
 6145SOL    HW219335   5.305   5.760   3.073
 6146SOL     OW19336   5.642   1.398   3.582
 6146SOL    HW119337   5.580   1.337   3.534
 6146SOL    HW219338   5.725   1.411   3.528
 6147SOL     OW19339   1.958   3.536   2.419
 6147SOL    HW119340   2.041   3.591   2.431
 6147SOL    HW219341   1.878   3.596   2.423
 6148SOL     OW19342   6.316   6.301   4.414
 6148SOL    HW119343   6.413   6.294   4.439
 6148SOL    HW219344   6.283   6.211   4.384
 6149SOL     OW19345   3.068   5.635   3.144
 6149SOL    HW119346   2.973   5.613   3.118
 6149SOL    HW219347   3.108   5.694   3.074
 6150SOL     OW19348   4.774   5.854   5.775
 6150SOL    HW119349   4.840   5.922   5.742
 6150SOL    HW219350   4.685   5.874   5.735
 6151SOL     OW19351   5.221   2.472   5.663
 6151SOL    HW119352   5.198   2.566   5.688
 6151SOL    HW219353   5.259   2.425   5.743
 6152SOL     OW19354   6.455   4.533   6.458
 6152SOL    HW119355   6.524   4.527   6.531
 6152SOL    HW219356   6.410   4.623   6.462
 6153SOL     OW19357   3.978   3.698   1.548
 6153SOL    HW119358   3.937   3.770   1.492
 6153SOL    HW219359   3.915   3.620   1.553
 6154SOL     OW19360   5.161   3.219   2.768
 6154SOL    HW119361   5.093   3.185   2.704
 6154SOL    HW219362   5.127   3.302   2.813
 6155SOL     OW19363   0.310   3.780   5.115
 6155SOL    HW119364   0.386   3.744   5.169
 6155SOL    HW219365   0.294   3.721   5.036
 6156SOL     OW19366   6.417   6.974   3.811
 6156SOL    HW119367   6.389   0.041   3.778
 6156SOL    HW219368   6.498   6.983   3.869
 6157SOL     OW19369   2.348   0.935   3.846
 6157SOL    HW119370   2.271   0.981   3.891
 6157SOL    HW219371   2.433   0.959   3.892
 6158SOL     OW19372   4.716   1.499   5.842
 6158SOL    HW119373   4.704   1.593   5.810
 6158SOL    HW219374   4.813   1.475   5.836
 6159SOL     OW19375   5.252   2.898   0.016
 6159SOL    HW119376   5.346   2.896   0.051
 6159SOL    HW219377   5.250   2.858   6.948
 6160SOL     OW19378   5.771   5.967   2.161
 6160SOL    HW119379   5.861   5.978   2.120
 6160SOL    HW219380   5.702   6.008   2.101
 6161SOL     OW19381   5.524   0.373   5.811
 6161SOL    HW119382   5.475   0.336   5.732
 6161SOL    HW219383   5.536   0.302   5.880
 6162SOL     OW19384   6.450   4.553   4.912
 6162SOL    HW119385   6.467   4.535   4.815
 6162SOL    HW219386   6.390   4.482   4.949
 6163SOL     OW19387   6.692   4.086   2.203
 6163SOL    HW119388   6.738   4.049   2.284
 6163SOL    HW219389   6.644   4.171   2.227
 6164SOL     OW19390   3.900   2.027   0.918
 6164SOL    HW119391   3.815   2.000   0.873
 6164SOL    HW219392   3.919   1.963   0.994
 6165SOL     OW19393   3.496   6.176   6.972
 6165SOL    HW119394   3.573   6.166   6.908
 6165SOL    HW219395   3.460   6.269   6.967
 6166SOL     OW19396   2.919   1.651   5.906
 6166SOL    HW119397   2.863   1.588   5.852
 6166SOL    HW219398   2.880   1.660   5.998
 6167SOL     OW19399   0.439   4.042   3.507
 6167SOL    HW119400   0.405   3.994   3.426
 6167SOL    HW219401   0.536   4.020   3.520
 6168SOL     OW19402   0.164   3.722   2.839
 6168SOL    HW119403   0.144   3.791   2.769
 6168SOL    HW219404   0.079   3.677   2.866
 6169SOL     OW19405   1.963   4.113   2.409
 6169SOL    HW119406   1.985   4.025   2.366
 6169SOL    HW219407   1.868   4.111   2.440
 6170SOL     OW19408   0.383   3.103   5.482
 6170SOL    HW119409   0.310   3.133   5.420
 6170SOL    HW219410   0.470   3.101   5.432
 6171SOL     OW19411   6.983   0.582   6.472
 6171SOL    HW119412   6.894   0.625   6.488
 6171SOL    HW219413   6.976   0.484   6.491
 6172SOL     OW19414   0.319   3.472   3.069
 6172SOL    HW119415   0.416   3.474   3.045
 6172SOL    HW219416   0.305   3.526   3.152
 6173SOL     OW19417   6.774   6.926   3.396
 6173SOL    HW119418   6.694   6.942   3.453
 6173SOL    HW219419   6.745   6.907   3.302
 6174SOL     OW19420   5.589   3.921   2.813
 6174SOL    HW119421   5.593   3.999   2.751
 6174SOL    HW219422   5.582   3.837   2.760
 6175SOL     OW19423   2.511   1.921   5.592
 6175SOL    HW119424   2.513   2.017   5.565
 6175SOL    HW219425   2.604   1.886   5.598
 6176SOL     OW19426   4.291   4.195   5.380
 6176SOL    HW119427   4.360   4.232   5.318
 6176SOL    HW219428   4.206   4.247   5.369
 6177SOL     OW19429   5.855   0.670   1.738
 6177SOL    HW119430   5.934   0.695   1.794
 6177SOL    HW219431   5.857   0.723   1.653
 6178SOL     OW19432   4.182   4.315   1.428
 6178SOL    HW119433   4.169   4.292   1.525
 6178SOL    HW219434   4.122   4.391   1.404
 6179SOL     OW19435   5.479   5.073   2.926
 6179SOL    HW119436   5.535   5.113   2.853
 6179SOL    HW219437   5.539   5.041   2.999
 6180SOL     OW19438   2.759   4.114   0.128
 6180SOL    HW119439   2.691   4.123   0.055
 6180SOL    HW219440   2.775   4.017   0.147
 6181SOL     OW19441   4.770   4.992   6.077
 6181SOL    HW119442   4.822   5.056   6.020
 6181SOL    HW219443   4.828   4.914   6.101
 6182SOL     OW19444   3.158   2.854   0.409
 6182SOL    HW119445   3.149   2.766   0.455
 6182SOL    HW219446   3.090   2.860   0.335
 6183SOL     OW19447   0.672   1.427   1.411
 6183SOL    HW119448   0.711   1.519   1.423
 6183SOL    HW219449   0.619   1.403   1.493
 6184SOL     OW19450   2.593   0.374   6.004
 6184SOL    HW119451   2.589   0.311   5.926
 6184SOL    HW219452   2.555   0.463   5.977
 6185SOL     OW19453   3.281   3.195   5.602
 6185SOL    HW119454   3.204   3.160   5.548
 6185SOL    HW219455   3.366   3.153   5.569
 6186SOL     OW19456   6.314   1.480   2.311
 6186SOL    HW119457   6.387   1.412   2.305
 6186SOL    HW219458   6.244   1.460   2.241
 6187SOL     OW19459   5.632   1.700   5.135
 6187SOL    HW119460   5.621   1.710   5.036
 6187SOL    HW219461   5.577   1.769   5.182
 6188SOL     OW19462   1.491   1.594   5.179
 6188SOL    HW119463   1.494   1.647   5.094
 6188SOL    HW219464   1.583   1.559   5.200
 6189SOL     OW19465   6.260   6.231   1.911
 6189SOL    HW119466   6.223   6.162   1.849
 6189SOL    HW219467   6.346   6.197   1.951
 6190SOL     OW19468   0.330   2.271   5.524
 6190SOL    HW119469   0.395   2.343   5.549
 6190SOL    HW219470   0.239   2.294   5.557
 6191SOL     OW19471   3.799   3.317   6.377
 6191SOL    HW119472   3.831   3.321   6.282
 6191SOL    HW219473   3.869   3.357   6.437
 6192SOL     OW19474   2.776   1.453   0.046
 6192SOL    HW119475   2.743   1.531   0.099
 6192SOL    HW219476   2.805   1.381   0.109
 6193SOL     OW19477   4.515   5.311   6.578
 6193SOL    HW119478   4.545   5.398   6.538
 6193SOL    HW219479   4.455   5.263   6.513
 6194SOL     OW19480   6.254   0.266   5.757
 6194SOL    HW119481   6.273   0.345   5.814
 6194SOL    HW219482   6.161   0.273   5.719
 6195SOL     OW19483   6.562   6.604   6.156
 6195SOL    HW119484   6.527   6.659   6.080
 6195SOL    HW219485   6.662   6.605   6.153
 6196SOL     OW19486   5.755   3.763   3.461
 6196SOL    HW119487   5.714   3.718   3.382
 6196SOL    HW219488   5.691   3.760   3.538
 6197SOL     OW19489   3.340   5.867   1.669
 6197SOL    HW119490   3.409   5.907   1.729
 6197SOL    HW219491   3.361   5.770   1.655
 6198SOL     OW19492   6.258   6.685   6.589
 6198SOL    HW119493   6.354   6.715   6.587
 6198SOL    HW219494   6.224   6.690   6.683
 6199SOL     OW19495   1.562   0.536   0.710
 6199SOL    HW119496   1.558   0.628   0.750
 6199SOL    HW219497   1.525   0.470   0.775
 6200SOL     OW19498   2.010   2.131   2.643
 6200SOL    HW119499   2.068   2.195   2.594
 6200SOL    HW219500   1.976   2.174   2.727
 6201SOL     OW19501   6.731   4.012   3.818
 6201SOL    HW119502   6.714   3.932   3.876
 6201SOL    HW219503   6.828   4.018   3.797
 6202SOL     OW19504   6.631   1.511   2.684
 6202SOL    HW119505   6.676   1.586   2.636
 6202SOL    HW219506   6.680   1.492   2.769
 6203SOL     OW19507   6.902   6.366   1.737
 6203SOL    HW119508   6.879   6.435   1.806
 6203SOL    HW219509   6.931   6.413   1.653
 6204SOL     OW19510   2.395   0.060   5.203
 6204SOL    HW119511   2.362   0.119   5.130
 6204SOL    HW219512   2.431   0.115   5.278
 6205SOL     OW19513   4.968   4.352   3.170
 6205SOL    HW119514   4.910   4.360   3.251
 6205SOL    HW219515   4.991   4.443   3.136
 6206SOL     OW19516   5.162   2.049   3.534
 6206SOL    HW119517   5.189   2.038   3.629
 6206SOL    HW219518   5.233   2.011   3.474
 6207SOL     OW19519   2.209   5.064   4.584
 6207SOL    HW119520   2.243   5.125   4.655
 6207SOL    HW219521   2.271   5.066   4.505
 6208SOL     OW19522   3.866   3.452   5.250
 6208SOL    HW119523   3.814   3.514   5.191
 6208SOL    HW219524   3.893   3.500   5.333
 6209SOL     OW19525   3.478   2.912   0.719
 6209SOL    HW119526   3.541   2.957   0.783
 6209SOL    HW219527   3.385   2.942   0.739
 6210SOL     OW19528   4.694   1.677   4.060
 6210SOL    HW119529   4.732   1.730   3.983
 6210SOL    HW219530   4.749   1.693   4.142
 6211SOL     OW19531   5.464   4.520   5.096
 6211SOL    HW119532   5.459   4.425   5.126
 6211SOL    HW219533   5.495   4.577   5.173
 6212SOL     OW19534   4.260   4.682   5.326
 6212SOL    HW119535   4.332   4.692   5.257
 6212SOL    HW219536   4.227   4.772   5.353
 6213SOL     OW19537   3.955   6.016   0.484
 6213SOL    HW119538   3.995   6.103   0.512
 6213SOL    HW219539   3.960   6.007   0.385
 6214SOL     OW19540   6.033   5.754   6.462
 6214SOL    HW119541   6.130   5.734   6.461
 6214SOL    HW219542   5.980   5.669   6.462
 6215SOL     OW19543   5.772   2.382   5.741
 6215SOL    HW119544   5.831   2.427   5.808
 6215SOL    HW219545   5.761   2.286   5.765
 6216SOL     OW19546   4.749   2.326   2.902
 6216SOL    HW119547   4.777   2.341   2.807
 6216SOL    HW219548   4.830   2.311   2.959
 6217SOL     OW19549   0.422   4.490   2.193
 6217SOL    HW119550   0.404   4.392   2.179
 6217SOL    HW219551   0.515   4.511   2.164
 6218SOL     OW19552   4.596   6.224   6.876
 6218SOL    HW119553   4.666   6.153   6.865
 6218SOL    HW219554   4.519   6.186   6.927
 6219SOL     OW19555   1.012   0.816   6.184
 6219SOL    HW119556   0.971   0.896   6.228
 6219SOL    HW219557   0.947   0.741   6.183
 6220SOL     OW19558   4.094   0.539   1.059
 6220SOL    HW119559   4.028   0.596   1.108
 6220SOL    HW219560   4.148   0.597   0.998
 6221SOL     OW19561   6.301   5.692   6.475
 6221SOL    HW119562   6.264   5.607   6.438
 6221SOL    HW219563   6.363   5.671   6.550
 6222SOL     OW19564   6.123   1.198   2.367
 6222SOL    HW119565   6.192   1.205   2.440
 6222SOL    HW219566   6.165   1.161   2.284
 6223SOL     OW19567   6.965   4.982   3.452
 6223SOL    HW119568   6.872   4.945   3.447
 6223SOL    HW219569   6.964   5.078   3.425
 6224SOL     OW19570   3.946   1.248   6.432
 6224SOL    HW119571   4.020   1.201   6.384
 6224SOL    HW219572   3.948   1.223   6.529
 6225SOL     OW19573   4.662   6.433   6.654
 6225SOL    HW119574   4.571   6.474   6.657
 6225SOL    HW219575   4.681   6.387   6.741
 6226SOL     OW19576   1.459   1.451   4.612
 6226SOL    HW119577   1.515   1.388   4.558
 6226SOL    HW219578   1.422   1.403   4.691
 6227SOL     OW19579   2.870   4.031   5.742
 6227SOL    HW119580   2.802   4.003   5.674
 6227SOL    HW219581   2.882   4.130   5.737
 6228SOL     OW19582   1.477   3.267   4.231
 6228SOL    HW119583   1.527   3.312   4.306
 6228SOL    HW219584   1.541   3.242   4.159
 6229SOL     OW19585   0.513   4.054   4.120
 6229SOL    HW119586   0.554   4.067   4.210
 6229SOL    HW219587   0.531   3.961   4.088
 6230SOL     OW19588   0.259   0.959   2.389
 6230SOL    HW119589   0.198   1.027   2.430
 6230SOL    HW219590   0.325   1.005   2.329
 6231SOL     OW19591   1.379   5.224   6.987
 6231SOL    HW119592   1.454   5.164   6.957
 6231SOL    HW219593   1.339   5.188   0.048
 6232SOL     OW19594   4.156   1.141   6.286
 6232SOL    HW119595   4.143   1.054   6.239
 6232SOL    HW219596   4.184   1.211   6.219
 6233SOL     OW19597   0.074   3.774   1.652
 6233SOL    HW119598   0.114   3.682   1.655
 6233SOL    HW219599   0.030   3.794   1.740
 6234SOL     OW19600   4.610   6.229   4.811
 6234SOL    HW119601   4.526   6.239   4.758
 6234SOL    HW219602   4.689   6.243   4.750
 6235SOL     OW19603   6.608   0.993   2.925
 6235SOL    HW119604   6.515   1.028   2.910
 6235SOL    HW219605   6.616   0.960   3.020
 6236SOL     OW19606   1.087   5.415   0.909
 6236SOL    HW119607   1.035   5.341   0.952
 6236SOL    HW219608   1.074   5.499   0.961
 6237SOL     OW19609   3.756   1.712   0.670
 6237SOL    HW119610   3.855   1.694   0.672
 6237SOL    HW219611   3.716   1.663   0.592
 6238SOL     OW19612   2.357   6.749   4.441
 6238SOL    HW119613   2.389   6.664   4.399
 6238SOL    HW219614   2.420   6.777   4.514
 6239SOL     OW19615   4.444   1.365   3.392
 6239SOL    HW119616   4.465   1.365   3.489
 6239SOL    HW219617   4.515   1.414   3.342
 6240SOL     OW19618   4.058   3.334   4.146
 6240SOL    HW119619   4.093   3.361   4.236
 6240SOL    HW219620   4.053   3.234   4.141
 6241SOL     OW19621   3.777   0.503   2.545
 6241SOL    HW119622   3.682   0.523   2.569
 6241SOL    HW219623   3.837   0.536   2.618
 6242SOL     OW19624   2.877   2.031   3.846
 6242SOL    HW119625   2.852   2.055   3.753
 6242SOL    HW219626   2.938   2.101   3.883
 6243SOL     OW19627   4.928   0.984   5.677
 6243SOL    HW119628   4.983   1.000   5.595
 6243SOL    HW219629   4.985   0.941   5.747
 6244SOL     OW19630   4.583   4.426   2.519
 6244SOL    HW119631   4.510   4.479   2.474
 6244SOL    HW219632   4.543   4.343   2.559
 6245SOL     OW19633   0.483   4.439   2.637
 6245SOL    HW119634   0.402   4.456   2.581
 6245SOL    HW219635   0.489   4.341   2.658
 6246SOL     OW19636   6.640   6.508   4.361
 6246SOL    HW119637   6.554   6.553   4.337
 6246SOL    HW219638   6.621   6.418   4.400
 6247SOL     OW19639   6.189   6.737   2.954
 6247SOL    HW119640   6.117   6.727   3.023
 6247SOL    HW219641   6.217   6.647   2.922
 6248SOL     OW19642   3.235   3.182   6.116
 6248SOL    HW119643   3.294   3.103   6.098
 6248SOL    HW219644   3.276   3.264   6.076
 6249SOL     OW19645   6.015   3.246   1.530
 6249SOL    HW119646   6.016   3.189   1.612
 6249SOL    HW219647   6.082   3.212   1.464
 6250SOL     OW19648   6.466   7.016   0.523
 6250SOL    HW119649   6.495   0.013   0.429
 6250SOL    HW219650   6.383   6.960   0.521
 6251SOL     OW19651   2.664   6.740   4.348
 6251SOL    HW119652   2.678   6.673   4.421
 6251SOL    HW219653   2.746   6.745   4.291
 6252SOL     OW19654   2.938   5.699   6.923
 6252SOL    HW119655   2.922   5.692   6.824
 6252SOL    HW219656   2.852   5.721   6.969
 6253SOL     OW19657   3.570   5.033   4.805
 6253SOL    HW119658   3.503   4.958   4.806
 6253SOL    HW219659   3.661   4.994   4.792
 6254SOL     OW19660   0.711   6.590   1.322
 6254SOL    HW119661   0.773   6.531   1.374
 6254SOL    HW219662   0.762   6.633   1.247
 6255SOL     OW19663   0.379   1.090   2.183
 6255SOL    HW119664   0.388   1.039   2.098
 6255SOL    HW219665   0.300   1.151   2.178
 6256SOL     OW19666   4.856   6.088   2.139
 6256SOL    HW119667   4.938   6.133   2.175
 6256SOL    HW219668   4.874   5.991   2.128
 6257SOL     OW19669   3.481   4.200   1.521
 6257SOL    HW119670   3.513   4.287   1.483
 6257SOL    HW219671   3.395   4.173   1.477
 6258SOL     OW19672   4.002   5.279   5.006
 6258SOL    HW119673   3.936   5.253   5.076
 6258SOL    HW219674   3.980   5.370   4.971
 6259SOL     OW19675   2.949   0.369   4.438
 6259SOL    HW119676   3.044   0.400   4.434
 6259SOL    HW219677   2.947   0.269   4.441
 6260SOL     OW19678   1.641   1.606   0.280
 6260SOL    HW119679   1.649   1.652   0.369
 6260SOL    HW219680   1.674   1.512   0.289
 6261SOL     OW19681   3.488   0.409   0.763
 6261SOL    HW119682   3.587   0.395   0.760
 6261SOL    HW219683   3.456   0.396   0.857
 6262SOL     OW19684   6.021   0.191   2.521
 6262SOL    HW119685   6.116   0.177   2.495
 6262SOL    HW219686   6.010   0.282   2.561
 6263SOL     OW19687   6.018   6.069   6.302
 6263SOL    HW119688   6.117   6.061   6.316
 6263SOL    HW219689   5.993   6.166   6.297
 6264SOL     OW19690   1.927   0.125   0.714
 6264SOL    HW119691   2.025   0.112   0.718
 6264SOL    HW219692   1.902   0.209   0.763
 6265SOL     OW19693   4.683   0.516   0.008
 6265SOL    HW119694   4.589   0.517   6.998
 6265SOL    HW219695   4.716   0.422   0.014
 6266SOL     OW19696   2.302   4.979   2.794
 6266SOL    HW119697   2.337   4.912   2.861
 6266SOL    HW219698   2.205   4.995   2.811
 6267SOL     OW19699   1.913   6.239   5.039
 6267SOL    HW119700   1.895   6.315   4.977
 6267SOL    HW219701   1.829   6.214   5.088
 6268SOL     OW19702   3.349   1.545   1.217
 6268SOL    HW119703   3.442   1.583   1.215
 6268SOL    HW219704   3.296   1.585   1.142
 6269SOL     OW19705   6.110   5.240   0.463
 6269SOL    HW119706   6.133   5.288   0.548
 6269SOL    HW219707   6.106   5.141   0.481
 6270SOL     OW19708   2.143   6.404   0.484
 6270SOL    HW119709   2.102   6.312   0.483
 6270SOL    HW219710   2.185   6.423   0.396
 6271SOL     OW19711   5.828   3.174   6.201
 6271SOL    HW119712   5.903   3.207   6.259
 6271SOL    HW219713   5.776   3.252   6.166
 6272SOL     OW19714   0.780   6.719   0.857
 6272SOL    HW119715   0.695   6.753   0.819
 6272SOL    HW219716   0.772   6.622   0.877
 6273SOL     OW19717   0.488   6.513   1.632
 6273SOL    HW119718   0.533   6.573   1.698
 6273SOL    HW219719   0.556   6.458   1.585
 6274SOL     OW19720   3.202   5.802   4.026
 6274SOL    HW119721   3.214   5.886   4.079
 6274SOL    HW219722   3.256   5.807   3.943
 6275SOL     OW19723   2.038   5.474   6.896
 6275SOL    HW119724   1.997   5.558   6.858
 6275SOL    HW219725   2.057   5.488   6.993
 6276SOL     OW19726   1.483   5.674   2.854
 6276SOL    HW119727   1.464   5.641   2.947
 6276SOL    HW219728   1.558   5.620   2.815
 6277SOL     OW19729   5.103   3.513   0.865
 6277SOL    HW119730   5.123   3.508   0.963
 6277SOL    HW219731   5.040   3.588   0.847
 6278SOL     OW19732   2.461   1.353   6.332
 6278SOL    HW119733   2.439   1.268   6.284
 6278SOL    HW219734   2.380   1.385   6.382
 6279SOL     OW19735   2.458   0.091   1.569
 6279SOL    HW119736   2.422   0.000   1.548
 6279SOL    HW219737   2.392   0.141   1.625
 6280SOL     OW19738   6.194   2.556   0.371
 6280SOL    HW119739   6.283   2.580   0.333
 6280SOL    HW219740   6.139   2.509   0.302
 6281SOL     OW19741   5.757   3.815   6.176
 6281SOL    HW119742   5.850   3.833   6.207
 6281SOL    HW219743   5.694   3.824   6.253
 6282SOL     OW19744   0.223   3.239   6.188
 6282SOL    HW119745   0.296   3.171   6.189
 6282SOL    HW219746   0.229   3.295   6.270
 6283SOL     OW19747   1.017   6.026   4.568
 6283SOL    HW119748   0.927   6.015   4.526
 6283SOL    HW219749   1.025   5.964   4.646
 6284SOL     OW19750   1.691   4.453   6.148
 6284SOL    HW119751   1.774   4.508   6.143
 6284SOL    HW219752   1.707   4.365   6.104
 6285SOL     OW19753   0.928   3.686   3.172
 6285SOL    HW119754   1.005   3.623   3.184
 6285SOL    HW219755   0.892   3.677   3.079
 6286SOL     OW19756   0.699   2.469   0.055
 6286SOL    HW119757   0.657   2.538   7.019
 6286SOL    HW219758   0.697   2.381   0.008
 6287SOL     OW19759   5.311   4.795   4.711
 6287SOL    HW119760   5.357   4.790   4.800
 6287SOL    HW219761   5.380   4.794   4.638
 6288SOL     OW19762   3.345   3.219   6.477
 6288SOL    HW119763   3.261   3.272   6.464
 6288SOL    HW219764   3.358   3.200   6.575
 6289SOL     OW19765   2.596   4.363   5.722
 6289SOL    HW119766   2.670   4.377   5.787
 6289SOL    HW219767   2.634   4.331   5.635
 6290SOL     OW19768   5.382   5.792   4.139
 6290SOL    HW119769   5.327   5.876   4.137
 6290SOL    HW219770   5.479   5.815   4.132
 6291SOL     OW19771   4.046   3.867   2.975
 6291SOL    HW119772   4.065   3.782   3.023
 6291SOL    HW219773   4.131   3.907   2.941
 6292SOL     OW19774   1.206   3.295   4.307
 6292SOL    HW119775   1.302   3.303   4.279
 6292SOL    HW219776   1.202   3.258   4.400
 6293SOL     OW19777   3.546   1.035   6.565
 6293SOL    HW119778   3.516   1.071   6.653
 6293SOL    HW219779   3.645   1.016   6.568
 6294SOL     OW19780   1.510   1.440   3.010
 6294SOL    HW119781   1.413   1.457   2.991
 6294SOL    HW219782   1.534   1.347   2.981
 6295SOL     OW19783   5.398   3.609   5.826
 6295SOL    HW119784   5.388   3.509   5.822
 6295SOL    HW219785   5.430   3.643   5.737
 6296SOL     OW19786   0.772   3.041   0.174
 6296SOL    HW119787   0.723   2.984   0.240
 6296SOL    HW219788   0.790   3.131   0.215
 6297SOL     OW19789   6.043   1.004   4.071
 6297SOL    HW119790   6.137   1.001   4.038
 6297SOL    HW219791   6.036   1.068   4.147
 6298SOL     OW19792   6.364   5.731   0.802
 6298SOL    HW119793   6.400   5.821   0.781
 6298SOL    HW219794   6.371   5.672   0.721
 6299SOL     OW19795   4.160   1.566   2.366
 6299SOL    HW119796   4.197   1.505   2.296
 6299SOL    HW219797   4.060   1.572   2.355
 6300SOL     OW19798   2.659   1.128   6.048
 6300SOL    HW119799   2.685   1.218   6.083
 6300SOL    HW219800   2.620   1.139   5.956
 6301SOL     OW19801   3.699   6.502   0.016
 6301SOL    HW119802   3.633   6.479   6.968
 6301SOL    HW219803   3.783   6.536   6.998
 6302SOL     OW19804   3.101   2.483   6.301
 6302SOL    HW119805   3.106   2.537   6.385
 6302SOL    HW219806   3.154   2.399   6.312
 6303SOL     OW19807   1.028   6.397   5.072
 6303SOL    HW119808   0.995   6.489   5.051
 6303SOL    HW219809   1.014   6.377   5.169
 6304SOL     OW19810   4.068   1.085   3.619
 6304SOL    HW119811   3.986   1.125   3.579
 6304SOL    HW219812   4.094   1.137   3.700
 6305SOL     OW19813   0.888   5.871   6.154
 6305SOL    HW119814   0.881   5.861   6.253
 6305SOL    HW219815   0.984   5.858   6.127
 6306SOL     OW19816   6.995   4.837   4.320
 6306SOL    HW119817   6.904   4.795   4.330
 6306SOL    HW219818   7.012   4.857   4.224
 6307SOL     OW19819   4.163   3.474   2.654
 6307SOL    HW119820   4.151   3.561   2.606
 6307SOL    HW219821   4.217   3.489   2.738
 6308SOL     OW19822   0.073   2.675   0.812
 6308SOL    HW119823   0.097   2.655   0.907
 6308SOL    HW219824   7.020   2.617   0.784
 6309SOL     OW19825   2.482   5.976   4.735
 6309SOL    HW119826   2.420   5.963   4.658
 6309SOL    HW219827   2.431   6.009   4.814
 6310SOL     OW19828   1.409   6.710   3.180
 6310SOL    HW119829   1.332   6.686   3.121
 6310SOL    HW219830   1.438   6.804   3.160
 6311SOL     OW19831   5.515   1.102   6.125
 6311SOL    HW119832   5.611   1.131   6.120
 6311SOL    HW219833   5.466   1.163   6.188
 6312SOL     OW19834   3.744   6.070   6.511
 6312SOL    HW119835   3.822   6.031   6.560
 6312SOL    HW219836   3.737   6.168   6.532
 6313SOL     OW19837   5.704   5.205   4.490
 6313SOL    HW119838   5.667   5.285   4.537
 6313SOL    HW219839   5.630   5.158   4.441
 6314SOL     OW19840   2.088   6.964   2.347
 6314SOL    HW119841   2.085   0.034   2.383
 6314SOL    HW219842   2.006   6.946   2.293
 6315SOL     OW19843   2.075   2.761   4.674
 6315SOL    HW119844   2.146   2.739   4.741
 6315SOL    HW219845   2.099   2.845   4.626
 6316SOL     OW19846   5.007   1.017   4.662
 6316SOL    HW119847   5.054   1.035   4.748
 6316SOL    HW219848   5.073   1.014   4.587
 6317SOL     OW19849   5.266   5.088   1.652
 6317SOL    HW119850   5.235   4.995   1.629
 6317SOL    HW219851   5.302   5.089   1.745
 6318SOL     OW19852   7.015   6.394   6.737
 6318SOL    HW119853   6.974   6.377   6.827
 6318SOL    HW219854   7.014   6.309   6.684
 6319SOL     OW19855   4.869   0.583   4.250
 6319SOL    HW119856   4.885   0.533   4.165
 6319SOL    HW219857   4.927   0.664   4.253
 6320SOL     OW19858   6.379   0.474   5.882
 6320SOL    HW119859   6.318   0.550   5.905
 6320SOL    HW219860   6.471   0.493   5.917
 6321SOL     OW19861   6.139   2.481   6.688
 6321SOL    HW119862   6.221   2.439   6.728
 6321SOL    HW219863   6.086   2.410   6.641
 6322SOL     OW19864   1.117   1.255   2.177
 6322SOL    HW119865   1.063   1.199   2.113
 6322SOL    HW219866   1.134   1.344   2.136
 6323SOL     OW19867   2.620   4.195   1.378
 6323SOL    HW119868   2.675   4.144   1.313
 6323SOL    HW219869   2.527   4.206   1.343
 6324SOL     OW19870   4.550   1.688   1.068
 6324SOL    HW119871   4.607   1.770   1.078
 6324SOL    HW219872   4.455   1.711   1.086
 6325SOL     OW19873   1.661   3.097   4.090
 6325SOL    HW119874   1.761   3.095   4.089
 6325SOL    HW219875   1.626   3.018   4.038
 6326SOL     OW19876   5.649   4.738   6.324
 6326SOL    HW119877   5.591   4.658   6.312
 6326SOL    HW219878   5.691   4.763   6.236
 6327SOL     OW19879   6.873   0.698   4.068
 6327SOL    HW119880   6.817   0.616   4.079
 6327SOL    HW219881   6.872   0.725   3.972
 6328SOL     OW19882   4.374   3.580   5.265
 6328SOL    HW119883   4.472   3.583   5.247
 6328SOL    HW219884   4.324   3.620   5.188
 6329SOL     OW19885   0.993   2.508   6.158
 6329SOL    HW119886   0.997   2.414   6.190
 6329SOL    HW219887   0.897   2.537   6.152
 6330SOL     OW19888   5.483   1.684   3.436
 6330SOL    HW119889   5.471   1.636   3.523
 6330SOL    HW219890   5.432   1.636   3.365
 6331SOL     OW19891   0.997   3.250   3.825
 6331SOL    HW119892   1.027   3.316   3.755
 6331SOL    HW219893   1.058   3.171   3.824
 6332SOL     OW19894   3.408   1.612   0.125
 6332SOL    HW119895   3.486   1.577   0.177
 6332SOL    HW219896   3.436   1.628   0.030
 6333SOL     OW19897   4.976   1.836   0.738
 6333SOL    HW119898   4.930   1.756   0.777
 6333SOL    HW219899   5.075   1.822   0.743
 6334SOL     OW19900   1.476   1.264   2.319
 6334SOL    HW119901   1.386   1.251   2.360
 6334SOL    HW219902   1.540   1.196   2.356
 6335SOL     OW19903   6.424   1.538   0.165
 6335SOL    HW119904   6.351   1.497   0.111
 6335SOL    HW219905   6.458   1.471   0.232
 6336SOL     OW19906   0.990   3.457   5.724
 6336SOL    HW119907   0.934   3.396   5.781
 6336SOL    HW219908   0.948   3.547   5.720
 6337SOL     OW19909   4.960   5.401   5.471
 6337SOL    HW119910   5.041   5.343   5.459
 6337SOL    HW219911   4.878   5.348   5.447
 6338SOL     OW19912   2.436   0.865   3.267
 6338SOL    HW119913   2.532   0.844   3.284
 6338SOL    HW219914   2.383   0.848   3.349
 6339SOL     OW19915   0.540   4.651   3.413
 6339SOL    HW119916   0.490   4.658   3.327
 6339SOL    HW219917   0.476   4.645   3.489
 6340SOL     OW19918   2.232   4.320   0.882
 6340SOL    HW119919   2.284   4.239   0.910
 6340SOL    HW219920   2.294   4.392   0.854
 6341SOL     OW19921   0.499   5.118   3.291
 6341SOL    HW119922   0.583   5.090   3.338
 6341SOL    HW219923   0.425   5.057   3.318
 6342SOL     OW19924   2.264   1.567   1.305
 6342SOL    HW119925   2.186   1.627   1.287
 6342SOL    HW219926   2.239   1.499   1.374
 6343SOL     OW19927   1.382   5.533   1.228
 6343SOL    HW119928   1.444   5.611   1.224
 6343SOL    HW219929   1.310   5.544   1.160
 6344SOL     OW19930   6.802   1.112   4.107
 6344SOL    HW119931   6.747   1.138   4.028
 6344SOL    HW219932   6.747   1.119   4.190
 6345SOL     OW19933   5.759   3.379   1.866
 6345SOL    HW119934   5.752   3.395   1.767
 6345SOL    HW219935   5.683   3.426   1.912
 6346SOL     OW19936   6.707   4.265   5.474
 6346SOL    HW119937   6.802   4.249   5.504
 6346SOL    HW219938   6.695   4.361   5.452
 6347SOL     OW19939   1.642   2.001   3.256
 6347SOL    HW119940   1.700   1.938   3.204
 6347SOL    HW219941   1.636   1.970   3.351
 6348SOL     OW19942   0.640   1.956   6.187
 6348SOL    HW119943   0.656   1.908   6.101
 6348SOL    HW219944   0.606   1.891   6.255
 6349SOL     OW19945   6.949   0.930   6.864
 6349SOL    HW119946   6.876   0.997   6.874
 6349SOL    HW219947   7.013   0.960   6.794
 6350SOL     OW19948   0.976   5.325   1.909
 6350SOL    HW119949   1.059   5.380   1.902
 6350SOL    HW219950   0.903   5.366   1.854
 6351SOL     OW19951   5.790   2.857   1.888
 6351SOL    HW119952   5.720   2.810   1.942
 6351SOL    HW219953   5.790   2.954   1.910
 6352SOL     OW19954   3.218   0.703   4.455
 6352SOL    HW119955   3.170   0.772   4.401
 6352SOL    HW219956   3.218   0.616   4.405
 6353SOL     OW19957   3.228   6.110   5.337
 6353SOL    HW119958   3.281   6.136   5.257
 6353SOL    HW219959   3.181   6.190   5.374
 6354SOL     OW19960   4.765   5.518   1.726
 6354SOL    HW119961   4.766   5.615   1.705
 6354SOL    HW219962   4.670   5.484   1.725
 6355SOL     OW19963   2.399   4.513   0.820
 6355SOL    HW119964   2.352   4.581   0.763
 6355SOL    HW219965   2.472   4.558   0.872
 6356SOL     OW19966   6.442   4.955   6.415
 6356SOL    HW119967   6.477   5.047   6.436
 6356SOL    HW219968   6.458   4.935   6.319
 6357SOL     OW19969   5.953   1.002   1.884
 6357SOL    HW119970   5.974   0.991   1.787
 6357SOL    HW219971   5.947   1.099   1.906
 6358SOL     OW19972   1.059   1.996   6.076
 6358SOL    HW119973   1.041   1.945   6.160
 6358SOL    HW219974   0.990   1.971   6.007
 6359SOL     OW19975   5.703   6.533   0.838
 6359SOL    HW119976   5.689   6.477   0.757
 6359SOL    HW219977   5.800   6.534   0.862
 6360SOL     OW19978   0.839   2.121   2.231
 6360SOL    HW119979   0.743   2.149   2.222
 6360SOL    HW219980   0.854   2.082   2.321
 6361SOL     OW19981   0.180   0.702   6.516
 6361SOL    HW119982   0.183   0.789   6.466
 6361SOL    HW219983   0.091   0.659   6.501
 6362SOL     OW19984   1.366   5.826   0.470
 6362SOL    HW119985   1.458   5.797   0.498
 6362SOL    HW219986   1.352   5.921   0.495
 6363SOL     OW19987   2.238   4.433   3.179
 6363SOL    HW119988   2.298   4.399   3.252
 6363SOL    HW219989   2.243   4.372   3.100
 6364SOL     OW19990   2.389   2.726   4.488
 6364SOL    HW119991   2.410   2.689   4.578
 6364SOL    HW219992   2.312   2.788   4.494
 6365SOL     OW19993   5.885   6.282   3.113
 6365SOL    HW119994   5.926   6.358   3.163
 6365SOL    HW219995   5.791   6.306   3.087
 6366SOL     OW19996   6.241   0.183   5.004
 6366SOL    HW119997   6.222   0.086   5.020
 6366SOL    HW219998   6.160   0.226   4.962
 6367SOL     OW19999   1.821   2.012   2.204
 6367SOL    HW120000   1.808   1.922   2.163
 6367SOL    HW220001   1.919   2.030   2.215
 6368SOL     OW20002   4.921   3.055   4.411
 6368SOL    HW120003   4.883   3.050   4.319
 6368SOL    HW220004   4.877   2.987   4.470
 6369SOL     OW20005   3.990   5.670   6.968
 6369SOL    HW120006   3.925   5.596   6.987
 6369SOL    HW220007   4.083   5.633   6.969
 6370SOL     OW20008   5.335   3.656   4.339
 6370SOL    HW120009   5.427   3.619   4.351
 6370SOL    HW220010   5.341   3.756   4.332
 6371SOL     OW20011   5.030   4.102   1.372
 6371SOL    HW120012   5.122   4.112   1.334
 6371SOL    HW220013   4.966   4.158   1.320
 6372SOL     OW20014   6.656   1.716   2.515
 6372SOL    HW120015   6.658   1.781   2.590
 6372SOL    HW220016   6.562   1.706   2.482
 6373SOL     OW20017   4.418   4.424   1.296
 6373SOL    HW120018   4.332   4.384   1.328
 6373SOL    HW220019   4.402   4.478   1.213
 6374SOL     OW20020   4.612   3.885   6.601
 6374SOL    HW120021   4.649   3.805   6.648
 6374SOL    HW220022   4.515   3.871   6.584
 6375SOL     OW20023   5.269   2.193   1.978
 6375SOL    HW120024   5.226   2.248   1.906
 6375SOL    HW220025   5.267   2.097   1.951
 6376SOL     OW20026   3.327   0.833   6.722
 6376SOL    HW120027   3.330   0.840   6.821
 6376SOL    HW220028   3.317   0.738   6.695
 6377SOL     OW20029   6.967   0.697   0.589
 6377SOL    HW120030   0.038   0.726   0.571
 6377SOL    HW220031   6.949   0.701   0.687
 6378SOL     OW20032   5.367   5.430   2.152
 6378SOL    HW120033   5.371   5.331   2.157
 6378SOL    HW220034   5.295   5.465   2.211
 6379SOL     OW20035   2.109   5.936   6.510
 6379SOL    HW120036   2.126   6.024   6.466
 6379SOL    HW220037   2.194   5.884   6.516
 6380SOL     OW20038   1.234   3.726   4.998
 6380SOL    HW120039   1.288   3.809   4.983
 6380SOL    HW220040   1.215   3.717   5.096
 6381SOL     OW20041   4.165   2.366   6.827
 6381SOL    HW120042   4.256   2.363   6.869
 6381SOL    HW220043   4.118   2.279   6.843
 6382SOL     OW20044   1.771   1.979   0.799
 6382SOL    HW120045   1.854   1.934   0.767
 6382SOL    HW220046   1.757   1.959   0.896
 6383SOL     OW20047   2.582   2.396   2.118
 6383SOL    HW120048   2.546   2.452   2.043
 6383SOL    HW220049   2.682   2.389   2.107
 6384SOL     OW20050   6.437   2.557   2.257
 6384SOL    HW120051   6.339   2.567   2.277
 6384SOL    HW220052   6.477   2.490   2.319
 6385SOL     OW20053   6.987   3.037   1.326
 6385SOL    HW120054   6.921   3.051   1.401
 6385SOL    HW220055   0.050   3.082   1.349
 6386SOL     OW20056   2.513   3.954   0.515
 6386SOL    HW120057   2.504   3.906   0.602
 6386SOL    HW220058   2.594   4.013   0.517
 6387SOL     OW20059   6.981   0.085   6.435
 6387SOL    HW120060   6.930   0.079   6.350
 6387SOL    HW220061   0.055   0.097   6.415
 6388SOL     OW20062   6.521   5.187   2.216
 6388SOL    HW120063   6.599   5.190   2.278
 6388SOL    HW220064   6.486   5.280   2.201
 6389SOL     OW20065   0.409   0.419   0.438
 6389SOL    HW120066   0.326   0.432   0.384
 6389SOL    HW220067   0.486   0.399   0.377
 6390SOL     OW20068   5.532   0.344   6.521
 6390SOL    HW120069   5.492   0.393   6.443
 6390SOL    HW220070   5.607   0.287   6.489
 6391SOL     OW20071   0.834   1.444   5.192
 6391SOL    HW120072   0.918   1.410   5.149
 6391SOL    HW220073   0.782   1.498   5.125
 6392SOL     OW20074   4.011   6.677   3.190
 6392SOL    HW120075   3.936   6.612   3.205
 6392SOL    HW220076   4.062   6.690   3.275
 6393SOL     OW20077   0.844   5.496   0.160
 6393SOL    HW120078   0.788   5.578   0.164
 6393SOL    HW220079   0.846   5.453   0.250
 6394SOL     OW20080   1.372   5.526   1.536
 6394SOL    HW120081   1.399   5.430   1.535
 6394SOL    HW220082   1.451   5.583   1.557
 6395SOL     OW20083   2.193   3.961   3.326
 6395SOL    HW120084   2.207   3.980   3.229
 6395SOL    HW220085   2.116   3.899   3.338
 6396SOL     OW20086   1.143   3.667   6.335
 6396SOL    HW120087   1.074   3.689   6.404
 6396SOL    HW220088   1.233   3.664   6.379
 6397SOL     OW20089   5.423   3.161   4.209
 6397SOL    HW120090   5.433   3.229   4.136
 6397SOL    HW220091   5.430   3.069   4.170
 6398SOL     OW20092   2.108   0.606   0.990
 6398SOL    HW120093   2.008   0.617   0.986
 6398SOL    HW220094   2.146   0.670   1.057
 6399SOL     OW20095   3.313   0.769   6.116
 6399SOL    HW120096   3.267   0.681   6.118
 6399SOL    HW220097   3.317   0.802   6.021
 6400SOL     OW20098   1.682   6.543   3.462
 6400SOL    HW120099   1.657   6.494   3.378
 6400SOL    HW220100   1.762   6.499   3.503
 6401SOL     OW20101   3.739   5.712   3.354
 6401SOL    HW120102   3.785   5.645   3.296
 6401SOL    HW220103   3.807   5.762   3.408
 6402SOL     OW20104   1.780   4.581   4.990
 6402SOL    HW120105   1.799   4.669   4.947
 6402SOL    HW220106   1.684   4.578   5.020
 6403SOL     OW20107   4.914   5.627   5.263
 6403SOL    HW120108   5.003   5.658   5.229
 6403SOL    HW220109   4.928   5.564   5.340
 6404SOL     OW20110   4.529   6.947   1.879
 6404SOL    HW120111   4.520   0.005   1.938
 6404SOL    HW220112   4.587   6.880   1.924
 6405SOL     OW20113   5.470   1.893   2.645
 6405SOL    HW120114   5.569   1.894   2.661
 6405SOL    HW220115   5.438   1.986   2.629
 6406SOL     OW20116   0.034   3.131   3.201
 6406SOL    HW120117   0.009   3.035   3.187
 6406SOL    HW220118   7.018   3.163   3.287
 6407SOL     OW20119   0.789   5.884   2.437
 6407SOL    HW120120   0.870   5.876   2.379
 6407SOL    HW220121   0.707   5.875   2.380
 6408SOL     OW20122   6.814   0.389   1.908
 6408SOL    HW120123   6.835   0.375   1.811
 6408SOL    HW220124   6.896   0.371   1.962
 6409SOL     OW20125   5.654   5.315   3.512
 6409SOL    HW120126   5.707   5.232   3.493
 6409SOL    HW220127   5.636   5.364   3.427
 6410SOL     OW20128   1.843   1.510   6.299
 6410SOL    HW120129   1.800   1.439   6.243
 6410SOL    HW220130   1.877   1.583   6.241
 6411SOL     OW20131   0.535   2.190   1.928
 6411SOL    HW120132   0.575   2.213   2.017
 6411SOL    HW220133   0.507   2.274   1.881
 6412SOL     OW20134   3.351   1.088   0.207
 6412SOL    HW120135   3.373   1.180   0.174
 6412SOL    HW220136   3.418   1.061   0.276
 6413SOL     OW20137   4.720   6.661   3.086
 6413SOL    HW120138   4.628   6.644   3.050
 6413SOL    HW220139   4.783   6.679   3.010
 6414SOL     OW20140   1.814   0.270   0.498
 6414SOL    HW120141   1.839   0.365   0.514
 6414SOL    HW220142   1.863   0.212   0.564
 6415SOL     OW20143   0.180   2.483   3.625
 6415SOL    HW120144   0.155   2.475   3.529
 6415SOL    HW220145   0.099   2.473   3.683
 6416SOL     OW20146   2.621   6.728   0.098
 6416SOL    HW120147   2.575   6.803   0.049
 6416SOL    HW220148   2.707   6.761   0.136
 6417SOL     OW20149   4.031   2.100   0.327
 6417SOL    HW120150   4.093   2.042   0.275
 6417SOL    HW220151   4.058   2.196   0.315
 6418SOL     OW20152   4.262   4.707   0.430
 6418SOL    HW120153   4.355   4.674   0.419
 6418SOL    HW220154   4.233   4.695   0.525
 6419SOL     OW20155   1.154   6.665   6.415
 6419SOL    HW120156   1.062   6.701   6.428
 6419SOL    HW220157   1.149   6.575   6.372
 6420SOL     OW20158   2.163   3.990   4.499
 6420SOL    HW120159   2.167   4.055   4.423
 6420SOL    HW220160   2.203   4.032   4.581
 6421SOL     OW20161   3.919   6.934   2.187
 6421SOL    HW120162   3.905   6.942   2.088
 6421SOL    HW220163   3.993   6.868   2.205
 6422SOL     OW20164   6.041   1.930   4.324
 6422SOL    HW120165   5.964   1.982   4.286
 6422SOL    HW220166   6.040   1.837   4.287
 6423SOL     OW20167   1.926   4.820   4.369
 6423SOL    HW120168   2.019   4.789   4.349
 6423SOL    HW220169   1.889   4.767   4.445
 6424SOL     OW20170   6.286   4.434   5.347
 6424SOL    HW120171   6.214   4.427   5.278
 6424SOL    HW220172   6.353   4.361   5.333
 6425SOL     OW20173   6.518   5.443   4.072
 6425SOL    HW120174   6.465   5.358   4.071
 6425SOL    HW220175   6.549   5.462   4.165
 6426SOL     OW20176   4.707   4.134   5.162
 6426SOL    HW120177   4.757   4.048   5.158
 6426SOL    HW220178   4.713   4.180   5.074
 6427SOL     OW20179   3.964   3.091   3.283
 6427SOL    HW120180   3.973   2.992   3.272
 6427SOL    HW220181   3.979   3.135   3.194
 6428SOL     OW20182   5.343   3.372   0.436
 6428SOL    HW120183   5.440   3.373   0.459
 6428SOL    HW220184   5.294   3.433   0.498
 6429SOL     OW20185   2.208   1.331   5.521
 6429SOL    HW120186   2.213   1.352   5.619
 6429SOL    HW220187   2.202   1.416   5.469
 6430SOL     OW20188   6.739   6.822   5.249
 6430SOL    HW120189   6.706   6.888   5.317
 6430SOL    HW220190   6.836   6.806   5.262
 6431SOL     OW20191   3.617   4.471   1.566
 6431SOL    HW120192   3.593   4.512   1.654
 6431SOL    HW220193   3.609   4.540   1.494
 6432SOL     OW20194   4.900   4.546   6.114
 6432SOL    HW120195   4.943   4.518   6.200
 6432SOL    HW220196   4.813   4.498   6.103
 6433SOL     OW20197   2.951   5.130   0.032
 6433SOL    HW120198   2.949   5.032   0.052
 6433SOL    HW220199   3.017   5.148   6.982
 6434SOL     OW20200   4.176   5.266   6.119
 6434SOL    HW120201   4.229   5.307   6.194
 6434SOL    HW220202   4.203   5.170   6.108
 6435SOL     OW20203   4.935   1.813   1.108
 6435SOL    HW120204   4.933   1.735   1.045
 6435SOL    HW220205   4.988   1.788   1.189
 6436SOL     OW20206   6.744   3.995   4.171
 6436SOL    HW120207   6.708   4.086   4.150
 6436SOL    HW220208   6.677   3.945   4.227
 6437SOL     OW20209   0.906   2.000   5.539
 6437SOL    HW120210   0.958   1.925   5.497
 6437SOL    HW220211   0.812   1.998   5.505
 6438SOL     OW20212   0.571   4.870   0.823
 6438SOL    HW120213   0.641   4.840   0.886
 6438SOL    HW220214   0.484   4.825   0.845
 6439SOL     OW20215   5.627   7.002   2.830
 6439SOL    HW120216   5.638   6.980   2.927
 6439SOL    HW220217   5.712   6.982   2.781
 6440SOL     OW20218   3.073   2.069   6.849
 6440SOL    HW120219   3.045   1.974   6.859
 6440SOL    HW220220   3.047   2.102   6.758
 6441SOL     OW20221   0.867   1.603   2.799
 6441SOL    HW120222   0.798   1.567   2.736
 6441SOL    HW220223   0.956   1.604   2.754
 6442SOL     OW20224   2.669   2.543   5.311
 6442SOL    HW120225   2.612   2.607   5.260
 6442SOL    HW220226   2.747   2.592   5.351
 6443SOL     OW20227   4.685   3.031   0.110
 6443SOL    HW120228   4.659   3.059   0.203
 6443SOL    HW220229   4.621   2.960   0.078
 6444SOL     OW20230   6.455   3.339   5.005
 6444SOL    HW120231   6.446   3.438   5.007
 6444SOL    HW220232   6.424   3.301   5.093
 6445SOL     OW20233   3.218   3.018   3.051
 6445SOL    HW120234   3.300   3.075   3.048
 6445SOL    HW220235   3.240   2.928   3.013
 6446SOL     OW20236   1.919   1.220   6.692
 6446SOL    HW120237   1.920   1.261   6.784
 6446SOL    HW220238   1.911   1.293   6.624
 6447SOL     OW20239   6.275   3.327   1.674
 6447SOL    HW120240   6.337   3.251   1.694
 6447SOL    HW220241   6.189   3.292   1.637
 6448SOL     OW20242   3.630   5.699   1.357
 6448SOL    HW120243   3.558   5.768   1.341
 6448SOL    HW220244   3.600   5.611   1.320
 6449SOL     OW20245   2.299   5.744   1.484
 6449SOL    HW120246   2.354   5.725   1.403
 6449SOL    HW220247   2.342   5.819   1.536
 6450SOL     OW20248   0.675   4.504   1.065
 6450SOL    HW120249   0.589   4.454   1.058
 6450SOL    HW220250   0.675   4.559   1.149
 6451SOL     OW20251   4.688   2.406   1.453
 6451SOL    HW120252   4.594   2.413   1.420
 6451SOL    HW220253   4.692   2.343   1.530
 6452SOL     OW20254   4.733   2.024   3.301
 6452SOL    HW120255   4.759   1.943   3.353
 6452SOL    HW220256   4.634   2.027   3.289
 6453SOL     OW20257   2.574   1.014   1.393
 6453SOL    HW120258   2.608   0.969   1.475
 6453SOL    HW220259   2.570   1.113   1.409
 6454SOL     OW20260   5.323   2.573   3.633
 6454SOL    HW120261   5.251   2.514   3.668
 6454SOL    HW220262   5.284   2.644   3.574
 6455SOL     OW20263   6.746   3.664   3.620
 6455SOL    HW120264   6.739   3.566   3.639
 6455SOL    HW220265   6.802   3.708   3.691
 6456SOL     OW20266   6.138   1.193   2.807
 6456SOL    HW120267   6.040   1.172   2.794
 6456SOL    HW220268   6.147   1.284   2.847
 6457SOL     OW20269   3.502   0.114   1.928
 6457SOL    HW120270   3.402   0.115   1.939
 6457SOL    HW220271   3.543   0.060   2.002
 6458SOL     OW20272   6.754   5.384   3.718
 6458SOL    HW120273   6.793   5.449   3.653
 6458SOL    HW220274   6.725   5.301   3.669
 6459SOL     OW20275   6.721   3.539   2.737
 6459SOL    HW120276   6.711   3.477   2.815
 6459SOL    HW220277   6.702   3.490   2.652
 6460SOL     OW20278   0.567   5.714   6.451
 6460SOL    HW120279   0.655   5.695   6.497
 6460SOL    HW220280   0.575   5.691   6.354
 6461SOL     OW20281   1.840   5.768   1.191
 6461SOL    HW120282   1.909   5.764   1.119
 6461SOL    HW220283   1.829   5.863   1.221
 6462SOL     OW20284   1.683   3.499   5.552
 6462SOL    HW120285   1.669   3.468   5.457
 6462SOL    HW220286   1.699   3.420   5.611
 6463SOL     OW20287   4.799   1.855   1.404
 6463SOL    HW120288   4.766   1.774   1.452
 6463SOL    HW220289   4.742   1.871   1.324
 6464SOL     OW20290   0.767   4.619   4.218
 6464SOL    HW120291   0.830   4.678   4.168
 6464SOL    HW220292   0.817   4.543   4.258
 6465SOL     OW20293   3.817   1.138   3.250
 6465SOL    HW120294   3.905   1.109   3.214
 6465SOL    HW220295   3.745   1.117   3.184
 6466SOL     OW20296   0.083   3.559   0.467
 6466SOL    HW120297   7.007   3.565   0.480
 6466SOL    HW220298   0.106   3.586   0.374
 6467SOL     OW20299   2.651   2.936   0.720
 6467SOL    HW120300   2.612   3.013   0.671
 6467SOL    HW220301   2.633   2.945   0.818
 6468SOL     OW20302   2.315   1.689   0.920
 6468SOL    HW120303   2.224   1.671   0.884
 6468SOL    HW220304   2.363   1.602   0.935
 6469SOL     OW20305   3.475   1.450   2.630
 6469SOL    HW120306   3.545   1.434   2.559
 6469SOL    HW220307   3.465   1.368   2.686
 6470SOL     OW20308   6.591   2.010   0.119
 6470SOL    HW120309   6.661   1.959   0.070
 6470SOL    HW220310   6.504   1.960   0.114
 6471SOL     OW20311   1.038   6.616   6.112
 6471SOL    HW120312   1.060   6.539   6.052
 6471SOL    HW220313   0.982   6.585   6.188
 6472SOL     OW20314   6.538   6.268   2.694
 6472SOL    HW120315   6.512   6.291   2.788
 6472SOL    HW220316   6.495   6.333   2.631
 6473SOL     OW20317   2.586   1.142   3.748
 6473SOL    HW120318   2.612   1.056   3.791
 6473SOL    HW220319   2.579   1.213   3.818
 6474SOL     OW20320   3.679   5.366   5.126
 6474SOL    HW120321   3.729   5.287   5.161
 6474SOL    HW220322   3.674   5.360   5.026
 6475SOL     OW20323   5.923   5.094   2.642
 6475SOL    HW120324   5.982   5.169   2.671
 6475SOL    HW220325   5.975   5.030   2.586
 6476SOL     OW20326   3.926   1.791   6.257
 6476SOL    HW120327   3.872   1.751   6.183
 6476SOL    HW220328   3.868   1.800   6.338
 6477SOL     OW20329   6.622   5.865   1.413
 6477SOL    HW120330   6.674   5.780   1.405
 6477SOL    HW220331   6.524   5.844   1.421
 6478SOL     OW20332   3.329   5.770   1.368
 6478SOL    HW120333   3.358   5.859   1.335
 6478SOL    HW220334   3.352   5.760   1.464
 6479SOL     OW20335   3.253   6.024   3.605
 6479SOL    HW120336   3.310   6.065   3.533
 6479SOL    HW220337   3.168   5.990   3.564
 6480SOL     OW20338   3.680   2.180   6.498
 6480SOL    HW120339   3.683   2.163   6.400
 6480SOL    HW220340   3.736   2.260   6.520
 6481SOL     OW20341   3.444   2.709   1.708
 6481SOL    HW120342   3.366   2.653   1.736
 6481SOL    HW220343   3.526   2.653   1.706
 6482SOL     OW20344   5.677   3.792   5.679
 6482SOL    HW120345   5.740   3.839   5.741
 6482SOL    HW220346   5.726   3.768   5.595
 6483SOL     OW20347   1.506   6.652   5.162
 6483SOL    HW120348   1.568   6.665   5.240
 6483SOL    HW220349   1.554   6.602   5.090
 6484SOL     OW20350   2.401   0.683   3.776
 6484SOL    HW120351   2.399   0.783   3.774
 6484SOL    HW220352   2.489   0.652   3.812
 6485SOL     OW20353   2.302   6.383   4.692
 6485SOL    HW120354   2.236   6.430   4.632
 6485SOL    HW220355   2.359   6.322   4.637
 6486SOL     OW20356   1.704   5.186   3.298
 6486SOL    HW120357   1.691   5.272   3.248
 6486SOL    HW220358   1.717   5.111   3.233
 6487SOL     OW20359   5.848   4.788   3.539
 6487SOL    HW120360   5.930   4.738   3.565
 6487SOL    HW220361   5.829   4.859   3.607
 6488SOL     OW20362   4.651   5.452   4.878
 6488SOL    HW120363   4.654   5.469   4.780
 6488SOL    HW220364   4.668   5.538   4.927
 6489SOL     OW20365   4.776   2.573   5.740
 6489SOL    HW120366   4.829   2.488   5.738
 6489SOL    HW220367   4.837   2.651   5.730
 6490SOL     OW20368   1.847   2.660   6.863
 6490SOL    HW120369   1.851   2.754   6.897
 6490SOL    HW220370   1.935   2.616   6.877
 6491SOL     OW20371   2.579   0.324   1.828
 6491SOL    HW120372   2.624   0.376   1.901
 6491SOL    HW220373   2.600   0.367   1.740
 6492SOL     OW20374   3.534   3.537   4.791
 6492SOL    HW120375   3.454   3.547   4.732
 6492SOL    HW220376   3.606   3.488   4.742
 6493SOL     OW20377   0.636   3.809   5.439
 6493SOL    HW120378   0.696   3.732   5.461
 6493SOL    HW220379   0.546   3.794   5.480
 6494SOL     OW20380   6.013   0.525   1.500
 6494SOL    HW120381   6.039   0.552   1.593
 6494SOL    HW220382   6.095   0.520   1.443
 6495SOL     OW20383   5.734   0.408   3.559
 6495SOL    HW120384   5.687   0.383   3.644
 6495SOL    HW220385   5.804   0.476   3.578
 6496SOL     OW20386   3.650   1.534   1.139
 6496SOL    HW120387   3.664   1.633   1.148
 6496SOL    HW220388   3.738   1.488   1.147
 6497SOL     OW20389   0.252   1.373   0.396
 6497SOL    HW120390   0.347   1.380   0.425
 6497SOL    HW220391   0.236   1.282   0.357
 6498SOL     OW20392   0.632   4.696   4.473
 6498SOL    HW120393   0.539   4.735   4.474
 6498SOL    HW220394   0.664   4.688   4.378
 6499SOL     OW20395   4.902   3.498   3.221
 6499SOL    HW120396   4.909   3.408   3.178
 6499SOL    HW220397   4.831   3.552   3.176
 6500SOL     OW20398   1.218   4.115   2.868
 6500SOL    HW120399   1.189   4.126   2.773
 6500SOL    HW220400   1.156   4.054   2.916
 6501SOL     OW20401   5.916   1.691   1.358
 6501SOL    HW120402   5.834   1.655   1.312
 6501SOL    HW220403   5.888   1.747   1.436
 6502SOL     OW20404   6.842   3.470   2.297
 6502SOL    HW120405   6.858   3.430   2.207
 6502SOL    HW220406   6.765   3.534   2.292
 6503SOL     OW20407   6.546   3.115   5.503
 6503SOL    HW120408   6.507   3.071   5.422
 6503SOL    HW220409   6.530   3.057   5.583
 6504SOL     OW20410   4.735   5.988   6.276
 6504SOL    HW120411   4.813   5.998   6.214
 6504SOL    HW220412   4.718   6.074   6.323
 6505SOL     OW20413   0.085   5.629   0.343
 6505SOL    HW120414   0.067   5.712   0.289
 6505SOL    HW220415   0.064   5.549   0.288
 6506SOL     OW20416   6.976   3.983   2.334
 6506SOL    HW120417   6.932   3.973   2.423
 6506SOL    HW220418   7.010   3.894   2.303
 6507SOL     OW20419   3.510   4.625   6.770
 6507SOL    HW120420   3.442   4.682   6.724
 6507SOL    HW220421   3.599   4.638   6.727
 6508SOL     OW20422   0.846   0.110   2.707
 6508SOL    HW120423   0.923   0.051   2.731
 6508SOL    HW220424   0.774   0.054   2.665
 6509SOL     OW20425   3.038   1.844   6.119
 6509SOL    HW120426   3.076   1.839   6.026
 6509SOL    HW220427   3.070   1.766   6.172
 6510SOL     OW20428   3.712   5.882   5.666
 6510SOL    HW120429   3.735   5.957   5.728
 6510SOL    HW220430   3.647   5.820   5.711
 6511SOL     OW20431   2.958   1.439   0.783
 6511SOL    HW120432   2.864   1.417   0.810
 6511SOL    HW220433   2.992   1.370   0.720
 6512SOL     OW20434   3.653   1.932   0.163
 6512SOL    HW120435   3.571   1.981   0.132
 6512SOL    HW220436   3.732   1.963   0.109
 6513SOL     OW20437   2.086   5.116   3.082
 6513SOL    HW120438   2.024   5.100   3.159
 6513SOL    HW220439   2.164   5.055   3.088
 6514SOL     OW20440   5.431   6.938   5.664
 6514SOL    HW120441   5.526   6.967   5.674
 6514SOL    HW220442   5.389   6.927   5.754
 6515SOL     OW20443   1.550   4.931   2.354
 6515SOL    HW120444   1.590   4.927   2.263
 6515SOL    HW220445   1.620   4.914   2.423
 6516SOL     OW20446   6.700   3.994   1.519
 6516SOL    HW120447   6.765   4.065   1.543
 6516SOL    HW220448   6.612   4.035   1.494
 6517SOL     OW20449   0.280   3.420   1.020
 6517SOL    HW120450   0.228   3.341   0.989
 6517SOL    HW220451   0.248   3.502   0.973
 6518SOL     OW20452   1.346   1.759   2.772
 6518SOL    HW120453   1.442   1.737   2.791
 6518SOL    HW220454   1.292   1.747   2.855
 6519SOL     OW20455   1.475   1.048   3.160
 6519SOL    HW120456   1.442   1.110   3.231
 6519SOL    HW220457   1.448   0.954   3.182
 6520SOL     OW20458   0.480   4.915   6.766
 6520SOL    HW120459   0.545   4.898   6.692
 6520SOL    HW220460   0.524   4.968   6.838
 6521SOL     OW20461   0.916   4.392   3.974
 6521SOL    HW120462   0.969   4.475   3.993
 6521SOL    HW220463   0.967   4.312   4.005
 6522SOL     OW20464   2.503   3.192   5.420
 6522SOL    HW120465   2.496   3.132   5.341
 6522SOL    HW220466   2.423   3.251   5.424
 6523SOL     OW20467   6.037   0.374   0.570
 6523SOL    HW120468   6.070   0.444   0.633
 6523SOL    HW220469   5.937   0.369   0.576
 6524SOL     OW20470   2.377   2.994   1.161
 6524SOL    HW120471   2.363   3.039   1.250
 6524SOL    HW220472   2.370   2.895   1.173
 6525SOL     OW20473   0.892   4.718   3.238
 6525SOL    HW120474   0.905   4.734   3.336
 6525SOL    HW220475   0.967   4.760   3.187
 6526SOL     OW20476   0.746   6.333   6.707
 6526SOL    HW120477   0.726   6.249   6.658
 6526SOL    HW220478   0.806   6.313   6.784
 6527SOL     OW20479   0.123   1.891   0.276
 6527SOL    HW120480   0.034   1.932   0.293
 6527SOL    HW220481   0.120   1.793   0.294
 6528SOL     OW20482   4.682   0.048   0.227
 6528SOL    HW120483   4.687   0.016   0.322
 6528SOL    HW220484   4.623   7.009   0.174
 6529SOL     OW20485   6.600   0.927   2.338
 6529SOL    HW120486   6.562   0.894   2.425
 6529SOL    HW220487   6.547   0.889   2.262
 6530SOL     OW20488   0.945   3.212   2.636
 6530SOL    HW120489   1.032   3.176   2.604
 6530SOL    HW220490   0.936   3.307   2.607
 6531SOL     OW20491   3.812   4.128   4.930
 6531SOL    HW120492   3.888   4.189   4.909
 6531SOL    HW220493   3.794   4.068   4.852
 6532SOL     OW20494   1.111   0.771   0.690
 6532SOL    HW120495   1.120   0.869   0.706
 6532SOL    HW220496   1.189   0.739   0.636
 6533SOL     OW20497   4.647   3.452   0.612
 6533SOL    HW120498   4.730   3.424   0.563
 6533SOL    HW220499   4.637   3.396   0.695
 6534SOL     OW20500   6.527   4.615   3.152
 6534SOL    HW120501   6.481   4.572   3.074
 6534SOL    HW220502   6.475   4.694   3.182
 6535SOL     OW20503   5.590   2.889   5.359
 6535SOL    HW120504   5.606   2.796   5.328
 6535SOL    HW220505   5.510   2.892   5.419
 6536SOL     OW20506   0.569   4.119   5.491
 6536SOL    HW120507   0.566   4.069   5.404
 6536SOL    HW220508   0.653   4.172   5.495
 6537SOL     OW20509   6.265   5.336   4.437
 6537SOL    HW120510   6.253   5.337   4.537
 6537SOL    HW220511   6.254   5.243   4.403
 6538SOL     OW20512   1.936   2.994   5.796
 6538SOL    HW120513   1.941   2.896   5.777
 6538SOL    HW220514   1.993   3.044   5.730
 6539SOL     OW20515   5.445   1.166   5.815
 6539SOL    HW120516   5.510   1.136   5.745
 6539SOL    HW220517   5.485   1.152   5.906
 6540SOL     OW20518   6.164   2.513   5.582
 6540SOL    HW120519   6.153   2.577   5.658
 6540SOL    HW220520   6.152   2.562   5.496
 6541SOL     OW20521   6.456   0.760   4.891
 6541SOL    HW120522   6.396   0.681   4.897
 6541SOL    HW220523   6.467   0.800   4.983
 6542SOL     OW20524   1.333   4.316   3.021
 6542SOL    HW120525   1.363   4.257   3.096
 6542SOL    HW220526   1.295   4.261   2.947
 6543SOL     OW20527   3.807   1.967   5.008
 6543SOL    HW120528   3.825   1.950   5.105
 6543SOL    HW220529   3.884   2.018   4.968
 6544SOL     OW20530   1.458   6.361   1.694
 6544SOL    HW120531   1.454   6.387   1.598
 6544SOL    HW220532   1.421   6.435   1.751
 6545SOL     OW20533   4.278   0.014   0.423
 6545SOL    HW120534   4.286   6.987   0.337
 6545SOL    HW220535   4.367   0.019   0.468
 6546SOL     OW20536   4.372   3.431   6.329
 6546SOL    HW120537   4.278   3.451   6.304
 6546SOL    HW220538   4.412   3.510   6.376
 6547SOL     OW20539   0.079   5.177   6.601
 6547SOL    HW120540   0.075   5.117   6.522
 6547SOL    HW220541   7.009   5.200   6.631
 6548SOL     OW20542   0.503   1.447   5.211
 6548SOL    HW120543   0.410   1.423   5.239
 6548SOL    HW220544   0.568   1.405   5.273
 6549SOL     OW20545   4.844   0.918   1.970
 6549SOL    HW120546   4.915   0.857   2.007
 6549SOL    HW220547   4.754   0.880   1.991
 6550SOL     OW20548   6.170   6.909   3.912
 6550SOL    HW120549   6.255   6.942   3.872
 6550SOL    HW220550   6.165   6.939   4.008
 6551SOL     OW20551   3.064   3.994   0.503
 6551SOL    HW120552   3.120   3.921   0.542
 6551SOL    HW220553   3.040   3.970   0.409
 6552SOL     OW20554   2.161   5.971   0.406
 6552SOL    HW120555   2.170   6.054   0.461
 6552SOL    HW220556   2.251   5.927   0.396
 6553SOL     OW20557   0.390   1.179   4.112
 6553SOL    HW120558   0.408   1.115   4.038
 6553SOL    HW220559   0.440   1.151   4.194
 6554SOL     OW20560   2.190   1.256   4.371
 6554SOL    HW120561   2.271   1.197   4.366
 6554SOL    HW220562   2.128   1.234   4.296
 6555SOL     OW20563   6.502   3.799   3.541
 6555SOL    HW120564   6.602   3.800   3.543
 6555SOL    HW220565   6.471   3.713   3.501
 6556SOL     OW20566   4.848   3.013   2.908
 6556SOL    HW120567   4.891   2.943   2.851
 6556SOL    HW220568   4.864   2.993   3.004
 6557SOL     OW20569   1.945   0.781   1.823
 6557SOL    HW120570   1.997   0.864   1.846
 6557SOL    HW220571   1.859   0.808   1.778
 6558SOL     OW20572   5.734   5.404   6.683
 6558SOL    HW120573   5.669   5.436   6.614
 6558SOL    HW220574   5.772   5.316   6.655
 6559SOL     OW20575   0.195   2.225   6.186
 6559SOL    HW120576   0.264   2.268   6.245
 6559SOL    HW220577   0.226   2.231   6.091
 6560SOL     OW20578   5.613   4.763   0.578
 6560SOL    HW120579   5.603   4.831   0.505
 6560SOL    HW220580   5.603   4.808   0.667
 6561SOL     OW20581   3.897   4.525   0.144
 6561SOL    HW120582   3.866   4.451   0.204
 6561SOL    HW220583   3.894   4.494   0.049
 6562SOL     OW20584   5.117   2.967   1.240
 6562SOL    HW120585   5.204   3.015   1.231
 6562SOL    HW220586   5.119   2.885   1.182
 6563SOL     OW20587   5.171   5.638   5.174
 6563SOL    HW120588   5.265   5.658   5.144
 6563SOL    HW220589   5.159   5.539   5.182
 6564SOL     OW20590   6.239   3.577   2.876
 6564SOL    HW120591   6.204   3.546   2.788
 6564SOL    HW220592   6.332   3.543   2.888
 6565SOL     OW20593   5.642   0.728   3.341
 6565SOL    HW120594   5.648   0.760   3.246
 6565SOL    HW220595   5.669   0.631   3.345
 6566SOL     OW20596   4.831   6.162   2.853
 6566SOL    HW120597   4.902   6.232   2.859
 6566SOL    HW220598   4.873   6.071   2.857
 6567SOL     OW20599   4.355   0.720   0.998
 6567SOL    HW120600   4.440   0.743   0.950
 6567SOL    HW220601   4.346   0.779   1.078
 6568SOL     OW20602   4.385   1.514   0.912
 6568SOL    HW120603   4.352   1.567   0.835
 6568SOL    HW220604   4.469   1.557   0.948
 6569SOL     OW20605   6.983   4.237   5.523
 6569SOL    HW120606   7.001   4.235   5.621
 6569SOL    HW220607   0.030   4.293   5.478
 6570SOL     OW20608   4.276   6.924   2.156
 6570SOL    HW120609   4.216   6.872   2.216
 6570SOL    HW220610   4.259   6.898   2.061
 6571SOL     OW20611   3.407   5.677   2.731
 6571SOL    HW120612   3.421   5.585   2.695
 6571SOL    HW220613   3.335   5.723   2.678
 6572SOL     OW20614   1.089   5.521   4.127
 6572SOL    HW120615   1.091   5.585   4.051
 6572SOL    HW220616   1.039   5.561   4.204
 6573SOL     OW20617   1.375   1.405   4.018
 6573SOL    HW120618   1.318   1.486   4.030
 6573SOL    HW220619   1.454   1.410   4.078
 6574SOL     OW20620   1.786   5.969   2.104
 6574SOL    HW120621   1.886   5.968   2.103
 6574SOL    HW220622   1.753   5.943   2.195
 6575SOL     OW20623   6.835   1.447   3.229
 6575SOL    HW120624   6.857   1.404   3.142
 6575SOL    HW220625   6.736   1.446   3.243
 6576SOL     OW20626   4.305   6.077   0.946
 6576SOL    HW120627   4.312   6.176   0.958
 6576SOL    HW220628   4.235   6.040   1.008
 6577SOL     OW20629   2.727   0.799   3.579
 6577SOL    HW120630   2.652   0.858   3.608
 6577SOL    HW220631   2.814   0.847   3.590
 6578SOL     OW20632   1.280   5.104   1.654
 6578SOL    HW120633   1.290   5.184   1.595
 6578SOL    HW220634   1.370   5.064   1.671
 6579SOL     OW20635   6.375   0.992   4.039
 6579SOL    HW120636   6.384   1.016   4.136
 6579SOL    HW220637   6.442   0.921   4.016
 6580SOL     OW20638   1.846   1.339   6.935
 6580SOL    HW120639   1.806   1.425   6.903
 6580SOL    HW220640   1.772   1.276   6.959
 6581SOL     OW20641   0.513   2.232   0.452
 6581SOL    HW120642   0.444   2.227   0.524
 6581SOL    HW220643   0.492   2.308   0.390
 6582SOL     OW20644   6.735   1.582   3.697
 6582SOL    HW120645   6.834   1.575   3.699
 6582SOL    HW220646   6.705   1.607   3.605
 6583SOL     OW20647   3.897   5.689   6.136
 6583SOL    HW120648   3.832   5.740   6.193
 6583SOL    HW220649   3.911   5.598   6.176
 6584SOL     OW20650   3.562   3.016   0.490
 6584SOL    HW120651   3.625   3.062   0.552
 6584SOL    HW220652   3.498   2.960   0.542
 6585SOL     OW20653   5.960   6.563   0.966
 6585SOL    HW120654   5.916   6.492   1.021
 6585SOL    HW220655   5.920   6.652   0.989
 6586SOL     OW20656   6.347   2.083   6.695
 6586SOL    HW120657   6.367   2.006   6.756
 6586SOL    HW220658   6.365   2.056   6.600
 6587SOL     OW20659   1.466   4.836   5.455
 6587SOL    HW120660   1.453   4.784   5.371
 6587SOL    HW220661   1.563   4.836   5.480
 6588SOL     OW20662   6.413   3.472   0.419
 6588SOL    HW120663   6.370   3.414   0.489
 6588SOL    HW220664   6.407   3.427   0.330
 6589SOL     OW20665   0.235   0.519   2.404
 6589SOL    HW120666   0.302   0.577   2.451
 6589SOL    HW220667   0.149   0.568   2.393
 6590SOL     OW20668   1.694   0.060   3.931
 6590SOL    HW120669   1.742   0.099   3.852
 6590SOL    HW220670   1.754   7.020   3.979
 6591SOL     OW20671   5.630   4.197   4.271
 6591SOL    HW120672   5.727   4.206   4.249
 6591SOL    HW220673   5.617   4.202   4.370
 6592SOL     OW20674   6.168   6.899   2.728
 6592SOL    HW120675   6.144   6.807   2.696
 6592SOL    HW220676   6.182   6.897   2.827
 6593SOL     OW20677   2.750   2.124   2.058
 6593SOL    HW120678   2.783   2.218   2.060
 6593SOL    HW220679   2.653   2.123   2.034
 6594SOL     OW20680   4.793   0.733   6.463
 6594SOL    HW120681   4.813   0.830   6.475
 6594SOL    HW220682   4.867   0.679   6.503
 6595SOL     OW20683   1.258   2.721   5.822
 6595SOL    HW120684   1.241   2.635   5.871
 6595SOL    HW220685   1.331   2.708   5.755
 6596SOL     OW20686   5.765   6.382   2.725
 6596SOL    HW120687   5.816   6.310   2.678
 6596SOL    HW220688   5.823   6.428   2.792
 6597SOL     OW20689   1.273   4.913   2.213
 6597SOL    HW120690   1.370   4.934   2.226
 6597SOL    HW220691   1.261   4.862   2.128
 6598SOL     OW20692   2.143   4.636   4.348
 6598SOL    HW120693   2.239   4.655   4.326
 6598SOL    HW220694   2.129   4.650   4.446
 6599SOL     OW20695   6.230   5.194   6.512
 6599SOL    HW120696   6.321   5.174   6.549
 6599SOL    HW220697   6.160   5.171   6.580
 6600SOL     OW20698   4.706   7.014   5.328
 6600SOL    HW120699   4.708   0.066   5.394
 6600SOL    HW220700   4.611   6.991   5.307
 6601SOL     OW20701   1.334   2.218   1.680
 6601SOL    HW120702   1.364   2.261   1.594
 6601SOL    HW220703   1.395   2.247   1.754
 6602SOL     OW20704   1.949   6.527   1.673
 6602SOL    HW120705   1.915   6.619   1.657
 6602SOL    HW220706   1.883   6.476   1.729
 6603SOL     OW20707   0.325   3.813   3.026
 6603SOL    HW120708   0.261   3.774   2.960
 6603SOL    HW220709   0.364   3.898   2.989
 6604SOL     OW20710   2.590   6.132   2.557
 6604SOL    HW120711   2.681   6.167   2.577
 6604SOL    HW220712   2.521   6.191   2.599
 6605SOL     OW20713   6.643   5.200   1.232
 6605SOL    HW120714   6.708   5.173   1.303
 6605SOL    HW220715   6.598   5.285   1.259
 6606SOL     OW20716   1.886   4.126   3.172
 6606SOL    HW120717   1.881   4.127   3.272
 6606SOL    HW220718   1.964   4.072   3.142
 6607SOL     OW20719   6.023   3.943   3.623
 6607SOL    HW120720   5.987   4.025   3.667
 6607SOL    HW220721   6.058   3.881   3.692
 6608SOL     OW20722   1.236   6.162   5.945
 6608SOL    HW120723   1.164   6.092   5.944
 6608SOL    HW220724   1.299   6.143   6.021
 6609SOL     OW20725   4.496   1.692   5.977
 6609SOL    HW120726   4.480   1.648   6.066
 6609SOL    HW220727   4.465   1.630   5.904
 6610SOL     OW20728   2.621   5.357   1.104
 6610SOL    HW120729   2.644   5.429   1.170
 6610SOL    HW220730   2.676   5.276   1.124
 6611SOL     OW20731   4.326   1.526   3.957
 6611SOL    HW120732   4.293   1.480   4.039
 6611SOL    HW220733   4.249   1.551   3.899
 6612SOL     OW20734   0.203   0.933   6.402
 6612SOL    HW120735   0.132   0.930   6.331
 6612SOL    HW220736   0.239   1.026   6.410
 6613SOL     OW20737   4.697   6.624   0.174
 6613SOL    HW120738   4.723   6.563   0.099
 6613SOL    HW220739   4.598   6.619   0.189
 6614SOL     OW20740   4.235   5.361   0.815
 6614SOL    HW120741   4.309   5.337   0.753
 6614SOL    HW220742   4.158   5.398   0.762
 6615SOL     OW20743   3.258   4.518   6.821
 6615SOL    HW120744   3.237   4.435   6.769
 6615SOL    HW220745   3.350   4.549   6.798
 6616SOL     OW20746   4.297   1.308   5.752
 6616SOL    HW120747   4.268   1.232   5.810
 6616SOL    HW220748   4.316   1.276   5.660
 6617SOL     OW20749   3.904   0.298   3.877
 6617SOL    HW120750   3.822   0.243   3.862
 6617SOL    HW220751   3.878   0.386   3.918
 6618SOL     OW20752   6.818   2.225   3.010
 6618SOL    HW120753   6.859   2.203   2.922
 6618SOL    HW220754   6.813   2.324   3.022
 6619SOL     OW20755   4.926   6.069   3.984
 6619SOL    HW120756   4.938   5.996   4.051
 6619SOL    HW220757   4.926   6.030   3.892
 6620SOL     OW20758   0.593   3.277   3.490
 6620SOL    HW120759   0.683   3.273   3.532
 6620SOL    HW220760   0.529   3.221   3.543
 6621SOL     OW20761   3.755   3.416   4.659
 6621SOL    HW120762   3.713   3.337   4.616
 6621SOL    HW220763   3.843   3.436   4.615
 6622SOL     OW20764   0.650   5.443   0.827
 6622SOL    HW120765   0.601   5.356   0.820
 6622SOL    HW220766   0.607   5.510   0.767
 6623SOL     OW20767   3.757   3.568   5.465
 6623SOL    HW120768   3.714   3.477   5.465
 6623SOL    HW220769   3.754   3.606   5.558
 6624SOL     OW20770   1.528   2.015   3.978
 6624SOL    HW120771   1.503   1.922   3.949
 6624SOL    HW220772   1.478   2.081   3.922
 6625SOL     OW20773   6.012   3.346   5.804
 6625SOL    HW120774   6.025   3.290   5.886
 6625SOL    HW220775   5.989   3.440   5.831
 6626SOL     OW20776   2.421   6.147   4.995
 6626SOL    HW120777   2.456   6.235   4.962
 6626SOL    HW220778   2.329   6.159   5.032
 6627SOL     OW20779   1.730   5.639   4.195
 6627SOL    HW120780   1.663   5.582   4.147
 6627SOL    HW220781   1.784   5.581   4.257
 6628SOL     OW20782   4.108   6.290   4.249
 6628SOL    HW120783   4.194   6.323   4.289
 6628SOL    HW220784   4.031   6.324   4.305
 6629SOL     OW20785   5.337   5.644   6.305
 6629SOL    HW120786   5.338   5.544   6.310
 6629SOL    HW220787   5.342   5.682   6.397
 6630SOL     OW20788   2.069   1.226   1.641
 6630SOL    HW120789   2.108   1.222   1.549
 6630SOL    HW220790   1.970   1.241   1.634
 6631SOL     OW20791   2.002   4.169   6.070
 6631SOL    HW120792   2.032   4.192   6.163
 6631SOL    HW220793   2.032   4.076   6.048
 6632SOL     OW20794   1.033   1.311   1.475
 6632SOL    HW120795   0.937   1.299   1.500
 6632SOL    HW220796   1.071   1.223   1.445
 6633SOL     OW20797   3.311   5.555   6.137
 6633SOL    HW120798   3.303   5.532   6.040
 6633SOL    HW220799   3.309   5.654   6.149
 6634SOL     OW20800   4.340   1.997   3.859
 6634SOL    HW120801   4.393   1.923   3.898
 6634SOL    HW220802   4.250   1.964   3.832
 6635SOL     OW20803   5.180   5.005   3.569
 6635SOL    HW120804   5.153   4.909   3.561
 6635SOL    HW220805   5.188   5.029   3.666
 6636SOL     OW20806   4.037   0.434   0.187
 6636SOL    HW120807   4.055   0.429   0.089
 6636SOL    HW220808   4.085   0.359   0.234
 6637SOL     OW20809   1.521   1.375   1.514
 6637SOL    HW120810   1.545   1.283   1.546
 6637SOL    HW220811   1.537   1.441   1.588
 6638SOL     OW20812   2.908   3.365   3.730
 6638SOL    HW120813   2.943   3.304   3.658
 6638SOL    HW220814   2.906   3.316   3.817
 6639SOL     OW20815   4.880   2.761   1.531
 6639SOL    HW120816   4.846   2.833   1.592
 6639SOL    HW220817   4.964   2.723   1.567
 6640SOL     OW20818   0.937   2.771   4.918
 6640SOL    HW120819   0.881   2.697   4.953
 6640SOL    HW220820   0.920   2.854   4.971
 6641SOL     OW20821   4.913   2.200   0.671
 6641SOL    HW120822   4.926   2.169   0.765
 6641SOL    HW220823   4.871   2.291   0.670
 6642SOL     OW20824   1.137   6.081   0.613
 6642SOL    HW120825   1.072   6.011   0.584
 6642SOL    HW220826   1.135   6.158   0.549
 6643SOL     OW20827   3.919   6.323   6.787
 6643SOL    HW120828   3.868   6.351   6.706
 6643SOL    HW220829   3.923   6.399   6.852
 6644SOL     OW20830   2.050   6.651   3.746
 6644SOL    HW120831   2.059   6.557   3.776
 6644SOL    HW220832   2.138   6.686   3.714
 6645SOL     OW20833   5.812   2.663   0.379
 6645SOL    HW120834   5.831   2.586   0.439
 6645SOL    HW220835   5.713   2.671   0.366
 6646SOL     OW20836   4.688   6.924   6.253
 6646SOL    HW120837   4.748   6.973   6.316
 6646SOL    HW220838   4.613   6.984   6.224
 6647SOL     OW20839   4.455   5.136   1.365
 6647SOL    HW120840   4.531   5.159   1.304
 6647SOL    HW220841   4.378   5.101   1.311
 6648SOL     OW20842   2.910   6.142   5.994
 6648SOL    HW120843   2.871   6.091   5.917
 6648SOL    HW220844   2.861   6.229   6.004
 6649SOL     OW20845   5.560   2.945   6.914
 6649SOL    HW120846   5.604   3.014   6.857
 6649SOL    HW220847   5.580   2.854   6.878
 6650SOL     OW20848   2.331   1.741   5.302
 6650SOL    HW120849   2.431   1.742   5.302
 6650SOL    HW220850   2.298   1.791   5.222
 6651SOL     OW20851   6.877   1.681   6.610
 6651SOL    HW120852   6.956   1.739   6.632
 6651SOL    HW220853   6.797   1.739   6.595
 6652SOL     OW20854   0.146   4.451   0.597
 6652SOL    HW120855   0.063   4.447   0.542
 6652SOL    HW220856   0.226   4.445   0.538
 6653SOL     OW20857   5.663   4.521   0.464
 6653SOL    HW120858   5.581   4.497   0.412
 6653SOL    HW220859   5.654   4.613   0.501
 6654SOL     OW20860   6.869   4.314   2.952
 6654SOL    HW120861   6.912   4.355   3.032
 6654SOL    HW220862   6.855   4.384   2.882
 6655SOL     OW20863   6.288   5.077   2.346
 6655SOL    HW120864   6.229   5.102   2.270
 6655SOL    HW220865   6.384   5.076   2.315
 6656SOL     OW20866   4.022   1.347   2.609
 6656SOL    HW120867   4.002   1.261   2.562
 6656SOL    HW220868   4.014   1.423   2.545
 6657SOL     OW20869   5.578   2.246   3.471
 6657SOL    HW120870   5.515   2.182   3.428
 6657SOL    HW220871   5.592   2.325   3.411
 6658SOL     OW20872   6.343   5.854   5.526
 6658SOL    HW120873   6.307   5.837   5.434
 6658SOL    HW220874   6.272   5.896   5.583
 6659SOL     OW20875   0.979   5.224   2.183
 6659SOL    HW120876   0.926   5.140   2.195
 6659SOL    HW220877   0.985   5.247   2.086
 6660SOL     OW20878   6.825   6.298   3.445
 6660SOL    HW120879   6.911   6.273   3.400
 6660SOL    HW220880   6.800   6.391   3.420
 6661SOL     OW20881   3.964   6.114   4.096
 6661SOL    HW120882   4.022   6.167   4.157
 6661SOL    HW220883   3.872   6.154   4.095
 6662SOL     OW20884   3.836   6.508   2.742
 6662SOL    HW120885   3.804   6.503   2.837
 6662SOL    HW220886   3.837   6.603   2.712
 6663SOL     OW20887   1.122   4.290   6.164
 6663SOL    HW120888   1.084   4.198   6.155
 6663SOL    HW220889   1.146   4.326   6.074
 6664SOL     OW20890   2.783   0.621   1.491
 6664SOL    HW120891   2.790   0.624   1.392
 6664SOL    HW220892   2.758   0.712   1.525
 6665SOL     OW20893   2.107   0.462   5.936
 6665SOL    HW120894   2.191   0.420   5.903
 6665SOL    HW220895   2.129   0.536   6.000
 6666SOL     OW20896   4.376   6.191   5.516
 6666SOL    HW120897   4.318   6.119   5.478
 6666SOL    HW220898   4.460   6.197   5.463
 6667SOL     OW20899   6.919   6.563   6.545
 6667SOL    HW120900   6.840   6.612   6.582
 6667SOL    HW220901   6.955   6.501   6.615
 6668SOL     OW20902   0.377   5.605   0.138
 6668SOL    HW120903   0.292   5.643   0.102
 6668SOL    HW220904   0.408   5.532   0.077
 6669SOL     OW20905   1.595   1.200   2.963
 6669SOL    HW120906   1.623   1.164   2.873
 6669SOL    HW220907   1.583   1.124   3.026
 6670SOL     OW20908   4.063   2.715   1.028
 6670SOL    HW120909   4.030   2.791   0.973
 6670SOL    HW220910   4.156   2.734   1.060
 6671SOL     OW20911   4.321   5.887   0.439
 6671SOL    HW120912   4.226   5.856   0.451
 6671SOL    HW220913   4.382   5.827   0.490
 6672SOL     OW20914   1.387   2.246   0.927
 6672SOL    HW120915   1.436   2.332   0.931
 6672SOL    HW220916   1.406   2.201   0.839
 6673SOL     OW20917   5.484   3.440   3.711
 6673SOL    HW120918   5.478   3.399   3.802
 6673SOL    HW220919   5.392   3.449   3.672
 6674SOL     OW20920   0.028   2.497   0.182
 6674SOL    HW120921   0.028   2.563   0.107
 6674SOL    HW220922   0.121   2.469   0.201
 6675SOL     OW20923   5.222   1.888   0.147
 6675SOL    HW120924   5.289   1.904   0.074
 6675SOL    HW220925   5.130   1.883   0.108
 6676SOL     OW20926   1.734   3.502   3.471
 6676SOL    HW120927   1.639   3.492   3.498
 6676SOL    HW220928   1.740   3.508   3.371
 6677SOL     OW20929   0.139   1.599   0.325
 6677SOL    HW120930   0.075   1.624   0.398
 6677SOL    HW220931   0.188   1.515   0.350
 6678SOL     OW20932   2.165   4.523   0.080
 6678SOL    HW120933   2.155   4.430   0.044
 6678SOL    HW220934   2.261   4.541   0.100
 6679SOL     OW20935   1.690   1.097   3.709
 6679SOL    HW120936   1.609   1.047   3.677
 6679SOL    HW220937   1.689   1.189   3.671
 6680SOL     OW20938   5.859   0.120   0.935
 6680SOL    HW120939   5.904   0.209   0.928
 6680SOL    HW220940   5.910   0.053   0.881
 6681SOL     OW20941   3.298   6.631   1.594
 6681SOL    HW120942   3.339   6.715   1.630
 6681SOL    HW220943   3.209   6.617   1.636
 6682SOL     OW20944   2.759   5.140   6.561
 6682SOL    HW120945   2.747   5.204   6.486
 6682SOL    HW220946   2.857   5.129   6.581
 6683SOL     OW20947   6.415   3.941   6.244
 6683SOL    HW120948   6.484   3.988   6.299
 6683SOL    HW220949   6.455   3.860   6.201
 6684SOL     OW20950   2.959   6.604   1.143
 6684SOL    HW120951   3.004   6.596   1.054
 6684SOL    HW220952   2.861   6.617   1.129
 6685SOL     OW20953   5.102   3.476   6.708
 6685SOL    HW120954   5.186   3.451   6.660
 6685SOL    HW220955   5.042   3.396   6.713
 6686SOL     OW20956   5.207   5.023   3.900
 6686SOL    HW120957   5.239   4.928   3.908
 6686SOL    HW220958   5.227   5.072   3.985
 6687SOL     OW20959   6.489   1.958   1.585
 6687SOL    HW120960   6.441   2.043   1.606
 6687SOL    HW220961   6.576   1.957   1.634
 6688SOL     OW20962   3.918   5.724   0.336
 6688SOL    HW120963   3.964   5.795   0.282
 6688SOL    HW220964   3.981   5.690   0.406
 6689SOL     OW20965   2.008   4.691   5.924
 6689SOL    HW120966   1.986   4.635   5.844
 6689SOL    HW220967   2.104   4.717   5.921
 6690SOL     OW20968   0.944   0.130   6.466
 6690SOL    HW120969   0.964   0.071   6.388
 6690SOL    HW220970   0.872   0.088   6.522
 6691SOL     OW20971   2.640   2.471   3.091
 6691SOL    HW120972   2.690   2.399   3.043
 6691SOL    HW220973   2.671   2.476   3.186
 6692SOL     OW20974   4.641   5.380   1.465
 6692SOL    HW120975   4.709   5.309   1.488
 6692SOL    HW220976   4.608   5.364   1.372
 6693SOL     OW20977   4.467   1.775   4.509
 6693SOL    HW120978   4.453   1.720   4.592
 6693SOL    HW220979   4.412   1.737   4.435
 6694SOL     OW20980   3.425   4.681   1.070
 6694SOL    HW120981   3.494   4.752   1.054
 6694SOL    HW220982   3.412   4.668   1.168
 6695SOL     OW20983   2.894   2.370   6.168
 6695SOL    HW120984   2.851   2.314   6.239
 6695SOL    HW220985   2.969   2.423   6.208
 6696SOL     OW20986   3.991   3.990   4.442
 6696SOL    HW120987   4.089   3.998   4.461
 6696SOL    HW220988   3.977   3.975   4.344
 6697SOL     OW20989   4.478   2.365   2.315
 6697SOL    HW120990   4.421   2.317   2.381
 6697SOL    HW220991   4.461   2.464   2.322
 6698SOL     OW20992   3.319   4.209   1.032
 6698SOL    HW120993   3.241   4.269   1.010
 6698SOL    HW220994   3.339   4.151   0.953
 6699SOL     OW20995   1.606   4.509   5.391
 6699SOL    HW120996   1.648   4.481   5.478
 6699SOL    HW220997   1.650   4.461   5.316
 6700SOL     OW20998   5.799   0.011   0.185
 6700SOL    HW120999   5.795   0.108   0.210
 6700SOL    HW221000   5.886   7.015   0.141
 6701SOL     OW21001   6.081   0.670   1.141
 6701SOL    HW121002   6.029   0.596   1.098
 6701SOL    HW221003   6.176   0.642   1.155
 6702SOL     OW21004   2.647   2.732   1.048
 6702SOL    HW121005   2.662   2.709   1.145
 6702SOL    HW221006   2.627   2.829   1.040
 6703SOL     OW21007   0.469   1.208   7.005
 6703SOL    HW121008   0.430   1.182   6.917
 6703SOL    HW221009   0.395   1.219   0.049
 6704SOL     OW21010   3.417   0.571   4.979
 6704SOL    HW121011   3.468   0.524   4.907
 6704SOL    HW221012   3.354   0.637   4.937
 6705SOL     OW21013   6.593   3.622   2.293
 6705SOL    HW121014   6.594   3.693   2.222
 6705SOL    HW221015   6.502   3.580   2.297
 6706SOL     OW21016   0.379   6.957   2.130
 6706SOL    HW121017   0.377   0.024   2.086
 6706SOL    HW221018   0.295   6.907   2.108
 6707SOL     OW21019   5.722   0.626   1.987
 6707SOL    HW121020   5.794   0.587   1.929
 6707SOL    HW221021   5.641   0.567   1.983
 6708SOL     OW21022   0.719   4.252   1.563
 6708SOL    HW121023   0.680   4.231   1.474
 6708SOL    HW221024   0.651   4.298   1.620
 6709SOL     OW21025   1.904   5.320   2.694
 6709SOL    HW121026   1.972   5.260   2.735
 6709SOL    HW221027   1.948   5.404   2.663
 6710SOL     OW21028   4.156   1.362   0.878
 6710SOL    HW121029   4.224   1.433   0.894
 6710SOL    HW221030   4.151   1.302   0.958
 6711SOL     OW21031   4.054   6.265   6.172
 6711SOL    HW121032   3.993   6.187   6.162
 6711SOL    HW221033   4.117   6.270   6.095
 6712SOL     OW21034   6.090   3.625   1.315
 6712SOL    HW121035   6.033   3.550   1.284
 6712SOL    HW221036   6.160   3.645   1.246
 6713SOL     OW21037   1.271   6.108   4.514
 6713SOL    HW121038   1.180   6.068   4.509
 6713SOL    HW221039   1.286   6.167   4.434
 6714SOL     OW21040   5.003   0.915   0.993
 6714SOL    HW121041   5.021   0.950   1.085
 6714SOL    HW221042   4.907   0.931   0.969
 6715SOL     OW21043   1.191   1.288   0.703
 6715SOL    HW121044   1.098   1.251   0.708
 6715SOL    HW221045   1.197   1.354   0.627
 6716SOL     OW21046   0.032   5.599   3.124
 6716SOL    HW121047   7.018   5.663   3.192
 6716SOL    HW221048   0.100   5.646   3.067
 6717SOL     OW21049   4.169   1.926   6.020
 6717SOL    HW121050   4.219   1.976   5.949
 6717SOL    HW221051   4.188   1.968   6.109
 6718SOL     OW21052   3.564   0.281   1.554
 6718SOL    HW121053   3.645   0.296   1.611
 6718SOL    HW221054   3.582   0.315   1.462
 6719SOL     OW21055   1.606   0.786   6.901
 6719SOL    HW121056   1.511   0.796   6.874
 6719SOL    HW221057   1.618   0.702   6.953
 6720SOL     OW21058   1.708   0.576   6.186
 6720SOL    HW121059   1.778   0.638   6.221
 6720SOL    HW221060   1.738   0.538   6.098
 6721SOL     OW21061   0.532   1.789   0.330
 6721SOL    HW121062   0.487   1.829   0.410
 6721SOL    HW221063   0.598   1.854   0.294
 6722SOL     OW21064   6.338   3.300   0.664
 6722SOL    HW121065   6.276   3.254   0.728
 6722SOL    HW221066   6.427   3.314   0.707
 6723SOL     OW21067   1.770   2.088   6.883
 6723SOL    HW121068   1.752   1.998   6.842
 6723SOL    HW221069   1.867   2.094   6.907
 6724SOL     OW21070   1.834   3.570   5.826
 6724SOL    HW121071   1.846   3.587   5.924
 6724SOL    HW221072   1.785   3.483   5.814
 6725SOL     OW21073   5.556   2.749   3.608
 6725SOL    HW121074   5.596   2.658   3.597
 6725SOL    HW221075   5.457   2.742   3.621
 6726SOL     OW21076   7.018   0.923   5.508
 6726SOL    HW121077   6.991   0.988   5.579
 6726SOL    HW221078   6.950   0.922   5.436
 6727SOL     OW21079   1.113   4.971   5.838
 6727SOL    HW121080   1.166   4.909   5.781
 6727SOL    HW221081   1.067   5.038   5.781
 6728SOL     OW21082   3.913   2.185   3.763
 6728SOL    HW121083   3.854   2.162   3.840
 6728SOL    HW221084   3.857   2.196   3.681
 6729SOL     OW21085   4.850   1.653   1.602
 6729SOL    HW121086   4.821   1.565   1.564
 6729SOL    HW221087   4.826   1.657   1.699
 6730SOL     OW21088   0.970   1.281   1.792
 6730SOL    HW121089   0.955   1.379   1.800
 6730SOL    HW221090   0.964   1.254   1.696
 6731SOL     OW21091   2.978   6.403   6.836
 6731SOL    HW121092   3.056   6.425   6.778
 6731SOL    HW221093   2.898   6.383   6.779
 6732SOL     OW21094   6.178   5.022   4.688
 6732SOL    HW121095   6.092   5.037   4.639
 6732SOL    HW221096   6.201   5.105   4.740
 6733SOL     OW21097   4.234   5.009   6.056
 6733SOL    HW121098   4.327   4.980   6.036
 6733SOL    HW221099   4.174   4.987   5.979
 6734SOL     OW21100   5.833   1.364   4.753
 6734SOL    HW121101   5.734   1.364   4.767
 6734SOL    HW221102   5.878   1.343   4.840
 6735SOL     OW21103   6.259   3.275   3.524
 6735SOL    HW121104   6.290   3.213   3.451
 6735SOL    HW221105   6.189   3.229   3.579
 6736SOL     OW21106   3.353   4.168   0.480
 6736SOL    HW121107   3.382   4.181   0.386
 6736SOL    HW221108   3.254   4.182   0.487
 6737SOL     OW21109   0.559   3.929   0.939
 6737SOL    HW121110   0.623   3.930   0.861
 6737SOL    HW221111   0.498   4.008   0.933
 6738SOL     OW21112   2.162   5.991   3.336
 6738SOL    HW121113   2.160   5.909   3.279
 6738SOL    HW221114   2.071   6.006   3.377
 6739SOL     OW21115   6.601   6.702   4.751
 6739SOL    HW121116   6.653   6.786   4.759
 6739SOL    HW221117   6.661   6.628   4.719
 6740SOL     OW21118   0.814   6.750   4.219
 6740SOL    HW121119   0.791   6.743   4.122
 6740SOL    HW221120   0.819   6.846   4.246
 6741SOL     OW21121   4.817   2.071   5.897
 6741SOL    HW121122   4.902   2.093   5.944
 6741SOL    HW221123   4.750   2.038   5.964
 6742SOL     OW21124   5.670   4.562   3.519
 6742SOL    HW121125   5.574   4.565   3.549
 6742SOL    HW221126   5.710   4.653   3.530
 6743SOL     OW21127   4.204   3.993   1.168
 6743SOL    HW121128   4.272   3.932   1.210
 6743SOL    HW221129   4.252   4.068   1.121
 6744SOL     OW21130   0.318   5.789   5.912
 6744SOL    HW121131   0.230   5.781   5.866
 6744SOL    HW221132   0.329   5.714   5.977
 6745SOL     OW21133   6.939   6.302   4.217
 6745SOL    HW121134   6.915   6.399   4.208
 6745SOL    HW221135   6.980   6.287   4.307
 6746SOL     OW21136   2.167   1.556   2.721
 6746SOL    HW121137   2.130   1.491   2.787
 6746SOL    HW221138   2.213   1.507   2.647
 6747SOL     OW21139   1.051   6.676   6.726
 6747SOL    HW121140   1.031   6.774   6.715
 6747SOL    HW221141   1.091   6.641   6.642
 6748SOL     OW21142   2.369   1.571   4.485
 6748SOL    HW121143   2.466   1.577   4.507
 6748SOL    HW221144   2.334   1.481   4.512
 6749SOL     OW21145   3.670   4.827   0.982
 6749SOL    HW121146   3.709   4.893   1.047
 6749SOL    HW221147   3.738   4.757   0.960
 6750SOL     OW21148   3.132   1.179   4.569
 6750SOL    HW121149   3.213   1.235   4.586
 6750SOL    HW221150   3.149   1.117   4.492
 6751SOL     OW21151   3.935   6.893   3.912
 6751SOL    HW121152   3.918   6.894   4.011
 6751SOL    HW221153   3.988   6.974   3.887
 6752SOL     OW21154   2.140   6.364   2.570
 6752SOL    HW121155   2.160   6.272   2.605
 6752SOL    HW221156   2.207   6.428   2.606
 6753SOL     OW21157   3.871   2.996   5.349
 6753SOL    HW121158   3.961   3.021   5.314
 6753SOL    HW221159   3.813   3.076   5.353
 6754SOL     OW21160   6.208   1.323   1.842
 6754SOL    HW121161   6.290   1.346   1.894
 6754SOL    HW221162   6.206   1.224   1.823
 6755SOL     OW21163   2.340   5.758   6.385
 6755SOL    HW121164   2.344   5.737   6.288
 6755SOL    HW221165   2.319   5.675   6.437
 6756SOL     OW21166   2.564   2.208   5.584
 6756SOL    HW121167   2.662   2.194   5.595
 6756SOL    HW221168   2.543   2.306   5.590
 6757SOL     OW21169   3.561   0.970   0.403
 6757SOL    HW121170   3.623   1.036   0.360
 6757SOL    HW221171   3.562   0.885   0.351
 6758SOL     OW21172   5.891   2.691   2.177
 6758SOL    HW121173   5.973   2.714   2.124
 6758SOL    HW221174   5.869   2.594   2.164
 6759SOL     OW21175   0.843   3.270   3.157
 6759SOL    HW121176   0.761   3.242   3.208
 6759SOL    HW221177   0.911   3.304   3.222
 6760SOL     OW21178   5.467   2.773   2.900
 6760SOL    HW121179   5.417   2.691   2.870
 6760SOL    HW221180   5.563   2.749   2.915
 6761SOL     OW21181   5.070   2.036   4.559
 6761SOL    HW121182   5.042   2.030   4.463
 6761SOL    HW221183   4.997   1.999   4.617
 6762SOL     OW21184   7.014   5.373   4.040
 6762SOL    HW121185   6.917   5.355   4.029
 6762SOL    HW221186   0.029   5.407   3.954
 6763SOL     OW21187   4.938   5.317   4.983
 6763SOL    HW121188   4.852   5.275   5.011
 6763SOL    HW221189   4.981   5.262   4.912
 6764SOL     OW21190   1.557   5.728   1.605
 6764SOL    HW121191   1.654   5.730   1.578
 6764SOL    HW221192   1.508   5.802   1.560
 6765SOL     OW21193   6.047   4.760   2.748
 6765SOL    HW121194   6.124   4.703   2.778
 6765SOL    HW221195   6.070   4.804   2.662
 6766SOL     OW21196   5.061   0.093   0.573
 6766SOL    HW121197   5.068   0.108   0.671
 6766SOL    HW221198   5.109   0.009   0.548
 6767SOL     OW21199   2.778   1.349   0.469
 6767SOL    HW121200   2.728   1.431   0.498
 6767SOL    HW221201   2.870   1.351   0.510
 6768SOL     OW21202   2.027   0.893   0.906
 6768SOL    HW121203   1.952   0.850   0.856
 6768SOL    HW221204   2.029   0.991   0.886
 6769SOL     OW21205   4.057   2.538   1.562
 6769SOL    HW121206   4.099   2.605   1.623
 6769SOL    HW221207   4.070   2.567   1.467
 6770SOL     OW21208   6.599   0.213   2.064
 6770SOL    HW121209   6.645   0.293   2.026
 6770SOL    HW221210   6.576   0.230   2.160
 6771SOL     OW21211   3.931   2.187   2.803
 6771SOL    HW121212   4.022   2.228   2.800
 6771SOL    HW221213   3.903   2.159   2.711
 6772SOL     OW21214   2.585   2.022   2.806
 6772SOL    HW121215   2.559   2.076   2.726
 6772SOL    HW221216   2.667   1.969   2.784
 6773SOL     OW21217   6.845   4.119   1.979
 6773SOL    HW121218   6.798   4.093   2.064
 6773SOL    HW221219   6.830   4.048   1.910
 6774SOL     OW21220   0.601   2.851   6.568
 6774SOL    HW121221   0.664   2.922   6.599
 6774SOL    HW221222   0.510   2.890   6.558
 6775SOL     OW21223   2.678   4.366   0.933
 6775SOL    HW121224   2.696   4.428   1.009
 6775SOL    HW221225   2.669   4.418   0.848
 6776SOL     OW21226   5.822   5.168   6.935
 6776SOL    HW121227   5.843   5.074   6.962
 6776SOL    HW221228   5.723   5.182   6.935
 6777SOL     OW21229   4.486   4.666   5.933
 6777SOL    HW121230   4.545   4.635   6.007
 6777SOL    HW221231   4.520   4.631   5.846
 6778SOL     OW21232   0.647   4.705   3.039
 6778SOL    HW121233   0.561   4.655   3.047
 6778SOL    HW221234   0.697   4.700   3.125
 6779SOL     OW21235   0.291   4.738   0.375
 6779SOL    HW121236   0.347   4.782   0.306
 6779SOL    HW221237   0.281   4.641   0.353
 6780SOL     OW21238   0.304   2.683   2.662
 6780SOL    HW121239   0.336   2.705   2.569
 6780SOL    HW221240   0.217   2.731   2.679
 6781SOL     OW21241   5.214   6.254   5.816
 6781SOL    HW121242   5.208   6.339   5.869
 6781SOL    HW221243   5.159   6.183   5.860
 6782SOL     OW21244   6.718   1.325   2.478
 6782SOL    HW121245   6.812   1.292   2.490
 6782SOL    HW221246   6.698   1.393   2.548
 6783SOL     OW21247   6.860   6.401   6.335
 6783SOL    HW121248   6.912   6.324   6.297
 6783SOL    HW221249   6.896   6.423   6.426
 6784SOL     OW21250   3.983   4.439   6.728
 6784SOL    HW121251   4.063   4.406   6.779
 6784SOL    HW221252   3.995   4.421   6.631
 6785SOL     OW21253   6.019   5.695   1.889
 6785SOL    HW121254   6.016   5.732   1.982
 6785SOL    HW221255   5.935   5.644   1.871
 6786SOL     OW21256   1.566   2.571   6.327
 6786SOL    HW121257   1.505   2.614   6.260
 6786SOL    HW221258   1.519   2.565   6.415
 6787SOL     OW21259   1.691   3.878   1.619
 6787SOL    HW121260   1.662   3.905   1.527
 6787SOL    HW221261   1.610   3.867   1.677
 6788SOL     OW21262   2.743   3.923   1.697
 6788SOL    HW121263   2.792   3.873   1.768
 6788SOL    HW221264   2.689   3.859   1.642
 6789SOL     OW21265   0.939   6.738   2.090
 6789SOL    HW121266   0.958   6.817   2.031
 6789SOL    HW221267   0.979   6.754   2.180
 6790SOL     OW21268   1.802   3.036   0.239
 6790SOL    HW121269   1.757   3.022   0.328
 6790SOL    HW221270   1.886   2.982   0.235
 6791SOL     OW21271   3.950   2.822   6.651
 6791SOL    HW121272   3.972   2.905   6.702
 6791SOL    HW221273   4.022   2.754   6.666
 6792SOL     OW21274   6.461   5.820   0.039
 6792SOL    HW121275   6.447   5.846   0.135
 6792SOL    HW221276   6.502   5.897   7.012
 6793SOL     OW21277   1.674   2.347   0.306
 6793SOL    HW121278   1.642   2.429   0.259
 6793SOL    HW221279   1.718   2.372   0.392
 6794SOL     OW21280   4.749   0.961   4.558
 6794SOL    HW121281   4.718   0.898   4.630
 6794SOL    HW221282   4.841   0.994   4.580
 6795SOL     OW21283   2.896   5.957   0.849
 6795SOL    HW121284   2.854   6.029   0.793
 6795SOL    HW221285   2.892   5.870   0.801
 6796SOL     OW21286   5.290   1.225   2.924
 6796SOL    HW121287   5.327   1.208   3.015
 6796SOL    HW221288   5.301   1.321   2.901
 6797SOL     OW21289   5.815   3.890   1.981
 6797SOL    HW121290   5.818   3.875   1.883
 6797SOL    HW221291   5.721   3.887   2.013
 6798SOL     OW21292   5.226   5.483   2.919
 6798SOL    HW121293   5.315   5.482   2.873
 6798SOL    HW221294   5.193   5.577   2.926
 6799SOL     OW21295   4.709   5.728   0.102
 6799SOL    HW121296   4.671   5.702   0.191
 6799SOL    HW221297   4.780   5.797   0.114
 6800SOL     OW21298   1.578   5.165   0.256
 6800SOL    HW121299   1.509   5.171   0.328
 6800SOL    HW221300   1.590   5.069   0.229
 6801SOL     OW21301   1.763   2.437   2.174
 6801SOL    HW121302   1.708   2.517   2.150
 6801SOL    HW221303   1.830   2.462   2.243
 6802SOL     OW21304   2.264   6.171   0.889
 6802SOL    HW121305   2.175   6.129   0.907
 6802SOL    HW221306   2.334   6.126   0.945
 6803SOL     OW21307   5.106   2.034   6.039
 6803SOL    HW121308   5.161   2.062   5.960
 6803SOL    HW221309   5.124   1.937   6.059
 6804SOL     OW21310   1.832   5.777   3.607
 6804SOL    HW121311   1.833   5.691   3.657
 6804SOL    HW221312   1.763   5.838   3.646
 6805SOL     OW21313   6.095   6.931   4.656
 6805SOL    HW121314   6.176   6.979   4.690
 6805SOL    HW221315   6.113   6.833   4.652
 6806SOL     OW21316   4.523   1.153   4.346
 6806SOL    HW121317   4.584   1.074   4.340
 6806SOL    HW221318   4.574   1.237   4.327
 6807SOL     OW21319   2.788   3.106   0.254
 6807SOL    HW121320   2.705   3.084   0.203
 6807SOL    HW221321   2.796   3.044   0.333
 6808SOL     OW21322   7.010   2.514   4.783
 6808SOL    HW121323   6.977   2.421   4.766
 6808SOL    HW221324   6.954   2.578   4.730
 6809SOL     OW21325   2.090   4.354   6.612
 6809SOL    HW121326   2.188   4.340   6.622
 6809SOL    HW221327   2.071   4.451   6.596
 6810SOL     OW21328   0.147   0.937   2.770
 6810SOL    HW121329   0.218   0.892   2.715
 6810SOL    HW221330   0.133   1.030   2.737
 6811SOL     OW21331   6.390   4.752   1.105
 6811SOL    HW121332   6.490   4.746   1.112
 6811SOL    HW221333   6.350   4.662   1.121
 6812SOL     OW21334   4.102   3.694   3.179
 6812SOL    HW121335   4.106   3.595   3.176
 6812SOL    HW221336   4.107   3.725   3.274
 6813SOL     OW21337   4.510   2.238   1.017
 6813SOL    HW121338   4.608   2.251   1.031
 6813SOL    HW221339   4.462   2.255   1.103
 6814SOL     OW21340   2.793   3.451   0.858
 6814SOL    HW121341   2.747   3.404   0.783
 6814SOL    HW221342   2.860   3.515   0.821
 6815SOL     OW21343   2.602   0.074   2.031
 6815SOL    HW121344   2.520   0.058   2.086
 6815SOL    HW221345   2.621   0.172   2.027
 6816SOL     OW21346   6.381   5.358   6.915
 6816SOL    HW121347   6.329   5.279   6.948
 6816SOL    HW221348   6.387   5.427   6.988
 6817SOL     OW21349   6.807   1.364   5.714
 6817SOL    HW121350   6.731   1.349   5.778
 6817SOL    HW221351   6.770   1.382   5.623
 6818SOL     OW21352   3.561   6.575   2.379
 6818SOL    HW121353   3.578   6.505   2.448
 6818SOL    HW221354   3.475   6.621   2.398
 6819SOL     OW21355   3.034   0.558   3.644
 6819SOL    HW121356   3.031   0.635   3.707
 6819SOL    HW221357   3.115   0.566   3.585
 6820SOL     OW21358   0.885   4.050   3.440
 6820SOL    HW121359   0.816   4.040   3.512
 6820SOL    HW221360   0.842   4.082   3.356
 6821SOL     OW21361   2.505   2.483   4.991
 6821SOL    HW121362   2.430   2.428   5.027
 6821SOL    HW221363   2.494   2.578   5.019
 6822SOL     OW21364   5.678   1.724   5.893
 6822SOL    HW121365   5.681   1.769   5.803
 6822SOL    HW221366   5.613   1.772   5.952
 6823SOL     OW21367   3.434   3.213   3.474
 6823SOL    HW121368   3.378   3.234   3.394
 6823SOL    HW221369   3.530   3.204   3.447
 6824SOL     OW21370   0.567   4.230   6.351
 6824SOL    HW121371   0.563   4.131   6.334
 6824SOL    HW221372   0.492   4.275   6.303
 6825SOL     OW21373   5.420   0.170   2.179
 6825SOL    HW121374   5.335   0.216   2.153
 6825SOL    HW221375   5.429   0.086   2.126
 6826SOL     OW21376   2.046   3.290   2.843
 6826SOL    HW121377   2.059   3.229   2.922
 6826SOL    HW221378   2.041   3.235   2.759
 6827SOL     OW21379   5.479   5.679   6.853
 6827SOL    HW121380   5.411   5.683   6.779
 6827SOL    HW221381   5.564   5.722   6.823
 6828SOL     OW21382   1.383   2.107   1.155
 6828SOL    HW121383   1.386   2.155   1.067
 6828SOL    HW221384   1.292   2.115   1.194
 6829SOL     OW21385   5.090   6.288   3.904
 6829SOL    HW121386   5.116   6.338   3.986
 6829SOL    HW221387   5.019   6.222   3.926
 6830SOL     OW21388   5.341   1.912   3.313
 6830SOL    HW121389   5.367   1.823   3.349
 6830SOL    HW221390   5.243   1.913   3.295
 6831SOL     OW21391   0.711   0.803   6.259
 6831SOL    HW121392   0.629   0.838   6.304
 6831SOL    HW221393   0.712   0.833   6.163
 6832SOL     OW21394   2.956   4.891   2.141
 6832SOL    HW121395   2.908   4.956   2.201
 6832SOL    HW221396   2.921   4.799   2.157
 6833SOL     OW21397   3.686   4.959   6.562
 6833SOL    HW121398   3.778   4.992   6.541
 6833SOL    HW221399   3.679   4.862   6.538
 6834SOL     OW21400   4.700   6.812   2.062
 6834SOL    HW121401   4.654   6.794   2.149
 6834SOL    HW221402   4.734   6.727   2.023
 6835SOL     OW21403   4.320   0.185   4.883
 6835SOL    HW121404   4.268   0.241   4.819
 6835SOL    HW221405   4.416   0.182   4.854
 6836SOL     OW21406   3.146   6.595   0.421
 6836SOL    HW121407   3.147   6.685   0.465
 6836SOL    HW221408   3.140   6.524   0.490
 6837SOL     OW21409   1.813   3.501   1.845
 6837SOL    HW121410   1.833   3.584   1.896
 6837SOL    HW221411   1.898   3.449   1.831
 6838SOL     OW21412   2.369   1.197   0.095
 6838SOL    HW121413   2.354   1.105   0.059
 6838SOL    HW221414   2.442   1.241   0.043
 6839SOL     OW21415   3.818   0.902   0.902
 6839SOL    HW121416   3.869   0.988   0.908
 6839SOL    HW221417   3.774   0.896   0.813
 6840SOL     OW21418   2.695   1.390   6.142
 6840SOL    HW121419   2.634   1.368   6.219
 6840SOL    HW221420   2.716   1.488   6.143
 6841SOL     OW21421   6.281   2.966   6.101
 6841SOL    HW121422   6.360   2.915   6.068
 6841SOL    HW221423   6.257   2.934   6.193
 6842SOL     OW21424   1.920   5.550   1.772
 6842SOL    HW121425   1.925   5.450   1.776
 6842SOL    HW221426   2.011   5.588   1.754
 6843SOL     OW21427   5.354   6.756   6.821
 6843SOL    HW121428   5.382   6.829   6.759
 6843SOL    HW221429   5.426   6.686   6.823
 6844SOL     OW21430   4.633   0.471   3.968
 6844SOL    HW121431   4.595   0.558   3.934
 6844SOL    HW221432   4.730   0.484   3.987
 6845SOL     OW21433   4.924   2.637   3.020
 6845SOL    HW121434   4.846   2.609   2.965
 6845SOL    HW221435   4.892   2.674   3.107
 6846SOL     OW21436   2.779   4.077   0.520
 6846SOL    HW121437   2.809   4.053   0.612
 6846SOL    HW221438   2.846   4.045   0.454
 6847SOL     OW21439   5.948   3.817   4.256
 6847SOL    HW121440   5.860   3.850   4.290
 6847SOL    HW221441   5.936   3.779   4.164
 6848SOL     OW21442   5.207   4.274   3.405
 6848SOL    HW121443   5.158   4.212   3.343
 6848SOL    HW221444   5.259   4.340   3.351
 6849SOL     OW21445   3.880   3.606   6.049
 6849SOL    HW121446   3.976   3.597   6.022
 6849SOL    HW221447   3.875   3.653   6.137
 6850SOL     OW21448   4.013   1.635   3.106
 6850SOL    HW121449   4.074   1.619   3.028
 6850SOL    HW221450   4.059   1.697   3.170
 6851SOL     OW21451   1.907   2.919   3.165
 6851SOL    HW121452   1.972   2.845   3.183
 6851SOL    HW221453   1.936   2.969   3.084
 6852SOL     OW21454   2.750   5.384   0.645
 6852SOL    HW121455   2.793   5.408   0.732
 6852SOL    HW221456   2.654   5.364   0.659
 6853SOL     OW21457   5.024   3.272   6.508
 6853SOL    HW121458   4.944   3.296   6.453
 6853SOL    HW221459   5.013   3.178   6.542
 6854SOL     OW21460   5.523   6.220   6.012
 6854SOL    HW121461   5.592   6.150   6.028
 6854SOL    HW221462   5.435   6.189   6.047
 6855SOL     OW21463   3.869   4.910   3.614
 6855SOL    HW121464   3.960   4.885   3.646
 6855SOL    HW221465   3.804   4.906   3.690
 6856SOL     OW21466   1.150   2.296   6.744
 6856SOL    HW121467   1.061   2.251   6.733
 6856SOL    HW221468   1.136   2.392   6.767
 6857SOL     OW21469   0.973   3.724   5.976
 6857SOL    HW121470   1.050   3.760   6.028
 6857SOL    HW221471   0.974   3.762   5.883
 6858SOL     OW21472   3.075   4.218   1.753
 6858SOL    HW121473   3.147   4.180   1.811
 6858SOL    HW221474   3.044   4.305   1.790
 6859SOL     OW21475   0.863   1.141   2.696
 6859SOL    HW121476   0.925   1.111   2.623
 6859SOL    HW221477   0.805   1.215   2.661
 6860SOL     OW21478   0.461   6.581   1.910
 6860SOL    HW121479   0.508   6.494   1.898
 6860SOL    HW221480   0.529   6.655   1.915
 6861SOL     OW21481   4.866   2.675   5.382
 6861SOL    HW121482   4.785   2.662   5.439
 6861SOL    HW221483   4.936   2.609   5.407
 6862SOL     OW21484   0.553   4.632   5.876
 6862SOL    HW121485   0.555   4.536   5.850
 6862SOL    HW221486   0.544   4.640   5.975
 6863SOL     OW21487   6.996   6.718   5.250
 6863SOL    HW121488   7.018   6.754   5.159
 6863SOL    HW221489   0.045   6.743   5.314
 6864SOL     OW21490   1.826   3.685   5.413
 6864SOL    HW121491   1.764   3.646   5.480
 6864SOL    HW221492   1.909   3.716   5.458
 6865SOL     OW21493   1.777   0.229   4.546
 6865SOL    HW121494   1.716   0.281   4.607
 6865SOL    HW221495   1.722   0.173   4.484
 6866SOL     OW21496   0.090   4.737   1.830
 6866SOL    HW121497   0.174   4.767   1.787
 6866SOL    HW221498   0.106   4.720   1.928
 6867SOL     OW21499   2.011   3.126   0.464
 6867SOL    HW121500   2.015   3.124   0.364
 6867SOL    HW221501   2.085   3.069   0.501
 6868SOL     OW21502   2.266   5.219   4.801
 6868SOL    HW121503   2.239   5.309   4.769
 6868SOL    HW221504   2.244   5.210   4.898
 6869SOL     OW21505   3.568   0.090   6.167
 6869SOL    HW121506   3.561   7.015   6.146
 6869SOL    HW221507   3.485   0.137   6.135
 6870SOL     OW21508   0.246   2.977   0.382
 6870SOL    HW121509   0.160   2.967   0.432
 6870SOL    HW221510   0.275   2.889   0.346
 6871SOL     OW21511   0.076   3.914   2.692
 6871SOL    HW121512   0.150   3.980   2.677
 6871SOL    HW221513   0.005   3.927   2.623
 6872SOL     OW21514   1.790   2.845   1.655
 6872SOL    HW121515   1.799   2.936   1.615
 6872SOL    HW221516   1.725   2.791   1.602
 6873SOL     OW21517   1.126   3.945   4.587
 6873SOL    HW121518   1.208   3.892   4.565
 6873SOL    HW221519   1.124   4.027   4.530
 6874SOL     OW21520   5.887   5.804   2.940
 6874SOL    HW121521   5.810   5.752   2.976
 6874SOL    HW221522   5.960   5.742   2.914
 6875SOL     OW21523   1.425   2.818   1.274
 6875SOL    HW121524   1.349   2.882   1.285
 6875SOL    HW221525   1.506   2.867   1.243
 6876SOL     OW21526   4.466   5.582   3.311
 6876SOL    HW121527   4.376   5.619   3.288
 6876SOL    HW221528   4.528   5.595   3.233
 6877SOL     OW21529   1.739   3.769   2.383
 6877SOL    HW121530   1.730   3.688   2.325
 6877SOL    HW221531   1.659   3.777   2.442
 6878SOL     OW21532   2.015   0.715   3.767
 6878SOL    HW121533   2.008   0.808   3.732
 6878SOL    HW221534   1.925   0.684   3.798
 6879SOL     OW21535   2.094   2.125   0.893
 6879SOL    HW121536   2.087   2.025   0.899
 6879SOL    HW221537   2.052   2.167   0.973
 6880SOL     OW21538   1.718   5.483   6.655
 6880SOL    HW121539   1.684   5.518   6.743
 6880SOL    HW221540   1.805   5.526   6.634
 6881SOL     OW21541   1.207   3.207   0.484
 6881SOL    HW121542   1.253   3.271   0.546
 6881SOL    HW221543   1.226   3.233   0.390
 6882SOL     OW21544   3.011   6.531   0.194
 6882SOL    HW121545   3.065   6.560   0.273
 6882SOL    HW221546   2.938   6.597   0.178
 6883SOL     OW21547   4.957   0.032   6.539
 6883SOL    HW121548   5.009   0.079   6.467
 6883SOL    HW221549   4.929   0.098   6.608
 6884SOL     OW21550   2.113   3.914   3.023
 6884SOL    HW121551   2.183   3.845   3.004
 6884SOL    HW221552   2.071   3.944   2.938
 6885SOL     OW21553   5.614   6.071   3.693
 6885SOL    HW121554   5.686   6.005   3.673
 6885SOL    HW221555   5.546   6.030   3.753
 6886SOL     OW21556   4.991   1.395   5.821
 6886SOL    HW121557   5.028   1.485   5.797
 6886SOL    HW221558   5.055   1.324   5.794
 6887SOL     OW21559   5.300   6.154   6.141
 6887SOL    HW121560   5.272   6.211   6.219
 6887SOL    HW221561   5.219   6.125   6.091
 6888SOL     OW21562   6.067   4.876   6.634
 6888SOL    HW121563   5.986   4.838   6.589
 6888SOL    HW221564   6.046   4.969   6.665
 6889SOL     OW21565   0.884   2.948   6.743
 6889SOL    HW121566   0.821   2.928   6.817
 6889SOL    HW221567   0.975   2.964   6.780
 6890SOL     OW21568   3.847   5.219   2.535
 6890SOL    HW121569   3.837   5.195   2.438
 6890SOL    HW221570   3.944   5.230   2.557
 6891SOL     OW21571   1.996   2.236   1.153
 6891SOL    HW121572   2.016   2.317   1.208
 6891SOL    HW221573   1.899   2.234   1.131
 6892SOL     OW21574   3.596   0.730   4.159
 6892SOL    HW121575   3.590   0.723   4.059
 6892SOL    HW221576   3.662   0.801   4.184
 6893SOL     OW21577   6.435   2.847   6.891
 6893SOL    HW121578   6.499   2.880   6.960
 6893SOL    HW221579   6.417   2.749   6.906
 6894SOL     OW21580   5.575   4.894   0.822
 6894SOL    HW121581   5.501   4.904   0.888
 6894SOL    HW221582   5.647   4.961   0.841
 6895SOL     OW21583   1.768   6.368   1.804
 6895SOL    HW121584   1.806   6.300   1.867
 6895SOL    HW221585   1.698   6.324   1.748
 6896SOL     OW21586   4.475   2.053   4.436
 6896SOL    HW121587   4.424   2.091   4.359
 6896SOL    HW221588   4.475   1.954   4.430
 6897SOL     OW21589   5.206   3.999   4.817
 6897SOL    HW121590   5.270   3.932   4.853
 6897SOL    HW221591   5.196   3.986   4.719
 6898SOL     OW21592   2.381   1.784   1.710
 6898SOL    HW121593   2.461   1.833   1.744
 6898SOL    HW221594   2.373   1.798   1.611
 6899SOL     OW21595   6.398   5.671   3.002
 6899SOL    HW121596   6.375   5.718   3.087
 6899SOL    HW221597   6.325   5.605   2.980
 6900SOL     OW21598   6.202   4.332   5.717
 6900SOL    HW121599   6.248   4.409   5.672
 6900SOL    HW221600   6.143   4.367   5.789
 6901SOL     OW21601   4.640   4.768   6.834
 6901SOL    HW121602   4.547   4.791   6.863
 6901SOL    HW221603   4.635   4.706   6.755
 6902SOL     OW21604   0.211   5.908   6.364
 6902SOL    HW121605   0.218   5.860   6.276
 6902SOL    HW221606   0.274   5.867   6.429
 6903SOL     OW21607   2.775   4.943   4.894
 6903SOL    HW121608   2.854   4.898   4.935
 6903SOL    HW221609   2.744   4.892   4.813
 6904SOL     OW21610   0.092   6.311   4.723
 6904SOL    HW121611   0.005   6.347   4.757
 6904SOL    HW221612   0.165   6.378   4.737
 6905SOL     OW21613   5.311   5.693   6.037
 6905SOL    HW121614   5.347   5.605   6.005
 6905SOL    HW221615   5.293   5.688   6.135
 6906SOL     OW21616   3.655   1.159   3.711
 6906SOL    HW121617   3.564   1.156   3.669
 6906SOL    HW221618   3.650   1.212   3.796
 6907SOL     OW21619   6.036   1.353   1.148
 6907SOL    HW121620   6.091   1.367   1.231
 6907SOL    HW221621   6.074   1.409   1.074
 6908SOL     OW21622   2.488   4.713   0.112
 6908SOL    HW121623   2.427   4.731   0.190
 6908SOL    HW221624   2.494   4.614   0.097
 6909SOL     OW21625   5.630   5.223   1.827
 6909SOL    HW121626   5.536   5.258   1.816
 6909SOL    HW221627   5.633   5.127   1.800
 6910SOL     OW21628   1.525   2.680   3.220
 6910SOL    HW121629   1.572   2.768   3.225
 6910SOL    HW221630   1.443   2.689   3.162
 6911SOL     OW21631   2.833   0.118   6.083
 6911SOL    HW121632   2.739   0.100   6.054
 6911SOL    HW221633   2.832   0.163   6.172
 6912SOL     OW21634   2.015   3.638   6.304
 6912SOL    HW121635   2.009   3.734   6.330
 6912SOL    HW221636   1.940   3.614   6.243
 6913SOL     OW21637   4.422   5.825   5.585
 6913SOL    HW121638   4.489   5.898   5.600
 6913SOL    HW221639   4.377   5.802   5.671
 6914SOL     OW21640   6.418   3.427   1.914
 6914SOL    HW121641   6.474   3.504   1.945
 6914SOL    HW221642   6.394   3.439   1.818
 6915SOL     OW21643   1.181   3.093   2.500
 6915SOL    HW121644   1.167   3.031   2.423
 6915SOL    HW221645   1.230   3.045   2.573
 6916SOL     OW21646   4.331   6.383   6.816
 6916SOL    HW121647   4.374   6.450   6.756
 6916SOL    HW221648   4.360   6.291   6.789
 6917SOL     OW21649   5.847   5.454   1.490
 6917SOL    HW121650   5.840   5.441   1.588
 6917SOL    HW221651   5.849   5.365   1.444
 6918SOL     OW21652   1.443   3.065   1.875
 6918SOL    HW121653   1.415   2.994   1.811
 6918SOL    HW221654   1.516   3.120   1.834
 6919SOL     OW21655   6.617   6.587   2.909
 6919SOL    HW121656   6.577   6.499   2.933
 6919SOL    HW221657   6.609   6.650   2.986
 6920SOL     OW21658   5.037   0.638   5.658
 6920SOL    HW121659   5.010   0.617   5.564
 6920SOL    HW221660   5.010   0.731   5.681
 6921SOL     OW21661   3.439   0.218   4.383
 6921SOL    HW121662   3.410   0.179   4.470
 6921SOL    HW221663   3.539   0.211   4.374
 6922SOL     OW21664   1.035   6.063   5.655
 6922SOL    HW121665   1.020   6.162   5.651
 6922SOL    HW221666   1.129   6.044   5.683
 6923SOL     OW21667   6.376   6.864   2.004
 6923SOL    HW121668   6.379   6.951   1.954
 6923SOL    HW221669   6.347   6.881   2.098
 6924SOL     OW21670   3.609   6.504   0.422
 6924SOL    HW121671   3.677   6.572   0.447
 6924SOL    HW221672   3.654   6.428   0.375
 6925SOL     OW21673   5.731   6.112   6.373
 6925SOL    HW121674   5.742   6.203   6.412
 6925SOL    HW221675   5.816   6.084   6.328
 6926SOL     OW21676   2.730   2.104   0.540
 6926SOL    HW121677   2.680   2.039   0.597
 6926SOL    HW221678   2.685   2.193   0.544
 6927SOL     OW21679   4.225   0.989   0.122
 6927SOL    HW121680   4.273   0.904   0.141
 6927SOL    HW221681   4.279   1.044   0.058
 6928SOL     OW21682   4.547   5.099   0.746
 6928SOL    HW121683   4.480   5.161   0.705
 6928SOL    HW221684   4.580   5.035   0.677
 6929SOL     OW21685   5.745   5.638   1.111
 6929SOL    HW121686   5.742   5.653   1.012
 6929SOL    HW221687   5.665   5.680   1.153
 6930SOL     OW21688   0.276   0.557   0.738
 6930SOL    HW121689   0.310   0.506   0.658
 6930SOL    HW221690   0.259   0.652   0.712
 6931SOL     OW21691   2.464   2.502   1.315
 6931SOL    HW121692   2.485   2.405   1.306
 6931SOL    HW221693   2.498   2.536   1.403
 6932SOL     OW21694   4.351   5.539   0.200
 6932SOL    HW121695   4.357   5.588   0.113
 6932SOL    HW221696   4.387   5.446   0.188
 6933SOL     OW21697   2.848   5.648   6.671
 6933SOL    HW121698   2.776   5.587   6.704
 6933SOL    HW221699   2.840   5.659   6.572
 6934SOL     OW21700   5.026   4.017   6.177
 6934SOL    HW121701   5.119   3.998   6.147
 6934SOL    HW221702   4.983   3.933   6.210
 6935SOL     OW21703   5.802   4.954   1.643
 6935SOL    HW121704   5.858   5.028   1.605
 6935SOL    HW221705   5.859   4.873   1.658
 6936SOL     OW21706   0.935   1.983   5.109
 6936SOL    HW121707   0.878   2.063   5.125
 6936SOL    HW221708   1.020   2.011   5.065
 6937SOL     OW21709   5.318   5.699   0.434
 6937SOL    HW121710   5.221   5.700   0.408
 6937SOL    HW221711   5.369   5.644   0.368
 6938SOL     OW21712   0.416   0.408   4.643
 6938SOL    HW121713   0.446   0.468   4.569
 6938SOL    HW221714   0.467   0.322   4.639
 6939SOL     OW21715   6.264   4.905   3.607
 6939SOL    HW121716   6.245   4.865   3.696
 6939SOL    HW221717   6.279   4.832   3.540
 6940SOL     OW21718   3.916   6.549   0.681
 6940SOL    HW121719   4.002   6.577   0.723
 6940SOL    HW221720   3.842   6.606   0.715
 6941SOL     OW21721   3.567   3.283   2.554
 6941SOL    HW121722   3.486   3.341   2.548
 6941SOL    HW221723   3.553   3.201   2.497
 6942SOL     OW21724   6.217   6.846   1.647
 6942SOL    HW121725   6.174   6.811   1.731
 6942SOL    HW221726   6.158   6.915   1.606
 6943SOL     OW21727   3.964   5.006   6.256
 6943SOL    HW121728   3.891   4.941   6.234
 6943SOL    HW221729   4.043   4.989   6.197
 6944SOL     OW21730   1.165   3.820   5.561
 6944SOL    HW121731   1.094   3.790   5.498
 6944SOL    HW221732   1.147   3.914   5.590
 6945SOL     OW21733   5.439   2.860   1.122
 6945SOL    HW121734   5.484   2.942   1.088
 6945SOL    HW221735   5.348   2.853   1.081
 6946SOL     OW21736   4.576   5.731   2.629
 6946SOL    HW121737   4.492   5.677   2.642
 6946SOL    HW221738   4.645   5.701   2.695
 6947SOL     OW21739   5.201   5.229   5.488
 6947SOL    HW121740   5.233   5.206   5.580
 6947SOL    HW221741   5.197   5.147   5.432
 6948SOL     OW21742   0.726   5.309   7.019
 6948SOL    HW121743   0.746   5.214   0.019
 6948SOL    HW221744   0.774   5.369   0.059
 6949SOL     OW21745   2.738   2.340   3.920
 6949SOL    HW121746   2.699   2.419   3.872
 6949SOL    HW221747   2.696   2.332   4.010
 6950SOL     OW21748   1.116   6.683   4.853
 6950SOL    HW121749   1.032   6.629   4.849
 6950SOL    HW221750   1.097   6.776   4.823
 6951SOL     OW21751   0.027   4.770   6.652
 6951SOL    HW121752   0.024   4.772   6.552
 6951SOL    HW221753   0.055   4.679   6.682
 6952SOL     OW21754   3.631   5.037   3.202
 6952SOL    HW121755   3.541   5.008   3.234
 6952SOL    HW221756   3.623   5.080   3.112
 6953SOL     OW21757   4.775   1.003   1.231
 6953SOL    HW121758   4.867   1.027   1.262
 6953SOL    HW221759   4.708   1.061   1.278
 6954SOL     OW21760   6.252   3.735   0.367
 6954SOL    HW121761   6.243   3.751   0.269
 6954SOL    HW221762   6.310   3.656   0.383
 6955SOL     OW21763   5.450   6.333   2.258
 6955SOL    HW121764   5.453   6.251   2.199
 6955SOL    HW221765   5.358   6.370   2.258
 6956SOL     OW21766   5.169   5.524   2.309
 6956SOL    HW121767   5.085   5.543   2.257
 6956SOL    HW221768   5.146   5.470   2.389
 6957SOL     OW21769   5.192   5.093   6.390
 6957SOL    HW121770   5.143   5.176   6.364
 6957SOL    HW221771   5.158   5.059   6.477
 6958SOL     OW21772   3.245   2.936   3.312
 6958SOL    HW121773   3.188   2.982   3.244
 6958SOL    HW221774   3.211   2.957   3.404
 6959SOL     OW21775   0.876   4.124   2.992
 6959SOL    HW121776   0.796   4.079   3.032
 6959SOL    HW221777   0.891   4.212   3.037
 6960SOL     OW21778   2.707   4.840   0.408
 6960SOL    HW121779   2.650   4.798   0.338
 6960SOL    HW221780   2.800   4.853   0.372
 6961SOL     OW21781   4.279   2.100   5.802
 6961SOL    HW121782   4.360   2.048   5.776
 6961SOL    HW221783   4.221   2.115   5.722
 6962SOL     OW21784   2.866   6.587   6.107
 6962SOL    HW121785   2.929   6.578   6.030
 6962SOL    HW221786   2.776   6.553   6.080
 6963SOL     OW21787   5.196   6.624   0.990
 6963SOL    HW121788   5.283   6.624   1.039
 6963SOL    HW221789   5.173   6.531   0.962
 6964SOL     OW21790   1.701   0.291   6.196
 6964SOL    HW121791   1.670   0.292   6.101
 6964SOL    HW221792   1.720   0.384   6.226
 6965SOL     OW21793   0.588   2.023   6.716
 6965SOL    HW121794   0.652   2.016   6.640
 6965SOL    HW221795   0.548   1.933   6.734
 6966SOL     OW21796   0.921   0.205   1.895
 6966SOL    HW121797   1.004   0.243   1.855
 6966SOL    HW221798   0.873   0.276   1.947
 6967SOL     OW21799   4.419   1.624   6.250
 6967SOL    HW121800   4.327   1.660   6.238
 6967SOL    HW221801   4.466   1.675   6.321
 6968SOL     OW21802   4.136   6.541   2.667
 6968SOL    HW121803   4.042   6.523   2.639
 6968SOL    HW221804   4.136   6.583   2.758
 6969SOL     OW21805   2.156   1.745   1.847
 6969SOL    HW121806   2.194   1.717   1.935
 6969SOL    HW221807   2.229   1.785   1.791
 6970SOL     OW21808   3.657   4.541   6.082
 6970SOL    HW121809   3.560   4.564   6.079
 6970SOL    HW221810   3.679   4.478   6.008
 6971SOL     OW21811   6.936   4.451   0.430
 6971SOL    HW121812   6.899   4.359   0.416
 6971SOL    HW221813   6.864   4.519   0.415
 6972SOL     OW21814   4.931   3.554   2.292
 6972SOL    HW121815   4.871   3.540   2.213
 6972SOL    HW221816   4.997   3.479   2.297
 6973SOL     OW21817   0.991   2.950   3.242
 6973SOL    HW121818   1.054   3.025   3.222
 6973SOL    HW221819   1.044   2.867   3.263
 6974SOL     OW21820   3.522   3.790   2.866
 6974SOL    HW121821   3.590   3.859   2.839
 6974SOL    HW221822   3.532   3.710   2.807
 6975SOL     OW21823   3.318   5.816   4.823
 6975SOL    HW121824   3.264   5.810   4.739
 6975SOL    HW221825   3.336   5.724   4.858
 6976SOL     OW21826   5.289   4.103   5.833
 6976SOL    HW121827   5.341   4.018   5.824
 6976SOL    HW221828   5.260   4.114   5.928
 6977SOL     OW21829   4.187   4.718   1.630
 6977SOL    HW121830   4.238   4.804   1.633
 6977SOL    HW221831   4.247   4.644   1.599
 6978SOL     OW21832   5.207   3.733   1.719
 6978SOL    HW121833   5.127   3.679   1.745
 6978SOL    HW221834   5.187   3.783   1.635
 6979SOL     OW21835   1.302   3.800   1.533
 6979SOL    HW121836   1.240   3.727   1.504
 6979SOL    HW221837   1.315   3.865   1.458
 6980SOL     OW21838   1.353   6.550   3.394
 6980SOL    HW121839   1.259   6.517   3.382
 6980SOL    HW221840   1.374   6.617   3.324
 6981SOL     OW21841   3.562   3.501   6.451
 6981SOL    HW121842   3.633   3.555   6.405
 6981SOL    HW221843   3.564   3.521   6.549
 6982SOL     OW21844   1.363   1.141   4.173
 6982SOL    HW121845   1.351   1.221   4.114
 6982SOL    HW221846   1.292   1.141   4.243
 6983SOL     OW21847   4.914   0.527   3.977
 6983SOL    HW121848   4.967   0.600   3.935
 6983SOL    HW221849   4.964   0.441   3.969
 6984SOL     OW21850   0.543   2.608   3.116
 6984SOL    HW121851   0.518   2.568   3.028
 6984SOL    HW221852   0.536   2.708   3.110
 6985SOL     OW21853   6.173   3.379   0.211
 6985SOL    HW121854   6.127   3.458   0.169
 6985SOL    HW221855   6.266   3.373   0.177
 6986SOL     OW21856   3.601   5.053   5.577
 6986SOL    HW121857   3.531   5.014   5.637
 6986SOL    HW221858   3.558   5.084   5.492
 6987SOL     OW21859   0.702   1.727   6.360
 6987SOL    HW121860   0.732   1.639   6.323
 6987SOL    HW221861   0.605   1.722   6.383
 6988SOL     OW21862   2.967   1.290   6.042
 6988SOL    HW121863   2.958   1.309   5.944
 6988SOL    HW221864   2.878   1.297   6.086
 6989SOL     OW21865   6.837   5.203   2.860
 6989SOL    HW121866   6.880   5.114   2.849
 6989SOL    HW221867   6.907   5.273   2.870
 6990SOL     OW21868   3.298   2.557   1.369
 6990SOL    HW121869   3.397   2.567   1.363
 6990SOL    HW221870   3.274   2.512   1.455
 6991SOL     OW21871   5.544   3.624   2.327
 6991SOL    HW121872   5.460   3.602   2.278
 6991SOL    HW221873   5.611   3.552   2.312
 6992SOL     OW21874   0.845   6.815   7.017
 6992SOL    HW121875   0.786   6.797   0.073
 6992SOL    HW221876   0.929   6.858   0.025
 6993SOL     OW21877   4.826   1.267   1.718
 6993SOL    HW121878   4.782   1.277   1.808
 6993SOL    HW221879   4.853   1.172   1.705
 6994SOL     OW21880   2.203   6.866   4.255
 6994SOL    HW121881   2.260   6.827   4.327
 6994SOL    HW221882   2.180   6.795   4.188
 6995SOL     OW21883   0.236   3.833   0.960
 6995SOL    HW121884   0.259   3.828   1.057
 6995SOL    HW221885   0.254   3.744   0.917
 6996SOL     OW21886   1.206   1.479   0.038
 6996SOL    HW121887   1.263   1.408   7.021
 6996SOL    HW221888   1.170   1.539   6.989
 6997SOL     OW21889   6.396   5.336   5.285
 6997SOL    HW121890   6.377   5.379   5.372
 6997SOL    HW221891   6.450   5.253   5.299
 6998SOL     OW21892   6.736   1.511   0.580
 6998SOL    HW121893   6.761   1.483   0.487
 6998SOL    HW221894   6.815   1.501   0.640
 6999SOL     OW21895   0.724   3.515   0.556
 6999SOL    HW121896   0.793   3.454   0.516
 6999SOL    HW221897   0.762   3.607   0.563
 7000SOL     OW21898   6.798   0.076   2.551
 7000SOL    HW121899   6.882   0.049   2.598
 7000SOL    HW221900   6.790   0.175   2.552
 7001SOL     OW21901   0.993   1.439   4.676
 7001SOL    HW121902   1.047   1.522   4.667
 7001SOL    HW221903   0.941   1.442   4.761
 7002SOL     OW21904   0.007   6.092   3.336
 7002SOL    HW121905   0.088   6.142   3.308
 7002SOL    HW221906   0.020   5.994   3.317
 7003SOL     OW21907   6.262   4.526   1.151
 7003SOL    HW121908   6.332   4.465   1.188
 7003SOL    HW221909   6.197   4.474   1.096
 7004SOL     OW21910   1.801   5.557   0.667
 7004SOL    HW121911   1.880   5.590   0.719
 7004SOL    HW221912   1.823   5.468   0.626
 7005SOL     OW21913   1.381   0.134   0.200
 7005SOL    HW121914   1.394   0.040   0.168
 7005SOL    HW221915   1.286   0.147   0.228
 7006SOL     OW21916   0.658   0.192   4.384
 7006SOL    HW121917   0.696   0.277   4.349
 7006SOL    HW221918   0.624   0.206   4.477
 7007SOL     OW21919   3.740   0.480   5.585
 7007SOL    HW121920   3.656   0.427   5.583
 7007SOL    HW221921   3.723   0.572   5.548
 7008SOL     OW21922   6.195   4.309   3.633
 7008SOL    HW121923   6.244   4.229   3.669
 7008SOL    HW221924   6.151   4.358   3.708
 7009SOL     OW21925   4.578   5.733   1.474
 7009SOL    HW121926   4.656   5.734   1.537
 7009SOL    HW221927   4.507   5.672   1.510
 7010SOL     OW21928   5.241   4.111   1.915
 7010SOL    HW121929   5.271   4.016   1.921
 7010SOL    HW221930   5.181   4.122   1.836
 7011SOL     OW21931   3.219   6.498   0.045
 7011SOL    HW121932   3.136   6.505   0.102
 7011SOL    HW221933   3.293   6.458   0.099
 7012SOL     OW21934   0.333   2.074   0.309
 7012SOL    HW121935   0.282   1.988   0.304
 7012SOL    HW221936   0.415   2.059   0.365
 7013SOL     OW21937   2.777   1.537   6.823
 7013SOL    HW121938   2.683   1.545   6.789
 7013SOL    HW221939   2.776   1.507   6.918
 7014SOL     OW21940   6.601   3.512   1.582
 7014SOL    HW121941   6.511   3.554   1.568
 7014SOL    HW221942   6.671   3.583   1.588
 7015SOL     OW21943   4.737   5.499   0.814
 7015SOL    HW121944   4.707   5.422   0.870
 7015SOL    HW221945   4.714   5.585   0.860
 7016SOL     OW21946   3.183   5.139   0.669
 7016SOL    HW121947   3.139   5.124   0.581
 7016SOL    HW221948   3.164   5.062   0.730
 7017SOL     OW21949   4.670   5.370   4.070
 7017SOL    HW121950   4.602   5.396   4.001
 7017SOL    HW221951   4.716   5.286   4.042
 7018SOL     OW21952   4.883   3.280   4.194
 7018SOL    HW121953   4.792   3.242   4.177
 7018SOL    HW221954   4.894   3.295   4.292
 7019SOL     OW21955   4.919   4.889   1.915
 7019SOL    HW121956   4.829   4.851   1.935
 7019SOL    HW221957   4.912   4.955   1.840
 7020SOL     OW21958   0.528   3.269   6.469
 7020SOL    HW121959   0.464   3.321   6.526
 7020SOL    HW221960   0.599   3.229   6.528
 7021SOL     OW21961   1.138   2.216   5.105
 7021SOL    HW121962   1.100   2.188   5.193
 7021SOL    HW221963   1.187   2.139   5.064
 7022SOL     OW21964   3.707   1.293   0.742
 7022SOL    HW121965   3.800   1.328   0.739
 7022SOL    HW221966   3.649   1.354   0.796
 7023SOL     OW21967   0.512   1.924   1.374
 7023SOL    HW121968   0.534   1.966   1.462
 7023SOL    HW221969   0.549   1.831   1.371
 7024SOL     OW21970   3.767   3.613   3.945
 7024SOL    HW121971   3.730   3.572   4.029
 7024SOL    HW221972   3.777   3.542   3.875
 7025SOL     OW21973   3.678   0.015   0.339
 7025SOL    HW121974   3.759   7.019   0.285
 7025SOL    HW221975   3.643   0.106   0.317
 7026SOL     OW21976   3.453   1.991   1.049
 7026SOL    HW121977   3.437   2.085   1.018
 7026SOL    HW221978   3.396   1.928   0.996
 7027SOL     OW21979   2.177   5.607   1.701
 7027SOL    HW121980   2.236   5.533   1.734
 7027SOL    HW221981   2.232   5.671   1.647
 7028SOL     OW21982   3.424   0.025   3.329
 7028SOL    HW121983   3.524   0.033   3.332
 7028SOL    HW221984   3.392   0.035   3.235
 7029SOL     OW21985   3.426   3.440   5.017
 7029SOL    HW121986   3.452   3.476   4.927
 7029SOL    HW221987   3.498   3.379   5.050
 7030SOL     OW21988   6.503   1.821   4.837
 7030SOL    HW121989   6.542   1.867   4.916
 7030SOL    HW221990   6.403   1.830   4.839
 7031SOL     OW21991   4.537   6.741   0.679
 7031SOL    HW121992   4.471   6.816   0.669
 7031SOL    HW221993   4.620   6.762   0.628
 7032SOL     OW21994   3.990   0.211   4.785
 7032SOL    HW121995   4.035   0.122   4.796
 7032SOL    HW221996   3.908   0.214   4.843
 7033SOL     OW21997   1.485   2.102   5.556
 7033SOL    HW121998   1.417   2.141   5.618
 7033SOL    HW221999   1.443   2.082   5.468
 7034SOL     OW22000   6.200   1.424   2.989
 7034SOL    HW122001   6.234   1.484   3.060
 7034SOL    HW222002   6.126   1.367   3.026
 7035SOL     OW22003   2.210   0.822   1.113
 7035SOL    HW122004   2.239   0.903   1.164
 7035SOL    HW222005   2.116   0.834   1.081
 7036SOL     OW22006   0.184   1.276   2.232
 7036SOL    HW122007   0.195   1.375   2.222
 7036SOL    HW222008   0.091   1.255   2.263
 7037SOL     OW22009   0.855   0.348   6.636
 7037SOL    HW122010   0.791   0.383   6.567
 7037SOL    HW222011   0.943   0.394   6.625
 7038SOL     OW22012   1.903   2.538   6.347
 7038SOL    HW122013   1.828   2.562   6.285
 7038SOL    HW222014   1.869   2.536   6.441
 7039SOL     OW22015   0.196   6.001   2.835
 7039SOL    HW122016   0.291   6.019   2.812
 7039SOL    HW222017   0.138   6.069   2.790
 7040SOL     OW22018   4.526   2.432   5.283
 7040SOL    HW122019   4.498   2.360   5.219
 7040SOL    HW222020   4.478   2.517   5.261
 7041SOL     OW22021   1.518   0.330   3.617
 7041SOL    HW122022   1.477   0.397   3.678
 7041SOL    HW222023   1.513   0.239   3.659
 7042SOL     OW22024   4.635   6.319   5.074
 7042SOL    HW122025   4.648   6.416   5.093
 7042SOL    HW222026   4.644   6.303   4.975
 7043SOL     OW22027   2.218   4.599   2.723
 7043SOL    HW122028   2.303   4.557   2.756
 7043SOL    HW222029   2.143   4.574   2.783
 7044SOL     OW22030   5.384   6.419   3.994
 7044SOL    HW122031   5.401   6.426   3.896
 7044SOL    HW222032   5.346   6.504   4.028
 7045SOL     OW22033   6.282   5.758   2.688
 7045SOL    HW122034   6.293   5.762   2.589
 7045SOL    HW222035   6.284   5.851   2.725
 7046SOL     OW22036   3.139   2.119   4.527
 7046SOL    HW122037   3.145   2.020   4.533
 7046SOL    HW222038   3.170   2.160   4.613
 7047SOL     OW22039   0.816   6.880   0.500
 7047SOL    HW122040   0.718   6.857   0.504
 7047SOL    HW222041   0.827   6.979   0.509
 7048SOL     OW22042   6.698   5.465   4.953
 7048SOL    HW122043   6.688   5.385   4.894
 7048SOL    HW222044   6.775   5.451   5.016
 7049SOL     OW22045   3.676   1.121   2.254
 7049SOL    HW122046   3.754   1.183   2.254
 7049SOL    HW222047   3.663   1.083   2.163
 7050SOL     OW22048   4.058   4.058   0.859
 7050SOL    HW122049   4.036   3.987   0.926
 7050SOL    HW222050   4.002   4.046   0.777
 7051SOL     OW22051   0.538   0.182   1.134
 7051SOL    HW122052   0.529   0.159   1.231
 7051SOL    HW222053   0.611   0.249   1.122
 7052SOL     OW22054   5.567   0.390   2.187
 7052SOL    HW122055   5.657   0.353   2.210
 7052SOL    HW222056   5.504   0.315   2.169
 7053SOL     OW22057   1.728   2.645   3.627
 7053SOL    HW122058   1.817   2.635   3.582
 7053SOL    HW222059   1.701   2.741   3.628
 7054SOL     OW22060   6.859   0.147   0.680
 7054SOL    HW122061   6.801   0.143   0.762
 7054SOL    HW222062   6.925   0.222   0.690
 7055SOL     OW22063   2.424   0.995   6.791
 7055SOL    HW122064   2.417   0.934   6.712
 7055SOL    HW222065   2.499   1.060   6.776
 7056SOL     OW22066   0.019   5.489   1.598
 7056SOL    HW122067   0.099   5.430   1.603
 7056SOL    HW222068   6.960   5.435   1.612
 7057SOL     OW22069   3.223   4.918   5.152
 7057SOL    HW122070   3.323   4.917   5.156
 7057SOL    HW222071   3.191   5.013   5.162
 7058SOL     OW22072   5.071   2.641   5.940
 7058SOL    HW122073   5.064   2.542   5.952
 7058SOL    HW222074   5.041   2.687   6.023
 7059SOL     OW22075   1.904   0.645   4.700
 7059SOL    HW122076   1.952   0.563   4.733
 7059SOL    HW222077   1.806   0.633   4.711
 7060SOL     OW22078   3.254   0.357   2.125
 7060SOL    HW122079   3.286   0.432   2.183
 7060SOL    HW222080   3.200   0.394   2.050
 7061SOL     OW22081   1.119   2.741   2.825
 7061SOL    HW122082   1.027   2.762   2.792
 7061SOL    HW222083   1.143   2.647   2.801
 7062SOL     OW22084   3.756   1.635   3.010
 7062SOL    HW122085   3.850   1.627   3.043
 7062SOL    HW222086   3.752   1.702   2.936
 7063SOL     OW22087   0.863   0.743   2.069
 7063SOL    HW122088   0.935   0.786   2.014
 7063SOL    HW222089   0.885   0.753   2.166
 7064SOL     OW22090   4.807   1.756   5.352
 7064SOL    HW122091   4.749   1.803   5.285
 7064SOL    HW222092   4.901   1.790   5.344
 7065SOL     OW22093   3.578   4.187   5.671
 7065SOL    HW122094   3.583   4.087   5.679
 7065SOL    HW222095   3.603   4.214   5.578
 7066SOL     OW22096   3.737   0.510   6.978
 7066SOL    HW122097   3.669   0.561   6.926
 7066SOL    HW222098   3.818   0.567   6.992
 7067SOL     OW22099   2.018   3.366   6.953
 7067SOL    HW122100   1.932   3.412   6.933
 7067SOL    HW222101   2.018   3.275   6.912
 7068SOL     OW22102   4.934   4.220   4.240
 7068SOL    HW122103   5.003   4.288   4.216
 7068SOL    HW222104   4.975   4.129   4.237
 7069SOL     OW22105   5.564   6.861   6.420
 7069SOL    HW122106   5.570   6.896   6.327
 7069SOL    HW222107   5.542   6.936   6.483
 7070SOL     OW22108   0.344   6.297   4.923
 7070SOL    HW122109   0.269   6.233   4.940
 7070SOL    HW222110   0.342   6.369   4.992
 7071SOL     OW22111   5.452   6.027   6.368
 7071SOL    HW122112   5.545   6.048   6.339
 7071SOL    HW222113   5.389   6.044   6.292
 7072SOL     OW22114   0.130   3.650   6.735
 7072SOL    HW122115   0.175   3.653   6.646
 7072SOL    HW222116   0.064   3.575   6.737
 7073SOL     OW22117   5.704   1.457   2.987
 7073SOL    HW122118   5.686   1.373   2.937
 7073SOL    HW222119   5.728   1.434   3.082
 7074SOL     OW22120   6.126   4.044   2.899
 7074SOL    HW122121   6.162   4.067   2.989
 7074SOL    HW222122   6.112   3.945   2.893
 7075SOL     OW22123   3.253   5.545   4.191
 7075SOL    HW122124   3.246   5.603   4.110
 7075SOL    HW222125   3.324   5.582   4.252
 7076SOL     OW22126   5.817   3.170   2.556
 7076SOL    HW122127   5.722   3.156   2.584
 7076SOL    HW222128   5.828   3.141   2.461
 7077SOL     OW22129   3.325   5.544   1.190
 7077SOL    HW122130   3.312   5.626   1.245
 7077SOL    HW222131   3.398   5.488   1.230
 7078SOL     OW22132   5.294   6.899   0.499
 7078SOL    HW122133   5.273   6.843   0.579
 7078SOL    HW222134   5.229   6.878   0.425
 7079SOL     OW22135   1.249   0.191   4.428
 7079SOL    HW122136   1.264   0.233   4.339
 7079SOL    HW222137   1.186   0.114   4.420
 7080SOL     OW22138   4.002   1.617   5.008
 7080SOL    HW122139   3.913   1.615   5.055
 7080SOL    HW222140   4.015   1.706   4.965
 7081SOL     OW22141   1.707   1.328   0.166
 7081SOL    HW122142   1.803   1.304   0.153
 7081SOL    HW222143   1.675   1.382   0.088
 7082SOL     OW22144   6.419   4.497   2.932
 7082SOL    HW122145   6.423   4.545   2.844
 7082SOL    HW222146   6.394   4.401   2.917
 7083SOL     OW22147   0.043   3.184   2.603
 7083SOL    HW122148   0.078   3.152   2.691
 7083SOL    HW222149   0.014   3.279   2.611
 7084SOL     OW22150   0.799   5.849   0.075
 7084SOL    HW122151   0.737   5.796   0.133
 7084SOL    HW222152   0.756   5.936   0.052
 7085SOL     OW22153   0.912   3.194   2.205
 7085SOL    HW122154   0.955   3.130   2.268
 7085SOL    HW222155   0.812   3.185   2.211
 7086SOL     OW22156   5.604   1.199   4.587
 7086SOL    HW122157   5.691   1.150   4.598
 7086SOL    HW222158   5.530   1.143   4.623
 7087SOL     OW22159   5.505   2.950   3.131
 7087SOL    HW122160   5.602   2.974   3.134
 7087SOL    HW222161   5.489   2.882   3.060
 7088SOL     OW22162   6.256   1.586   4.844
 7088SOL    HW122163   6.209   1.670   4.816
 7088SOL    HW222164   6.312   1.553   4.768
 7089SOL     OW22165   3.132   5.575   1.799
 7089SOL    HW122166   3.189   5.556   1.879
 7089SOL    HW222167   3.045   5.528   1.808
 7090SOL     OW22168   4.154   2.067   1.203
 7090SOL    HW122169   4.109   1.989   1.161
 7090SOL    HW222170   4.242   2.039   1.241
 7091SOL     OW22171   0.163   6.692   6.094
 7091SOL    HW122172   0.232   6.622   6.076
 7091SOL    HW222173   0.147   6.698   6.193
 7092SOL     OW22174   4.629   1.974   6.901
 7092SOL    HW122175   4.557   2.022   6.851
 7092SOL    HW222176   4.666   1.901   6.843
 7093SOL     OW22177   3.547   3.831   1.068
 7093SOL    HW122178   3.457   3.844   1.111
 7093SOL    HW222179   3.558   3.734   1.044
 7094SOL     OW22180   2.805   0.082   5.265
 7094SOL    HW122181   2.885   0.134   5.235
 7094SOL    HW222182   2.831   0.020   5.339
 7095SOL     OW22183   2.652   4.536   5.287
 7095SOL    HW122184   2.565   4.578   5.311
 7095SOL    HW222185   2.685   4.571   5.200
 7096SOL     OW22186   6.939   0.942   0.947
 7096SOL    HW122187   6.881   0.867   0.915
 7096SOL    HW222188   6.995   0.975   0.872
 7097SOL     OW22189   4.545   0.734   1.773
 7097SOL    HW122190   4.530   0.801   1.846
 7097SOL    HW222191   4.600   0.776   1.701
 7098SOL     OW22192   0.861   6.607   4.432
 7098SOL    HW122193   0.833   6.657   4.350
 7098SOL    HW222194   0.832   6.511   4.424
 7099SOL     OW22195   3.095   2.175   4.152
 7099SOL    HW122196   3.180   2.174   4.204
 7099SOL    HW222197   3.019   2.197   4.213
 7100SOL     OW22198   5.968   4.003   1.094
 7100SOL    HW122199   5.966   3.964   1.186
 7100SOL    HW222200   6.063   4.025   1.069
 7101SOL     OW22201   2.306   6.341   5.286
 7101SOL    HW122202   2.239   6.277   5.249
 7101SOL    HW222203   2.351   6.300   5.366
 7102SOL     OW22204   5.834   0.846   1.504
 7102SOL    HW122205   5.886   0.919   1.550
 7102SOL    HW222206   5.848   0.852   1.406
 7103SOL     OW22207   4.895   4.062   2.985
 7103SOL    HW122208   4.902   4.148   2.934
 7103SOL    HW222209   4.820   4.069   3.051
 7104SOL     OW22210   4.949   3.189   3.315
 7104SOL    HW122211   5.043   3.198   3.347
 7104SOL    HW222212   4.944   3.212   3.218
 7105SOL     OW22213   3.109   3.924   3.967
 7105SOL    HW122214   3.142   3.842   4.013
 7105SOL    HW222215   3.066   3.900   3.880
 7106SOL     OW22216   2.952   3.144   1.214
 7106SOL    HW122217   2.871   3.163   1.158
 7106SOL    HW222218   3.033   3.142   1.156
 7107SOL     OW22219   3.731   0.645   6.391
 7107SOL    HW122220   3.673   0.592   6.329
 7107SOL    HW222221   3.772   0.583   6.458
 7108SOL     OW22222   3.442   0.183   2.262
 7108SOL    HW122223   3.433   0.272   2.217
 7108SOL    HW222224   3.358   0.162   2.312
 7109SOL     OW22225   2.032   6.908   5.531
 7109SOL    HW122226   2.064   6.949   5.446
 7109SOL    HW222227   2.029   6.977   5.603
 7110SOL     OW22228   3.468   6.392   4.172
 7110SOL    HW122229   3.393   6.326   4.180
 7110SOL    HW222230   3.432   6.485   4.185
 7111SOL     OW22231   6.956   0.723   4.626
 7111SOL    HW122232   6.937   0.799   4.564
 7111SOL    HW222233   6.876   0.708   4.685
 7112SOL     OW22234   1.959   5.128   4.533
 7112SOL    HW122235   1.910   5.113   4.447
 7112SOL    HW222236   2.053   5.097   4.524
 7113SOL     OW22237   3.203   5.173   5.654
 7113SOL    HW122238   3.277   5.231   5.619
 7113SOL    HW222239   3.115   5.213   5.629
 7114SOL     OW22240   4.985   5.140   0.525
 7114SOL    HW122241   4.936   5.058   0.554
 7114SOL    HW222242   5.026   5.125   0.435
 7115SOL     OW22243   6.406   4.326   0.136
 7115SOL    HW122244   6.482   4.326   0.201
 7115SOL    HW222245   6.442   4.336   0.043
 7116SOL     OW22246   6.533   3.862   4.261
 7116SOL    HW122247   6.481   3.875   4.177
 7116SOL    HW222248   6.481   3.897   4.338
 7117SOL     OW22249   5.929   0.274   3.146
 7117SOL    HW122250   5.914   0.198   3.210
 7117SOL    HW222251   6.021   0.311   3.159
 7118SOL     OW22252   4.111   4.419   5.333
 7118SOL    HW122253   4.065   4.391   5.249
 7118SOL    HW222254   4.161   4.504   5.317
 7119SOL     OW22255   3.783   6.390   4.796
 7119SOL    HW122256   3.880   6.368   4.794
 7119SOL    HW222257   3.771   6.488   4.783
 7120SOL     OW22258   4.714   0.708   0.492
 7120SOL    HW122259   4.777   0.632   0.479
 7120SOL    HW222260   4.758   0.781   0.545
 7121SOL     OW22261   1.671   6.470   2.795
 7121SOL    HW122262   1.634   6.544   2.853
 7121SOL    HW222263   1.770   6.464   2.810
 7122SOL     OW22264   2.523   0.645   5.940
 7122SOL    HW122265   2.478   0.692   5.864
 7122SOL    HW222266   2.622   0.660   5.934
 7123SOL     OW22267   5.365   4.965   6.190
 7123SOL    HW122268   5.345   4.867   6.187
 7123SOL    HW222269   5.326   5.004   6.273
 7124SOL     OW22270   1.679   2.390   1.278
 7124SOL    HW122271   1.739   2.455   1.326
 7124SOL    HW222272   1.719   2.367   1.190
 7125SOL     OW22273   1.123   6.788   1.192
 7125SOL    HW122274   1.148   6.884   1.189
 7125SOL    HW222275   1.172   6.738   1.120
 7126SOL     OW22276   3.829   5.892   1.368
 7126SOL    HW122277   3.755   5.826   1.351
 7126SOL    HW222278   3.846   5.944   1.285
 7127SOL     OW22279   2.641   6.804   4.963
 7127SOL    HW122280   2.667   6.896   4.992
 7127SOL    HW222281   2.544   6.803   4.938
 7128SOL     OW22282   4.008   4.350   6.479
 7128SOL    HW122283   4.005   4.253   6.456
 7128SOL    HW222284   3.966   4.403   6.405
 7129SOL     OW22285   0.725   0.207   0.431
 7129SOL    HW122286   0.799   0.262   0.470
 7129SOL    HW222287   0.675   0.163   0.505
 7130SOL     OW22288   3.241   6.825   4.315
 7130SOL    HW122289   3.165   6.835   4.378
 7130SOL    HW222290   3.324   6.863   4.357
 7131SOL     OW22291   3.796   1.016   2.478
 7131SOL    HW122292   3.749   1.030   2.391
 7131SOL    HW222293   3.864   0.942   2.467
 7132SOL     OW22294   5.301   4.284   0.545
 7132SOL    HW122295   5.383   4.236   0.514
 7132SOL    HW222296   5.264   4.338   0.469
 7133SOL     OW22297   3.883   5.227   3.155
 7133SOL    HW122298   3.853   5.217   3.250
 7133SOL    HW222299   3.805   5.220   3.094
 7134SOL     OW22300   5.745   5.041   1.137
 7134SOL    HW122301   5.693   5.122   1.165
 7134SOL    HW222302   5.695   4.959   1.165
 7135SOL     OW22303   2.026   3.201   1.409
 7135SOL    HW122304   2.031   3.298   1.434
 7135SOL    HW222305   2.118   3.164   1.400
 7136SOL     OW22306   1.856   1.579   1.876
 7136SOL    HW122307   1.807   1.513   1.934
 7136SOL    HW222308   1.949   1.546   1.861
 7137SOL     OW22309   2.427   2.280   1.579
 7137SOL    HW122310   2.520   2.314   1.566
 7137SOL    HW222311   2.412   2.202   1.520
 7138SOL     OW22312   1.004   2.438   0.781
 7138SOL    HW122313   0.948   2.408   0.704
 7138SOL    HW222314   1.101   2.421   0.761
 7139SOL     OW22315   6.321   6.062   1.464
 7139SOL    HW122316   6.357   5.970   1.448
 7139SOL    HW222317   6.225   6.056   1.491
 7140SOL     OW22318   6.772   2.950   0.352
 7140SOL    HW122319   6.693   2.977   0.405
 7140SOL    HW222320   6.854   2.950   0.410
 7141SOL     OW22321   3.632   0.592   1.191
 7141SOL    HW122322   3.670   0.570   1.102
 7141SOL    HW222323   3.542   0.635   1.180
 7142SOL     OW22324   3.052   0.214   5.227
 7142SOL    HW122325   3.056   0.298   5.174
 7142SOL    HW222326   3.104   0.142   5.182
 7143SOL     OW22327   2.658   4.860   6.988
 7143SOL    HW122328   2.586   4.813   0.017
 7143SOL    HW222329   2.615   4.929   6.928
 7144SOL     OW22330   6.743   0.294   5.345
 7144SOL    HW122331   6.690   0.338   5.417
 7144SOL    HW222332   6.705   0.203   5.327
 7145SOL     OW22333   5.042   2.261   6.464
 7145SOL    HW122334   5.102   2.339   6.449
 7145SOL    HW222335   4.997   2.269   6.553
 7146SOL     OW22336   1.801   1.657   5.291
 7146SOL    HW122337   1.783   1.746   5.250
 7146SOL    HW222338   1.865   1.606   5.234
 7147SOL     OW22339   5.995   6.045   1.968
 7147SOL    HW122340   6.055   6.096   2.031
 7147SOL    HW222341   6.047   6.021   1.886
 7148SOL     OW22342   6.717   6.650   0.834
 7148SOL    HW122343   6.647   6.721   0.843
 7148SOL    HW222344   6.807   6.689   0.855
 7149SOL     OW22345   6.327   4.335   4.986
 7149SOL    HW122346   6.349   4.244   4.952
 7149SOL    HW222347   6.313   4.331   5.085
 7150SOL     OW22348   3.813   3.423   6.684
 7150SOL    HW122349   3.898   3.378   6.657
 7150SOL    HW222350   3.741   3.355   6.694
 7151SOL     OW22351   3.497   1.119   0.873
 7151SOL    HW122352   3.566   1.192   0.877
 7151SOL    HW222353   3.544   1.031   0.867
 7152SOL     OW22354   6.482   1.379   6.180
 7152SOL    HW122355   6.406   1.349   6.122
 7152SOL    HW222356   6.453   1.458   6.234
 7153SOL     OW22357   3.894   6.284   1.103
 7153SOL    HW122358   3.972   6.269   1.164
 7153SOL    HW222359   3.879   6.202   1.047
 7154SOL     OW22360   4.327   1.976   1.870
 7154SOL    HW122361   4.248   1.931   1.828
 7154SOL    HW222362   4.301   2.068   1.898
 7155SOL     OW22363   3.154   1.419   2.235
 7155SOL    HW122364   3.108   1.407   2.323
 7155SOL    HW222365   3.201   1.335   2.210
 7156SOL     OW22366   6.007   3.857   6.679
 7156SOL    HW122367   6.063   3.775   6.694
 7156SOL    HW222368   5.985   3.898   6.768
 7157SOL     OW22369   6.386   4.902   6.678
 7157SOL    HW122370   6.329   4.824   6.701
 7157SOL    HW222371   6.400   4.905   6.579
 7158SOL     OW22372   4.616   6.618   4.249
 7158SOL    HW122373   4.521   6.615   4.218
 7158SOL    HW222374   4.635   6.536   4.303
 7159SOL     OW22375   0.898   6.100   3.155
 7159SOL    HW122376   0.926   6.008   3.127
 7159SOL    HW222377   0.975   6.162   3.146
 7160SOL     OW22378   6.364   0.121   3.557
 7160SOL    HW122379   6.426   0.192   3.523
 7160SOL    HW222380   6.271   0.140   3.527
 7161SOL     OW22381   4.056   3.550   3.725
 7161SOL    HW122382   4.132   3.610   3.750
 7161SOL    HW222383   4.052   3.473   3.790
 7162SOL     OW22384   0.287   5.917   1.674
 7162SOL    HW122385   0.279   5.826   1.715
 7162SOL    HW222386   0.341   5.911   1.590
 7163SOL     OW22387   0.612   1.552   2.453
 7163SOL    HW122388   0.704   1.523   2.424
 7163SOL    HW222389   0.569   1.603   2.379
 7164SOL     OW22390   1.999   0.951   6.658
 7164SOL    HW122391   2.043   0.947   6.568
 7164SOL    HW222392   1.968   1.045   6.676
 7165SOL     OW22393   5.817   1.122   0.100
 7165SOL    HW122394   5.730   1.147   0.144
 7165SOL    HW222395   5.816   1.024   0.080
 7166SOL     OW22396   5.962   6.506   6.023
 7166SOL    HW122397   6.047   6.517   6.074
 7166SOL    HW222398   5.918   6.420   6.048
 7167SOL     OW22399   5.712   2.060   4.667
 7167SOL    HW122400   5.769   2.133   4.704
 7167SOL    HW222401   5.641   2.099   4.610
 7168SOL     OW22402   2.936   1.211   2.157
 7168SOL    HW122403   2.857   1.185   2.102
 7168SOL    HW222404   3.020   1.202   2.103
 7169SOL     OW22405   1.409   3.881   6.686
 7169SOL    HW122406   1.457   3.961   6.650
 7169SOL    HW222407   1.457   3.846   6.766
 7170SOL     OW22408   3.958   1.415   0.702
 7170SOL    HW122409   4.025   1.410   0.775
 7170SOL    HW222410   3.981   1.491   0.640
 7171SOL     OW22411   6.697   4.434   0.608
 7171SOL    HW122412   6.735   4.371   0.675
 7171SOL    HW222413   6.749   4.520   0.610
 7172SOL     OW22414   1.739   1.151   4.004
 7172SOL    HW122415   1.707   1.124   3.913
 7172SOL    HW222416   1.695   1.093   4.073
 7173SOL     OW22417   5.047   5.552   6.124
 7173SOL    HW122418   5.001   5.617   6.062
 7173SOL    HW222419   5.103   5.490   6.070
 7174SOL     OW22420   6.498   4.299   1.905
 7174SOL    HW122421   6.537   4.391   1.905
 7174SOL    HW222422   6.409   4.300   1.951
 7175SOL     OW22423   5.656   3.610   6.436
 7175SOL    HW122424   5.634   3.693   6.384
 7175SOL    HW222425   5.611   3.532   6.394
 7176SOL     OW22426   0.907   0.586   5.905
 7176SOL    HW122427   0.831   0.526   5.881
 7176SOL    HW222428   0.903   0.608   6.003
 7177SOL     OW22429   1.717   5.214   3.688
 7177SOL    HW122430   1.806   5.246   3.655
 7177SOL    HW222431   1.666   5.174   3.612
 7178SOL     OW22432   1.590   0.863   5.378
 7178SOL    HW122433   1.613   0.857   5.475
 7178SOL    HW222434   1.491   0.857   5.367
 7179SOL     OW22435   3.334   5.829   6.109
 7179SOL    HW122436   3.303   5.878   6.191
 7179SOL    HW222437   3.363   5.894   6.040
 7180SOL     OW22438   1.547   4.161   1.385
 7180SOL    HW122439   1.639   4.190   1.412
 7180SOL    HW222440   1.487   4.241   1.380
 7181SOL     OW22441   2.710   1.661   6.117
 7181SOL    HW122442   2.714   1.734   6.185
 7181SOL    HW222443   2.659   1.692   6.037
 7182SOL     OW22444   1.629   2.097   4.683
 7182SOL    HW122445   1.668   2.050   4.603
 7182SOL    HW222446   1.537   2.130   4.661
 7183SOL     OW22447   0.743   6.650   1.897
 7183SOL    HW122448   0.790   6.726   1.942
 7183SOL    HW222449   0.778   6.638   1.804
 7184SOL     OW22450   6.314   0.344   3.754
 7184SOL    HW122451   6.309   0.264   3.814
 7184SOL    HW222452   6.262   0.419   3.795
 7185SOL     OW22453   4.344   1.014   4.189
 7185SOL    HW122454   4.287   1.043   4.113
 7185SOL    HW222455   4.395   1.092   4.225
 7186SOL     OW22456   0.359   6.934   6.778
 7186SOL    HW122457   0.429   6.919   6.847
 7186SOL    HW222458   0.394   6.995   6.707
 7187SOL     OW22459   3.262   2.901   4.043
 7187SOL    HW122460   3.183   2.841   4.053
 7187SOL    HW222461   3.333   2.873   4.108
 7188SOL     OW22462   3.654   4.259   6.783
 7188SOL    HW122463   3.603   4.293   6.703
 7188SOL    HW222464   3.657   4.159   6.780
 7189SOL     OW22465   6.155   2.693   5.780
 7189SOL    HW122466   6.159   2.791   5.796
 7189SOL    HW222467   6.070   2.656   5.816
 7190SOL     OW22468   6.078   5.548   1.380
 7190SOL    HW122469   6.163   5.528   1.429
 7190SOL    HW222470   6.000   5.528   1.439
 7191SOL     OW22471   0.206   4.640   3.896
 7191SOL    HW122472   0.187   4.558   3.948
 7191SOL    HW222473   0.265   4.618   3.818
 7192SOL     OW22474   1.822   4.686   6.811
 7192SOL    HW122475   1.819   4.589   6.788
 7192SOL    HW222476   1.745   4.709   6.871
 7193SOL     OW22477   2.527   2.325   2.380
 7193SOL    HW122478   2.511   2.227   2.392
 7193SOL    HW222479   2.524   2.348   2.283
 7194SOL     OW22480   2.765   2.633   6.299
 7194SOL    HW122481   2.817   2.717   6.284
 7194SOL    HW222482   2.728   2.601   6.212
 7195SOL     OW22483   0.025   3.885   5.515
 7195SOL    HW122484   0.031   3.876   5.415
 7195SOL    HW222485   0.091   3.954   5.545
 7196SOL     OW22486   3.278   3.991   1.930
 7196SOL    HW122487   3.292   3.964   1.835
 7196SOL    HW222488   3.363   4.030   1.966
 7197SOL     OW22489   2.289   3.638   5.665
 7197SOL    HW122490   2.212   3.665   5.607
 7197SOL    HW222491   2.362   3.707   5.657
 7198SOL     OW22492   0.425   0.350   1.787
 7198SOL    HW122493   0.450   0.446   1.804
 7198SOL    HW222494   0.395   0.341   1.692
 7199SOL     OW22495   0.562   1.082   2.668
 7199SOL    HW122496   0.575   1.181   2.660
 7199SOL    HW222497   0.519   1.061   2.756
 7200SOL     OW22498   0.957   2.323   1.014
 7200SOL    HW122499   0.928   2.244   0.960
 7200SOL    HW222500   0.978   2.400   0.953
 7201SOL     OW22501   5.642   5.117   3.948
 7201SOL    HW122502   5.690   5.079   3.870
 7201SOL    HW222503   5.632   5.216   3.936
 7202SOL     OW22504   5.201   0.415   5.638
 7202SOL    HW122505   5.133   0.346   5.614
 7202SOL    HW222506   5.155   0.500   5.665
 7203SOL     OW22507   0.622   1.319   1.763
 7203SOL    HW122508   0.534   1.320   1.809
 7203SOL    HW222509   0.693   1.350   1.826
 7204SOL     OW22510   6.598   6.846   1.040
 7204SOL    HW122511   6.504   6.815   1.051
 7204SOL    HW222512   6.651   6.822   1.122
 7205SOL     OW22513   2.538   2.078   4.779
 7205SOL    HW122514   2.613   2.091   4.843
 7205SOL    HW222515   2.530   2.158   4.719
 7206SOL     OW22516   1.702   3.323   0.745
 7206SOL    HW122517   1.685   3.421   0.741
 7206SOL    HW222518   1.653   3.278   0.670
 7207SOL     OW22519   1.774   1.357   4.527
 7207SOL    HW122520   1.854   1.298   4.522
 7207SOL    HW222521   1.779   1.413   4.609
 7208SOL     OW22522   2.836   0.348   4.076
 7208SOL    HW122523   2.810   0.413   4.147
 7208SOL    HW222524   2.901   0.391   4.014
 7209SOL     OW22525   2.731   2.060   2.488
 7209SOL    HW122526   2.750   2.146   2.440
 7209SOL    HW222527   2.652   2.016   2.448
 7210SOL     OW22528   2.912   1.043   3.218
 7210SOL    HW122529   2.983   1.031   3.149
 7210SOL    HW222530   2.838   0.978   3.202
 7211SOL     OW22531   3.306   5.564   4.928
 7211SOL    HW122532   3.360   5.565   5.012
 7211SOL    HW222533   3.215   5.529   4.947
 7212SOL     OW22534   6.204   4.428   5.988
 7212SOL    HW122535   6.235   4.341   6.028
 7212SOL    HW222536   6.117   4.454   6.029
 7213SOL     OW22537   4.156   1.478   0.384
 7213SOL    HW122538   4.193   1.570   0.378
 7213SOL    HW222539   4.218   1.414   0.338
 7214SOL     OW22540   0.089   1.051   6.654
 7214SOL    HW122541   0.039   1.134   6.630
 7214SOL    HW222542   0.100   0.994   6.573
 7215SOL     OW22543   6.756   2.717   2.378
 7215SOL    HW122544   6.790   2.641   2.323
 7215SOL    HW222545   6.826   2.789   2.381
 7216SOL     OW22546   3.408   6.206   2.960
 7216SOL    HW122547   3.392   6.272   2.887
 7216SOL    HW222548   3.492   6.229   3.009
 7217SOL     OW22549   1.289   3.988   3.686
 7217SOL    HW122550   1.257   4.052   3.616
 7217SOL    HW222551   1.378   3.952   3.661
 7218SOL     OW22552   6.359   3.989   4.445
 7218SOL    HW122553   6.261   3.968   4.448
 7218SOL    HW222554   6.403   3.958   4.529
 7219SOL     OW22555   3.839   5.884   1.985
 7219SOL    HW122556   3.778   5.825   1.932
 7219SOL    HW222557   3.847   5.973   1.939
 7220SOL     OW22558   5.848   4.763   4.541
 7220SOL    HW122559   5.937   4.790   4.503
 7220SOL    HW222560   5.801   4.844   4.576
 7221SOL     OW22561   3.614   5.683   4.734
 7221SOL    HW122562   3.524   5.661   4.695
 7221SOL    HW222563   3.654   5.600   4.773
 7222SOL     OW22564   0.311   6.811   4.385
 7222SOL    HW122565   0.400   6.797   4.428
 7222SOL    HW222566   0.296   6.909   4.370
 7223SOL     OW22567   0.624   2.546   1.155
 7223SOL    HW122568   0.672   2.459   1.165
 7223SOL    HW222569   0.652   2.608   1.230
 7224SOL     OW22570   3.825   2.049   3.198
 7224SOL    HW122571   3.823   1.954   3.231
 7224SOL    HW222572   3.732   2.085   3.197
 7225SOL     OW22573   1.575   0.367   0.961
 7225SOL    HW122574   1.640   0.382   1.035
 7225SOL    HW222575   1.482   0.365   0.998
 7226SOL     OW22576   6.296   6.470   0.756
 7226SOL    HW122577   6.225   6.538   0.738
 7226SOL    HW222578   6.295   6.447   0.853
 7227SOL     OW22579   2.743   1.111   2.010
 7227SOL    HW122580   2.651   1.120   2.048
 7227SOL    HW222581   2.754   1.020   1.970
 7228SOL     OW22582   0.273   3.600   1.939
 7228SOL    HW122583   0.307   3.525   1.996
 7228SOL    HW222584   0.316   3.685   1.968
 7229SOL     OW22585   0.162   0.064   4.628
 7229SOL    HW122586   0.244   0.007   4.620
 7229SOL    HW222587   0.136   0.071   4.725
 7230SOL     OW22588   2.062   5.015   4.018
 7230SOL    HW122589   2.155   5.048   4.034
 7230SOL    HW222590   2.006   5.031   4.099
 7231SOL     OW22591   4.709   1.449   6.239
 7231SOL    HW122592   4.642   1.385   6.275
 7231SOL    HW222593   4.749   1.502   6.314
 7232SOL     OW22594   5.947   7.000   3.031
 7232SOL    HW122595   5.920   0.046   3.097
 7232SOL    HW222596   5.981   0.021   2.948
 7233SOL     OW22597   6.595   1.371   4.957
 7233SOL    HW122598   6.588   1.465   4.993
 7233SOL    HW222599   6.687   1.336   4.973
 7234SOL     OW22600   5.274   3.876   2.759
 7234SOL    HW122601   5.362   3.869   2.712
 7234SOL    HW222602   5.203   3.900   2.693
 7235SOL     OW22603   0.573   6.094   1.387
 7235SOL    HW122604   0.492   6.121   1.335
 7235SOL    HW222605   0.567   5.996   1.411
 7236SOL     OW22606   2.435   2.511   3.551
 7236SOL    HW122607   2.499   2.546   3.483
 7236SOL    HW222608   2.410   2.417   3.528
 7237SOL     OW22609   5.161   0.490   0.163
 7237SOL    HW122610   5.189   0.395   0.148
 7237SOL    HW222611   5.131   0.501   0.258
 7238SOL     OW22612   4.466   3.255   0.207
 7238SOL    HW122613   4.529   3.225   0.279
 7238SOL    HW222614   4.504   3.335   0.161
 7239SOL     OW22615   0.613   3.407   2.337
 7239SOL    HW122616   0.704   3.443   2.319
 7239SOL    HW222617   0.617   3.342   2.412
 7240SOL     OW22618   6.731   1.911   5.750
 7240SOL    HW122619   6.757   2.001   5.716
 7240SOL    HW222620   6.791   1.842   5.711
 7241SOL     OW22621   2.834   1.770   2.077
 7241SOL    HW122622   2.850   1.712   2.157
 7241SOL    HW222623   2.846   1.866   2.102
 7242SOL     OW22624   6.576   5.490   4.570
 7242SOL    HW122625   6.605   5.433   4.647
 7242SOL    HW222626   6.567   5.433   4.488
 7243SOL     OW22627   6.207   3.901   6.418
 7243SOL    HW122628   6.254   3.874   6.502
 7243SOL    HW222629   6.275   3.915   6.345
 7244SOL     OW22630   0.048   6.666   6.338
 7244SOL    HW122631   0.078   6.739   6.400
 7244SOL    HW222632   7.013   6.602   6.387
 7245SOL     OW22633   1.646   2.840   6.376
 7245SOL    HW122634   1.642   2.880   6.467
 7245SOL    HW222635   1.626   2.742   6.382
 7246SOL     OW22636   3.144   0.445   4.014
 7246SOL    HW122637   3.223   0.400   4.056
 7246SOL    HW222638   3.132   0.409   3.921
 7247SOL     OW22639   2.259   2.657   5.370
 7247SOL    HW122640   2.188   2.667   5.299
 7247SOL    HW222641   2.342   2.705   5.341
 7248SOL     OW22642   3.662   0.930   4.539
 7248SOL    HW122643   3.593   0.868   4.501
 7248SOL    HW222644   3.646   0.942   4.637
 7249SOL     OW22645   3.871   5.318   1.578
 7249SOL    HW122646   3.815   5.300   1.660
 7249SOL    HW222647   3.896   5.231   1.535
 7250SOL     OW22648   5.241   5.814   5.535
 7250SOL    HW122649   5.169   5.745   5.546
 7250SOL    HW222650   5.224   5.866   5.452
 7251SOL     OW22651   0.481   5.864   5.495
 7251SOL    HW122652   0.478   5.791   5.563
 7251SOL    HW222653   0.390   5.905   5.486
 7252SOL     OW22654   2.899   3.740   2.386
 7252SOL    HW122655   2.965   3.691   2.329
 7252SOL    HW222656   2.837   3.793   2.327
 7253SOL     OW22657   1.296   5.723   5.429
 7253SOL    HW122658   1.388   5.711   5.465
 7253SOL    HW222659   1.281   5.659   5.353
 7254SOL     OW22660   5.166   4.136   3.938
 7254SOL    HW122661   5.119   4.116   4.024
 7254SOL    HW222662   5.115   4.097   3.862
 7255SOL     OW22663   4.773   3.157   6.738
 7255SOL    HW122664   4.862   3.114   6.725
 7255SOL    HW222665   4.719   3.150   6.654
 7256SOL     OW22666   3.435   6.576   6.570
 7256SOL    HW122667   3.508   6.609   6.629
 7256SOL    HW222668   3.459   6.592   6.474
 7257SOL     OW22669   0.603   1.112   4.587
 7257SOL    HW122670   0.533   1.051   4.624
 7257SOL    HW222671   0.676   1.124   4.655
 7258SOL     OW22672   5.839   2.002   2.791
 7258SOL    HW122673   5.755   2.036   2.833
 7258SOL    HW222674   5.832   1.904   2.776
 7259SOL     OW22675   0.748   3.699   3.394
 7259SOL    HW122676   0.792   3.701   3.305
 7259SOL    HW222677   0.651   3.677   3.383
 7260SOL     OW22678   5.531   2.736   0.363
 7260SOL    HW122679   5.534   2.836   0.362
 7260SOL    HW222680   5.513   2.704   0.457
 7261SOL     OW22681   0.118   4.035   0.403
 7261SOL    HW122682   0.043   4.005   0.462
 7261SOL    HW222683   0.205   4.014   0.447
 7262SOL     OW22684   6.073   2.165   5.909
 7262SOL    HW122685   6.148   2.200   5.853
 7262SOL    HW222686   6.099   2.077   5.949
 7263SOL     OW22687   0.660   5.702   0.242
 7263SOL    HW122688   0.677   5.756   0.324
 7263SOL    HW222689   0.567   5.664   0.245
 7264SOL     OW22690   5.570   1.061   0.472
 7264SOL    HW122691   5.647   1.045   0.534
 7264SOL    HW222692   5.485   1.062   0.524
 7265SOL     OW22693   4.471   5.758   5.332
 7265SOL    HW122694   4.417   5.686   5.288
 7265SOL    HW222695   4.425   5.788   5.416
 7266SOL     OW22696   6.917   0.363   4.105
 7266SOL    HW122697   6.844   0.409   4.055
 7266SOL    HW222698   6.993   0.427   4.120
 7267SOL     OW22699   6.471   5.532   5.120
 7267SOL    HW122700   6.439   5.460   5.182
 7267SOL    HW222701   6.537   5.494   5.056
 7268SOL     OW22702   6.579   6.279   4.479
 7268SOL    HW122703   6.609   6.240   4.566
 7268SOL    HW222704   6.614   6.222   4.404
 7269SOL     OW22705   2.439   5.155   5.724
 7269SOL    HW122706   2.423   5.070   5.775
 7269SOL    HW222707   2.371   5.224   5.750
 7270SOL     OW22708   0.649   1.439   4.246
 7270SOL    HW122709   0.731   1.443   4.302
 7270SOL    HW222710   0.569   1.460   4.302
 7271SOL     OW22711   0.519   4.412   3.853
 7271SOL    HW122712   0.453   4.340   3.873
 7271SOL    HW222713   0.582   4.422   3.930
 7272SOL     OW22714   6.121   5.511   2.323
 7272SOL    HW122715   6.219   5.519   2.340
 7272SOL    HW222716   6.089   5.422   2.356
 7273SOL     OW22717   6.822   2.889   5.722
 7273SOL    HW122718   6.896   2.915   5.659
 7273SOL    HW222719   6.809   2.962   5.789
 7274SOL     OW22720   0.195   4.499   0.331
 7274SOL    HW122721   0.229   4.413   0.296
 7274SOL    HW222722   0.098   4.509   0.308
 7275SOL     OW22723   6.424   0.632   2.692
 7275SOL    HW122724   6.518   0.607   2.715
 7275SOL    HW222725   6.392   0.575   2.616
 7276SOL     OW22726   4.772   6.648   3.620
 7276SOL    HW122727   4.823   6.604   3.694
 7276SOL    HW222728   4.695   6.699   3.659
 7277SOL     OW22729   4.236   0.607   5.717
 7277SOL    HW122730   4.220   0.509   5.708
 7277SOL    HW222731   4.242   0.649   5.626
 7278SOL     OW22732   3.019   3.925   2.032
 7278SOL    HW122733   2.954   3.993   2.064
 7278SOL    HW222734   3.108   3.968   2.015
 7279SOL     OW22735   3.673   6.036   0.288
 7279SOL    HW122736   3.760   6.038   0.241
 7279SOL    HW222737   3.664   6.118   0.345
 7280SOL     OW22738   4.373   6.793   5.509
 7280SOL    HW122739   4.430   6.712   5.519
 7280SOL    HW222740   4.359   6.836   5.598
 7281SOL     OW22741   3.954   2.226   6.316
 7281SOL    HW122742   3.901   2.209   6.233
 7281SOL    HW222743   4.032   2.164   6.319
 7282SOL     OW22744   5.812   5.409   1.755
 7282SOL    HW122745   5.786   5.484   1.816
 7282SOL    HW222746   5.750   5.332   1.768
 7283SOL     OW22747   2.757   0.890   2.828
 7283SOL    HW122748   2.687   0.906   2.897
 7283SOL    HW222749   2.767   0.792   2.812
 7284SOL     OW22750   6.961   3.497   4.870
 7284SOL    HW122751   6.911   3.523   4.788
 7284SOL    HW222752   6.901   3.447   4.932
 7285SOL     OW22753   4.560   5.337   1.813
 7285SOL    HW122754   4.616   5.274   1.868
 7285SOL    HW222755   4.553   5.425   1.860
 7286SOL     OW22756   2.330   2.710   1.192
 7286SOL    HW122757   2.311   2.652   1.113
 7286SOL    HW222758   2.409   2.673   1.242
 7287SOL     OW22759   6.149   1.210   6.589
 7287SOL    HW122760   6.154   1.261   6.674
 7287SOL    HW222761   6.148   1.112   6.609
 7288SOL     OW22762   3.946   0.350   6.483
 7288SOL    HW122763   3.941   0.375   6.387
 7288SOL    HW222764   3.893   0.266   6.499
 7289SOL     OW22765   5.853   1.641   3.287
 7289SOL    HW122766   5.801   1.680   3.363
 7289SOL    HW222767   5.819   1.550   3.266
 7290SOL     OW22768   2.729   5.040   5.451
 7290SOL    HW122769   2.735   4.987   5.367
 7290SOL    HW222770   2.692   5.131   5.431
 7291SOL     OW22771   2.058   0.115   1.570
 7291SOL    HW122772   2.117   0.153   1.498
 7291SOL    HW222773   2.114   0.070   1.639
 7292SOL     OW22774   3.212   6.629   3.351
 7292SOL    HW122775   3.235   6.563   3.423
 7292SOL    HW222776   3.195   6.719   3.392
 7293SOL     OW22777   1.743   1.572   4.996
 7293SOL    HW122778   1.724   1.498   5.061
 7293SOL    HW222779   1.727   1.540   4.903
 7294SOL     OW22780   2.851   5.398   7.011
 7294SOL    HW122781   2.809   5.311   0.014
 7294SOL    HW222782   2.947   5.383   6.988
 7295SOL     OW22783   0.621   2.111   0.233
 7295SOL    HW122784   0.720   2.113   0.219
 7295SOL    HW222785   0.599   2.154   0.321
 7296SOL     OW22786   2.938   5.018   0.920
 7296SOL    HW122787   2.917   4.993   0.825
 7296SOL    HW222788   2.975   4.939   0.968
 7297SOL     OW22789   3.943   6.322   0.556
 7297SOL    HW122790   4.031   6.292   0.593
 7297SOL    HW222791   3.915   6.406   0.603
 7298SOL     OW22792   5.337   3.933   4.309
 7298SOL    HW122793   5.414   3.939   4.245
 7298SOL    HW222794   5.352   3.998   4.384
 7299SOL     OW22795   6.611   2.526   0.769
 7299SOL    HW122796   6.642   2.588   0.696
 7299SOL    HW222797   6.610   2.575   0.856
 7300SOL     OW22798   5.154   5.844   0.829
 7300SOL    HW122799   5.080   5.792   0.786
 7300SOL    HW222800   5.140   5.942   0.812
 7301SOL     OW22801   0.013   0.367   5.903
 7301SOL    HW122802   0.082   0.296   5.886
 7301SOL    HW222803   6.969   0.367   5.828
 7302SOL     OW22804   0.001   1.256   0.062
 7302SOL    HW122805   0.003   1.352   0.037
 7302SOL    HW222806   6.957   1.207   0.006
 7303SOL     OW22807   3.946   0.232   6.791
 7303SOL    HW122808   3.956   0.151   6.849
 7303SOL    HW222809   3.987   0.311   6.837
 7304SOL     OW22810   4.350   3.800   6.021
 7304SOL    HW122811   4.293   3.882   6.017
 7304SOL    HW222812   4.438   3.824   6.063
 7305SOL     OW22813   4.977   2.128   0.137
 7305SOL    HW122814   4.943   2.151   0.228
 7305SOL    HW222815   4.986   2.029   0.128
 7306SOL     OW22816   4.878   3.872   1.514
 7306SOL    HW122817   4.845   3.890   1.606
 7306SOL    HW222818   4.945   3.942   1.488
 7307SOL     OW22819   2.788   6.690   1.638
 7307SOL    HW122820   2.846   6.748   1.695
 7307SOL    HW222821   2.843   6.620   1.594
 7308SOL     OW22822   6.849   3.450   4.576
 7308SOL    HW122823   6.801   3.466   4.490
 7308SOL    HW222824   6.933   3.505   4.578
 7309SOL     OW22825   4.966   5.881   0.615
 7309SOL    HW122826   4.900   5.954   0.633
 7309SOL    HW222827   5.037   5.915   0.554
 7310SOL     OW22828   2.071   5.270   1.065
 7310SOL    HW122829   2.072   5.192   1.002
 7310SOL    HW222830   2.013   5.249   1.143
 7311SOL     OW22831   2.857   1.938   1.883
 7311SOL    HW122832   2.822   2.015   1.935
 7311SOL    HW222833   2.846   1.853   1.936
 7312SOL     OW22834   6.935   1.747   5.613
 7312SOL    HW122835   6.871   1.783   5.546
 7312SOL    HW222836   7.005   1.816   5.633
 7313SOL     OW22837   4.258   2.725   6.208
 7313SOL    HW122838   4.310   2.808   6.226
 7313SOL    HW222839   4.294   2.680   6.126
 7314SOL     OW22840   6.387   3.590   5.069
 7314SOL    HW122841   6.448   3.623   5.142
 7314SOL    HW222842   6.293   3.588   5.103
 7315SOL     OW22843   5.774   0.086   3.927
 7315SOL    HW122844   5.709   0.153   3.892
 7315SOL    HW222845   5.860   0.131   3.950
 7316SOL     OW22846   3.700   3.227   5.339
 7316SOL    HW122847   3.606   3.209   5.309
 7316SOL    HW222848   3.737   3.304   5.286
 7317SOL     OW22849   4.249   0.820   2.358
 7317SOL    HW122850   4.276   0.847   2.450
 7317SOL    HW222851   4.152   0.797   2.357
 7318SOL     OW22852   0.874   1.559   1.801
 7318SOL    HW122853   0.919   1.616   1.732
 7318SOL    HW222854   0.870   1.608   1.887
 7319SOL     OW22855   6.427   4.416   6.869
 7319SOL    HW122856   6.345   4.376   6.828
 7319SOL    HW222857   6.411   4.513   6.887
 7320SOL     OW22858   0.018   3.733   2.248
 7320SOL    HW122859   6.974   3.704   2.180
 7320SOL    HW222860   0.077   3.655   2.272
 7321SOL     OW22861   2.306   1.087   4.891
 7321SOL    HW122862   2.311   1.052   4.798
 7321SOL    HW222863   2.227   1.148   4.900
 7322SOL     OW22864   1.458   3.650   3.216
 7322SOL    HW122865   1.487   3.729   3.163
 7322SOL    HW222866   1.406   3.588   3.157
 7323SOL     OW22867   1.414   2.457   3.090
 7323SOL    HW122868   1.463   2.493   3.170
 7323SOL    HW222869   1.426   2.357   3.087
 7324SOL     OW22870   5.442   0.500   3.336
 7324SOL    HW122871   5.468   0.591   3.369
 7324SOL    HW222872   5.491   0.480   3.251
 7325SOL     OW22873   4.334   6.581   6.079
 7325SOL    HW122874   4.399   6.523   6.127
 7325SOL    HW222875   4.251   6.529   6.059
 7326SOL     OW22876   2.632   6.201   5.199
 7326SOL    HW122877   2.680   6.265   5.139
 7326SOL    HW222878   2.550   6.166   5.153
 7327SOL     OW22879   0.483   3.068   5.747
 7327SOL    HW122880   0.441   3.070   5.656
 7327SOL    HW222881   0.582   3.081   5.739
 7328SOL     OW22882   3.309   0.566   0.046
 7328SOL    HW122883   3.365   0.483   0.052
 7328SOL    HW222884   3.241   0.554   6.997
 7329SOL     OW22885   4.234   3.649   0.996
 7329SOL    HW122886   4.308   3.676   0.934
 7329SOL    HW222887   4.246   3.554   1.023
 7330SOL     OW22888   3.144   1.658   0.114
 7330SOL    HW122889   3.243   1.644   0.120
 7330SOL    HW222890   3.103   1.642   0.203
 7331SOL     OW22891   5.246   1.238   1.871
 7331SOL    HW122892   5.246   1.295   1.954
 7331SOL    HW222893   5.224   1.143   1.896
 7332SOL     OW22894   2.658   5.928   0.273
 7332SOL    HW122895   2.650   6.016   0.226
 7332SOL    HW222896   2.696   5.860   0.210
 7333SOL     OW22897   0.622   4.729   3.831
 7333SOL    HW122898   0.597   4.769   3.743
 7333SOL    HW222899   0.684   4.651   3.817
 7334SOL     OW22900   3.824   5.604   5.664
 7334SOL    HW122901   3.837   5.703   5.654
 7334SOL    HW222902   3.764   5.572   5.590
 7335SOL     OW22903   1.460   2.422   2.643
 7335SOL    HW122904   1.385   2.407   2.579
 7335SOL    HW222905   1.543   2.445   2.593
 7336SOL     OW22906   1.520   6.163   3.951
 7336SOL    HW122907   1.536   6.083   4.009
 7336SOL    HW222908   1.591   6.166   3.880
 7337SOL     OW22909   1.326   2.812   2.283
 7337SOL    HW122910   1.381   2.753   2.224
 7337SOL    HW222911   1.346   2.907   2.263
 7338SOL     OW22912   6.533   2.635   1.507
 7338SOL    HW122913   6.513   2.687   1.591
 7338SOL    HW222914   6.628   2.651   1.480
 7339SOL     OW22915   6.219   6.078   4.026
 7339SOL    HW122916   6.121   6.071   4.049
 7339SOL    HW222917   6.268   6.002   4.068
 7340SOL     OW22918   2.203   0.526   0.117
 7340SOL    HW122919   2.175   0.590   0.044
 7340SOL    HW222920   2.122   0.495   0.167
 7341SOL     OW22921   6.309   2.194   0.601
 7341SOL    HW122922   6.337   2.278   0.647
 7341SOL    HW222923   6.288   2.124   0.669
 7342SOL     OW22924   6.247   0.021   2.515
 7342SOL    HW122925   6.204   6.992   2.589
 7342SOL    HW222926   6.345   0.028   2.532
 7343SOL     OW22927   4.560   2.297   0.136
 7343SOL    HW122928   4.637   2.258   0.086
 7343SOL    HW222929   4.592   2.330   0.226
 7344SOL     OW22930   1.125   6.407   5.938
 7344SOL    HW122931   1.171   6.319   5.949
 7344SOL    HW222932   1.193   6.479   5.923
 7345SOL     OW22933   3.695   3.299   5.609
 7345SOL    HW122934   3.629   3.372   5.624
 7345SOL    HW222935   3.669   3.246   5.529
 7346SOL     OW22936   3.506   6.042   2.745
 7346SOL    HW122937   3.451   5.987   2.683
 7346SOL    HW222938   3.447   6.088   2.811
 7347SOL     OW22939   6.705   2.111   0.553
 7347SOL    HW122940   6.644   2.154   0.487
 7347SOL    HW222941   6.718   2.172   0.631
 7348SOL     OW22942   1.703   4.324   3.376
 7348SOL    HW122943   1.758   4.241   3.375
 7348SOL    HW222944   1.704   4.363   3.469
 7349SOL     OW22945   4.064   0.268   1.301
 7349SOL    HW122946   4.004   0.347   1.296
 7349SOL    HW222947   4.156   0.293   1.271
 7350SOL     OW22948   2.652   0.384   5.068
 7350SOL    HW122949   2.678   0.363   4.973
 7350SOL    HW222950   2.733   0.411   5.120
 7351SOL     OW22951   4.570   5.167   3.739
 7351SOL    HW122952   4.579   5.243   3.675
 7351SOL    HW222953   4.660   5.130   3.761
 7352SOL     OW22954   0.681   2.362   3.244
 7352SOL    HW122955   0.670   2.366   3.344
 7352SOL    HW222956   0.720   2.448   3.212
 7353SOL     OW22957   6.078   0.131   6.628
 7353SOL    HW122958   5.987   0.158   6.597
 7353SOL    HW222959   6.086   0.031   6.625
 7354SOL     OW22960   1.725   1.311   3.261
 7354SOL    HW122961   1.736   1.228   3.316
 7354SOL    HW222962   1.637   1.309   3.213
 7355SOL     OW22963   0.031   1.925   6.683
 7355SOL    HW122964   0.105   1.888   6.738
 7355SOL    HW222965   0.068   1.981   6.609
 7356SOL     OW22966   3.767   3.641   5.746
 7356SOL    HW122967   3.811   3.576   5.807
 7356SOL    HW222968   3.763   3.731   5.791
 7357SOL     OW22969   5.000   5.882   1.648
 7357SOL    HW122970   5.062   5.949   1.688
 7357SOL    HW222971   5.053   5.804   1.615
 7358SOL     OW22972   6.211   2.713   2.076
 7358SOL    HW122973   6.220   2.652   1.998
 7358SOL    HW222974   6.302   2.742   2.106
 7359SOL     OW22975   4.306   0.676   5.994
 7359SOL    HW122976   4.281   0.655   5.899
 7359SOL    HW222977   4.358   0.761   5.996
 7360SOL     OW22978   2.714   3.394   5.356
 7360SOL    HW122979   2.635   3.450   5.380
 7360SOL    HW222980   2.684   3.299   5.343
 7361SOL     OW22981   4.855   0.097   2.417
 7361SOL    HW122982   4.873   0.049   2.503
 7361SOL    HW222983   4.940   0.137   2.382
 7362SOL     OW22984   4.233   5.426   5.901
 7362SOL    HW122985   4.196   5.361   5.968
 7362SOL    HW222986   4.160   5.482   5.864
 7363SOL     OW22987   4.165   1.158   1.070
 7363SOL    HW122988   4.209   1.070   1.087
 7363SOL    HW222989   4.068   1.151   1.091
 7364SOL     OW22990   4.095   6.937   1.630
 7364SOL    HW122991   4.168   6.935   1.698
 7364SOL    HW222992   4.082   6.845   1.593
 7365SOL     OW22993   6.236   4.509   2.491
 7365SOL    HW122994   6.263   4.576   2.560
 7365SOL    HW222995   6.155   4.459   2.523
 7366SOL     OW22996   2.510   0.860   4.158
 7366SOL    HW122997   2.425   0.839   4.206
 7366SOL    HW222998   2.552   0.776   4.126
 7367SOL     OW22999   4.741   1.533   6.525
 7367SOL    HW123000   4.828   1.542   6.573
 7367SOL    HW223001   4.718   1.436   6.517
 7368SOL     OW23002   3.756   3.404   2.725
 7368SOL    HW123003   3.716   3.351   2.650
 7368SOL    HW223004   3.839   3.359   2.757
 7369SOL     OW23005   4.192   2.784   0.231
 7369SOL    HW123006   4.187   2.878   0.263
 7369SOL    HW223007   4.136   2.725   0.290
 7370SOL     OW23008   2.278   1.617   4.876
 7370SOL    HW123009   2.377   1.625   4.889
 7370SOL    HW223010   2.232   1.678   4.941
 7371SOL     OW23011   4.174   0.020   3.394
 7371SOL    HW123012   4.230   0.103   3.391
 7371SOL    HW223013   4.090   0.038   3.445
 7372SOL     OW23014   3.925   0.526   4.595
 7372SOL    HW123015   3.832   0.552   4.619
 7372SOL    HW223016   3.984   0.607   4.597
 7373SOL     OW23017   4.735   2.287   4.666
 7373SOL    HW123018   4.765   2.303   4.572
 7373SOL    HW223019   4.753   2.369   4.721
 7374SOL     OW23020   0.882   1.352   4.915
 7374SOL    HW123021   0.836   1.432   4.953
 7374SOL    HW223022   0.958   1.326   4.974
 7375SOL     OW23023   2.155   3.083   2.222
 7375SOL    HW123024   2.153   3.122   2.129
 7375SOL    HW223025   2.137   3.155   2.289
 7376SOL     OW23026   0.589   3.665   1.019
 7376SOL    HW123027   0.580   3.756   0.978
 7376SOL    HW223028   0.514   3.650   1.084
 7377SOL     OW23029   3.159   5.796   0.595
 7377SOL    HW123030   3.210   5.729   0.541
 7377SOL    HW223031   3.063   5.768   0.600
 7378SOL     OW23032   1.820   6.428   4.247
 7378SOL    HW123033   1.915   6.395   4.247
 7378SOL    HW223034   1.795   6.460   4.156
 7379SOL     OW23035   4.264   0.751   1.530
 7379SOL    HW123036   4.259   0.747   1.630
 7379SOL    HW223037   4.172   0.762   1.492
 7380SOL     OW23038   6.107   4.221   3.134
 7380SOL    HW123039   6.158   4.203   3.218
 7380SOL    HW223040   6.126   4.314   3.103
 7381SOL     OW23041   4.097   1.420   0.050
 7381SOL    HW123042   4.057   1.489   0.110
 7381SOL    HW223043   4.121   1.461   6.985
 7382SOL     OW23044   0.372   1.981   5.989
 7382SOL    HW123045   0.448   1.923   5.959
 7382SOL    HW223046   0.347   1.958   6.083
 7383SOL     OW23047   1.598   7.017   1.873
 7383SOL    HW123048   1.696   0.002   1.857
 7383SOL    HW223049   1.564   0.076   1.919
 7384SOL     OW23050   0.824   0.037   0.958
 7384SOL    HW123051   0.867   7.000   0.891
 7384SOL    HW223052   0.726   0.016   0.964
 7385SOL     OW23053   3.953   5.306   2.812
 7385SOL    HW123054   3.871   5.269   2.767
 7385SOL    HW223055   4.005   5.231   2.853
 7386SOL     OW23056   6.169   3.191   0.834
 7386SOL    HW123057   6.104   3.266   0.849
 7386SOL    HW223058   6.167   3.130   0.913
 7387SOL     OW23059   6.521   4.575   5.763
 7387SOL    HW123060   6.447   4.544   5.704
 7387SOL    HW223061   6.502   4.666   5.797
 7388SOL     OW23062   1.793   6.420   2.332
 7388SOL    HW123063   1.805   6.322   2.351
 7388SOL    HW223064   1.727   6.459   2.396
 7389SOL     OW23065   6.627   3.216   0.448
 7389SOL    HW123066   6.558   3.146   0.466
 7389SOL    HW223067   6.688   3.223   0.526
 7390SOL     OW23068   2.265   1.744   3.166
 7390SOL    HW123069   2.189   1.736   3.102
 7390SOL    HW223070   2.336   1.677   3.141
 7391SOL     OW23071   3.929   3.070   2.632
 7391SOL    HW123072   3.917   3.036   2.538
 7391SOL    HW223073   3.873   3.016   2.694
 7392SOL     OW23074   4.069   5.299   6.676
 7392SOL    HW123075   4.005   5.245   6.731
 7392SOL    HW223076   4.154   5.249   6.664
 7393SOL     OW23077   6.371   4.656   4.513
 7393SOL    HW123078   6.272   4.663   4.509
 7393SOL    HW223079   6.405   4.712   4.589
 7394SOL     OW23080   2.437   2.310   5.930
 7394SOL    HW123081   2.420   2.230   5.988
 7394SOL    HW223082   2.350   2.357   5.912
 7395SOL     OW23083   2.659   4.122   0.999
 7395SOL    HW123084   2.754   4.093   0.993
 7395SOL    HW223085   2.652   4.219   0.975
 7396SOL     OW23086   3.024   5.147   1.633
 7396SOL    HW123087   3.010   5.152   1.534
 7396SOL    HW223088   3.100   5.207   1.658
 7397SOL     OW23089   5.576   3.556   4.399
 7397SOL    HW123090   5.618   3.647   4.402
 7397SOL    HW223091   5.618   3.502   4.326
 7398SOL     OW23092   2.006   4.574   2.874
 7398SOL    HW123093   1.967   4.493   2.919
 7398SOL    HW223094   2.011   4.649   2.940
 7399SOL     OW23095   5.325   2.165   4.847
 7399SOL    HW123096   5.242   2.181   4.794
 7399SOL    HW223097   5.306   2.181   4.944
 7400SOL     OW23098   5.427   2.353   5.494
 7400SOL    HW123099   5.343   2.401   5.516
 7400SOL    HW223100   5.504   2.418   5.495
 7401SOL     OW23101   1.671   2.946   3.619
 7401SOL    HW123102   1.617   3.029   3.609
 7401SOL    HW223103   1.750   2.951   3.558
 7402SOL     OW23104   2.898   5.698   5.098
 7402SOL    HW123105   2.830   5.691   5.025
 7402SOL    HW223106   2.946   5.786   5.090
 7403SOL     OW23107   1.337   2.685   4.050
 7403SOL    HW123108   1.397   2.741   4.107
 7403SOL    HW223109   1.241   2.703   4.073
 7404SOL     OW23110   2.920   3.705   1.110
 7404SOL    HW123111   2.918   3.651   1.026
 7404SOL    HW223112   3.014   3.708   1.146
 7405SOL     OW23113   3.213   5.650   5.444
 7405SOL    HW123114   3.291   5.638   5.383
 7405SOL    HW223115   3.220   5.737   5.492
 7406SOL     OW23116   0.574   0.615   4.983
 7406SOL    HW123117   0.574   0.657   4.892
 7406SOL    HW223118   0.601   0.519   4.976
 7407SOL     OW23119   0.372   5.860   6.582
 7407SOL    HW123120   0.396   5.895   6.673
 7407SOL    HW223121   0.436   5.788   6.556
 7408SOL     OW23122   3.535   3.794   5.393
 7408SOL    HW123123   3.594   3.852   5.337
 7408SOL    HW223124   3.575   3.702   5.398
 7409SOL     OW23125   6.486   4.147   0.864
 7409SOL    HW123126   6.477   4.220   0.932
 7409SOL    HW223127   6.454   4.180   0.775
 7410SOL     OW23128   6.918   6.936   1.254
 7410SOL    HW123129   6.916   6.848   1.207
 7410SOL    HW223130   6.924   6.921   1.352
 7411SOL     OW23131   0.796   2.041   5.913
 7411SOL    HW123132   0.887   2.032   5.871
 7411SOL    HW223133   0.783   2.135   5.943
 7412SOL     OW23134   4.074   0.106   0.150
 7412SOL    HW123135   4.047   0.043   0.222
 7412SOL    HW223136   3.993   0.152   0.114
 7413SOL     OW23137   4.189   6.003   3.461
 7413SOL    HW123138   4.227   5.916   3.490
 7413SOL    HW223139   4.138   5.990   3.376
 7414SOL     OW23140   2.219   2.057   4.413
 7414SOL    HW123141   2.255   2.150   4.422
 7414SOL    HW223142   2.249   2.002   4.491
 7415SOL     OW23143   4.125   6.627   6.640
 7415SOL    HW123144   4.088   6.701   6.696
 7415SOL    HW223145   4.053   6.562   6.618
 7416SOL     OW23146   0.760   2.070   2.505
 7416SOL    HW123147   0.680   2.018   2.476
 7416SOL    HW223148   0.795   2.033   2.591
 7417SOL     OW23149   1.097   2.054   3.786
 7417SOL    HW123150   1.077   2.144   3.823
 7417SOL    HW223151   1.020   1.993   3.803
 7418SOL     OW23152   1.570   3.596   6.226
 7418SOL    HW123153   1.572   3.501   6.257
 7418SOL    HW223154   1.516   3.603   6.142
 7419SOL     OW23155   6.329   4.112   3.777
 7419SOL    HW123156   6.417   4.159   3.788
 7419SOL    HW223157   6.346   4.014   3.764
 7420SOL     OW23158   7.009   0.091   2.036
 7420SOL    HW123159   6.918   0.049   2.043
 7420SOL    HW223160   7.015   0.167   2.101
 7421SOL     OW23161   4.726   3.927   1.745
 7421SOL    HW123162   4.627   3.937   1.730
 7421SOL    HW223163   4.744   3.921   1.844
 7422SOL     OW23164   5.938   2.684   1.769
 7422SOL    HW123165   5.886   2.746   1.828
 7422SOL    HW223166   6.032   2.718   1.761
 7423SOL     OW23167   5.608   1.956   5.413
 7423SOL    HW123168   5.535   1.954   5.346
 7423SOL    HW223169   5.637   2.051   5.429
 7424SOL     OW23170   0.156   0.651   4.949
 7424SOL    HW123171   0.170   0.694   4.860
 7424SOL    HW223172   0.217   0.694   5.016
 7425SOL     OW23173   5.572   6.927   0.802
 7425SOL    HW123174   5.536   6.898   0.713
 7425SOL    HW223175   5.557   0.002   0.814
 7426SOL     OW23176   3.654   2.952   5.809
 7426SOL    HW123177   3.628   3.046   5.830
 7426SOL    HW223178   3.634   2.893   5.887
 7427SOL     OW23179   3.747   1.492   3.604
 7427SOL    HW123180   3.760   1.408   3.550
 7427SOL    HW223181   3.662   1.537   3.576
 7428SOL     OW23182   4.548   6.581   5.542
 7428SOL    HW123183   4.632   6.635   5.538
 7428SOL    HW223184   4.551   6.520   5.621
 7429SOL     OW23185   1.796   0.200   2.694
 7429SOL    HW123186   1.782   0.223   2.598
 7429SOL    HW223187   1.894   0.195   2.713
 7430SOL     OW23188   6.681   5.283   3.071
 7430SOL    HW123189   6.655   5.200   3.120
 7430SOL    HW223190   6.709   5.260   2.978
 7431SOL     OW23191   2.150   2.155   4.993
 7431SOL    HW123192   2.107   2.224   4.935
 7431SOL    HW223193   2.206   2.200   5.063
 7432SOL     OW23194   1.627   0.148   3.245
 7432SOL    HW123195   1.711   0.137   3.192
 7432SOL    HW223196   1.630   0.089   3.325
 7433SOL     OW23197   2.901   6.781   6.838
 7433SOL    HW123198   2.846   6.804   6.758
 7433SOL    HW223199   2.888   6.684   6.860
 7434SOL     OW23200   4.238   5.965   5.415
 7434SOL    HW123201   4.146   5.981   5.453
 7434SOL    HW223202   4.287   5.901   5.474
 7435SOL     OW23203   5.148   6.382   3.128
 7435SOL    HW123204   5.129   6.376   3.030
 7435SOL    HW223205   5.072   6.428   3.174
 7436SOL     OW23206   5.228   3.551   6.077
 7436SOL    HW123207   5.291   3.618   6.037
 7436SOL    HW223208   5.192   3.492   6.005
 7437SOL     OW23209   4.390   6.353   1.319
 7437SOL    HW123210   4.437   6.266   1.330
 7437SOL    HW223211   4.439   6.410   1.254
 7438SOL     OW23212   2.376   0.894   0.030
 7438SOL    HW123213   2.432   0.848   0.099
 7438SOL    HW223214   2.426   0.898   6.967
 7439SOL     OW23215   1.264   4.542   6.430
 7439SOL    HW123216   1.356   4.570   6.402
 7439SOL    HW223217   1.229   4.608   6.496
 7440SOL     OW23218   5.006   2.922   3.912
 7440SOL    HW123219   5.060   2.875   3.842
 7440SOL    HW223220   4.987   2.858   3.987
 7441SOL     OW23221   6.320   6.486   1.811
 7441SOL    HW123222   6.280   6.394   1.815
 7441SOL    HW223223   6.402   6.483   1.754
 7442SOL     OW23224   5.408   0.260   5.585
 7442SOL    HW123225   5.422   0.257   5.486
 7442SOL    HW223226   5.343   0.332   5.607
 7443SOL     OW23227   0.133   6.849   1.998
 7443SOL    HW123228   0.063   6.918   2.017
 7443SOL    HW223229   0.112   6.802   1.913
 7444SOL     OW23230   0.629   0.009   6.245
 7444SOL    HW123231   0.583   6.952   6.283
 7444SOL    HW223232   0.641   0.078   6.316
 7445SOL     OW23233   4.466   6.032   2.001
 7445SOL    HW123234   4.426   6.019   2.092
 7445SOL    HW223235   4.415   6.102   1.952
 7446SOL     OW23236   5.273   3.373   0.032
 7446SOL    HW123237   5.261   3.289   0.086
 7446SOL    HW223238   5.258   3.452   0.091
 7447SOL     OW23239   0.688   4.643   1.303
 7447SOL    HW123240   0.749   4.674   1.376
 7447SOL    HW223241   0.598   4.685   1.315
 7448SOL     OW23242   4.687   5.278   6.216
 7448SOL    HW123243   4.684   5.312   6.122
 7448SOL    HW223244   4.712   5.181   6.215
 7449SOL     OW23245   0.482   4.356   6.800
 7449SOL    HW123246   0.439   4.389   6.715
 7449SOL    HW223247   0.581   4.358   6.790
 7450SOL     OW23248   5.428   1.640   5.653
 7450SOL    HW123249   5.522   1.669   5.634
 7450SOL    HW223250   5.386   1.701   5.720
 7451SOL     OW23251   5.622   4.934   2.316
 7451SOL    HW123252   5.566   4.883   2.382
 7451SOL    HW223253   5.718   4.914   2.334
 7452SOL     OW23254   5.303   6.185   5.014
 7452SOL    HW123255   5.317   6.086   5.013
 7452SOL    HW223256   5.274   6.213   5.106
 7453SOL     OW23257   4.209   5.606   6.318
 7453SOL    HW123258   4.130   5.575   6.265
 7453SOL    HW223259   4.278   5.534   6.320
 7454SOL     OW23260   3.695   2.438   0.644
 7454SOL    HW123261   3.720   2.431   0.547
 7454SOL    HW223262   3.626   2.509   0.656
 7455SOL     OW23263   6.698   2.755   2.674
 7455SOL    HW123264   6.620   2.816   2.686
 7455SOL    HW223265   6.703   2.726   2.578
 7456SOL     OW23266   3.052   2.436   5.563
 7456SOL    HW123267   3.105   2.433   5.648
 7456SOL    HW223268   3.113   2.425   5.485
 7457SOL     OW23269   3.120   0.180   2.814
 7457SOL    HW123270   3.124   0.089   2.855
 7457SOL    HW223271   3.091   0.246   2.882
 7458SOL     OW23272   1.006   6.400   5.360
 7458SOL    HW123273   1.041   6.413   5.453
 7458SOL    HW223274   0.910   6.373   5.364
 7459SOL     OW23275   6.378   1.114   2.875
 7459SOL    HW123276   6.376   1.152   2.967
 7459SOL    HW223277   6.288   1.122   2.833
 7460SOL     OW23278   1.284   0.307   1.257
 7460SOL    HW123279   1.212   0.354   1.308
 7460SOL    HW223280   1.278   0.209   1.273
 7461SOL     OW23281   0.842   5.531   5.885
 7461SOL    HW123282   0.774   5.597   5.918
 7461SOL    HW223283   0.933   5.571   5.891
 7462SOL     OW23284   1.545   5.111   1.209
 7462SOL    HW123285   1.526   5.195   1.261
 7462SOL    HW223286   1.463   5.083   1.160
 7463SOL     OW23287   4.164   4.897   6.937
 7463SOL    HW123288   4.100   4.873   7.011
 7463SOL    HW223289   4.141   4.846   6.855
 7464SOL     OW23290   6.721   6.143   5.457
 7464SOL    HW123291   6.760   6.193   5.534
 7464SOL    HW223292   6.622   6.158   5.454
 7465SOL     OW23293   2.406   5.240   0.403
 7465SOL    HW123294   2.416   5.272   0.497
 7465SOL    HW223295   2.431   5.313   0.340
 7466SOL     OW23296   0.549   6.598   4.401
 7466SOL    HW123297   0.461   6.551   4.400
 7466SOL    HW223298   0.583   6.608   4.307
 7467SOL     OW23299   0.383   3.478   6.051
 7467SOL    HW123300   0.454   3.482   6.121
 7467SOL    HW223301   0.296   3.454   6.094
 7468SOL     OW23302   5.750   3.028   5.708
 7468SOL    HW123303   5.809   2.975   5.647
 7468SOL    HW223304   5.666   2.978   5.726
 7469SOL     OW23305   6.746   2.705   0.571
 7469SOL    HW123306   6.821   2.672   0.513
 7469SOL    HW223307   6.742   2.805   0.565
 7470SOL     OW23308   5.685   3.414   4.183
 7470SOL    HW123309   5.652   3.478   4.114
 7470SOL    HW223310   5.688   3.322   4.144
 7471SOL     OW23311   5.937   5.522   6.513
 7471SOL    HW123312   5.893   5.484   6.594
 7471SOL    HW223313   5.878   5.509   6.433
 7472SOL     OW23314   6.182   6.204   5.526
 7472SOL    HW123315   6.279   6.188   5.548
 7472SOL    HW223316   6.156   6.148   5.447
 7473SOL     OW23317   4.116   6.615   3.737
 7473SOL    HW123318   4.135   6.521   3.766
 7473SOL    HW223319   4.118   6.675   3.817
 7474SOL     OW23320   6.220   1.956   6.027
 7474SOL    HW123321   6.290   1.927   5.961
 7474SOL    HW223322   6.264   2.011   6.099
 7475SOL     OW23323   4.601   2.712   0.930
 7475SOL    HW123324   4.608   2.706   0.831
 7475SOL    HW223325   4.675   2.659   0.972
 7476SOL     OW23326   2.275   1.049   3.110
 7476SOL    HW123327   2.318   0.978   3.165
 7476SOL    HW223328   2.234   1.008   3.029
 7477SOL     OW23329   0.857   3.939   5.484
 7477SOL    HW123330   0.767   3.896   5.480
 7477SOL    HW223331   0.852   4.032   5.449
 7478SOL     OW23332   0.314   1.688   5.121
 7478SOL    HW123333   0.309   1.784   5.094
 7478SOL    HW223334   0.332   1.631   5.041
 7479SOL     OW23335   6.292   3.208   6.825
 7479SOL    HW123336   6.272   3.133   6.763
 7479SOL    HW223337   6.207   3.253   6.852
 7480SOL     OW23338   3.743   4.893   2.109
 7480SOL    HW123339   3.706   4.830   2.040
 7480SOL    HW223340   3.667   4.935   2.159
 7481SOL     OW23341   0.056   4.092   6.723
 7481SOL    HW123342   0.046   4.000   6.759
 7481SOL    HW223343   0.151   4.107   6.696
 7482SOL     OW23344   4.154   2.278   2.467
 7482SOL    HW123345   4.136   2.346   2.396
 7482SOL    HW223346   4.183   2.192   2.424
 7483SOL     OW23347   4.340   2.366   5.873
 7483SOL    HW123348   4.306   2.273   5.862
 7483SOL    HW223349   4.335   2.414   5.785
 7484SOL     OW23350   3.159   6.655   4.671
 7484SOL    HW123351   3.094   6.697   4.607
 7484SOL    HW223352   3.121   6.657   4.763
 7485SOL     OW23353   2.772   6.866   3.981
 7485SOL    HW123354   2.743   6.792   3.921
 7485SOL    HW223355   2.696   6.930   3.994
 7486SOL     OW23356   1.888   6.585   0.320
 7486SOL    HW123357   1.910   6.509   0.259
 7486SOL    HW223358   1.888   6.670   0.268
 7487SOL     OW23359   4.056   6.681   3.480
 7487SOL    HW123360   3.986   6.618   3.446
 7487SOL    HW223361   4.082   6.655   3.573
 7488SOL     OW23362   0.883   5.619   3.718
 7488SOL    HW123363   0.961   5.635   3.778
 7488SOL    HW223364   0.801   5.657   3.759
 7489SOL     OW23365   6.391   3.879   6.639
 7489SOL    HW123366   6.400   3.963   6.693
 7489SOL    HW223367   6.476   3.827   6.646
 7490SOL     OW23368   1.152   1.895   2.525
 7490SOL    HW123369   1.245   1.930   2.516
 7490SOL    HW223370   1.115   1.922   2.614
 7491SOL     OW23371   4.123   3.143   6.926
 7491SOL    HW123372   4.073   3.180   7.004
 7491SOL    HW223373   4.163   3.218   6.873
 7492SOL     OW23374   1.448   0.416   4.514
 7492SOL    HW123375   1.441   0.358   4.433
 7492SOL    HW223376   1.358   0.456   4.534
 7493SOL     OW23377   6.137   3.886   5.256
 7493SOL    HW123378   6.226   3.927   5.237
 7493SOL    HW223379   6.099   3.925   5.340
 7494SOL     OW23380   5.877   1.692   2.975
 7494SOL    HW123381   5.885   1.597   3.006
 7494SOL    HW223382   5.832   1.695   2.886
 7495SOL     OW23383   2.142   3.750   4.786
 7495SOL    HW123384   2.101   3.703   4.864
 7495SOL    HW223385   2.078   3.820   4.753
 7496SOL     OW23386   5.800   4.054   2.472
 7496SOL    HW123387   5.774   3.997   2.394
 7496SOL    HW223388   5.864   4.004   2.530
 7497SOL     OW23389   0.569   6.699   0.613
 7497SOL    HW123390   0.489   6.754   0.640
 7497SOL    HW223391   0.551   6.603   0.631
 7498SOL     OW23392   3.397   0.051   3.044
 7498SOL    HW123393   3.452   0.076   2.965
 7498SOL    HW223394   3.348   0.131   3.077
 7499SOL     OW23395   3.561   2.072   3.713
 7499SOL    HW123396   3.545   2.141   3.783
 7499SOL    HW223397   3.574   1.983   3.756
 7500SOL     OW23398   4.451   6.676   2.980
 7500SOL    HW123399   4.360   6.713   2.999
 7500SOL    HW223400   4.443   6.584   2.941
 7501SOL     OW23401   6.082   2.280   4.888
 7501SOL    HW123402   6.009   2.301   4.823
 7501SOL    HW223403   6.042   2.250   4.974
 7502SOL     OW23404   3.950   0.159   4.234
 7502SOL    HW123405   3.983   0.067   4.216
 7502SOL    HW223406   4.017   0.226   4.200
 7503SOL     OW23407   1.940   6.099   1.395
 7503SOL    HW123408   2.018   6.150   1.360
 7503SOL    HW223409   1.973   6.021   1.449
 7504SOL     OW23410   6.559   6.662   3.537
 7504SOL    HW123411   6.552   6.614   3.623
 7504SOL    HW223412   6.574   6.760   3.554
 7505SOL     OW23413   0.972   6.837   5.594
 7505SOL    HW123414   1.016   6.837   5.503
 7505SOL    HW223415   0.916   6.755   5.604
 7506SOL     OW23416   2.558   1.281   3.326
 7506SOL    HW123417   2.519   1.344   3.393
 7506SOL    HW223418   2.605   1.207   3.373
 7507SOL     OW23419   6.427   3.652   4.815
 7507SOL    HW123420   6.401   3.642   4.910
 7507SOL    HW223421   6.363   3.602   4.757
 7508SOL     OW23422   1.817   5.937   7.015
 7508SOL    HW123423   1.848   5.891   6.932
 7508SOL    HW223424   1.875   5.911   0.068
 7509SOL     OW23425   4.838   3.805   0.326
 7509SOL    HW123426   4.899   3.802   0.405
 7509SOL    HW223427   4.807   3.899   0.311
 7510SOL     OW23428   3.531   4.173   3.669
 7510SOL    HW123429   3.472   4.094   3.650
 7510SOL    HW223430   3.490   4.229   3.740
 7511SOL     OW23431   3.607   5.447   2.943
 7511SOL    HW123432   3.682   5.504   2.909
 7511SOL    HW223433   3.546   5.502   2.999
 7512SOL     OW23434   3.322   6.459   6.162
 7512SOL    HW123435   3.305   6.458   6.064
 7512SOL    HW223436   3.323   6.366   6.198
 7513SOL     OW23437   1.517   2.183   3.027
 7513SOL    HW123438   1.534   2.094   2.984
 7513SOL    HW223439   1.564   2.186   3.115
 7514SOL     OW23440   2.287   4.223   2.996
 7514SOL    HW123441   2.275   4.207   2.898
 7514SOL    HW223442   2.290   4.135   3.044
 7515SOL     OW23443   0.165   4.126   4.653
 7515SOL    HW123444   0.246   4.152   4.602
 7515SOL    HW223445   0.191   4.064   4.728
 7516SOL     OW23446   1.086   5.364   5.318
 7516SOL    HW123447   0.987   5.369   5.324
 7516SOL    HW223448   1.126   5.372   5.409
 7517SOL     OW23449   0.333   2.067   6.970
 7517SOL    HW123450   0.351   2.137   6.900
 7517SOL    HW223451   0.291   2.110   0.027
 7518SOL     OW23452   4.722   2.875   3.920
 7518SOL    HW123453   4.717   2.799   3.984
 7518SOL    HW223454   4.817   2.906   3.912
 7519SOL     OW23455   3.796   6.651   5.275
 7519SOL    HW123456   3.798   6.647   5.175
 7519SOL    HW223457   3.888   6.672   5.309
 7520SOL     OW23458   1.917   2.293   1.675
 7520SOL    HW123459   1.999   2.322   1.626
 7520SOL    HW223460   1.885   2.205   1.638
 7521SOL     OW23461   4.166   1.136   5.041
 7521SOL    HW123462   4.098   1.124   4.968
 7521SOL    HW223463   4.257   1.148   5.000
 7522SOL     OW23464   1.624   6.667   2.997
 7522SOL    HW123465   1.551   6.665   3.066
 7522SOL    HW223466   1.705   6.622   3.033
 7523SOL     OW23467   5.481   1.717   6.469
 7523SOL    HW123468   5.512   1.633   6.425
 7523SOL    HW223469   5.553   1.752   6.529
 7524SOL     OW23470   0.095   2.872   4.593
 7524SOL    HW123471   0.049   2.803   4.648
 7524SOL    HW223472   0.135   2.829   4.511
 7525SOL     OW23473   4.526   6.110   5.977
 7525SOL    HW123474   4.610   6.164   5.991
 7525SOL    HW223475   4.533   6.025   6.029
 7526SOL     OW23476   2.105   3.387   1.763
 7526SOL    HW123477   2.147   3.442   1.835
 7526SOL    HW223478   2.087   3.295   1.798
 7527SOL     OW23479   3.861   5.501   3.564
 7527SOL    HW123480   3.874   5.598   3.582
 7527SOL    HW223481   3.933   5.468   3.503
 7528SOL     OW23482   6.529   2.837   6.325
 7528SOL    HW123483   6.463   2.895   6.371
 7528SOL    HW223484   6.522   2.851   6.226
 7529SOL     OW23485   6.183   2.426   3.986
 7529SOL    HW123486   6.176   2.354   4.055
 7529SOL    HW223487   6.250   2.400   3.917
 7530SOL     OW23488   6.432   1.915   1.993
 7530SOL    HW123489   6.495   1.841   1.970
 7530SOL    HW223490   6.373   1.887   2.069
 7531SOL     OW23491   4.237   2.011   3.452
 7531SOL    HW123492   4.181   2.093   3.448
 7531SOL    HW223493   4.236   1.974   3.545
 7532SOL     OW23494   4.148   5.553   6.597
 7532SOL    HW123495   4.129   5.556   6.498
 7532SOL    HW223496   4.091   5.482   6.639
 7533SOL     OW23497   4.734   3.575   1.782
 7533SOL    HW123498   4.684   3.613   1.704
 7533SOL    HW223499   4.722   3.476   1.784
 7534SOL     OW23500   4.737   6.870   4.159
 7534SOL    HW123501   4.825   6.864   4.207
 7534SOL    HW223502   4.678   6.796   4.190
 7535SOL     OW23503   0.686   5.390   4.098
 7535SOL    HW123504   0.691   5.485   4.130
 7535SOL    HW223505   0.690   5.388   3.998
 7536SOL     OW23506   4.883   5.623   4.025
 7536SOL    HW123507   4.800   5.588   4.070
 7536SOL    HW223508   4.956   5.556   4.036
 7537SOL     OW23509   3.141   6.061   2.796
 7537SOL    HW123510   3.127   6.160   2.803
 7537SOL    HW223511   3.208   6.043   2.724
 7538SOL     OW23512   0.894   3.685   1.444
 7538SOL    HW123513   0.965   3.616   1.439
 7538SOL    HW223514   0.879   3.725   1.354
 7539SOL     OW23515   0.468   5.923   3.603
 7539SOL    HW123516   0.436   6.016   3.620
 7539SOL    HW223517   0.390   5.863   3.585
 7540SOL     OW23518   5.589   4.935   4.136
 7540SOL    HW123519   5.573   4.846   4.093
 7540SOL    HW223520   5.599   5.005   4.066
 7541SOL     OW23521   0.842   4.112   6.992
 7541SOL    HW123522   0.787   4.093   6.911
 7541SOL    HW223523   0.782   4.149   0.041
 7542SOL     OW23524   5.923   5.093   6.272
 7542SOL    HW123525   5.991   5.138   6.329
 7542SOL    HW223526   5.861   5.040   6.329
 7543SOL     OW23527   2.875   0.922   5.644
 7543SOL    HW123528   2.779   0.934   5.619
 7543SOL    HW223529   2.926   1.006   5.623
 7544SOL     OW23530   6.885   2.882   3.298
 7544SOL    HW123531   6.952   2.876   3.224
 7544SOL    HW223532   6.814   2.813   3.284
 7545SOL     OW23533   0.802   5.045   0.138
 7545SOL    HW123534   0.873   5.113   0.159
 7545SOL    HW223535   0.811   4.967   0.200
 7546SOL     OW23536   3.082   3.009   1.606
 7546SOL    HW123537   3.161   2.972   1.558
 7546SOL    HW223538   3.050   2.942   1.673
 7547SOL     OW23539   4.355   0.445   2.067
 7547SOL    HW123540   4.374   0.537   2.103
 7547SOL    HW223541   4.302   0.394   2.134
 7548SOL     OW23542   4.641   2.591   6.365
 7548SOL    HW123543   4.548   2.595   6.402
 7548SOL    HW223544   4.676   2.498   6.374
 7549SOL     OW23545   4.341   2.701   5.304
 7549SOL    HW123546   4.278   2.756   5.360
 7549SOL    HW223547   4.298   2.612   5.284
 7550SOL     OW23548   1.833   3.929   4.194
 7550SOL    HW123549   1.840   3.830   4.180
 7550SOL    HW223550   1.863   3.952   4.286
 7551SOL     OW23551   5.765   2.188   5.487
 7551SOL    HW123552   5.769   2.268   5.547
 7551SOL    HW223553   5.851   2.138   5.492
 7552SOL     OW23554   2.755   6.031   4.837
 7552SOL    HW123555   2.667   6.030   4.790
 7552SOL    HW223556   2.743   6.003   4.932
 7553SOL     OW23557   5.683   6.005   6.123
 7553SOL    HW123558   5.639   5.939   6.061
 7553SOL    HW223559   5.701   5.960   6.211
 7554SOL     OW23560   5.301   1.067   0.914
 7554SOL    HW123561   5.203   1.086   0.925
 7554SOL    HW223562   5.328   0.993   0.975
 7555SOL     OW23563   3.621   5.495   6.066
 7555SOL    HW123564   3.682   5.563   6.026
 7555SOL    HW223565   3.674   5.418   6.100
 7556SOL     OW23566   0.275   0.253   1.006
 7556SOL    HW123567   0.366   0.219   1.029
 7556SOL    HW223568   0.207   0.208   1.063
 7557SOL     OW23569   4.883   0.257   0.429
 7557SOL    HW123570   4.957   0.202   0.466
 7557SOL    HW223571   4.905   0.286   0.336
 7558SOL     OW23572   1.743   2.418   4.137
 7558SOL    HW123573   1.813   2.355   4.102
 7558SOL    HW223574   1.689   2.453   4.061
 7559SOL     OW23575   4.328   2.351   4.754
 7559SOL    HW123576   4.399   2.282   4.763
 7559SOL    HW223577   4.279   2.361   4.841
 7560SOL     OW23578   0.133   0.423   6.226
 7560SOL    HW123579   0.170   0.516   6.226
 7560SOL    HW223580   0.034   0.426   6.238
 7561SOL     OW23581   5.602   2.165   4.939
 7561SOL    HW123582   5.579   2.241   5.000
 7561SOL    HW223583   5.526   2.149   4.876
 7562SOL     OW23584   1.536   4.771   3.853
 7562SOL    HW123585   1.511   4.821   3.770
 7562SOL    HW223586   1.632   4.790   3.876
 7563SOL     OW23587   3.426   5.709   2.406
 7563SOL    HW123588   3.445   5.614   2.382
 7563SOL    HW223589   3.511   5.755   2.432
 7564SOL     OW23590   4.824   1.077   4.146
 7564SOL    HW123591   4.779   1.007   4.201
 7564SOL    HW223592   4.754   1.131   4.098
 7565SOL     OW23593   5.559   3.396   6.286
 7565SOL    HW123594   5.472   3.356   6.258
 7565SOL    HW223595   5.586   3.467   6.221
 7566SOL     OW23596   3.928   4.122   1.469
 7566SOL    HW123597   3.856   4.158   1.529
 7566SOL    HW223598   4.009   4.102   1.524
 7567SOL     OW23599   0.603   0.205   4.677
 7567SOL    HW123600   0.660   0.286   4.663
 7567SOL    HW223601   0.635   0.155   4.758
 7568SOL     OW23602   5.846   5.377   1.064
 7568SOL    HW123603   5.819   5.473   1.076
 7568SOL    HW223604   5.804   5.322   1.136
 7569SOL     OW23605   4.335   3.891   6.557
 7569SOL    HW123606   4.316   3.983   6.591
 7569SOL    HW223607   4.301   3.882   6.463
 7570SOL     OW23608   6.502   3.040   3.096
 7570SOL    HW123609   6.458   2.965   3.046
 7570SOL    HW223610   6.601   3.031   3.089
 7571SOL     OW23611   4.596   2.596   2.522
 7571SOL    HW123612   4.632   2.649   2.599
 7571SOL    HW223613   4.517   2.544   2.552
 7572SOL     OW23614   4.916   5.937   2.471
 7572SOL    HW123615   4.877   5.883   2.397
 7572SOL    HW223616   4.866   6.023   2.480
 7573SOL     OW23617   5.672   6.374   5.825
 7573SOL    HW123618   5.762   6.329   5.832
 7573SOL    HW223619   5.610   6.333   5.892
 7574SOL     OW23620   0.110   1.429   4.297
 7574SOL    HW123621   0.140   1.341   4.332
 7574SOL    HW223622   0.076   1.418   4.204
 7575SOL     OW23623   0.073   6.208   1.548
 7575SOL    HW123624   7.016   6.196   1.607
 7575SOL    HW223625   0.148   6.249   1.601
 7576SOL     OW23626   5.618   2.950   0.685
 7576SOL    HW123627   5.665   3.033   0.714
 7576SOL    HW223628   5.611   2.948   0.586
 7577SOL     OW23629   0.858   0.296   0.800
 7577SOL    HW123630   0.923   0.327   0.870
 7577SOL    HW223631   0.830   0.203   0.820
 7578SOL     OW23632   6.818   6.025   3.528
 7578SOL    HW123633   6.849   6.120   3.529
 7578SOL    HW223634   6.897   5.965   3.538
 7579SOL     OW23635   6.638   1.214   0.150
 7579SOL    HW123636   6.562   1.225   0.213
 7579SOL    HW223637   6.631   1.126   0.104
 7580SOL     OW23638   2.385   4.997   3.330
 7580SOL    HW123639   2.457   5.049   3.376
 7580SOL    HW223640   2.319   4.964   3.398
 7581SOL     OW23641   6.806   1.019   2.196
 7581SOL    HW123642   6.715   1.004   2.235
 7581SOL    HW223643   6.839   0.933   2.156
 7582SOL     OW23644   3.798   1.521   4.308
 7582SOL    HW123645   3.838   1.560   4.391
 7582SOL    HW223646   3.708   1.562   4.292
 7583SOL     OW23647   4.902   3.463   3.535
 7583SOL    HW123648   4.882   3.395   3.465
 7583SOL    HW223649   4.872   3.553   3.503
 7584SOL     OW23650   0.142   0.536   2.832
 7584SOL    HW123651   0.156   0.499   2.740
 7584SOL    HW223652   0.083   0.474   2.885
 7585SOL     OW23653   0.658   2.322   6.507
 7585SOL    HW123654   0.615   2.321   6.597
 7585SOL    HW223655   0.685   2.416   6.484
 7586SOL     OW23656   1.251   1.497   2.935
 7586SOL    HW123657   1.198   1.462   2.858
 7586SOL    HW223658   1.190   1.540   3.001
 7587SOL     OW23659   3.070   1.359   0.474
 7587SOL    HW123660   3.067   1.271   0.521
 7587SOL    HW223661   3.165   1.380   0.449
 7588SOL     OW23662   1.585   2.685   4.525
 7588SOL    HW123663   1.524   2.733   4.588
 7588SOL    HW223664   1.636   2.752   4.471
 7589SOL     OW23665   6.913   1.048   3.237
 7589SOL    HW123666   6.948   1.124   3.182
 7589SOL    HW223667   6.929   0.962   3.188
 7590SOL     OW23668   0.034   1.535   0.070
 7590SOL    HW123669   0.061   1.543   0.166
 7590SOL    HW223670   0.013   1.626   0.034
 7591SOL     OW23671   4.293   3.142   5.540
 7591SOL    HW123672   4.387   3.108   5.544
 7591SOL    HW223673   4.287   3.214   5.471
 7592SOL     OW23674   6.999   6.263   5.153
 7592SOL    HW123675   6.964   6.357   5.143
 7592SOL    HW223676   0.033   6.240   5.074
 7593SOL     OW23677   0.245   1.410   5.934
 7593SOL    HW123678   0.345   1.411   5.941
 7593SOL    HW223679   0.216   1.333   5.878
 7594SOL     OW23680   0.541   4.422   0.776
 7594SOL    HW123681   0.627   4.469   0.757
 7594SOL    HW223682   0.538   4.336   0.724
 7595SOL     OW23683   6.402   2.598   5.884
 7595SOL    HW123684   6.320   2.634   5.841
 7595SOL    HW223685   6.376   2.534   5.957
 7596SOL     OW23686   2.749   0.761   4.907
 7596SOL    HW123687   2.697   0.761   4.821
 7596SOL    HW223688   2.811   0.682   4.908
 7597SOL     OW23689   1.465   4.654   2.092
 7597SOL    HW123690   1.394   4.706   2.042
 7597SOL    HW223691   1.487   4.571   2.041
 7598SOL     OW23692   5.931   1.176   3.280
 7598SOL    HW123693   5.897   1.083   3.261
 7598SOL    HW223694   6.029   1.172   3.302
 7599SOL     OW23695   3.861   3.059   1.063
 7599SOL    HW123696   3.931   3.037   1.131
 7599SOL    HW223697   3.792   3.119   1.104
 7600SOL     OW23698   1.190   1.062   4.405
 7600SOL    HW123699   1.139   1.108   4.478
 7600SOL    HW223700   1.221   0.973   4.438
 7601SOL     OW23701   4.065   5.759   1.754
 7601SOL    HW123702   4.131   5.830   1.778
 7601SOL    HW223703   3.987   5.800   1.707
 7602SOL     OW23704   0.439   1.670   0.638
 7602SOL    HW123705   0.494   1.689   0.719
 7602SOL    HW223706   0.416   1.756   0.593
 7603SOL     OW23707   2.358   0.348   5.342
 7603SOL    HW123708   2.444   0.298   5.355
 7603SOL    HW223709   2.328   0.338   5.247
 7604SOL     OW23710   0.828   2.483   4.792
 7604SOL    HW123711   0.874   2.417   4.851
 7604SOL    HW223712   0.890   2.558   4.770
 7605SOL     OW23713   2.617   0.181   0.091
 7605SOL    HW123714   2.592   0.194   0.187
 7605SOL    HW223715   2.703   0.228   0.073
 7606SOL     OW23716   6.799   1.844   3.614
 7606SOL    HW123717   6.768   1.919   3.556
 7606SOL    HW223718   6.726   1.819   3.678
 7607SOL     OW23719   2.693   5.684   5.728
 7607SOL    HW123720   2.744   5.683   5.814
 7607SOL    HW223721   2.670   5.591   5.702
 7608SOL     OW23722   5.894   2.934   6.005
 7608SOL    HW123723   5.810   2.886   6.031
 7608SOL    HW223724   5.908   3.011   6.066
 7609SOL     OW23725   0.652   1.840   5.047
 7609SOL    HW123726   0.577   1.905   5.033
 7609SOL    HW223727   0.738   1.890   5.058
 7610SOL     OW23728   3.261   4.664   5.580
 7610SOL    HW123729   3.260   4.642   5.482
 7610SOL    HW223730   3.179   4.716   5.604
 7611SOL     OW23731   4.420   3.323   1.210
 7611SOL    HW123732   4.506   3.366   1.183
 7611SOL    HW223733   4.438   3.235   1.253
 7612SOL     OW23734   2.865   1.342   3.190
 7612SOL    HW123735   2.847   1.245   3.207
 7612SOL    HW223736   2.826   1.397   3.264
 7613SOL     OW23737   0.679   1.354   2.661
 7613SOL    HW123738   0.631   1.383   2.744
 7613SOL    HW223739   0.694   1.433   2.602
 7614SOL     OW23740   5.085   3.248   0.358
 7614SOL    HW123741   5.089   3.178   0.286
 7614SOL    HW223742   5.177   3.277   0.382
 7615SOL     OW23743   5.224   3.089   4.780
 7615SOL    HW123744   5.309   3.072   4.732
 7615SOL    HW223745   5.183   3.174   4.747
 7616SOL     OW23746   6.536   6.943   3.546
 7616SOL    HW123747   6.440   6.971   3.538
 7616SOL    HW223748   6.567   6.958   3.640
 7617SOL     OW23749   5.395   5.563   3.376
 7617SOL    HW123750   5.314   5.595   3.327
 7617SOL    HW223751   5.417   5.470   3.347
 7618SOL     OW23752   2.965   3.157   0.566
 7618SOL    HW123753   2.987   3.060   0.554
 7618SOL    HW223754   2.891   3.182   0.503
 7619SOL     OW23755   0.599   2.410   4.237
 7619SOL    HW123756   0.547   2.350   4.177
 7619SOL    HW223757   0.640   2.357   4.311
 7620SOL     OW23758   3.866   3.889   1.373
 7620SOL    HW123759   3.906   3.974   1.406
 7620SOL    HW223760   3.769   3.902   1.354
 7621SOL     OW23761   0.279   5.497   1.077
 7621SOL    HW123762   0.222   5.470   0.999
 7621SOL    HW223763   0.236   5.574   1.124
 7622SOL     OW23764   3.229   3.858   0.888
 7622SOL    HW123765   3.225   3.820   0.795
 7622SOL    HW223766   3.222   3.958   0.883
 7623SOL     OW23767   4.678   5.175   1.221
 7623SOL    HW123768   4.690   5.196   1.124
 7623SOL    HW223769   4.761   5.200   1.271
 7624SOL     OW23770   0.655   2.722   1.977
 7624SOL    HW123771   0.633   2.719   1.880
 7624SOL    HW223772   0.730   2.787   1.993
 7625SOL     OW23773   5.068   1.875   0.463
 7625SOL    HW123774   5.011   1.888   0.543
 7625SOL    HW223775   5.148   1.819   0.487
 7626SOL     OW23776   5.278   0.695   5.113
 7626SOL    HW123777   5.312   0.789   5.117
 7626SOL    HW223778   5.339   0.635   5.165
 7627SOL     OW23779   3.431   2.043   6.560
 7627SOL    HW123780   3.359   2.081   6.503
 7627SOL    HW223781   3.516   2.093   6.545
 7628SOL     OW23782   3.347   3.205   0.448
 7628SOL    HW123783   3.398   3.191   0.533
 7628SOL    HW223784   3.301   3.120   0.423
 7629SOL     OW23785   5.957   3.348   4.255
 7629SOL    HW123786   5.956   3.268   4.195
 7629SOL    HW223787   5.887   3.413   4.224
 7630SOL     OW23788   1.391   0.199   5.473
 7630SOL    HW123789   1.449   0.234   5.400
 7630SOL    HW223790   1.437   0.124   5.520
 7631SOL     OW23791   2.158   6.638   5.379
 7631SOL    HW123792   2.081   6.699   5.394
 7631SOL    HW223793   2.128   6.543   5.395
 7632SOL     OW23794   4.681   5.614   0.349
 7632SOL    HW123795   4.639   5.523   0.349
 7632SOL    HW223796   4.717   5.634   0.440
 7633SOL     OW23797   6.062   1.069   1.069
 7633SOL    HW123798   6.060   1.151   1.012
 7633SOL    HW223799   6.066   1.095   1.165
 7634SOL     OW23800   0.560   1.936   0.032
 7634SOL    HW123801   0.564   1.982   0.120
 7634SOL    HW223802   0.513   1.994   6.989
 7635SOL     OW23803   2.640   4.931   6.356
 7635SOL    HW123804   2.700   4.952   6.434
 7635SOL    HW223805   2.645   4.833   6.336
 7636SOL     OW23806   0.792   3.577   5.094
 7636SOL    HW123807   0.840   3.563   5.007
 7636SOL    HW223808   0.748   3.492   5.122
 7637SOL     OW23809   0.935   6.458   3.968
 7637SOL    HW123810   1.003   6.527   3.993
 7637SOL    HW223811   0.909   6.406   4.049
 7638SOL     OW23812   0.851   5.007   1.650
 7638SOL    HW123813   0.804   5.014   1.738
 7638SOL    HW223814   0.842   5.093   1.600
 7639SOL     OW23815   1.425   1.000   7.006
 7639SOL    HW123816   1.522   0.980   7.021
 7639SOL    HW223817   1.377   0.914   6.988
 7640SOL     OW23818   3.122   1.003   6.370
 7640SOL    HW123819   3.099   1.096   6.399
 7640SOL    HW223820   3.138   1.001   6.272
 7641SOL     OW23821   0.284   3.911   3.303
 7641SOL    HW123822   0.263   3.852   3.225
 7641SOL    HW223823   0.281   4.007   3.274
 7642SOL     OW23824   6.222   0.927   3.607
 7642SOL    HW123825   6.202   0.986   3.685
 7642SOL    HW223826   6.321   0.912   3.602
 7643SOL     OW23827   5.209   2.824   3.126
 7643SOL    HW123828   5.262   2.905   3.153
 7643SOL    HW223829   5.111   2.847   3.126
 7644SOL     OW23830   5.088   3.748   1.281
 7644SOL    HW123831   5.049   3.829   1.325
 7644SOL    HW223832   5.187   3.759   1.272
 7645SOL     OW23833   3.060   3.599   6.195
 7645SOL    HW123834   3.147   3.564   6.229
 7645SOL    HW223835   3.024   3.537   6.125
 7646SOL     OW23836   0.423   2.532   2.885
 7646SOL    HW123837   0.438   2.436   2.907
 7646SOL    HW223838   0.425   2.544   2.786
 7647SOL     OW23839   0.156   3.051   5.134
 7647SOL    HW123840   0.092   2.987   5.091
 7647SOL    HW223841   0.116   3.086   5.219
 7648SOL     OW23842   2.550   1.575   2.141
 7648SOL    HW123843   2.626   1.585   2.206
 7648SOL    HW223844   2.574   1.505   2.074
 7649SOL     OW23845   5.531   0.876   5.492
 7649SOL    HW123846   5.439   0.870   5.531
 7649SOL    HW223847   5.528   0.852   5.395
 7650SOL     OW23848   4.039   2.249   0.849
 7650SOL    HW123849   4.124   2.214   0.888
 7650SOL    HW223850   3.966   2.181   0.861
 7651SOL     OW23851   2.353   4.933   5.498
 7651SOL    HW123852   2.277   4.944   5.433
 7651SOL    HW223853   2.393   5.023   5.517
 7652SOL     OW23854   6.115   1.484   4.060
 7652SOL    HW123855   6.101   1.499   3.962
 7652SOL    HW223856   6.179   1.552   4.095
 7653SOL     OW23857   0.447   1.768   6.740
 7653SOL    HW123858   0.437   1.669   6.731
 7653SOL    HW223859   0.370   1.804   6.793
 7654SOL     OW23860   5.642   2.680   6.337
 7654SOL    HW123861   5.738   2.702   6.327
 7654SOL    HW223862   5.589   2.763   6.353
 7655SOL     OW23863   3.408   0.492   3.313
 7655SOL    HW123864   3.417   0.557   3.236
 7655SOL    HW223865   3.349   0.532   3.383
 7656SOL     OW23866   6.553   3.127   6.841
 7656SOL    HW123867   6.580   3.183   6.763
 7656SOL    HW223868   6.456   3.141   6.860
 7657SOL     OW23869   1.466   3.912   4.757
 7657SOL    HW123870   1.495   4.005   4.732
 7657SOL    HW223871   1.405   3.876   4.686
 7658SOL     OW23872   2.631   1.667   0.841
 7658SOL    HW123873   2.638   1.567   0.847
 7658SOL    HW223874   2.633   1.706   0.933
 7659SOL     OW23875   4.409   3.753   5.467
 7659SOL    HW123876   4.399   3.676   5.404
 7659SOL    HW223877   4.352   3.737   5.548
 7660SOL     OW23878   0.264   5.217   4.609
 7660SOL    HW123879   0.246   5.119   4.619
 7660SOL    HW223880   0.298   5.236   4.517
 7661SOL     OW23881   4.661   2.782   6.047
 7661SOL    HW123882   4.592   2.801   6.117
 7661SOL    HW223883   4.708   2.697   6.069
 7662SOL     OW23884   0.981   1.821   2.292
 7662SOL    HW123885   1.006   1.840   2.387
 7662SOL    HW223886   0.883   1.836   2.280
 7663SOL     OW23887   6.441   5.539   5.505
 7663SOL    HW123888   6.463   5.544   5.602
 7663SOL    HW223889   6.443   5.631   5.465
 7664SOL     OW23890   3.561   2.098   2.519
 7664SOL    HW123891   3.489   2.036   2.551
 7664SOL    HW223892   3.537   2.131   2.428
 7665SOL     OW23893   4.169   1.473   4.666
 7665SOL    HW123894   4.150   1.435   4.575
 7665SOL    HW223895   4.126   1.417   4.736
 7666SOL     OW23896   5.497   5.102   4.350
 7666SOL    HW123897   5.429   5.175   4.343
 7666SOL    HW223898   5.505   5.055   4.262
 7667SOL     OW23899   5.129   6.344   1.637
 7667SOL    HW123900   5.087   6.320   1.724
 7667SOL    HW223901   5.061   6.389   1.578
 7668SOL     OW23902   2.411   4.990   1.153
 7668SOL    HW123903   2.480   5.011   1.222
 7668SOL    HW223904   2.355   4.913   1.185
 7669SOL     OW23905   2.733   6.569   5.581
 7669SOL    HW123906   2.684   6.622   5.511
 7669SOL    HW223907   2.832   6.580   5.567
 7670SOL     OW23908   0.183   6.792   0.394
 7670SOL    HW123909   0.099   6.835   0.426
 7670SOL    HW223910   0.178   6.777   0.296
 7671SOL     OW23911   4.609   0.595   1.286
 7671SOL    HW123912   4.681   0.594   1.355
 7671SOL    HW223913   4.641   0.642   1.204
 7672SOL     OW23914   5.535   4.845   3.111
 7672SOL    HW123915   5.461   4.894   3.158
 7672SOL    HW223916   5.594   4.802   3.179
 7673SOL     OW23917   0.614   5.754   3.812
 7673SOL    HW123918   0.572   5.830   3.763
 7673SOL    HW223919   0.550   5.677   3.817
 7674SOL     OW23920   4.075   6.533   4.585
 7674SOL    HW123921   4.072   6.557   4.682
 7674SOL    HW223922   4.037   6.441   4.572
 7675SOL     OW23923   3.955   0.006   2.660
 7675SOL    HW123924   3.893   0.001   2.582
 7675SOL    HW223925   4.041   6.984   2.637
 7676SOL     OW23926   2.875   3.055   5.416
 7676SOL    HW123927   2.871   3.126   5.486
 7676SOL    HW223928   2.898   3.096   5.327
 7677SOL     OW23929   5.972   4.658   1.656
 7677SOL    HW123930   5.942   4.632   1.748
 7677SOL    HW223931   6.034   4.588   1.620
 7678SOL     OW23932   1.215   1.264   5.494
 7678SOL    HW123933   1.195   1.333   5.563
 7678SOL    HW223934   1.296   1.290   5.442
 7679SOL     OW23935   1.658   5.458   5.450
 7679SOL    HW123936   1.678   5.365   5.482
 7679SOL    HW223937   1.744   5.503   5.426
 7680SOL     OW23938   1.837   0.558   5.080
 7680SOL    HW123939   1.846   0.459   5.096
 7680SOL    HW223940   1.749   0.576   5.035
 7681SOL     OW23941   2.779   3.494   6.542
 7681SOL    HW123942   2.685   3.511   6.571
 7681SOL    HW223943   2.808   3.564   6.478
 7682SOL     OW23944   3.126   1.545   2.797
 7682SOL    HW123945   3.160   1.506   2.711
 7682SOL    HW223946   3.071   1.478   2.845
 7683SOL     OW23947   1.005   0.891   4.616
 7683SOL    HW123948   0.969   0.871   4.525
 7683SOL    HW223949   1.006   0.989   4.631
 7684SOL     OW23950   4.008   2.128   1.422
 7684SOL    HW123951   3.926   2.168   1.382
 7684SOL    HW223952   4.073   2.106   1.350
 7685SOL     OW23953   2.867   0.908   0.206
 7685SOL    HW123954   2.831   0.920   0.114
 7685SOL    HW223955   2.836   0.984   0.264
 7686SOL     OW23956   5.747   0.919   4.109
 7686SOL    HW123957   5.722   0.896   4.203
 7686SOL    HW223958   5.847   0.918   4.100
 7687SOL     OW23959   5.312   5.323   5.015
 7687SOL    HW123960   5.337   5.227   5.024
 7687SOL    HW223961   5.233   5.343   5.075
 7688SOL     OW23962   0.677   4.891   6.574
 7688SOL    HW123963   0.684   4.985   6.540
 7688SOL    HW223964   0.769   4.858   6.598
 7689SOL     OW23965   4.527   0.231   2.039
 7689SOL    HW123966   4.445   0.290   2.038
 7689SOL    HW223967   4.577   0.245   2.124
 7690SOL     OW23968   6.267   5.740   1.124
 7690SOL    HW123969   6.318   5.676   1.066
 7690SOL    HW223970   6.171   5.714   1.126
 7691SOL     OW23971   4.452   4.599   2.774
 7691SOL    HW123972   4.543   4.577   2.810
 7691SOL    HW223973   4.431   4.538   2.698
 7692SOL     OW23974   2.225   6.743   2.336
 7692SOL    HW123975   2.171   6.676   2.385
 7692SOL    HW223976   2.179   6.832   2.338
 7693SOL     OW23977   2.584   1.823   1.200
 7693SOL    HW123978   2.562   1.728   1.179
 7693SOL    HW223979   2.678   1.842   1.174
 7694SOL     OW23980   5.934   1.871   5.032
 7694SOL    HW123981   5.837   1.862   5.010
 7694SOL    HW223982   5.963   1.792   5.086
 7695SOL     OW23983   5.759   0.708   2.672
 7695SOL    HW123984   5.789   0.685   2.580
 7695SOL    HW223985   5.725   0.626   2.718
 7696SOL     OW23986   0.328   2.847   6.532
 7696SOL    HW123987   0.306   2.882   6.623
 7696SOL    HW223988   0.348   2.749   6.538
 7697SOL     OW23989   4.569   6.657   2.545
 7697SOL    HW123990   4.603   6.710   2.623
 7697SOL    HW223991   4.597   6.701   2.460
 7698SOL     OW23992   5.953   1.735   6.866
 7698SOL    HW123993   5.984   1.668   6.799
 7698SOL    HW223994   5.947   1.693   6.956
 7699SOL     OW23995   3.453   5.201   5.376
 7699SOL    HW123996   3.469   5.266   5.451
 7699SOL    HW223997   3.402   5.246   5.303
 7700SOL     OW23998   5.069   4.866   2.516
 7700SOL    HW123999   5.013   4.948   2.504
 7700SOL    HW224000   5.010   4.787   2.533
 7701SOL     OW24001   0.066   2.651   6.055
 7701SOL    HW124002   0.045   2.608   6.143
 7701SOL    HW224003   0.092   2.746   6.070
 7702SOL     OW24004   4.880   0.146   4.897
 7702SOL    HW124005   4.844   0.175   4.986
 7702SOL    HW224006   4.882   0.224   4.835
 7703SOL     OW24007   6.302   6.771   4.867
 7703SOL    HW124008   6.340   6.709   4.935
 7703SOL    HW224009   6.338   6.748   4.777
 7704SOL     OW24010   6.550   1.424   4.395
 7704SOL    HW124011   6.560   1.499   4.460
 7704SOL    HW224012   6.457   1.423   4.359
 7705SOL     OW24013   2.125   5.296   0.480
 7705SOL    HW124014   2.122   5.392   0.452
 7705SOL    HW224015   2.130   5.291   0.580
 7706SOL     OW24016   3.719   2.849   2.268
 7706SOL    HW124017   3.641   2.910   2.283
 7706SOL    HW224018   3.714   2.772   2.331
 7707SOL     OW24019   6.889   5.268   6.849
 7707SOL    HW124020   6.959   5.294   6.915
 7707SOL    HW224021   6.886   5.168   6.841
 7708SOL     OW24022   2.648   0.011   4.644
 7708SOL    HW124023   2.611   6.942   4.654
 7708SOL    HW224024   2.590   0.076   4.694
 7709SOL     OW24025   0.460   5.134   1.760
 7709SOL    HW124026   0.528   5.107   1.829
 7709SOL    HW224027   0.505   5.189   1.689
 7710SOL     OW24028   1.017   3.825   1.014
 7710SOL    HW124029   1.072   3.902   0.980
 7710SOL    HW224030   1.078   3.750   1.041
 7711SOL     OW24031   6.869   5.058   5.213
 7711SOL    HW124032   6.796   4.990   5.218
 7711SOL    HW224033   6.953   5.020   5.250
 7712SOL     OW24034   6.349   4.646   6.122
 7712SOL    HW124035   6.325   4.589   6.200
 7712SOL    HW224036   6.306   4.610   6.039
 7713SOL     OW24037   2.023   5.021   0.307
 7713SOL    HW124038   2.016   4.940   0.250
 7713SOL    HW224039   1.985   5.100   0.258
 7714SOL     OW24040   6.597   0.971   4.779
 7714SOL    HW124041   6.546   0.905   4.835
 7714SOL    HW224042   6.630   1.046   4.837
 7715SOL     OW24043   2.883   2.885   5.666
 7715SOL    HW124044   2.910   2.966   5.717
 7715SOL    HW224045   2.917   2.892   5.572
 7716SOL     OW24046   1.098   5.656   5.673
 7716SOL    HW124047   1.172   5.705   5.625
 7716SOL    HW224048   1.016   5.712   5.673
 7717SOL     OW24049   1.247   1.982   6.744
 7717SOL    HW124050   1.210   2.047   6.810
 7717SOL    HW224051   1.347   1.976   6.755
 7718SOL     OW24052   1.319   3.917   2.611
 7718SOL    HW124053   1.353   3.844   2.552
 7718SOL    HW224054   1.238   3.959   2.571
 7719SOL     OW24055   1.369   3.954   5.006
 7719SOL    HW124056   1.393   3.959   4.909
 7719SOL    HW224057   1.394   4.039   5.051
 7720SOL     OW24058   5.504   1.642   7.003
 7720SOL    HW124059   5.524   1.740   7.007
 7720SOL    HW224060   5.541   1.597   0.061
 7721SOL     OW24061   0.641   0.716   2.288
 7721SOL    HW124062   0.670   0.781   2.359
 7721SOL    HW224063   0.570   0.759   2.232
 7722SOL     OW24064   2.561   5.621   3.288
 7722SOL    HW124065   2.603   5.710   3.305
 7722SOL    HW224066   2.532   5.581   3.375
 7723SOL     OW24067   5.002   4.165   0.552
 7723SOL    HW124068   5.056   4.138   0.472
 7723SOL    HW224069   4.936   4.094   0.572
 7724SOL     OW24070   2.363   4.234   2.033
 7724SOL    HW124071   2.360   4.149   2.085
 7724SOL    HW224072   2.296   4.299   2.071
 7725SOL     OW24073   5.658   2.923   3.424
 7725SOL    HW124074   5.653   3.009   3.475
 7725SOL    HW224075   5.604   2.854   3.472
 7726SOL     OW24076   0.163   2.939   6.352
 7726SOL    HW124077   0.225   2.901   6.421
 7726SOL    HW224078   0.183   3.036   6.340
 7727SOL     OW24079   5.356   2.055   2.256
 7727SOL    HW124080   5.378   2.097   2.168
 7727SOL    HW224081   5.441   2.030   2.304
 7728SOL     OW24082   1.957   3.414   4.751
 7728SOL    HW124083   1.860   3.433   4.736
 7728SOL    HW224084   1.998   3.491   4.801
 7729SOL     OW24085   6.518   2.013   4.140
 7729SOL    HW124086   6.535   2.056   4.229
 7729SOL    HW224087   6.544   1.917   4.144
 7730SOL     OW24088   6.658   4.045   5.004
 7730SOL    HW124089   6.655   4.063   5.102
 7730SOL    HW224090   6.745   4.003   4.980
 7731SOL     OW24091   6.105   0.085   6.896
 7731SOL    HW124092   6.098   0.134   6.809
 7731SOL    HW224093   6.194   0.039   6.900
 7732SOL     OW24094   4.630   0.034   6.741
 7732SOL    HW124095   4.569   7.018   6.673
 7732SOL    HW224096   4.672   6.983   6.795
 7733SOL     OW24097   6.470   5.651   2.125
 7733SOL    HW124098   6.441   5.717   2.056
 7733SOL    HW224099   6.569   5.646   2.128
 7734SOL     OW24100   3.253   3.896   5.201
 7734SOL    HW124101   3.231   3.993   5.198
 7734SOL    HW224102   3.340   3.881   5.153
 7735SOL     OW24103   0.014   5.854   0.702
 7735SOL    HW124104   0.031   5.917   0.626
 7735SOL    HW224105   6.943   5.865   0.735
 7736SOL     OW24106   3.122   3.280   0.793
 7736SOL    HW124107   3.169   3.344   0.733
 7736SOL    HW224108   3.067   3.218   0.737
 7737SOL     OW24109   3.993   4.509   1.364
 7737SOL    HW124110   3.998   4.609   1.357
 7737SOL    HW224111   3.913   4.476   1.314
 7738SOL     OW24112   2.500   6.348   6.922
 7738SOL    HW124113   2.417   6.345   6.978
 7738SOL    HW224114   2.480   6.309   6.832
 7739SOL     OW24115   1.219   1.799   0.560
 7739SOL    HW124116   1.282   1.866   0.520
 7739SOL    HW224117   1.140   1.787   0.500
 7740SOL     OW24118   1.616   0.835   4.675
 7740SOL    HW124119   1.539   0.772   4.667
 7740SOL    HW224120   1.590   0.913   4.733
 7741SOL     OW24121   1.743   4.046   6.294
 7741SOL    HW124122   1.717   4.111   6.223
 7741SOL    HW224123   1.747   4.093   6.382
 7742SOL     OW24124   4.124   1.566   3.769
 7742SOL    HW124125   4.108   1.530   3.677
 7742SOL    HW224126   4.036   1.579   3.815
 7743SOL     OW24127   5.065   1.677   5.774
 7743SOL    HW124128   5.146   1.719   5.814
 7743SOL    HW224129   4.983   1.722   5.809
 7744SOL     OW24130   0.648   6.546   4.145
 7744SOL    HW124131   0.652   6.467   4.083
 7744SOL    HW224132   0.715   6.614   4.116
 7745SOL     OW24133   2.392   7.014   1.127
 7745SOL    HW124134   2.298   0.011   1.152
 7745SOL    HW224135   2.397   6.988   1.031
 7746SOL     OW24136   1.246   6.378   0.936
 7746SOL    HW124137   1.323   6.320   0.963
 7746SOL    HW224138   1.161   6.326   0.945
 7747SOL     OW24139   0.695   6.230   0.644
 7747SOL    HW124140   0.780   6.253   0.596
 7747SOL    HW224141   0.644   6.163   0.591
 7748SOL     OW24142   4.399   2.550   5.634
 7748SOL    HW124143   4.362   2.642   5.619
 7748SOL    HW224144   4.356   2.486   5.571
 7749SOL     OW24145   3.494   3.557   4.038
 7749SOL    HW124146   3.443   3.472   4.022
 7749SOL    HW224147   3.526   3.592   3.950
 7750SOL     OW24148   5.429   4.263   5.256
 7750SOL    HW124149   5.492   4.269   5.333
 7750SOL    HW224150   5.365   4.187   5.271
 7751SOL     OW24151   6.927   0.861   4.920
 7751SOL    HW124152   6.843   0.902   4.954
 7751SOL    HW224153   6.906   0.774   4.875
 7752SOL     OW24154   6.225   5.726   5.299
 7752SOL    HW124155   6.222   5.627   5.311
 7752SOL    HW224156   6.183   5.750   5.211
 7753SOL     OW24157   2.013   0.551   4.259
 7753SOL    HW124158   2.012   0.472   4.320
 7753SOL    HW224159   1.930   0.605   4.273
 7754SOL     OW24160   5.820   0.462   1.127
 7754SOL    HW124161   5.809   0.503   1.218
 7754SOL    HW224162   5.773   0.374   1.124
 7755SOL     OW24163   0.728   5.745   5.427
 7755SOL    HW124164   0.787   5.762   5.506
 7755SOL    HW224165   0.643   5.797   5.437
 7756SOL     OW24166   3.373   5.329   1.876
 7756SOL    HW124167   3.310   5.251   1.886
 7756SOL    HW224168   3.453   5.314   1.935
 7757SOL     OW24169   4.753   6.279   5.676
 7757SOL    HW124170   4.784   6.319   5.590
 7757SOL    HW224171   4.789   6.333   5.752
 7758SOL     OW24172   2.652   2.125   6.168
 7758SOL    HW124173   2.686   2.106   6.076
 7758SOL    HW224174   2.554   2.144   6.164
 7759SOL     OW24175   2.039   0.797   4.175
 7759SOL    HW124176   1.973   0.789   4.100
 7759SOL    HW224177   2.061   0.706   4.210
 7760SOL     OW24178   5.192   3.148   2.147
 7760SOL    HW124179   5.105   3.182   2.185
 7760SOL    HW224180   5.263   3.216   2.163
 7761SOL     OW24181   3.032   0.166   6.866
 7761SOL    HW124182   3.107   0.231   6.849
 7761SOL    HW224183   3.057   0.077   6.828
 7762SOL     OW24184   4.115   1.415   6.777
 7762SOL    HW124185   4.067   1.350   6.719
 7762SOL    HW224186   4.207   1.380   6.797
 7763SOL     OW24187   1.913   1.780   0.611
 7763SOL    HW124188   1.821   1.759   0.577
 7763SOL    HW224189   1.943   1.867   0.572
 7764SOL     OW24190   3.924   2.977   2.371
 7764SOL    HW124191   3.850   2.935   2.318
 7764SOL    HW224192   3.971   3.045   2.314
 7765SOL     OW24193   6.631   2.488   2.768
 7765SOL    HW124194   6.583   2.511   2.852
 7765SOL    HW224195   6.620   2.562   2.701
 7766SOL     OW24196   5.968   2.064   0.029
 7766SOL    HW124197   5.973   2.138   6.985
 7766SOL    HW224198   6.015   1.984   7.018
 7767SOL     OW24199   4.351   6.083   4.047
 7767SOL    HW124200   4.288   6.028   4.102
 7767SOL    HW224201   4.302   6.121   3.969
 7768SOL     OW24202   3.894   4.922   1.874
 7768SOL    HW124203   3.825   4.927   1.947
 7768SOL    HW224204   3.968   4.861   1.903
 7769SOL     OW24205   5.340   2.330   0.809
 7769SOL    HW124206   5.331   2.256   0.876
 7769SOL    HW224207   5.305   2.299   0.721
 7770SOL     OW24208   3.204   4.792   1.471
 7770SOL    HW124209   3.119   4.821   1.514
 7770SOL    HW224210   3.273   4.774   1.541
 7771SOL     OW24211   2.886   2.495   5.902
 7771SOL    HW124212   2.893   2.408   5.951
 7771SOL    HW224213   2.927   2.568   5.956
 7772SOL     OW24214   4.708   0.260   4.111
 7772SOL    HW124215   4.685   0.340   4.056
 7772SOL    HW224216   4.669   0.178   4.069
 7773SOL     OW24217   4.197   4.006   5.962
 7773SOL    HW124218   4.113   3.985   6.012
 7773SOL    HW224219   4.174   4.039   5.871
 7774SOL     OW24220   5.186   1.776   6.120
 7774SOL    HW124221   5.145   1.685   6.124
 7774SOL    HW224222   5.210   1.805   6.213
 7775SOL     OW24223   3.475   6.489   2.114
 7775SOL    HW124224   3.464   6.564   2.049
 7775SOL    HW224225   3.480   6.525   2.207
 7776SOL     OW24226   3.728   3.726   6.307
 7776SOL    HW124227   3.803   3.698   6.367
 7776SOL    HW224228   3.678   3.801   6.350
 7777SOL     OW24229   2.310   0.759   6.511
 7777SOL    HW124230   2.401   0.772   6.472
 7777SOL    HW224231   2.246   0.823   6.470
 7778SOL     OW24232   5.224   0.082   6.911
 7778SOL    HW124233   5.265   0.143   6.844
 7778SOL    HW224234   5.157   0.023   6.866
 7779SOL     OW24235   3.803   2.408   0.368
 7779SOL    HW124236   3.750   2.325   0.348
 7779SOL    HW224237   3.761   2.486   0.323
 7780SOL     OW24238   1.817   5.926   4.909
 7780SOL    HW124239   1.827   6.015   4.953
 7780SOL    HW224240   1.720   5.902   4.903
 7781SOL     OW24241   1.554   3.794   5.154
 7781SOL    HW124242   1.517   3.835   5.070
 7781SOL    HW224243   1.526   3.849   5.232
 7782SOL     OW24244   2.380   4.153   6.214
 7782SOL    HW124245   2.338   4.075   6.260
 7782SOL    HW224246   2.460   4.183   6.265
 7783SOL     OW24247   2.632   5.918   6.850
 7783SOL    HW124248   2.569   5.871   6.789
 7783SOL    HW224249   2.691   5.979   6.796
 7784SOL     OW24250   0.663   3.328   6.940
 7784SOL    HW124251   0.611   3.284   6.867
 7784SOL    HW224252   0.614   3.319   0.003
 7785SOL     OW24253   2.461   6.260   4.348
 7785SOL    HW124254   2.480   6.353   4.317
 7785SOL    HW224255   2.370   6.256   4.389
 7786SOL     OW24256   3.177   4.644   5.275
 7786SOL    HW124257   3.161   4.740   5.252
 7786SOL    HW224258   3.106   4.588   5.232
 7787SOL     OW24259   2.241   3.131   5.331
 7787SOL    HW124260   2.144   3.131   5.304
 7787SOL    HW224261   2.293   3.075   5.266
 7788SOL     OW24262   0.398   1.700   1.052
 7788SOL    HW124263   0.473   1.703   0.986
 7788SOL    HW224264   0.396   1.786   1.103
 7789SOL     OW24265   2.811   0.996   1.266
 7789SOL    HW124266   2.873   0.980   1.343
 7789SOL    HW224267   2.716   0.985   1.297
 7790SOL     OW24268   5.446   3.374   2.916
 7790SOL    HW124269   5.461   3.280   2.886
 7790SOL    HW224270   5.403   3.374   3.006
 7791SOL     OW24271   2.393   4.744   4.276
 7791SOL    HW124272   2.431   4.666   4.225
 7791SOL    HW224273   2.468   4.792   4.322
 7792SOL     OW24274   2.649   5.839   6.078
 7792SOL    HW124275   2.728   5.866   6.133
 7792SOL    HW224276   2.680   5.782   6.002
 7793SOL     OW24277   1.205   0.962   6.074
 7793SOL    HW124278   1.155   0.906   6.140
 7793SOL    HW224279   1.146   0.985   5.997
 7794SOL     OW24280   5.333   5.344   4.358
 7794SOL    HW124281   5.346   5.421   4.296
 7794SOL    HW224282   5.266   5.368   4.428
 7795SOL     OW24283   1.969   4.395   5.314
 7795SOL    HW124284   2.002   4.459   5.245
 7795SOL    HW224285   1.988   4.430   5.405
 7796SOL     OW24286   3.703   4.121   3.148
 7796SOL    HW124287   3.656   4.159   3.228
 7796SOL    HW224288   3.782   4.068   3.178
 7797SOL     OW24289   6.944   6.960   3.053
 7797SOL    HW124290   6.970   6.877   3.003
 7797SOL    HW224291   6.849   6.952   3.083
 7798SOL     OW24292   3.372   5.855   1.016
 7798SOL    HW124293   3.342   5.892   0.928
 7798SOL    HW224294   3.294   5.849   1.078
 7799SOL     OW24295   0.238   4.983   1.132
 7799SOL    HW124296   0.259   5.065   1.184
 7799SOL    HW224297   0.161   5.001   1.070
 7800SOL     OW24298   0.105   5.407   2.066
 7800SOL    HW124299   0.201   5.426   2.086
 7800SOL    HW224300   0.096   5.312   2.036
 7801SOL     OW24301   2.692   2.003   0.012
 7801SOL    HW124302   2.759   1.932   7.015
 7801SOL    HW224303   2.730   2.092   7.011
 7802SOL     OW24304   5.107   2.649   1.680
 7802SOL    HW124305   5.121   2.748   1.684
 7802SOL    HW224306   5.149   2.612   1.598
 7803SOL     OW24307   3.869   4.472   5.694
 7803SOL    HW124308   3.837   4.405   5.627
 7803SOL    HW224309   3.802   4.480   5.768
 7804SOL     OW24310   5.102   1.775   5.536
 7804SOL    HW124311   5.084   1.722   5.618
 7804SOL    HW224312   5.164   1.724   5.476
 7805SOL     OW24313   5.333   2.692   1.950
 7805SOL    HW124314   5.370   2.735   2.033
 7805SOL    HW224315   5.405   2.637   1.907
 7806SOL     OW24316   5.683   2.746   6.059
 7806SOL    HW124317   5.636   2.833   6.074
 7806SOL    HW224318   5.657   2.681   6.130
 7807SOL     OW24319   6.999   3.894   6.058
 7807SOL    HW124320   7.007   3.994   6.055
 7807SOL    HW224321   6.920   3.865   6.005
 7808SOL     OW24322   0.849   0.796   4.822
 7808SOL    HW124323   0.903   0.812   4.740
 7808SOL    HW224324   0.752   0.787   4.798
 7809SOL     OW24325   2.563   5.366   4.929
 7809SOL    HW124326   2.602   5.362   5.021
 7809SOL    HW224327   2.615   5.305   4.868
 7810SOL     OW24328   2.803   0.519   5.237
 7810SOL    HW124329   2.867   0.512   5.313
 7810SOL    HW224330   2.743   0.598   5.252
 7811SOL     OW24331   5.426   4.593   3.651
 7811SOL    HW124332   5.445   4.677   3.702
 7811SOL    HW224333   5.345   4.549   3.691
 7812SOL     OW24334   1.943   1.173   4.163
 7812SOL    HW124335   1.928   1.101   4.231
 7812SOL    HW224336   1.889   1.153   4.082
 7813SOL     OW24337   6.275   2.967   6.694
 7813SOL    HW124338   6.234   2.877   6.682
 7813SOL    HW224339   6.349   2.961   6.762
 7814SOL     OW24340   6.944   3.441   3.751
 7814SOL    HW124341   6.957   3.482   3.842
 7814SOL    HW224342   6.868   3.376   3.755
 7815SOL     OW24343   6.377   1.570   6.329
 7815SOL    HW124344   6.443   1.623   6.381
 7815SOL    HW224345   6.318   1.632   6.277
 7816SOL     OW24346   0.482   3.716   5.794
 7816SOL    HW124347   0.457   3.662   5.875
 7816SOL    HW224348   0.488   3.813   5.819
 7817SOL     OW24349   5.355   4.125   4.528
 7817SOL    HW124350   5.417   4.116   4.606
 7817SOL    HW224351   5.306   4.212   4.535
 7818SOL     OW24352   5.879   6.245   1.827
 7818SOL    HW124353   5.930   6.172   1.873
 7818SOL    HW224354   5.863   6.220   1.732
 7819SOL     OW24355   6.786   2.743   1.392
 7819SOL    HW124356   6.853   2.803   1.437
 7819SOL    HW224357   6.834   2.680   1.331
 7820SOL     OW24358   1.586   1.391   6.513
 7820SOL    HW124359   1.596   1.469   6.451
 7820SOL    HW224360   1.491   1.384   6.543
 7821SOL     OW24361   3.541   5.427   1.290
 7821SOL    HW124362   3.567   5.391   1.380
 7821SOL    HW224363   3.578   5.368   1.218
 7822SOL     OW24364   1.130   5.584   5.166
 7822SOL    HW124365   1.130   5.490   5.200
 7822SOL    HW224366   1.050   5.632   5.201
 7823SOL     OW24367   1.966   4.139   5.438
 7823SOL    HW124368   1.966   4.199   5.358
 7823SOL    HW224369   2.050   4.085   5.440
 7824SOL     OW24370   0.537   2.794   5.445
 7824SOL    HW124371   0.440   2.790   5.425
 7824SOL    HW224372   0.552   2.782   5.543
 7825SOL     OW24373   2.513   1.628   6.715
 7825SOL    HW124374   2.564   1.713   6.702
 7825SOL    HW224375   2.416   1.650   6.731
 7826SOL     OW24376   6.899   2.386   6.750
 7826SOL    HW124377   6.936   2.302   6.790
 7826SOL    HW224378   6.835   2.428   6.814
 7827SOL     OW24379   0.399   6.202   3.718
 7827SOL    HW124380   0.348   6.210   3.803
 7827SOL    HW224381   0.448   6.288   3.700
 7828SOL     OW24382   0.324   4.041   6.568
 7828SOL    HW124383   0.389   3.997   6.631
 7828SOL    HW224384   0.353   4.135   6.550
 7829SOL     OW24385   3.065   2.669   1.570
 7829SOL    HW124386   2.966   2.680   1.562
 7829SOL    HW224387   3.107   2.679   1.479
 7830SOL     OW24388   2.814   4.881   4.318
 7830SOL    HW124389   2.913   4.892   4.327
 7830SOL    HW224390   2.794   4.827   4.236
 7831SOL     OW24391   2.049   2.004   0.529
 7831SOL    HW124392   2.140   1.983   0.494
 7831SOL    HW224393   2.026   2.099   0.507
 7832SOL     OW24394   5.574   0.492   4.682
 7832SOL    HW124395   5.553   0.589   4.695
 7832SOL    HW224396   5.644   0.482   4.612
 7833SOL     OW24397   2.107   0.504   4.010
 7833SOL    HW124398   2.113   0.528   4.106
 7833SOL    HW224399   2.122   0.585   3.953
 7834SOL     OW24400   6.375   3.034   4.955
 7834SOL    HW124401   6.465   3.056   4.916
 7834SOL    HW224402   6.309   3.102   4.925
 7835SOL     OW24403   4.400   1.900   4.859
 7835SOL    HW124404   4.429   1.981   4.809
 7835SOL    HW224405   4.419   1.818   4.805
 7836SOL     OW24406   3.571   4.266   5.400
 7836SOL    HW124407   3.588   4.235   5.307
 7836SOL    HW224408   3.599   4.362   5.409
 7837SOL     OW24409   5.779   6.339   6.575
 7837SOL    HW124410   5.715   6.416   6.564
 7837SOL    HW224411   5.815   6.340   6.668
 7838SOL     OW24412   5.479   5.484   1.095
 7838SOL    HW124413   5.490   5.532   1.008
 7838SOL    HW224414   5.490   5.548   1.171
 7839SOL     OW24415   6.103   3.829   4.611
 7839SOL    HW124416   6.113   3.761   4.538
 7839SOL    HW224417   6.023   3.805   4.667
 7840SOL     OW24418   2.137   3.220   3.587
 7840SOL    HW124419   2.205   3.280   3.630
 7840SOL    HW224420   2.148   3.127   3.623
 7841SOL     OW24421   5.086   2.356   5.951
 7841SOL    HW124422   5.081   2.295   6.030
 7841SOL    HW224423   5.020   2.327   5.882
 7842SOL     OW24424   1.887   1.456   2.326
 7842SOL    HW124425   1.929   1.419   2.409
 7842SOL    HW224426   1.788   1.461   2.338
 7843SOL     OW24427   0.199   6.667   3.220
 7843SOL    HW124428   0.169   6.743   3.277
 7843SOL    HW224429   0.143   6.663   3.137
 7844SOL     OW24430   3.584   0.803   2.799
 7844SOL    HW124431   3.517   0.742   2.840
 7844SOL    HW224432   3.588   0.788   2.700
 7845SOL     OW24433   5.848   1.833   1.575
 7845SOL    HW124434   5.890   1.896   1.641
 7845SOL    HW224435   5.750   1.852   1.569
 7846SOL     OW24436   0.655   2.899   0.397
 7846SOL    HW124437   0.747   2.923   0.430
 7846SOL    HW224438   0.613   2.834   0.460
 7847SOL     OW24439   5.539   2.463   4.584
 7847SOL    HW124440   5.511   2.500   4.673
 7847SOL    HW224441   5.478   2.388   4.559
 7848SOL     OW24442   2.963   4.691   0.800
 7848SOL    HW124443   2.978   4.765   0.734
 7848SOL    HW224444   3.049   4.670   0.846
 7849SOL     OW24445   4.602   3.939   6.064
 7849SOL    HW124446   4.546   4.014   6.029
 7849SOL    HW224447   4.625   3.956   6.160
 7850SOL     OW24448   6.593   1.637   3.451
 7850SOL    HW124449   6.615   1.629   3.354
 7850SOL    HW224450   6.534   1.717   3.465
 7851SOL     OW24451   0.710   4.505   2.056
 7851SOL    HW124452   0.702   4.418   2.007
 7851SOL    HW224453   0.772   4.493   2.134
 7852SOL     OW24454   2.027   2.144   6.923
 7852SOL    HW124455   2.063   2.055   6.952
 7852SOL    HW224456   2.059   2.214   6.986
 7853SOL     OW24457   4.138   2.742   1.728
 7853SOL    HW124458   4.149   2.774   1.822
 7853SOL    HW224459   4.220   2.765   1.675
 7854SOL     OW24460   5.295   2.401   6.121
 7854SOL    HW124461   5.235   2.418   6.042
 7854SOL    HW224462   5.387   2.432   6.100
 7855SOL     OW24463   5.471   6.997   4.483
 7855SOL    HW124464   5.525   6.920   4.447
 7855SOL    HW224465   5.450   0.037   4.409
 7856SOL     OW24466   1.946   5.698   4.895
 7856SOL    HW124467   1.878   5.648   4.843
 7856SOL    HW224468   1.915   5.792   4.909
 7857SOL     OW24469   4.979   3.685   0.560
 7857SOL    HW124470   5.076   3.711   0.567
 7857SOL    HW224471   4.931   3.713   0.643
 7858SOL     OW24472   0.639   5.351   5.849
 7858SOL    HW124473   0.646   5.277   5.781
 7858SOL    HW224474   0.725   5.403   5.850
 7859SOL     OW24475   4.923   2.613   6.998
 7859SOL    HW124476   4.895   2.624   0.071
 7859SOL    HW224477   4.917   2.701   6.952
 7860SOL     OW24478   2.627   0.798   4.438
 7860SOL    HW124479   2.575   0.714   4.454
 7860SOL    HW224480   2.581   0.852   4.367
 7861SOL     OW24481   2.569   6.792   1.102
 7861SOL    HW124482   2.629   6.788   1.022
 7861SOL    HW224483   2.537   6.886   1.115
 7862SOL     OW24484   2.769   6.304   0.993
 7862SOL    HW124485   2.692   6.314   1.056
 7862SOL    HW224486   2.742   6.244   0.918
 7863SOL     OW24487   6.570   4.235   3.798
 7863SOL    HW124488   6.625   4.153   3.813
 7863SOL    HW224489   6.585   4.267   3.704
 7864SOL     OW24490   2.804   6.687   5.178
 7864SOL    HW124491   2.796   6.738   5.092
 7864SOL    HW224492   2.729   6.621   5.184
 7865SOL     OW24493   6.109   5.833   3.908
 7865SOL    HW124494   6.050   5.759   3.874
 7865SOL    HW224495   6.185   5.846   3.845
 7866SOL     OW24496   1.126   0.321   6.533
 7866SOL    HW124497   1.189   0.319   6.455
 7866SOL    HW224498   1.049   0.260   6.516
 7867SOL     OW24499   5.549   6.587   3.771
 7867SOL    HW124500   5.521   6.496   3.740
 7867SOL    HW224501   5.617   6.624   3.707
 7868SOL     OW24502   3.521   6.856   1.017
 7868SOL    HW124503   3.511   6.946   1.059
 7868SOL    HW224504   3.582   6.799   1.072
 7869SOL     OW24505   5.273   3.964   6.086
 7869SOL    HW124506   5.348   3.927   6.031
 7869SOL    HW224507   5.307   3.994   6.175
 7870SOL     OW24508   5.011   6.027   5.075
 7870SOL    HW124509   5.045   5.997   4.986
 7870SOL    HW224510   4.914   6.002   5.084
 7871SOL     OW24511   5.112   1.610   1.669
 7871SOL    HW124512   5.114   1.568   1.759
 7871SOL    HW224513   5.019   1.607   1.632
 7872SOL     OW24514   2.012   6.590   2.483
 7872SOL    HW124515   1.941   6.564   2.418
 7872SOL    HW224516   2.048   6.509   2.528
 7873SOL     OW24517   6.435   1.275   0.335
 7873SOL    HW124518   6.453   1.226   0.420
 7873SOL    HW224519   6.336   1.287   0.324
 7874SOL     OW24520   5.251   2.589   0.752
 7874SOL    HW124521   5.231   2.583   0.655
 7874SOL    HW224522   5.312   2.514   0.779
 7875SOL     OW24523   4.651   4.243   6.319
 7875SOL    HW124524   4.693   4.248   6.409
 7875SOL    HW224525   4.722   4.231   6.249
 7876SOL     OW24526   0.690   0.156   2.188
 7876SOL    HW124527   0.699   0.134   2.285
 7876SOL    HW224528   0.625   0.093   2.145
 7877SOL     OW24529   6.938   1.704   3.214
 7877SOL    HW124530   6.993   1.691   3.131
 7877SOL    HW224531   6.884   1.622   3.232
 7878SOL     OW24532   4.731   4.953   3.423
 7878SOL    HW124533   4.665   5.009   3.371
 7878SOL    HW224534   4.794   5.013   3.472
 7879SOL     OW24535   2.574   4.747   3.274
 7879SOL    HW124536   2.629   4.783   3.198
 7879SOL    HW224537   2.491   4.802   3.284
 7880SOL     OW24538   1.449   3.745   2.035
 7880SOL    HW124539   1.454   3.767   1.937
 7880SOL    HW224540   1.492   3.817   2.088
 7881SOL     OW24541   5.006   3.695   3.832
 7881SOL    HW124542   4.947   3.764   3.875
 7881SOL    HW224543   4.986   3.605   3.871
 7882SOL     OW24544   1.849   3.351   1.129
 7882SOL    HW124545   1.938   3.393   1.109
 7882SOL    HW224546   1.777   3.406   1.088
 7883SOL     OW24547   0.819   1.094   5.279
 7883SOL    HW124548   0.828   1.124   5.184
 7883SOL    HW224549   0.756   1.016   5.284
 7884SOL     OW24550   0.392   3.059   4.570
 7884SOL    HW124551   0.398   3.127   4.644
 7884SOL    HW224552   0.305   3.070   4.522
 7885SOL     OW24553   5.959   5.847   0.081
 7885SOL    HW124554   5.999   5.882   7.020
 7885SOL    HW224555   5.935   5.751   0.070
 7886SOL     OW24556   4.668   5.267   6.966
 7886SOL    HW124557   4.654   5.319   6.882
 7886SOL    HW224558   4.759   5.226   6.965
 7887SOL     OW24559   4.974   1.863   0.056
 7887SOL    HW124560   4.908   1.797   0.091
 7887SOL    HW224561   4.988   1.848   6.981
 7888SOL     OW24562   4.565   1.003   3.919
 7888SOL    HW124563   4.537   0.943   3.994
 7888SOL    HW224564   4.577   1.096   3.955
 7889SOL     OW24565   0.311   6.528   2.150
 7889SOL    HW124566   0.351   6.569   2.069
 7889SOL    HW224567   0.362   6.556   2.232
 7890SOL     OW24568   1.515   3.717   2.536
 7890SOL    HW124569   1.544   3.758   2.623
 7890SOL    HW224570   1.516   3.617   2.545
 7891SOL     OW24571   2.214   4.582   2.302
 7891SOL    HW124572   2.291   4.569   2.240
 7891SOL    HW224573   2.236   4.656   2.366
 7892SOL     OW24574   2.113   2.021   6.107
 7892SOL    HW124575   2.063   1.940   6.139
 7892SOL    HW224576   2.143   2.006   6.013
 7893SOL     OW24577   6.158   6.610   1.217
 7893SOL    HW124578   6.249   6.636   1.248
 7893SOL    HW224579   6.108   6.566   1.292
 7894SOL     OW24580   2.609   6.804   1.431
 7894SOL    HW124581   2.630   6.712   1.398
 7894SOL    HW224582   2.652   6.819   1.520
 7895SOL     OW24583   6.978   1.191   4.584
 7895SOL    HW124584   0.029   1.180   4.518
 7895SOL    HW224585   6.911   1.257   4.550
 7896SOL     OW24586   4.953   3.473   5.482
 7896SOL    HW124587   4.957   3.526   5.567
 7896SOL    HW224588   4.858   3.466   5.451
 7897SOL     OW24589   2.792   2.958   6.377
 7897SOL    HW124590   2.714   2.897   6.390
 7897SOL    HW224591   2.778   3.042   6.429
 7898SOL     OW24592   4.087   2.238   3.389
 7898SOL    HW124593   4.004   2.209   3.437
 7898SOL    HW224594   4.067   2.249   3.292
 7899SOL     OW24595   5.399   2.233   2.967
 7899SOL    HW124596   5.314   2.183   2.947
 7899SOL    HW224597   5.394   2.325   2.928
 7900SOL     OW24598   1.825   6.079   1.087
 7900SOL    HW124599   1.813   6.109   1.182
 7900SOL    HW224600   1.746   6.105   1.033
 7901SOL     OW24601   6.115   6.520   6.440
 7901SOL    HW124602   6.133   6.429   6.478
 7901SOL    HW224603   6.164   6.589   6.493
 7902SOL     OW24604   4.243   3.790   6.949
 7902SOL    HW124605   4.200   3.722   7.009
 7902SOL    HW224606   4.336   3.762   6.927
 7903SOL     OW24607   6.376   1.843   0.116
 7903SOL    HW124608   6.390   1.753   0.158
 7903SOL    HW224609   6.319   1.899   0.175
 7904SOL     OW24610   6.943   1.298   2.261
 7904SOL    HW124611   6.951   1.250   2.349
 7904SOL    HW224612   6.927   1.231   2.188
 7905SOL     OW24613   3.932   0.733   1.151
 7905SOL    HW124614   3.937   0.739   1.250
 7905SOL    HW224615   3.909   0.822   1.112
 7906SOL     OW24616   5.965   6.010   6.586
 7906SOL    HW124617   5.877   6.048   6.558
 7906SOL    HW224618   5.990   5.933   6.527
 7907SOL     OW24619   0.028   2.719   2.403
 7907SOL    HW124620   0.126   2.736   2.389
 7907SOL    HW224621   7.010   2.798   2.448
 7908SOL     OW24622   6.658   2.239   4.063
 7908SOL    HW124623   6.665   2.258   3.965
 7908SOL    HW224624   6.638   2.142   4.077
 7909SOL     OW24625   4.869   4.642   4.828
 7909SOL    HW124626   4.942   4.574   4.837
 7909SOL    HW224627   4.787   4.598   4.792
 7910SOL     OW24628   5.338   3.090   5.721
 7910SOL    HW124629   5.240   3.084   5.699
 7910SOL    HW224630   5.378   2.999   5.719
 7911SOL     OW24631   6.294   4.557   0.234
 7911SOL    HW124632   6.336   4.468   0.214
 7911SOL    HW224633   6.228   4.547   0.308
 7912SOL     OW24634   6.093   4.759   6.175
 7912SOL    HW124635   6.178   4.756   6.228
 7912SOL    HW224636   6.084   4.848   6.132
 7913SOL     OW24637   0.088   5.379   6.358
 7913SOL    HW124638   0.147   5.303   6.332
 7913SOL    HW224639   7.018   5.346   6.371
 7914SOL     OW24640   5.798   4.122   0.931
 7914SOL    HW124641   5.862   4.073   0.991
 7914SOL    HW224642   5.738   4.056   0.886
 7915SOL     OW24643   3.430   1.718   3.311
 7915SOL    HW124644   3.388   1.778   3.243
 7915SOL    HW224645   3.520   1.689   3.279
 7916SOL     OW24646   5.151   3.805   5.310
 7916SOL    HW124647   5.127   3.707   5.312
 7916SOL    HW224648   5.092   3.855   5.373
 7917SOL     OW24649   3.454   3.904   4.052
 7917SOL    HW124650   3.435   3.896   3.954
 7917SOL    HW224651   3.394   3.974   4.091
 7918SOL     OW24652   5.807   1.755   2.675
 7918SOL    HW124653   5.883   1.745   2.612
 7918SOL    HW224654   5.727   1.707   2.639
 7919SOL     OW24655   5.448   4.862   2.004
 7919SOL    HW124656   5.463   4.779   1.950
 7919SOL    HW224657   5.521   4.872   2.072
 7920SOL     OW24658   0.516   4.956   1.309
 7920SOL    HW124659   0.485   4.972   1.402
 7920SOL    HW224660   0.452   4.895   1.262
 7921SOL     OW24661   2.203   0.258   1.389
 7921SOL    HW124662   2.227   0.198   1.313
 7921SOL    HW224663   2.221   0.353   1.363
 7922SOL     OW24664   0.938   5.419   6.596
 7922SOL    HW124665   1.033   5.441   6.617
 7922SOL    HW224666   0.898   5.369   6.673
 7923SOL     OW24667   1.406   1.386   3.740
 7923SOL    HW124668   1.499   1.412   3.715
 7923SOL    HW224669   1.397   1.385   3.839
 7924SOL     OW24670   3.022   0.006   3.968
 7924SOL    HW124671   3.005   0.042   4.060
 7924SOL    HW224672   2.950   6.964   3.944
 7925SOL     OW24673   6.304   1.194   5.892
 7925SOL    HW124674   6.257   1.214   5.978
 7925SOL    HW224675   6.263   1.112   5.850
 7926SOL     OW24676   3.780   0.353   1.727
 7926SOL    HW124677   3.848   0.424   1.710
 7926SOL    HW224678   3.827   0.268   1.752
 7927SOL     OW24679   4.679   5.332   4.348
 7927SOL    HW124680   4.621   5.251   4.345
 7927SOL    HW224681   4.682   5.375   4.258
 7928SOL     OW24682   1.545   5.602   1.864
 7928SOL    HW124683   1.578   5.646   1.780
 7928SOL    HW224684   1.598   5.636   1.942
 7929SOL     OW24685   3.732   3.883   4.011
 7929SOL    HW124686   3.751   3.787   3.987
 7929SOL    HW224687   3.654   3.887   4.073
 7930SOL     OW24688   5.184   5.738   3.707
 7930SOL    HW124689   5.088   5.733   3.734
 7930SOL    HW224690   5.193   5.792   3.623
 7931SOL     OW24691   2.443   1.628   0.395
 7931SOL    HW124692   2.447   1.529   0.380
 7931SOL    HW224693   2.364   1.650   0.452
 7932SOL     OW24694   2.398   0.424   0.653
 7932SOL    HW124695   2.379   0.406   0.556
 7932SOL    HW224696   2.428   0.340   0.697
 7933SOL     OW24697   1.271   1.020   6.726
 7933SOL    HW124698   1.250   1.067   6.640
 7933SOL    HW224699   1.367   0.992   6.726
 7934SOL     OW24700   2.492   3.529   6.337
 7934SOL    HW124701   2.510   3.546   6.434
 7934SOL    HW224702   2.573   3.554   6.284
 7935SOL     OW24703   4.271   6.517   1.978
 7935SOL    HW124704   4.242   6.524   1.883
 7935SOL    HW224705   4.362   6.475   1.982
 7936SOL     OW24706   4.395   5.819   3.067
 7936SOL    HW124707   4.406   5.914   3.095
 7936SOL    HW224708   4.477   5.789   3.018
 7937SOL     OW24709   6.305   6.476   5.957
 7937SOL    HW124710   6.369   6.409   5.995
 7937SOL    HW224711   6.324   6.489   5.860
 7938SOL     OW24712   4.944   5.062   4.790
 7938SOL    HW124713   4.909   4.995   4.725
 7938SOL    HW224714   5.018   5.021   4.844
 7939SOL     OW24715   1.354   0.850   5.605
 7939SOL    HW124716   1.450   0.875   5.623
 7939SOL    HW224717   1.296   0.887   5.678
 7940SOL     OW24718   2.000   6.080   0.891
 7940SOL    HW124719   1.934   6.076   0.966
 7940SOL    HW224720   1.950   6.079   0.803
 7941SOL     OW24721   0.187   0.540   1.201
 7941SOL    HW124722   0.206   0.629   1.243
 7941SOL    HW224723   0.145   0.480   1.269
 7942SOL     OW24724   0.112   0.381   1.682
 7942SOL    HW124725   0.143   0.336   1.599
 7942SOL    HW224726   0.100   0.479   1.665
 7943SOL     OW24727   5.341   1.458   1.518
 7943SOL    HW124728   5.356   1.366   1.554
 7943SOL    HW224729   5.260   1.498   1.562
 7944SOL     OW24730   0.777   4.614   1.739
 7944SOL    HW124731   0.849   4.593   1.672
 7944SOL    HW224732   0.807   4.691   1.796
 7945SOL     OW24733   5.512   6.747   2.513
 7945SOL    HW124734   5.457   6.757   2.430
 7945SOL    HW224735   5.583   6.817   2.514
 7946SOL     OW24736   1.533   2.044   6.128
 7946SOL    HW124737   1.532   2.138   6.092
 7946SOL    HW224738   1.464   2.035   6.200
 7947SOL     OW24739   4.110   3.422   6.246
 7947SOL    HW124740   4.117   3.325   6.221
 7947SOL    HW224741   4.118   3.478   6.163
 7948SOL     OW24742   0.089   6.565   0.683
 7948SOL    HW124743   0.126   6.472   0.673
 7948SOL    HW224744   0.084   6.608   0.593
 7949SOL     OW24745   5.499   4.308   3.658
 7949SOL    HW124746   5.416   4.310   3.715
 7949SOL    HW224747   5.498   4.387   3.595
 7950SOL     OW24748   3.836   5.342   4.412
 7950SOL    HW124749   3.738   5.361   4.401
 7950SOL    HW224750   3.853   5.306   4.504
 7951SOL     OW24751   3.456   3.452   0.888
 7951SOL    HW124752   3.408   3.395   0.955
 7951SOL    HW224753   3.544   3.481   0.926
 7952SOL     OW24754   5.592   3.113   1.091
 7952SOL    HW124755   5.613   3.199   1.138
 7952SOL    HW224756   5.674   3.080   1.045
 7953SOL     OW24757   2.231   2.878   2.978
 7953SOL    HW124758   2.330   2.889   2.974
 7953SOL    HW224759   2.208   2.792   3.024
 7954SOL     OW24760   4.254   5.185   5.081
 7954SOL    HW124761   4.160   5.188   5.050
 7954SOL    HW224762   4.266   5.111   5.147
 7955SOL     OW24763   0.894   6.368   6.174
 7955SOL    HW124764   0.979   6.357   6.225
 7955SOL    HW224765   0.859   6.278   6.148
 7956SOL     OW24766   6.029   6.514   4.308
 7956SOL    HW124767   6.001   6.470   4.223
 7956SOL    HW224768   6.029   6.614   4.296
 7957SOL     OW24769   1.071   1.636   1.570
 7957SOL    HW124770   1.057   1.547   1.527
 7957SOL    HW224771   1.162   1.670   1.547
 7958SOL     OW24772   2.791   4.853   3.124
 7958SOL    HW124773   2.840   4.864   3.037
 7958SOL    HW224774   2.857   4.840   3.197
 7959SOL     OW24775   6.086   4.861   0.852
 7959SOL    HW124776   6.080   4.881   0.950
 7959SOL    HW224777   6.141   4.931   0.807
 7960SOL     OW24778   2.401   1.799   1.440
 7960SOL    HW124779   2.320   1.745   1.418
 7960SOL    HW224780   2.474   1.779   1.376
 7961SOL     OW24781   1.889   5.766   6.557
 7961SOL    HW124782   1.943   5.849   6.571
 7961SOL    HW224783   1.934   5.707   6.491
 7962SOL     OW24784   1.030   1.054   2.460
 7962SOL    HW124785   1.046   0.968   2.411
 7962SOL    HW224786   1.074   1.129   2.411
 7963SOL     OW24787   0.666   0.658   5.542
 7963SOL    HW124788   0.678   0.639   5.445
 7963SOL    HW224789   0.653   0.572   5.592
 7964SOL     OW24790   5.950   5.549   4.096
 7964SOL    HW124791   6.032   5.588   4.136
 7964SOL    HW224792   5.947   5.450   4.113
 7965SOL     OW24793   5.387   2.227   0.139
 7965SOL    HW124794   5.479   2.237   0.103
 7965SOL    HW224795   5.382   2.144   0.194
 7966SOL     OW24796   6.846   4.688   3.772
 7966SOL    HW124797   6.816   4.595   3.794
 7966SOL    HW224798   6.934   4.684   3.724
 7967SOL     OW24799   3.131   6.475   2.334
 7967SOL    HW124800   3.146   6.506   2.428
 7967SOL    HW224801   3.034   6.483   2.311
 7968SOL     OW24802   2.157   2.045   3.078
 7968SOL    HW124803   2.243   1.996   3.067
 7968SOL    HW224804   2.162   2.134   3.032
 7969SOL     OW24805   3.200   1.896   3.686
 7969SOL    HW124806   3.188   1.994   3.668
 7969SOL    HW224807   3.276   1.883   3.750
 7970SOL     OW24808   0.664   4.468   3.274
 7970SOL    HW124809   0.661   4.373   3.306
 7970SOL    HW224810   0.609   4.525   3.335
 7971SOL     OW24811   3.552   1.327   1.327
 7971SOL    HW124812   3.573   1.414   1.281
 7971SOL    HW224813   3.530   1.258   1.258
 7972SOL     OW24814   0.125   4.880   1.580
 7972SOL    HW124815   0.085   4.831   1.657
 7972SOL    HW224816   0.100   4.834   1.495
 7973SOL     OW24817   4.833   3.033   3.532
 7973SOL    HW124818   4.853   3.101   3.462
 7973SOL    HW224819   4.821   3.078   3.620
 7974SOL     OW24820   5.177   0.347   4.383
 7974SOL    HW124821   5.207   0.396   4.465
 7974SOL    HW224822   5.127   0.265   4.411
 7975SOL     OW24823   3.307   1.224   4.266
 7975SOL    HW124824   3.260   1.144   4.304
 7975SOL    HW224825   3.269   1.245   4.176
 7976SOL     OW24826   1.162   5.620   5.955
 7976SOL    HW124827   1.158   5.630   5.855
 7976SOL    HW224828   1.256   5.600   5.982
 7977SOL     OW24829   5.549   6.145   1.596
 7977SOL    HW124830   5.527   6.242   1.609
 7977SOL    HW224831   5.485   6.104   1.530
 7978SOL     OW24832   4.610   3.853   5.735
 7978SOL    HW124833   4.693   3.889   5.778
 7978SOL    HW224834   4.622   3.852   5.636
 7979SOL     OW24835   2.941   0.125   4.211
 7979SOL    HW124836   2.894   0.198   4.160
 7979SOL    HW224837   2.982   0.163   4.294
 7980SOL     OW24838   3.359   6.116   0.592
 7980SOL    HW124839   3.444   6.064   0.581
 7980SOL    HW224840   3.301   6.069   0.659
 7981SOL     OW24841   0.993   5.090   2.637
 7981SOL    HW124842   1.034   5.039   2.562
 7981SOL    HW224843   0.962   5.179   2.604
 7982SOL     OW24844   6.461   2.276   1.145
 7982SOL    HW124845   6.419   2.361   1.113
 7982SOL    HW224846   6.496   2.225   1.067
 7983SOL     OW24847   5.207   2.315   2.306
 7983SOL    HW124848   5.187   2.362   2.220
 7983SOL    HW224849   5.247   2.226   2.287
 7984SOL     OW24850   0.365   1.989   1.842
 7984SOL    HW124851   0.434   2.049   1.883
 7984SOL    HW224852   0.311   1.946   1.915
 7985SOL     OW24853   0.305   1.226   2.664
 7985SOL    HW124854   0.366   1.242   2.586
 7985SOL    HW224855   0.252   1.309   2.683
 7986SOL     OW24856   4.151   0.797   6.467
 7986SOL    HW124857   4.183   0.848   6.547
 7986SOL    HW224858   4.074   0.845   6.426
 7987SOL     OW24859   0.667   2.844   5.216
 7987SOL    HW124860   0.589   2.838   5.153
 7987SOL    HW224861   0.642   2.805   5.305
 7988SOL     OW24862   2.635   1.609   4.547
 7988SOL    HW124863   2.611   1.694   4.593
 7988SOL    HW224864   2.707   1.627   4.480
 7989SOL     OW24865   3.059   2.846   5.405
 7989SOL    HW124866   2.998   2.769   5.423
 7989SOL    HW224867   3.009   2.932   5.419
 7990SOL     OW24868   1.181   2.417   4.906
 7990SOL    HW124869   1.201   2.512   4.927
 7990SOL    HW224870   1.193   2.360   4.988
 7991SOL     OW24871   0.584   2.896   6.289
 7991SOL    HW124872   0.672   2.858   6.261
 7991SOL    HW224873   0.569   2.879   6.386
 7992SOL     OW24874   2.463   0.356   1.065
 7992SOL    HW124875   2.543   0.411   1.041
 7992SOL    HW224876   2.483   0.302   1.147
 7993SOL     OW24877   1.895   6.644   6.831
 7993SOL    HW124878   1.809   6.695   6.824
 7993SOL    HW224879   1.971   6.708   6.839
 7994SOL     OW24880   5.432   1.040   4.106
 7994SOL    HW124881   5.357   0.989   4.064
 7994SOL    HW224882   5.501   1.061   4.037
 7995SOL     OW24883   3.002   5.155   3.846
 7995SOL    HW124884   3.074   5.087   3.855
 7995SOL    HW224885   2.928   5.135   3.910
 7996SOL     OW24886   3.969   6.900   5.306
 7996SOL    HW124887   3.990   6.989   5.347
 7996SOL    HW224888   4.052   6.844   5.305
 7997SOL     OW24889   5.707   2.778   1.126
 7997SOL    HW124890   5.768   2.845   1.169
 7997SOL    HW224891   5.614   2.815   1.123
 7998SOL     OW24892   6.161   4.924   0.050
 7998SOL    HW124893   6.181   4.958   0.141
 7998SOL    HW224894   6.213   4.976   7.006
 7999SOL     OW24895   1.398   0.182   5.952
 7999SOL    HW124896   1.419   0.085   5.941
 7999SOL    HW224897   1.379   0.223   5.862
 8000SOL     OW24898   6.324   6.866   5.509
 8000SOL    HW124899   6.269   6.824   5.580
 8000SOL    HW224900   6.406   6.906   5.549
 8001SOL     OW24901   1.885   6.817   1.685
 8001SOL    HW124902   1.901   6.916   1.690
 8001SOL    HW224903   1.797   6.795   1.727
 8002SOL     OW24904   6.067   2.592   5.085
 8002SOL    HW124905   6.101   2.585   4.991
 8002SOL    HW224906   6.018   2.508   5.108
 8003SOL     OW24907   3.405   4.937   3.308
 8003SOL    HW124908   3.354   4.908   3.389
 8003SOL    HW224909   3.351   4.920   3.226
 8004SOL     OW24910   2.204   3.887   2.668
 8004SOL    HW124911   2.173   3.827   2.741
 8004SOL    HW224912   2.190   3.842   2.579
 8005SOL     OW24913   2.947   0.950   1.497
 8005SOL    HW124914   2.961   1.008   1.577
 8005SOL    HW224915   2.983   0.858   1.516
 8006SOL     OW24916   3.187   5.997   1.180
 8006SOL    HW124917   3.142   5.935   1.244
 8006SOL    HW224918   3.118   6.053   1.134
 8007SOL     OW24919   0.132   0.529   4.321
 8007SOL    HW124920   0.072   0.606   4.342
 8007SOL    HW224921   0.140   0.470   4.402
 8008SOL     OW24922   6.055   6.613   0.703
 8008SOL    HW124923   5.980   6.661   0.658
 8008SOL    HW224924   6.027   6.585   0.794
 8009SOL     OW24925   0.106   6.717   4.210
 8009SOL    HW124926   0.178   6.757   4.266
 8009SOL    HW224927   0.057   6.789   4.161
 8010SOL     OW24928   2.075   2.530   6.933
 8010SOL    HW124929   2.130   2.601   6.888
 8010SOL    HW224930   2.129   2.446   6.939
 8011SOL     OW24931   3.256   2.235   0.875
 8011SOL    HW124932   3.313   2.284   0.941
 8011SOL    HW224933   3.188   2.297   0.836
 8012SOL     OW24934   2.614   6.467   1.602
 8012SOL    HW124935   2.660   6.380   1.617
 8012SOL    HW224936   2.677   6.542   1.625
 8013SOL     OW24937   5.829   4.565   4.730
 8013SOL    HW124938   5.832   4.618   4.645
 8013SOL    HW224939   5.830   4.467   4.708
 8014SOL     OW24940   2.309   0.119   6.857
 8014SOL    HW124941   2.236   0.067   6.814
 8014SOL    HW224942   2.311   0.100   6.955
 8015SOL     OW24943   2.333   2.755   0.341
 8015SOL    HW124944   2.336   2.853   0.318
 8015SOL    HW224945   2.367   2.742   0.434
 8016SOL     OW24946   4.231   6.479   0.014
 8016SOL    HW124947   4.213   6.407   0.080
 8016SOL    HW224948   4.271   6.440   6.955
 8017SOL     OW24949   6.063   4.126   4.608
 8017SOL    HW124950   6.026   4.168   4.691
 8017SOL    HW224951   6.085   4.030   4.626
 8018SOL     OW24952   5.088   1.936   4.934
 8018SOL    HW124953   4.990   1.928   4.950
 8018SOL    HW224954   5.109   1.906   4.841
 8019SOL     OW24955   2.478   5.758   0.989
 8019SOL    HW124956   2.561   5.737   1.040
 8019SOL    HW224957   2.502   5.786   0.896
 8020SOL     OW24958   4.891   5.061   0.231
 8020SOL    HW124959   4.985   5.092   0.224
 8020SOL    HW224960   4.889   4.961   0.242
 8021SOL     OW24961   0.576   0.735   0.806
 8021SOL    HW124962   0.529   0.688   0.881
 8021SOL    HW224963   0.577   0.676   0.725
 8022SOL     OW24964   4.489   6.430   3.142
 8022SOL    HW124965   4.482   6.455   3.239
 8022SOL    HW224966   4.563   6.363   3.130
 8023SOL     OW24967   5.918   6.013   3.130
 8023SOL    HW124968   5.894   6.106   3.105
 8023SOL    HW224969   5.894   5.951   3.055
 8024SOL     OW24970   4.806   4.826   5.521
 8024SOL    HW124971   4.858   4.741   5.523
 8024SOL    HW224972   4.709   4.807   5.511
 8025SOL     OW24973   3.978   5.730   6.712
 8025SOL    HW124974   3.973   5.701   6.807
 8025SOL    HW224975   4.041   5.671   6.662
 8026SOL     OW24976   1.485   3.218   0.052
 8026SOL    HW124977   1.580   3.220   0.083
 8026SOL    HW224978   1.448   3.125   0.063
 8027SOL     OW24979   4.838   1.816   4.941
 8027SOL    HW124980   4.878   1.725   4.936
 8027SOL    HW224981   4.774   1.821   5.019
 8028SOL     OW24982   4.872   4.755   6.678
 8028SOL    HW124983   4.821   4.671   6.656
 8028SOL    HW224984   4.809   4.822   6.717
 8029SOL     OW24985   3.824   4.258   0.197
 8029SOL    HW124986   3.897   4.193   0.174
 8029SOL    HW224987   3.791   4.240   0.290
 8030SOL     OW24988   5.639   4.071   6.108
 8030SOL    HW124989   5.663   3.975   6.097
 8030SOL    HW224990   5.679   4.106   6.193
 8031SOL     OW24991   3.857   5.513   1.370
 8031SOL    HW124992   3.786   5.581   1.352
 8031SOL    HW224993   3.831   5.458   1.449
 8032SOL     OW24994   5.422   3.893   5.408
 8032SOL    HW124995   5.385   3.846   5.328
 8032SOL    HW224996   5.501   3.948   5.381
 8033SOL     OW24997   5.845   2.326   0.272
 8033SOL    HW124998   5.832   2.367   0.363
 8033SOL    HW224999   5.816   2.231   0.274
 8034SOL     OW25000   5.582   6.843   4.780
 8034SOL    HW125001   5.644   6.892   4.841
 8034SOL    HW225002   5.617   6.752   4.762
 8035SOL     OW25003   5.572   6.601   6.844
 8035SOL    HW125004   5.667   6.573   6.830
 8035SOL    HW225005   5.512   6.526   6.816
 8036SOL     OW25006   1.912   4.365   1.698
 8036SOL    HW125007   1.840   4.348   1.766
 8036SOL    HW225008   1.999   4.329   1.732
 8037SOL     OW25009   1.637   2.955   1.135
 8037SOL    HW125010   1.731   2.971   1.164
 8037SOL    HW225011   1.606   3.031   1.077
 8038SOL     OW25012   0.380   2.477   3.815
 8038SOL    HW125013   0.414   2.385   3.797
 8038SOL    HW225014   0.310   2.500   3.747
 8039SOL     OW25015   2.334   6.923   3.462
 8039SOL    HW125016   2.301   6.899   3.371
 8039SOL    HW225017   2.387   7.008   3.457
 8040SOL     OW25018   0.238   5.260   1.239
 8040SOL    HW125019   0.188   5.342   1.266
 8040SOL    HW225020   0.293   5.280   1.158
 8041SOL     OW25021   4.426   1.186   0.507
 8041SOL    HW125022   4.355   1.184   0.576
 8041SOL    HW225023   4.386   1.211   0.418
 8042SOL     OW25024   3.418   2.905   2.175
 8042SOL    HW125025   3.335   2.947   2.138
 8042SOL    HW225026   3.454   2.838   2.110
 8043SOL     OW25027   2.303   0.263   1.879
 8043SOL    HW125028   2.289   0.169   1.845
 8043SOL    HW225029   2.400   0.287   1.869
 8044SOL     OW25030   3.144   3.773   1.565
 8044SOL    HW125031   3.048   3.797   1.552
 8044SOL    HW225032   3.189   3.844   1.619
 8045SOL     OW25033   5.377   2.619   3.228
 8045SOL    HW125034   5.322   2.684   3.176
 8045SOL    HW225035   5.372   2.641   3.325
 8046SOL     OW25036   6.118   4.757   5.630
 8046SOL    HW125037   6.059   4.753   5.549
 8046SOL    HW225038   6.145   4.852   5.647
 8047SOL     OW25039   3.731   6.070   4.501
 8047SOL    HW125040   3.676   6.014   4.563
 8047SOL    HW225041   3.815   6.020   4.477
 8048SOL     OW25042   6.593   0.038   5.355
 8048SOL    HW125043   6.579   0.029   5.454
 8048SOL    HW225044   6.520   0.095   5.316
 8049SOL     OW25045   1.267   6.626   1.033
 8049SOL    HW125046   1.337   6.627   1.105
 8049SOL    HW225047   1.249   6.531   1.006
 8050SOL     OW25048   2.207   3.575   1.243
 8050SOL    HW125049   2.176   3.553   1.150
 8050SOL    HW225050   2.131   3.568   1.307
 8051SOL     OW25051   4.638   1.026   3.524
 8051SOL    HW125052   4.676   1.116   3.505
 8051SOL    HW225053   4.684   0.986   3.604
 8052SOL     OW25054   2.771   1.171   2.913
 8052SOL    HW125055   2.714   1.102   2.957
 8052SOL    HW225056   2.834   1.127   2.850
 8053SOL     OW25057   3.824   3.591   2.462
 8053SOL    HW125058   3.808   3.651   2.540
 8053SOL    HW225059   3.737   3.556   2.428
 8054SOL     OW25060   4.612   6.606   4.666
 8054SOL    HW125061   4.604   6.530   4.603
 8054SOL    HW225062   4.640   6.688   4.617
 8055SOL     OW25063   1.664   6.912   6.027
 8055SOL    HW125064   1.758   6.924   5.994
 8055SOL    HW225065   1.656   6.823   6.073
 8056SOL     OW25066   4.162   1.526   2.896
 8056SOL    HW125067   4.255   1.533   2.861
 8056SOL    HW225068   4.097   1.556   2.826
 8057SOL     OW25069   3.417   6.608   3.183
 8057SOL    HW125070   3.346   6.622   3.253
 8057SOL    HW225071   3.454   6.697   3.156
 8058SOL     OW25072   3.164   1.219   2.008
 8058SOL    HW125073   3.137   1.254   1.919
 8058SOL    HW225074   3.256   1.180   2.002
 8059SOL     OW25075   3.205   1.895   4.325
 8059SOL    HW125076   3.210   1.872   4.423
 8059SOL    HW225077   3.251   1.982   4.309
 8060SOL     OW25078   0.199   0.758   4.681
 8060SOL    HW125079   0.102   0.733   4.681
 8060SOL    HW225080   0.219   0.814   4.601
 8061SOL     OW25081   6.847   5.953   2.835
 8061SOL    HW125082   6.756   5.970   2.873
 8061SOL    HW225083   6.838   5.915   2.743
 8062SOL     OW25084   1.658   4.098   3.719
 8062SOL    HW125085   1.568   4.139   3.735
 8062SOL    HW225086   1.677   4.031   3.791
 8063SOL     OW25087   3.419   2.916   6.993
 8063SOL    HW125088   3.321   2.937   6.984
 8063SOL    HW225089   3.430   2.832   0.023
 8064SOL     OW25090   6.833   3.635   0.456
 8064SOL    HW125091   6.769   3.559   0.462
 8064SOL    HW225092   6.789   3.718   0.491
 8065SOL     OW25093   5.129   0.225   4.927
 8065SOL    HW125094   5.204   0.188   4.872
 8065SOL    HW225095   5.050   0.165   4.922
 8066SOL     OW25096   1.575   1.148   1.671
 8066SOL    HW125097   1.664   1.183   1.702
 8066SOL    HW225098   1.508   1.161   1.744
 8067SOL     OW25099   4.873   2.558   1.903
 8067SOL    HW125100   4.944   2.539   1.835
 8067SOL    HW225101   4.890   2.647   1.945
 8068SOL     OW25102   1.016   4.109   5.148
 8068SOL    HW125103   0.990   4.039   5.082
 8068SOL    HW225104   1.093   4.075   5.203
 8069SOL     OW25105   1.234   6.780   2.058
 8069SOL    HW125106   1.200   6.849   2.121
 8069SOL    HW225107   1.268   6.825   1.975
 8070SOL     OW25108   4.309   6.604   1.443
 8070SOL    HW125109   4.291   6.665   1.367
 8070SOL    HW225110   4.296   6.509   1.413
 8071SOL     OW25111   3.795   6.849   6.529
 8071SOL    HW125112   3.722   6.816   6.468
 8071SOL    HW225113   3.804   6.948   6.518
 8072SOL     OW25114   4.851   1.270   0.840
 8072SOL    HW125115   4.791   1.203   0.885
 8072SOL    HW225116   4.922   1.299   0.904
 8073SOL     OW25117   4.236   6.359   5.705
 8073SOL    HW125118   4.255   6.283   5.644
 8073SOL    HW225119   4.285   6.441   5.674
 8074SOL     OW25120   3.817   3.812   6.867
 8074SOL    HW125121   3.789   3.840   6.958
 8074SOL    HW225122   3.898   3.753   6.874
 8075SOL     OW25123   6.802   1.525   2.896
 8075SOL    HW125124   6.896   1.500   2.872
 8075SOL    HW225125   6.792   1.625   2.889
 8076SOL     OW25126   5.818   2.685   5.567
 8076SOL    HW125127   5.858   2.776   5.560
 8076SOL    HW225128   5.879   2.625   5.618
 8077SOL     OW25129   1.464   0.843   1.055
 8077SOL    HW125130   1.465   0.899   1.138
 8077SOL    HW225131   1.480   0.748   1.079
 8078SOL     OW25132   6.340   2.802   0.811
 8078SOL    HW125133   6.270   2.764   0.872
 8078SOL    HW225134   6.341   2.749   0.726
 8079SOL     OW25135   6.866   2.283   2.301
 8079SOL    HW125136   6.918   2.208   2.342
 8079SOL    HW225137   6.925   2.362   2.289
 8080SOL     OW25138   3.521   4.444   0.267
 8080SOL    HW125139   3.560   4.532   0.241
 8080SOL    HW225140   3.503   4.390   0.185
 8081SOL     OW25141   6.170   0.615   5.243
 8081SOL    HW125142   6.120   0.701   5.252
 8081SOL    HW225143   6.132   0.547   5.306
 8082SOL     OW25144   6.955   2.535   3.278
 8082SOL    HW125145   0.021   2.505   3.312
 8082SOL    HW225146   6.885   2.517   3.347
 8083SOL     OW25147   4.471   2.510   3.512
 8083SOL    HW125148   4.498   2.556   3.597
 8083SOL    HW225149   4.406   2.437   3.534
 8084SOL     OW25150   6.845   6.779   1.519
 8084SOL    HW125151   6.880   6.688   1.495
 8084SOL    HW225152   6.844   6.789   1.619
 8085SOL     OW25153   5.768   0.683   0.882
 8085SOL    HW125154   5.708   0.686   0.802
 8085SOL    HW225155   5.719   0.641   0.959
 8086SOL     OW25156   3.708   0.764   5.516
 8086SOL    HW125157   3.735   0.811   5.432
 8086SOL    HW225158   3.774   0.783   5.588
 8087SOL     OW25159   2.820   2.451   1.264
 8087SOL    HW125160   2.780   2.539   1.239
 8087SOL    HW225161   2.749   2.391   1.300
 8088SOL     OW25162   4.572   1.000   2.481
 8088SOL    HW125163   4.624   1.070   2.530
 8088SOL    HW225164   4.632   0.956   2.413
 8089SOL     OW25165   6.106   2.433   0.137
 8089SOL    HW125166   6.006   2.439   0.132
 8089SOL    HW225167   6.146   2.480   0.058
 8090SOL     OW25168   4.293   1.989   5.312
 8090SOL    HW125169   4.266   1.894   5.293
 8090SOL    HW225170   4.380   2.008   5.268
 8091SOL     OW25171   2.521   4.911   5.846
 8091SOL    HW125172   2.546   4.850   5.921
 8091SOL    HW225173   2.549   4.869   5.759
 8092SOL     OW25174   1.267   1.651   4.903
 8092SOL    HW125175   1.243   1.621   4.811
 8092SOL    HW225176   1.184   1.679   4.952
 8093SOL     OW25177   5.677   5.669   1.511
 8093SOL    HW125178   5.738   5.591   1.494
 8093SOL    HW225179   5.722   5.734   1.572
 8094SOL     OW25180   1.150   4.078   5.626
 8094SOL    HW125181   1.142   4.100   5.723
 8094SOL    HW225182   1.214   4.141   5.582
 8095SOL     OW25183   5.414   3.284   4.466
 8095SOL    HW125184   5.463   3.366   4.439
 8095SOL    HW225185   5.399   3.227   4.385
 8096SOL     OW25186   3.571   6.214   1.570
 8096SOL    HW125187   3.638   6.155   1.616
 8096SOL    HW225188   3.500   6.241   1.635
 8097SOL     OW25189   5.142   0.955   4.020
 8097SOL    HW125190   5.224   0.957   3.962
 8097SOL    HW225191   5.074   1.019   3.984
 8098SOL     OW25192   3.295   6.724   3.748
 8098SOL    HW125193   3.303   6.798   3.681
 8098SOL    HW225194   3.354   6.648   3.721
 8099SOL     OW25195   4.481   6.809   5.112
 8099SOL    HW125196   4.545   6.839   5.040
 8099SOL    HW225197   4.447   6.889   5.161
 8100SOL     OW25198   0.334   6.597   0.856
 8100SOL    HW125199   0.391   6.520   0.826
 8100SOL    HW225200   0.326   6.664   0.782
 8101SOL     OW25201   1.637   6.227   3.688
 8101SOL    HW125202   1.715   6.265   3.638
 8101SOL    HW225203   1.552   6.268   3.653
 8102SOL     OW25204   6.683   5.971   5.997
 8102SOL    HW125205   6.598   5.939   5.957
 8102SOL    HW225206   6.667   6.000   6.092
 8103SOL     OW25207   3.217   1.475   2.531
 8103SOL    HW125208   3.224   1.554   2.470
 8103SOL    HW225209   3.309   1.446   2.558
 8104SOL     OW25210   2.730   6.689   6.327
 8104SOL    HW125211   2.685   6.610   6.367
 8104SOL    HW225212   2.761   6.666   6.234
 8105SOL     OW25213   2.249   2.122   3.734
 8105SOL    HW125214   2.152   2.099   3.735
 8105SOL    HW225215   2.304   2.038   3.734
 8106SOL     OW25216   1.313   4.087   4.096
 8106SOL    HW125217   1.375   4.016   4.130
 8106SOL    HW225218   1.271   4.056   4.011
 8107SOL     OW25219   2.140   6.518   6.058
 8107SOL    HW125220   2.204   6.568   6.116
 8107SOL    HW225221   2.100   6.581   5.991
 8108SOL     OW25222   0.929   3.324   4.275
 8108SOL    HW125223   1.028   3.330   4.261
 8108SOL    HW225224   0.905   3.228   4.292
 8109SOL     OW25225   1.584   5.199   4.788
 8109SOL    HW125226   1.638   5.283   4.785
 8109SOL    HW225227   1.533   5.189   4.702
 8110SOL     OW25228   2.168   5.551   0.416
 8110SOL    HW125229   2.105   5.627   0.434
 8110SOL    HW225230   2.262   5.584   0.420
 8111SOL     OW25231   2.621   5.221   4.717
 8111SOL    HW125232   2.548   5.270   4.670
 8111SOL    HW225233   2.708   5.241   4.673
 8112SOL     OW25234   2.313   1.000   4.624
 8112SOL    HW125235   2.216   0.975   4.619
 8112SOL    HW225236   2.354   0.989   4.533
 8113SOL     OW25237   3.603   2.410   5.830
 8113SOL    HW125238   3.543   2.368   5.898
 8113SOL    HW225239   3.572   2.503   5.812
 8114SOL     OW25240   2.058   3.012   1.814
 8114SOL    HW125241   2.064   3.089   1.877
 8114SOL    HW225242   2.013   2.935   1.860
 8115SOL     OW25243   3.537   1.442   0.880
 8115SOL    HW125244   3.445   1.465   0.849
 8115SOL    HW225245   3.549   1.473   0.974
 8116SOL     OW25246   5.738   0.538   5.094
 8116SOL    HW125247   5.639   0.555   5.102
 8116SOL    HW225248   5.787   0.603   5.151
 8117SOL     OW25249   1.773   2.043   5.593
 8117SOL    HW125250   1.799   1.965   5.536
 8117SOL    HW225251   1.677   2.066   5.575
 8118SOL     OW25252   0.746   3.320   5.183
 8118SOL    HW125253   0.818   3.308   5.115
 8118SOL    HW225254   0.658   3.290   5.145
 8119SOL     OW25255   0.723   6.337   2.639
 8119SOL    HW125256   0.741   6.313   2.544
 8119SOL    HW225257   0.795   6.299   2.698
 8120SOL     OW25258   4.475   4.003   1.673
 8120SOL    HW125259   4.386   3.957   1.663
 8120SOL    HW225260   4.464   4.083   1.732
 8121SOL     OW25261   6.043   0.449   2.609
 8121SOL    HW125262   6.062   0.539   2.648
 8121SOL    HW225263   5.969   0.457   2.541
 8122SOL     OW25264   6.497   6.510   2.250
 8122SOL    HW125265   6.577   6.452   2.240
 8122SOL    HW225266   6.491   6.574   2.173
 8123SOL     OW25267   1.635   6.424   0.118
 8123SOL    HW125268   1.621   6.366   0.198
 8123SOL    HW225269   1.609   6.518   0.141
 8124SOL     OW25270   1.256   6.102   2.295
 8124SOL    HW125271   1.316   6.066   2.224
 8124SOL    HW225272   1.193   6.030   2.325
 8125SOL     OW25273   5.801   5.298   2.988
 8125SOL    HW125274   5.804   5.250   2.900
 8125SOL    HW225275   5.869   5.258   3.050
 8126SOL     OW25276   5.372   4.368   2.734
 8126SOL    HW125277   5.360   4.331   2.641
 8126SOL    HW225278   5.294   4.342   2.790
 8127SOL     OW25279   2.090   5.013   6.855
 8127SOL    HW125280   2.035   4.936   6.888
 8127SOL    HW225281   2.181   4.979   6.828
 8128SOL     OW25282   3.945   2.387   5.310
 8128SOL    HW125283   4.001   2.458   5.268
 8128SOL    HW225284   3.980   2.297   5.283
 8129SOL     OW25285   5.367   0.206   6.203
 8129SOL    HW125286   5.462   0.180   6.219
 8129SOL    HW225287   5.357   0.305   6.215
 8130SOL     OW25288   2.015   5.905   0.181
 8130SOL    HW125289   2.076   5.937   0.108
 8130SOL    HW225290   2.052   5.935   0.269
 8131SOL     OW25291   2.424   1.170   0.567
 8131SOL    HW125292   2.376   1.133   0.488
 8131SOL    HW225293   2.489   1.239   0.537
 8132SOL     OW25294   6.310   4.961   4.452
 8132SOL    HW125295   6.409   4.976   4.447
 8132SOL    HW225296   6.278   4.985   4.543
 8133SOL     OW25297   1.972   5.344   2.071
 8133SOL    HW125298   1.937   5.250   2.075
 8133SOL    HW225299   2.068   5.342   2.041
 8134SOL     OW25300   2.031   2.364   3.498
 8134SOL    HW125301   1.999   2.277   3.459
 8134SOL    HW225302   1.984   2.380   3.585
 8135SOL     OW25303   3.957   5.522   1.880
 8135SOL    HW125304   3.977   5.616   1.852
 8135SOL    HW225305   4.008   5.500   1.963
 8136SOL     OW25306   4.483   5.597   1.926
 8136SOL    HW125307   4.574   5.632   1.947
 8136SOL    HW225308   4.458   5.624   1.832
 8137SOL     OW25309   2.192   4.301   5.045
 8137SOL    HW125310   2.100   4.269   5.069
 8137SOL    HW225311   2.249   4.223   5.020
 8138SOL     OW25312   4.916   1.048   3.170
 8138SOL    HW125313   4.972   0.987   3.226
 8138SOL    HW225314   4.868   0.994   3.100
 8139SOL     OW25315   1.369   2.183   3.845
 8139SOL    HW125316   1.416   2.260   3.803
 8139SOL    HW225317   1.275   2.209   3.868
 8140SOL     OW25318   4.513   0.948   0.756
 8140SOL    HW125319   4.458   0.935   0.673
 8140SOL    HW225320   4.541   1.044   0.762
 8141SOL     OW25321   4.952   1.528   4.948
 8141SOL    HW125322   5.032   1.492   4.996
 8141SOL    HW225323   4.879   1.546   5.014
 8142SOL     OW25324   2.016   5.759   0.490
 8142SOL    HW125325   1.920   5.773   0.515
 8142SOL    HW225326   2.063   5.847   0.492
 8143SOL     OW25327   5.888   4.795   0.592
 8143SOL    HW125328   5.929   4.755   0.510
 8143SOL    HW225329   5.795   4.761   0.603
 8144SOL     OW25330   6.745   4.532   6.298
 8144SOL    HW125331   6.696   4.446   6.287
 8144SOL    HW225332   6.697   4.591   6.363
 8145SOL     OW25333   4.885   5.575   6.977
 8145SOL    HW125334   4.823   5.604   0.027
 8145SOL    HW225335   4.871   5.633   6.897
 8146SOL     OW25336   5.867   0.360   4.601
 8146SOL    HW125337   5.786   0.301   4.604
 8146SOL    HW225338   5.934   0.321   4.537
 8147SOL     OW25339   1.849   0.958   5.959
 8147SOL    HW125340   1.840   0.874   5.905
 8147SOL    HW225341   1.795   0.948   6.043
 8148SOL     OW25342   4.101   4.995   0.179
 8148SOL    HW125343   4.170   5.056   0.140
 8148SOL    HW225344   4.012   5.015   0.139
 8149SOL     OW25345   1.049   5.824   4.788
 8149SOL    HW125346   1.030   5.888   4.863
 8149SOL    HW225347   1.002   5.737   4.805
 8150SOL     OW25348   0.716   2.893   0.919
 8150SOL    HW125349   0.773   2.868   0.841
 8150SOL    HW225350   0.668   2.979   0.899
 8151SOL     OW25351   6.111   5.113   3.488
 8151SOL    HW125352   6.147   5.065   3.568
 8151SOL    HW225353   6.123   5.212   3.500
 8152SOL     OW25354   4.555   1.690   3.268
 8152SOL    HW125355   4.605   1.610   3.234
 8152SOL    HW225356   4.618   1.767   3.279
 8153SOL     OW25357   0.376   1.939   3.751
 8153SOL    HW125358   0.403   1.910   3.843
 8153SOL    HW225359   0.284   1.978   3.753
 8154SOL     OW25360   1.956   0.971   3.703
 8154SOL    HW125361   1.867   1.016   3.691
 8154SOL    HW225362   2.028   1.032   3.670
 8155SOL     OW25363   1.359   5.340   2.451
 8155SOL    HW125364   1.454   5.371   2.446
 8155SOL    HW225365   1.351   5.267   2.518
 8156SOL     OW25366   6.284   5.512   1.544
 8156SOL    HW125367   6.368   5.467   1.513
 8156SOL    HW225368   6.277   5.505   1.643
 8157SOL     OW25369   6.807   2.845   6.027
 8157SOL    HW125370   6.834   2.827   6.122
 8157SOL    HW225371   6.856   2.925   5.993
 8158SOL     OW25372   5.506   4.802   6.559
 8158SOL    HW125373   5.558   4.799   6.473
 8158SOL    HW225374   5.505   4.895   6.594
 8159SOL     OW25375   3.237   6.454   5.240
 8159SOL    HW125376   3.328   6.491   5.221
 8159SOL    HW225377   3.198   6.501   5.320
 8160SOL     OW25378   5.029   1.215   3.531
 8160SOL    HW125379   5.095   1.282   3.564
 8160SOL    HW225380   4.988   1.167   3.608
 8161SOL     OW25381   5.819   2.976   1.257
 8161SOL    HW125382   5.854   2.959   1.350
 8161SOL    HW225383   5.771   3.064   1.256
 8162SOL     OW25384   0.373   5.054   6.067
 8162SOL    HW125385   0.382   5.071   6.166
 8162SOL    HW225386   0.437   4.983   6.040
 8163SOL     OW25387   4.713   4.768   5.017
 8163SOL    HW125388   4.772   4.719   4.953
 8163SOL    HW225389   4.697   4.861   4.985
 8164SOL     OW25390   5.041   1.238   0.576
 8164SOL    HW125391   5.029   1.291   0.660
 8164SOL    HW225392   5.135   1.205   0.570
 8165SOL     OW25393   6.923   1.474   6.792
 8165SOL    HW125394   7.014   1.499   6.824
 8165SOL    HW225395   6.901   1.526   6.710
 8166SOL     OW25396   1.751   2.049   4.957
 8166SOL    HW125397   1.699   2.032   4.874
 8166SOL    HW225398   1.726   2.137   4.996
 8167SOL     OW25399   0.452   2.905   4.172
 8167SOL    HW125400   0.394   2.983   4.194
 8167SOL    HW225401   0.406   2.847   4.104
 8168SOL     OW25402   2.628   0.715   2.050
 8168SOL    HW125403   2.698   0.773   2.092
 8168SOL    HW225404   2.572   0.771   1.989
 8169SOL     OW25405   5.013   2.651   0.869
 8169SOL    HW125406   5.094   2.623   0.818
 8169SOL    HW225407   4.956   2.709   0.811
 8170SOL     OW25408   6.110   4.731   2.080
 8170SOL    HW125409   6.072   4.639   2.092
 8170SOL    HW225410   6.047   4.798   2.120
 8171SOL     OW25411   1.735   1.080   0.854
 8171SOL    HW125412   1.720   1.042   0.763
 8171SOL    HW225413   1.822   1.129   0.857
 8172SOL     OW25414   0.848   2.855   1.584
 8172SOL    HW125415   0.771   2.892   1.636
 8172SOL    HW225416   0.933   2.895   1.617
 8173SOL     OW25417   5.564   1.353   2.220
 8173SOL    HW125418   5.597   1.436   2.175
 8173SOL    HW225419   5.471   1.368   2.254
 8174SOL     OW25420   2.427   5.208   2.694
 8174SOL    HW125421   2.397   5.117   2.721
 8174SOL    HW225422   2.504   5.200   2.630
 8175SOL     OW25423   1.007   1.699   4.907
 8175SOL    HW125424   0.973   1.776   4.854
 8175SOL    HW225425   0.936   1.667   4.970
 8176SOL     OW25426   2.051   4.209   0.721
 8176SOL    HW125427   2.014   4.294   0.683
 8176SOL    HW225428   2.126   4.230   0.784
 8177SOL     OW25429   3.973   1.128   2.803
 8177SOL    HW125430   3.956   1.215   2.755
 8177SOL    HW225431   3.984   1.146   2.901
 8178SOL     OW25432   2.112   6.382   0.967
 8178SOL    HW125433   2.174   6.309   0.937
 8178SOL    HW225434   2.150   6.471   0.940
 8179SOL     OW25435   5.325   1.075   3.453
 8179SOL    HW125436   5.229   1.050   3.467
 8179SOL    HW225437   5.383   0.994   3.466
 8180SOL     OW25438   4.762   6.424   0.007
 8180SOL    HW125439   4.704   6.379   6.963
 8180SOL    HW225440   4.805   6.355   0.066
 8181SOL     OW25441   0.524   1.063   0.884
 8181SOL    HW125442   0.535   0.999   0.960
 8181SOL    HW225443   0.613   1.100   0.859
 8182SOL     OW25444   2.976   3.838   4.830
 8182SOL    HW125445   2.879   3.829   4.849
 8182SOL    HW225446   3.021   3.750   4.844
 8183SOL     OW25447   6.884   0.247   5.018
 8183SOL    HW125448   6.894   0.263   5.116
 8183SOL    HW225449   6.823   0.169   5.003
 8184SOL     OW25450   0.283   6.307   6.274
 8184SOL    HW125451   0.309   6.242   6.346
 8184SOL    HW225452   0.184   6.319   6.274
 8185SOL     OW25453   1.217   6.591   6.981
 8185SOL    HW125454   1.141   6.585   0.022
 8185SOL    HW225455   1.185   6.574   6.888
 8186SOL     OW25456   1.172   5.508   6.666
 8186SOL    HW125457   1.264   5.511   6.627
 8186SOL    HW225458   1.151   5.597   6.706
 8187SOL     OW25459   0.722   0.625   6.524
 8187SOL    HW125460   0.815   0.654   6.548
 8187SOL    HW225461   0.674   0.700   6.478
 8188SOL     OW25462   2.443   1.941   3.731
 8188SOL    HW125463   2.466   1.921   3.636
 8188SOL    HW225464   2.464   1.862   3.789
 8189SOL     OW25465   5.139   4.447   3.600
 8189SOL    HW125466   5.156   4.386   3.678
 8189SOL    HW225467   5.130   4.392   3.517
 8190SOL     OW25468   6.324   3.539   3.558
 8190SOL    HW125469   6.305   3.445   3.531
 8190SOL    HW225470   6.299   3.601   3.483
 8191SOL     OW25471   3.926   5.067   1.490
 8191SOL    HW125472   3.964   4.976   1.507
 8191SOL    HW225473   3.854   5.060   1.421
 8192SOL     OW25474   1.360   5.089   3.989
 8192SOL    HW125475   1.305   5.018   3.945
 8192SOL    HW225476   1.386   5.158   3.921
 8193SOL     OW25477   0.504   3.634   5.224
 8193SOL    HW125478   0.553   3.577   5.291
 8193SOL    HW225479   0.567   3.701   5.186
 8194SOL     OW25480   4.858   6.628   1.886
 8194SOL    HW125481   4.879   6.695   1.815
 8194SOL    HW225482   4.836   6.540   1.844
 8195SOL     OW25483   5.748   6.726   3.632
 8195SOL    HW125484   5.783   6.741   3.540
 8195SOL    HW225485   5.812   6.764   3.699
 8196SOL     OW25486   4.746   7.016   0.530
 8196SOL    HW125487   4.782   6.926   0.507
 8196SOL    HW225488   4.820   0.052   0.562
 8197SOL     OW25489   4.836   1.726   2.321
 8197SOL    HW125490   4.758   1.717   2.383
 8197SOL    HW225491   4.809   1.779   2.240
 8198SOL     OW25492   2.041   0.434   2.611
 8198SOL    HW125493   1.994   0.440   2.699
 8198SOL    HW225494   2.106   0.510   2.603
 8199SOL     OW25495   5.269   2.811   5.854
 8199SOL    HW125496   5.209   2.859   5.790
 8199SOL    HW225497   5.218   2.736   5.897
 8200SOL     OW25498   4.332   2.795   1.010
 8200SOL    HW125499   4.424   2.797   0.971
 8200SOL    HW225500   4.320   2.873   1.072
 8201SOL     OW25501   6.771   6.933   5.698
 8201SOL    HW125502   6.774   6.839   5.732
 8201SOL    HW225503   6.676   6.963   5.691
 8202SOL     OW25504   0.751   6.383   1.941
 8202SOL    HW125505   0.748   6.481   1.923
 8202SOL    HW225506   0.662   6.352   1.974
 8203SOL     OW25507   1.491   3.278   1.235
 8203SOL    HW125508   1.535   3.244   1.151
 8203SOL    HW225509   1.562   3.306   1.300
 8204SOL     OW25510   4.169   3.129   1.660
 8204SOL    HW125511   4.174   3.161   1.565
 8204SOL    HW225512   4.123   3.198   1.716
 8205SOL     OW25513   1.123   3.629   0.759
 8205SOL    HW125514   1.215   3.666   0.774
 8205SOL    HW225515   1.074   3.685   0.693
 8206SOL     OW25516   4.008   1.145   6.692
 8206SOL    HW125517   4.095   1.103   6.717
 8206SOL    HW225518   3.951   1.155   6.773
 8207SOL     OW25519   3.772   3.044   4.671
 8207SOL    HW125520   3.841   3.116   4.675
 8207SOL    HW225521   3.722   3.040   4.757
 8208SOL     OW25522   1.871   0.886   0.448
 8208SOL    HW125523   1.917   0.815   0.395
 8208SOL    HW225524   1.937   0.930   0.508
 8209SOL     OW25525   6.544   0.821   5.562
 8209SOL    HW125526   6.496   0.883   5.625
 8209SOL    HW225527   6.484   0.799   5.485
 8210SOL     OW25528   1.586   2.786   0.156
 8210SOL    HW125529   1.526   2.709   0.135
 8210SOL    HW225530   1.681   2.758   0.144
 8211SOL     OW25531   2.717   4.570   0.745
 8211SOL    HW125532   2.732   4.511   0.666
 8211SOL    HW225533   2.801   4.621   0.765
 8212SOL     OW25534   1.632   2.352   2.848
 8212SOL    HW125535   1.583   2.291   2.910
 8212SOL    HW225536   1.568   2.387   2.779
 8213SOL     OW25537   0.318   4.963   1.950
 8213SOL    HW125538   0.320   5.063   1.948
 8213SOL    HW225539   0.403   4.926   1.913
 8214SOL     OW25540   5.300   4.117   2.936
 8214SOL    HW125541   5.399   4.131   2.939
 8214SOL    HW225542   5.279   4.038   2.879
 8215SOL     OW25543   3.362   5.235   4.855
 8215SOL    HW125544   3.436   5.168   4.864
 8215SOL    HW225545   3.274   5.188   4.861
 8216SOL     OW25546   4.572   4.356   3.785
 8216SOL    HW125547   4.500   4.289   3.805
 8216SOL    HW225548   4.615   4.385   3.870
 8217SOL     OW25549   2.595   6.493   0.387
 8217SOL    HW125550   2.620   6.418   0.325
 8217SOL    HW225551   2.679   6.537   0.420
 8218SOL     OW25552   0.532   1.499   7.000
 8218SOL    HW125553   0.472   1.564   0.023
 8218SOL    HW225554   0.491   1.408   7.002
 8219SOL     OW25555   5.814   2.146   6.381
 8219SOL    HW125556   5.864   2.059   6.386
 8219SOL    HW225557   5.716   2.127   6.375
 8220SOL     OW25558   3.531   3.606   2.666
 8220SOL    HW125559   3.538   3.668   2.588
 8220SOL    HW225560   3.601   3.535   2.658
 8221SOL     OW25561   5.690   6.244   3.441
 8221SOL    HW125562   5.734   6.322   3.485
 8221SOL    HW225563   5.683   6.169   3.507
 8222SOL     OW25564   5.928   1.260   1.942
 8222SOL    HW125565   5.880   1.274   2.028
 8222SOL    HW225566   6.022   1.292   1.951
 8223SOL     OW25567   0.315   4.283   6.230
 8223SOL    HW125568   0.299   4.335   6.146
 8223SOL    HW225569   0.256   4.202   6.230
 8224SOL     OW25570   1.189   3.123   3.200
 8224SOL    HW125571   1.288   3.132   3.203
 8224SOL    HW225572   1.147   3.213   3.217
 8225SOL     OW25573   4.991   1.462   6.641
 8225SOL    HW125574   5.017   1.503   6.728
 8225SOL    HW225575   5.073   1.446   6.586
 8226SOL     OW25576   4.957   0.571   1.243
 8226SOL    HW125577   4.895   0.601   1.170
 8226SOL    HW225578   4.915   0.590   1.332
 8227SOL     OW25579   6.374   3.093   3.335
 8227SOL    HW125580   6.439   3.082   3.260
 8227SOL    HW225581   6.287   3.051   3.310
 8228SOL     OW25582   6.771   2.447   4.944
 8228SOL    HW125583   6.786   2.545   4.935
 8228SOL    HW225584   6.787   2.402   4.857
 8229SOL     OW25585   3.427   5.560   6.905
 8229SOL    HW125586   3.514   5.557   6.854
 8229SOL    HW225587   3.444   5.596   6.996
 8230SOL     OW25588   5.486   0.208   4.969
 8230SOL    HW125589   5.496   0.178   4.874
 8230SOL    HW225590   5.476   0.308   4.971
 8231SOL     OW25591   5.434   5.148   0.788
 8231SOL    HW125592   5.391   5.238   0.786
 8231SOL    HW225593   5.530   5.156   0.761
 8232SOL     OW25594   3.878   2.001   0.010
 8232SOL    HW125595   3.857   1.963   6.943
 8232SOL    HW225596   3.936   1.937   0.061
 8233SOL     OW25597   0.832   5.138   6.320
 8233SOL    HW125598   0.788   5.219   6.280
 8233SOL    HW225599   0.844   5.069   6.250
 8234SOL     OW25600   3.089   2.532   6.956
 8234SOL    HW125601   3.153   2.564   6.886
 8234SOL    HW225602   2.998   2.523   6.916
 8235SOL     OW25603   3.990   3.797   1.164
 8235SOL    HW125604   4.081   3.839   1.174
 8235SOL    HW225605   3.929   3.832   1.235
 8236SOL     OW25606   6.404   2.859   0.214
 8236SOL    HW125607   6.470   2.860   0.138
 8236SOL    HW225608   6.342   2.936   0.204
 8237SOL     OW25609   3.969   5.608   5.218
 8237SOL    HW125610   3.980   5.589   5.121
 8237SOL    HW225611   3.918   5.693   5.230
 8238SOL     OW25612   2.225   3.499   6.675
 8238SOL    HW125613   2.174   3.472   6.757
 8238SOL    HW225614   2.223   3.425   6.608
 8239SOL     OW25615   7.011   1.512   5.425
 8239SOL    HW125616   0.003   1.560   5.339
 8239SOL    HW225617   6.964   1.573   5.489
 8240SOL     OW25618   3.385   4.128   2.712
 8240SOL    HW125619   3.321   4.051   2.723
 8240SOL    HW225620   3.362   4.179   2.629
 8241SOL     OW25621   3.111   6.947   0.240
 8241SOL    HW125622   3.131   0.022   0.240
 8241SOL    HW225623   3.196   6.895   0.242
 8242SOL     OW25624   0.844   4.513   5.199
 8242SOL    HW125625   0.756   4.495   5.156
 8242SOL    HW225626   0.831   4.574   5.277
 8243SOL     OW25627   0.426   2.982   6.025
 8243SOL    HW125628   0.454   3.013   5.935
 8243SOL    HW225629   0.502   2.992   6.089
 8244SOL     OW25630   0.903   6.436   3.703
 8244SOL    HW125631   0.915   6.423   3.801
 8244SOL    HW225632   0.910   6.533   3.681
 8245SOL     OW25633   4.301   2.129   0.878
 8245SOL    HW125634   4.297   2.140   0.779
 8245SOL    HW225635   4.388   2.164   0.912
 8246SOL     OW25636   6.181   3.642   6.320
 8246SOL    HW125637   6.187   3.726   6.373
 8246SOL    HW225638   6.101   3.590   6.348
 8247SOL     OW25639   0.636   6.971   1.724
 8247SOL    HW125640   0.717   6.934   1.771
 8247SOL    HW225641   0.646   0.047   1.715
 8248SOL     OW25642   5.699   3.853   3.894
 8248SOL    HW125643   5.666   3.785   3.829
 8248SOL    HW225644   5.622   3.906   3.928
 8249SOL     OW25645   1.939   4.487   4.221
 8249SOL    HW125646   2.017   4.547   4.238
 8249SOL    HW225647   1.955   4.399   4.265
 8250SOL     OW25648   3.783   3.923   2.938
 8250SOL    HW125649   3.880   3.902   2.947
 8250SOL    HW225650   3.761   4.003   2.993
 8251SOL     OW25651   5.345   1.718   4.950
 8251SOL    HW125652   5.264   1.724   4.891
 8251SOL    HW225653   5.419   1.672   4.901
 8252SOL     OW25654   2.213   3.000   6.168
 8252SOL    HW125655   2.159   2.934   6.116
 8252SOL    HW225656   2.293   3.027   6.114
 8253SOL     OW25657   3.227   2.981   5.021
 8253SOL    HW125658   3.290   2.906   5.041
 8253SOL    HW225659   3.192   2.969   4.928
 8254SOL     OW25660   4.273   4.742   3.816
 8254SOL    HW125661   4.316   4.670   3.761
 8254SOL    HW225662   4.343   4.804   3.850
 8255SOL     OW25663   4.541   5.933   3.928
 8255SOL    HW125664   4.480   6.004   3.963
 8255SOL    HW225665   4.488   5.850   3.911
 8256SOL     OW25666   5.316   1.199   4.282
 8256SOL    HW125667   5.352   1.129   4.220
 8256SOL    HW225668   5.216   1.195   4.281
 8257SOL     OW25669   5.787   4.476   3.268
 8257SOL    HW125670   5.766   4.508   3.360
 8257SOL    HW225671   5.745   4.387   3.253
 8258SOL     OW25672   3.917   1.610   0.210
 8258SOL    HW125673   3.840   1.654   0.255
 8258SOL    HW225674   3.993   1.602   0.275
 8259SOL     OW25675   3.508   2.081   3.459
 8259SOL    HW125676   3.410   2.086   3.440
 8259SOL    HW225677   3.522   2.051   3.553
 8260SOL     OW25678   2.785   6.972   1.313
 8260SOL    HW125679   2.718   6.898   1.305
 8260SOL    HW225680   2.776   7.016   1.402
 8261SOL     OW25681   5.618   1.100   1.458
 8261SOL    HW125682   5.673   1.162   1.402
 8261SOL    HW225683   5.635   1.118   1.554
 8262SOL     OW25684   1.107   2.351   1.672
 8262SOL    HW125685   1.088   2.417   1.745
 8262SOL    HW225686   1.195   2.307   1.690
 8263SOL     OW25687   6.540   1.406   1.489
 8263SOL    HW125688   6.638   1.420   1.507
 8263SOL    HW225689   6.521   1.308   1.485
 8264SOL     OW25690   1.265   5.882   2.590
 8264SOL    HW125691   1.273   5.784   2.605
 8264SOL    HW225692   1.343   5.929   2.630
 8265SOL     OW25693   1.536   0.779   1.742
 8265SOL    HW125694   1.628   0.806   1.713
 8265SOL    HW225695   1.537   0.683   1.770
 8266SOL     OW25696   2.712   6.803   2.567
 8266SOL    HW125697   2.630   6.765   2.610
 8266SOL    HW225698   2.751   6.873   2.626
 8267SOL     OW25699   1.815   3.601   1.314
 8267SOL    HW125700   1.802   3.656   1.397
 8267SOL    HW225701   1.761   3.517   1.321
 8268SOL     OW25702   2.451   6.753   6.023
 8268SOL    HW125703   2.446   6.797   5.933
 8268SOL    HW225704   2.499   6.666   6.015
 8269SOL     OW25705   5.317   1.701   1.064
 8269SOL    HW125706   5.408   1.741   1.063
 8269SOL    HW225707   5.279   1.707   1.157
 8270SOL     OW25708   3.160   6.566   3.912
 8270SOL    HW125709   3.182   6.574   4.010
 8270SOL    HW225710   3.186   6.650   3.865
 8271SOL     OW25711   6.782   2.057   2.769
 8271SOL    HW125712   6.772   2.034   2.672
 8271SOL    HW225713   6.694   2.087   2.806
 8272SOL     OW25714   4.458   0.667   2.207
 8272SOL    HW125715   4.386   0.702   2.267
 8272SOL    HW225716   4.525   0.617   2.260
 8273SOL     OW25717   1.961   0.375   1.273
 8273SOL    HW125718   1.970   0.350   1.176
 8273SOL    HW225719   2.020   0.316   1.328
 8274SOL     OW25720   4.528   5.391   3.092
 8274SOL    HW125721   4.537   5.294   3.068
 8274SOL    HW225722   4.441   5.405   3.139
 8275SOL     OW25723   4.809   1.984   6.316
 8275SOL    HW125724   4.793   2.002   6.413
 8275SOL    HW225725   4.863   2.059   6.277
 8276SOL     OW25726   1.152   2.217   4.726
 8276SOL    HW125727   1.168   2.138   4.785
 8276SOL    HW225728   1.154   2.301   4.781
 8277SOL     OW25729   6.898   0.329   6.498
 8277SOL    HW125730   6.897   0.232   6.473
 8277SOL    HW225731   6.806   0.367   6.487
 8278SOL     OW25732   2.421   1.816   0.059
 8278SOL    HW125733   2.418   1.877   7.003
 8278SOL    HW225734   2.362   1.852   0.131
 8279SOL     OW25735   0.681   6.324   3.946
 8279SOL    HW125736   0.637   6.309   3.857
 8279SOL    HW225737   0.760   6.263   3.955
 8280SOL     OW25738   3.166   2.603   6.561
 8280SOL    HW125739   3.202   2.563   6.646
 8280SOL    HW225740   3.204   2.694   6.548
 8281SOL     OW25741   0.724   5.472   1.728
 8281SOL    HW125742   0.816   5.506   1.748
 8281SOL    HW225743   0.703   5.487   1.632
 8282SOL     OW25744   5.280   3.118   6.167
 8282SOL    HW125745   5.279   3.026   6.128
 8282SOL    HW225746   5.318   3.182   6.100
 8283SOL     OW25747   1.347   4.230   6.294
 8283SOL    HW125748   1.376   4.198   6.203
 8283SOL    HW225749   1.262   4.282   6.285
 8284SOL     OW25750   0.014   4.516   2.069
 8284SOL    HW125751   0.014   4.464   2.154
 8284SOL    HW225752   0.060   4.604   2.083
 8285SOL     OW25753   4.167   3.414   4.760
 8285SOL    HW125754   4.190   3.389   4.854
 8285SOL    HW225755   4.163   3.513   4.752
 8286SOL     OW25756   6.548   2.360   5.561
 8286SOL    HW125757   6.589   2.390   5.474
 8286SOL    HW225758   6.583   2.417   5.635
 8287SOL     OW25759   0.903   5.598   4.290
 8287SOL    HW125760   0.807   5.625   4.288
 8287SOL    HW225761   0.953   5.658   4.353
 8288SOL     OW25762   2.422   2.678   3.038
 8288SOL    HW125763   2.506   2.632   3.065
 8288SOL    HW225764   2.394   2.646   2.948
 8289SOL     OW25765   0.899   0.678   0.508
 8289SOL    HW125766   0.879   0.745   0.436
 8289SOL    HW225767   0.983   0.705   0.556
 8290SOL     OW25768   6.222   2.013   0.795
 8290SOL    HW125769   6.266   1.923   0.791
 8290SOL    HW225770   6.167   2.019   0.878
 8291SOL     OW25771   4.508   0.125   6.458
 8291SOL    HW125772   4.585   0.188   6.450
 8291SOL    HW225773   4.476   0.100   6.366
 8292SOL     OW25774   2.800   6.598   0.534
 8292SOL    HW125775   2.849   6.554   0.609
 8292SOL    HW225776   2.846   6.684   0.510
 8293SOL     OW25777   4.633   6.554   5.877
 8293SOL    HW125778   4.568   6.505   5.935
 8293SOL    HW225779   4.650   6.645   5.916
 8294SOL     OW25780   6.370   2.444   6.462
 8294SOL    HW125781   6.450   2.430   6.520
 8294SOL    HW225782   6.292   2.393   6.499
 8295SOL     OW25783   5.673   4.394   1.790
 8295SOL    HW125784   5.575   4.381   1.773
 8295SOL    HW225785   5.726   4.351   1.717
 8296SOL     OW25786   1.154   5.744   6.794
 8296SOL    HW125787   1.225   5.809   6.765
 8296SOL    HW225788   1.104   5.783   6.872
 8297SOL     OW25789   6.100   2.211   3.478
 8297SOL    HW125790   6.159   2.150   3.426
 8297SOL    HW225791   6.093   2.299   3.431
 8298SOL     OW25792   4.535   1.374   1.822
 8298SOL    HW125793   4.545   1.310   1.898
 8298SOL    HW225794   4.584   1.458   1.842
 8299SOL     OW25795   0.042   2.946   2.144
 8299SOL    HW125796   0.000   2.955   2.054
 8299SOL    HW225797   7.005   2.986   2.213
 8300SOL     OW25798   0.801   4.237   5.208
 8300SOL    HW125799   0.880   4.184   5.179
 8300SOL    HW225800   0.818   4.335   5.193
 8301SOL     OW25801   4.359   2.615   1.427
 8301SOL    HW125802   4.373   2.701   1.476
 8301SOL    HW225803   4.304   2.631   1.346
 8302SOL     OW25804   5.860   6.765   6.449
 8302SOL    HW125805   5.881   6.669   6.431
 8302SOL    HW225806   5.762   6.775   6.466
 8303SOL     OW25807   0.457   6.983   4.936
 8303SOL    HW125808   0.449   0.036   5.000
 8303SOL    HW225809   0.472   7.019   4.844
 8304SOL     OW25810   0.520   3.882   6.794
 8304SOL    HW125811   0.517   3.856   6.891
 8304SOL    HW225812   0.552   3.804   6.740
 8305SOL     OW25813   3.284   5.152   4.157
 8305SOL    HW125814   3.363   5.189   4.107
 8305SOL    HW225815   3.213   5.222   4.164
 8306SOL     OW25816   0.553   2.412   5.627
 8306SOL    HW125817   0.552   2.512   5.632
 8306SOL    HW225818   0.621   2.383   5.560
 8307SOL     OW25819   3.422   5.478   0.903
 8307SOL    HW125820   3.363   5.419   0.848
 8307SOL    HW225821   3.371   5.513   0.981
 8308SOL     OW25822   3.757   6.855   1.710
 8308SOL    HW125823   3.810   6.895   1.784
 8308SOL    HW225824   3.706   6.927   1.662
 8309SOL     OW25825   6.133   6.242   2.717
 8309SOL    HW125826   6.050   6.220   2.666
 8309SOL    HW225827   6.111   6.252   2.814
 8310SOL     OW25828   0.779   4.966   0.658
 8310SOL    HW125829   0.715   4.932   0.727
 8310SOL    HW225830   0.846   4.895   0.637
 8311SOL     OW25831   6.764   0.927   6.567
 8311SOL    HW125832   6.746   0.848   6.507
 8311SOL    HW225833   6.834   0.903   6.634
 8312SOL     OW25834   4.916   6.855   1.731
 8312SOL    HW125835   4.909   6.920   1.807
 8312SOL    HW225836   4.974   6.895   1.660
 8313SOL     OW25837   3.422   1.721   2.936
 8313SOL    HW125838   3.418   1.623   2.955
 8313SOL    HW225839   3.495   1.740   2.870
 8314SOL     OW25840   5.694   0.324   1.488
 8314SOL    HW125841   5.745   0.262   1.428
 8314SOL    HW225842   5.677   0.410   1.441
 8315SOL     OW25843   4.845   3.164   0.573
 8315SOL    HW125844   4.892   3.201   0.492
 8315SOL    HW225845   4.899   3.183   0.655
 8316SOL     OW25846   0.789   4.530   0.794
 8316SOL    HW125847   0.858   4.602   0.786
 8316SOL    HW225848   0.748   4.533   0.886
 8317SOL     OW25849   1.920   3.980   2.720
 8317SOL    HW125850   1.940   4.067   2.766
 8317SOL    HW225851   1.998   3.918   2.730
 8318SOL     OW25852   4.048   1.732   4.706
 8318SOL    HW125853   4.102   1.786   4.770
 8318SOL    HW225854   4.068   1.635   4.720
 8319SOL     OW25855   3.243   1.088   5.296
 8319SOL    HW125856   3.322   1.041   5.257
 8319SOL    HW225857   3.159   1.038   5.273
 8320SOL     OW25858   3.006   4.674   1.279
 8320SOL    HW125859   3.041   4.625   1.198
 8320SOL    HW225860   3.082   4.707   1.334
 8321SOL     OW25861   0.263   1.205   0.145
 8321SOL    HW125862   0.172   1.196   0.104
 8321SOL    HW225863   0.289   1.120   0.190
 8322SOL     OW25864   0.063   7.020   6.790
 8322SOL    HW125865   0.151   6.973   6.779
 8322SOL    HW225866   0.073   0.093   6.765
 8323SOL     OW25867   0.840   0.792   2.644
 8323SOL    HW125868   0.923   0.838   2.612
 8323SOL    HW225869   0.823   0.817   2.740
 8324SOL     OW25870   6.143   0.628   2.383
 8324SOL    HW125871   6.137   0.682   2.467
 8324SOL    HW225872   6.051   0.606   2.352
 8325SOL     OW25873   3.927   3.075   4.036
 8325SOL    HW125874   3.845   3.046   4.086
 8325SOL    HW225875   3.915   3.057   3.938
 8326SOL     OW25876   4.571   3.437   5.632
 8326SOL    HW125877   4.528   3.527   5.621
 8326SOL    HW225878   4.616   3.411   5.546
 8327SOL     OW25879   5.488   2.584   5.901
 8327SOL    HW125880   5.572   2.581   5.956
 8327SOL    HW225881   5.480   2.674   5.857
 8328SOL     OW25882   2.300   3.710   6.291
 8328SOL    HW125883   2.215   3.657   6.300
 8328SOL    HW225884   2.378   3.652   6.315
 8329SOL     OW25885   0.193   2.767   5.387
 8329SOL    HW125886   0.230   2.822   5.312
 8329SOL    HW225887   0.211   2.670   5.369
 8330SOL     OW25888   1.635   6.781   0.896
 8330SOL    HW125889   1.611   6.694   0.940
 8330SOL    HW225890   1.570   6.801   0.824
 8331SOL     OW25891   3.383   0.394   1.037
 8331SOL    HW125892   3.332   0.314   1.069
 8331SOL    HW225893   3.338   0.478   1.069
 8332SOL     OW25894   5.027   5.201   1.943
 8332SOL    HW125895   5.040   5.264   1.866
 8332SOL    HW225896   5.077   5.117   1.926
 8333SOL     OW25897   0.508   6.272   6.985
 8333SOL    HW125898   0.516   6.263   0.061
 8333SOL    HW225899   0.524   6.367   6.959
 8334SOL     OW25900   6.038   1.617   3.701
 8334SOL    HW125901   5.973   1.692   3.712
 8334SOL    HW225902   6.003   1.554   3.631
 8335SOL     OW25903   6.074   5.534   6.156
 8335SOL    HW125904   6.143   5.598   6.122
 8335SOL    HW225905   6.105   5.496   6.244
 8336SOL     OW25906   0.170   1.603   2.349
 8336SOL    HW125907   0.203   1.697   2.349
 8336SOL    HW225908   0.145   1.577   2.443
 8337SOL     OW25909   0.907   6.194   2.839
 8337SOL    HW125910   0.981   6.158   2.783
 8337SOL    HW225911   0.940   6.208   2.933
 8338SOL     OW25912   2.041   5.029   1.676
 8338SOL    HW125913   2.084   4.939   1.678
 8338SOL    HW225914   1.945   5.020   1.651
 8339SOL     OW25915   6.073   0.752   2.609
 8339SOL    HW125916   6.020   0.823   2.562
 8339SOL    HW225917   6.124   0.794   2.684
 8340SOL     OW25918   4.919   3.730   0.854
 8340SOL    HW125919   4.827   3.705   0.885
 8340SOL    HW225920   4.938   3.825   0.880
 8341SOL     OW25921   2.123   0.077   1.159
 8341SOL    HW125922   2.071   0.145   1.107
 8341SOL    HW225923   2.066   7.020   1.176
 8342SOL     OW25924   3.719   0.622   0.915
 8342SOL    HW125925   3.755   0.709   0.882
 8342SOL    HW225926   3.776   0.547   0.883
 8343SOL     OW25927   1.713   5.666   6.255
 8343SOL    HW125928   1.720   5.709   6.165
 8343SOL    HW225929   1.690   5.569   6.245
 8344SOL     OW25930   4.563   6.035   5.707
 8344SOL    HW125931   4.543   6.107   5.640
 8344SOL    HW225932   4.535   6.065   5.798
 8345SOL     OW25933   6.062   1.924   3.229
 8345SOL    HW125934   6.067   1.894   3.133
 8345SOL    HW225935   5.970   1.957   3.249
 8346SOL     OW25936   2.508   5.021   0.743
 8346SOL    HW125937   2.528   4.931   0.703
 8346SOL    HW225938   2.532   5.021   0.840
 8347SOL     OW25939   2.673   6.593   4.805
 8347SOL    HW125940   2.762   6.547   4.802
 8347SOL    HW225941   2.675   6.666   4.873
 8348SOL     OW25942   1.283   0.810   1.315
 8348SOL    HW125943   1.316   0.726   1.357
 8348SOL    HW225944   1.337   0.887   1.349
 8349SOL     OW25945   5.641   3.975   0.757
 8349SOL    HW125946   5.544   4.001   0.761
 8349SOL    HW225947   5.649   3.877   0.739
 8350SOL     OW25948   6.297   1.079   5.130
 8350SOL    HW125949   6.366   1.010   5.151
 8350SOL    HW225950   6.331   1.141   5.060
 8351SOL     OW25951   3.325   6.026   4.117
 8351SOL    HW125952   3.384   5.945   4.114
 8351SOL    HW225953   3.294   6.041   4.211
 8352SOL     OW25954   6.624   6.811   2.186
 8352SOL    HW125955   6.537   6.859   2.191
 8352SOL    HW225956   6.611   6.720   2.147
 8353SOL     OW25957   6.309   3.652   2.441
 8353SOL    HW125958   6.327   3.750   2.433
 8353SOL    HW225959   6.305   3.611   2.350
 8354SOL     OW25960   2.984   1.639   6.687
 8354SOL    HW125961   3.053   1.566   6.687
 8354SOL    HW225962   2.900   1.606   6.729
 8355SOL     OW25963   3.076   0.515   0.255
 8355SOL    HW125964   2.994   0.567   0.234
 8355SOL    HW225965   3.157   0.567   0.230
 8356SOL     OW25966   0.970   6.166   0.202
 8356SOL    HW125967   0.997   6.070   0.194
 8356SOL    HW225968   1.019   6.209   0.278
 8357SOL     OW25969   3.401   5.534   4.645
 8357SOL    HW125970   3.381   5.522   4.742
 8357SOL    HW225971   3.388   5.447   4.597
 8358SOL     OW25972   1.580   2.403   5.581
 8358SOL    HW125973   1.675   2.432   5.594
 8358SOL    HW225974   1.567   2.312   5.620
 8359SOL     OW25975   4.341   5.385   4.308
 8359SOL    HW125976   4.241   5.390   4.318
 8359SOL    HW225977   4.376   5.477   4.293
 8360SOL     OW25978   4.405   0.209   2.942
 8360SOL    HW125979   4.387   0.120   2.984
 8360SOL    HW225980   4.321   0.244   2.900
 8361SOL     OW25981   1.620   1.523   2.631
 8361SOL    HW125982   1.587   1.431   2.654
 8361SOL    HW225983   1.715   1.533   2.660
 8362SOL     OW25984   2.397   2.779   0.613
 8362SOL    HW125985   2.379   2.734   0.700
 8362SOL    HW225986   2.494   2.804   0.608
 8363SOL     OW25987   1.157   2.822   0.888
 8363SOL    HW125988   1.137   2.917   0.863
 8363SOL    HW225989   1.085   2.787   0.947
 8364SOL     OW25990   6.312   3.631   3.253
 8364SOL    HW125991   6.402   3.630   3.209
 8364SOL    HW225992   6.255   3.701   3.211
 8365SOL     OW25993   1.494   3.653   0.516
 8365SOL    HW125994   1.470   3.741   0.475
 8365SOL    HW225995   1.594   3.643   0.516
 8366SOL     OW25996   4.550   5.988   2.536
 8366SOL    HW125997   4.635   6.034   2.560
 8366SOL    HW225998   4.550   5.895   2.574
 8367SOL     OW25999   4.965   6.380   3.616
 8367SOL    HW126000   5.020   6.301   3.643
 8367SOL    HW226001   5.021   6.443   3.563
 8368SOL     OW26002   2.597   5.374   6.086
 8368SOL    HW126003   2.541   5.425   6.020
 8368SOL    HW226004   2.591   5.276   6.067
 8369SOL     OW26005   2.044   0.873   0.141
 8369SOL    HW126006   2.031   0.801   0.210
 8369SOL    HW226007   2.030   0.834   0.050
 8370SOL     OW26008   1.802   1.971   6.317
 8370SOL    HW126009   1.712   2.004   6.287
 8370SOL    HW226010   1.853   2.046   6.359
 8371SOL     OW26011   1.332   2.804   0.631
 8371SOL    HW126012   1.395   2.728   0.644
 8371SOL    HW226013   1.289   2.827   0.719
 8372SOL     OW26014   0.311   0.106   2.629
 8372SOL    HW126015   0.328   0.081   2.534
 8372SOL    HW226016   0.366   0.049   2.690
 8373SOL     OW26017   1.177   6.791   5.803
 8373SOL    HW126018   1.120   6.824   5.727
 8373SOL    HW226019   1.219   6.869   5.849
 8374SOL     OW26020   6.602   0.956   0.066
 8374SOL    HW126021   6.631   0.933   0.159
 8374SOL    HW226022   6.631   0.884   0.004
 8375SOL     OW26023   3.206   6.177   5.801
 8375SOL    HW126024   3.127   6.159   5.859
 8375SOL    HW226025   3.289   6.144   5.846
 8376SOL     OW26026   2.993   0.152   3.734
 8376SOL    HW126027   3.083   0.196   3.726
 8376SOL    HW226028   3.001   0.070   3.790
 8377SOL     OW26029   6.148   5.377   1.162
 8377SOL    HW126030   6.130   5.395   1.065
 8377SOL    HW226031   6.066   5.399   1.215
 8378SOL     OW26032   5.074   3.454   2.916
 8378SOL    HW126033   5.125   3.416   2.993
 8378SOL    HW226034   5.131   3.517   2.865
 8379SOL     OW26035   6.445   3.691   1.781
 8379SOL    HW126036   6.421   3.733   1.694
 8379SOL    HW226037   6.541   3.711   1.801
 8380SOL     OW26038   5.909   0.889   2.434
 8380SOL    HW126039   5.842   0.932   2.494
 8380SOL    HW226040   5.910   0.936   2.346
 8381SOL     OW26041   1.480   5.195   4.440
 8381SOL    HW126042   1.426   5.128   4.390
 8381SOL    HW226043   1.421   5.246   4.502
 8382SOL     OW26044   1.395   1.967   2.602
 8382SOL    HW126045   1.492   1.992   2.597
 8382SOL    HW226046   1.381   1.904   2.679
 8383SOL     OW26047   2.847   2.481   6.862
 8383SOL    HW126048   2.760   2.523   6.887
 8383SOL    HW226049   2.873   2.511   6.770
 8384SOL     OW26050   7.016   6.088   1.289
 8384SOL    HW126051   7.000   6.133   1.377
 8384SOL    HW226052   0.081   6.118   1.252
 8385SOL     OW26053   4.903   2.129   2.274
 8385SOL    HW126054   4.977   2.064   2.258
 8385SOL    HW226055   4.869   2.119   2.367
 8386SOL     OW26056   0.807   4.262   2.752
 8386SOL    HW126057   0.848   4.186   2.802
 8386SOL    HW226058   0.750   4.316   2.814
 8387SOL     OW26059   1.391   1.526   1.325
 8387SOL    HW126060   1.295   1.497   1.320
 8387SOL    HW226061   1.446   1.454   1.368
 8388SOL     OW26062   2.931   6.416   1.609
 8388SOL    HW126063   2.870   6.338   1.622
 8388SOL    HW226064   2.965   6.416   1.515
 8389SOL     OW26065   5.212   2.944   1.950
 8389SOL    HW126066   5.223   2.845   1.953
 8389SOL    HW226067   5.228   2.982   2.042
 8390SOL     OW26068   4.723   1.870   5.592
 8390SOL    HW126069   4.782   1.844   5.668
 8390SOL    HW226070   4.753   1.823   5.509
 8391SOL     OW26071   6.436   0.216   0.687
 8391SOL    HW126072   6.464   0.133   0.638
 8391SOL    HW226073   6.435   0.293   0.623
 8392SOL     OW26074   5.920   3.450   4.553
 8392SOL    HW126075   5.824   3.468   4.573
 8392SOL    HW226076   5.928   3.397   4.469
 8393SOL     OW26077   4.999   0.210   1.820
 8393SOL    HW126078   5.006   0.157   1.905
 8393SOL    HW226079   4.903   0.228   1.800
 8394SOL     OW26080   5.817   3.722   2.453
 8394SOL    HW126081   5.725   3.700   2.486
 8394SOL    HW226082   5.873   3.753   2.529
 8395SOL     OW26083   2.250   0.735   5.221
 8395SOL    HW126084   2.166   0.685   5.199
 8395SOL    HW226085   2.274   0.794   5.144
 8396SOL     OW26086   4.718   5.635   5.065
 8396SOL    HW126087   4.810   5.617   5.102
 8396SOL    HW226088   4.694   5.731   5.080
 8397SOL     OW26089   6.373   1.301   3.740
 8397SOL    HW126090   6.430   1.269   3.664
 8397SOL    HW226091   6.414   1.383   3.780
 8398SOL     OW26092   5.288   2.085   5.832
 8398SOL    HW126093   5.246   2.099   5.743
 8398SOL    HW226094   5.332   2.170   5.863
 8399SOL     OW26095   0.152   5.692   0.006
 8399SOL    HW126096   0.184   5.711   6.936
 8399SOL    HW226097   0.098   5.608   0.006
 8400SOL     OW26098   1.558   2.178   4.190
 8400SOL    HW126099   1.543   2.095   4.136
 8400SOL    HW226100   1.643   2.222   4.161
 8401SOL     OW26101   2.626   0.486   5.503
 8401SOL    HW126102   2.585   0.407   5.456
 8401SOL    HW226103   2.596   0.570   5.458
 8402SOL     OW26104   4.478   1.193   5.524
 8402SOL    HW126105   4.571   1.178   5.559
 8402SOL    HW226106   4.422   1.113   5.544
 8403SOL     OW26107   6.352   4.349   4.262
 8403SOL    HW126108   6.392   4.428   4.216
 8403SOL    HW226109   6.425   4.290   4.297
 8404SOL     OW26110   2.323   2.040   6.609
 8404SOL    HW126111   2.300   2.135   6.631
 8404SOL    HW226112   2.407   2.037   6.556
 8405SOL     OW26113   3.793   1.233   5.166
 8405SOL    HW126114   3.885   1.252   5.200
 8405SOL    HW226115   3.755   1.315   5.124
 8406SOL     OW26116   5.286   0.883   6.316
 8406SOL    HW126117   5.385   0.888   6.331
 8406SOL    HW226118   5.240   0.943   6.382
 8407SOL     OW26119   3.620   6.439   3.268
 8407SOL    HW126120   3.593   6.345   3.290
 8407SOL    HW226121   3.539   6.492   3.245
 8408SOL     OW26122   5.242   0.243   1.096
 8408SOL    HW126123   5.173   0.174   1.073
 8408SOL    HW226124   5.218   0.286   1.182
 8409SOL     OW26125   4.348   2.238   2.031
 8409SOL    HW126126   4.440   2.225   2.068
 8409SOL    HW226127   4.346   2.318   1.971
 8410SOL     OW26128   6.789   2.045   1.719
 8410SOL    HW126129   6.802   2.119   1.653
 8410SOL    HW226130   6.787   1.957   1.672
 8411SOL     OW26131   0.882   6.478   0.624
 8411SOL    HW126132   0.893   6.538   0.544
 8411SOL    HW226133   0.816   6.519   0.687
 8412SOL     OW26134   2.863   3.417   0.445
 8412SOL    HW126135   2.925   3.471   0.502
 8412SOL    HW226136   2.873   3.444   0.349
 8413SOL     OW26137   4.040   5.195   5.643
 8413SOL    HW126138   4.124   5.164   5.689
 8413SOL    HW226139   3.962   5.145   5.680
 8414SOL     OW26140   1.422   1.281   2.623
 8414SOL    HW126141   1.348   1.313   2.563
 8414SOL    HW226142   1.405   1.185   2.648
 8415SOL     OW26143   2.628   0.008   4.370
 8415SOL    HW126144   2.641   6.935   4.347
 8415SOL    HW226145   2.647   0.021   4.468
 8416SOL     OW26146   6.544   1.591   4.618
 8416SOL    HW126147   6.486   1.638   4.684
 8416SOL    HW226148   6.632   1.638   4.612
 8417SOL     OW26149   0.834   2.995   5.050
 8417SOL    HW126150   0.774   2.928   5.092
 8417SOL    HW226151   0.912   3.013   5.111
 8418SOL     OW26152   1.090   5.866   2.383
 8418SOL    HW126153   1.164   5.852   2.449
 8418SOL    HW226154   1.083   5.785   2.324
 8419SOL     OW26155   5.125   0.680   3.890
 8419SOL    HW126156   5.178   0.647   3.968
 8419SOL    HW226157   5.117   0.780   3.895
 8420SOL     OW26158   3.211   6.392   2.084
 8420SOL    HW126159   3.304   6.429   2.094
 8420SOL    HW226160   3.156   6.418   2.164
 8421SOL     OW26161   4.026   6.532   6.011
 8421SOL    HW126162   4.006   6.440   5.979
 8421SOL    HW226163   3.974   6.551   6.094
 8422SOL     OW26164   4.624   2.592   2.907
 8422SOL    HW126165   4.663   2.500   2.897
 8422SOL    HW226166   4.579   2.600   2.997
 8423SOL     OW26167   5.517   4.304   5.799
 8423SOL    HW126168   5.457   4.224   5.792
 8423SOL    HW226169   5.572   4.296   5.883
 8424SOL     OW26170   2.195   0.144   3.402
 8424SOL    HW126171   2.215   0.049   3.422
 8424SOL    HW226172   2.238   0.203   3.471
 8425SOL     OW26173   2.989   3.636   3.204
 8425SOL    HW126174   2.949   3.668   3.118
 8425SOL    HW226175   3.087   3.655   3.204
 8426SOL     OW26176   3.888   2.967   2.026
 8426SOL    HW126177   3.831   2.899   2.073
 8426SOL    HW226178   3.927   3.030   2.092
 8427SOL     OW26179   2.921   3.819   3.436
 8427SOL    HW126180   2.831   3.836   3.477
 8427SOL    HW226181   2.918   3.734   3.384
 8428SOL     OW26182   6.875   0.656   0.833
 8428SOL    HW126183   6.934   0.651   0.914
 8428SOL    HW226184   6.839   0.565   0.813
 8429SOL     OW26185   1.988   5.745   6.247
 8429SOL    HW126186   2.038   5.667   6.285
 8429SOL    HW226187   1.889   5.730   6.259
 8430SOL     OW26188   4.209   5.970   4.268
 8430SOL    HW126189   4.274   5.957   4.343
 8430SOL    HW226190   4.172   6.063   4.271
 8431SOL     OW26191   2.691   3.191   6.471
 8431SOL    HW126192   2.640   3.210   6.387
 8431SOL    HW226193   2.767   3.256   6.479
 8432SOL     OW26194   6.981   5.694   6.274
 8432SOL    HW126195   6.972   5.788   6.305
 8432SOL    HW226196   6.897   5.644   6.296
 8433SOL     OW26197   4.555   2.697   0.652
 8433SOL    HW126198   4.510   2.756   0.586
 8433SOL    HW226199   4.487   2.637   0.695
 8434SOL     OW26200   2.173   5.590   5.379
 8434SOL    HW126201   2.240   5.652   5.421
 8434SOL    HW226202   2.180   5.596   5.280
 8435SOL     OW26203   4.773   1.121   2.690
 8435SOL    HW126204   4.862   1.130   2.735
 8435SOL    HW226205   4.733   1.212   2.677
 8436SOL     OW26206   2.367   6.610   3.224
 8436SOL    HW126207   2.457   6.627   3.264
 8436SOL    HW226208   2.301   6.676   3.260
 8437SOL     OW26209   2.254   2.684   2.391
 8437SOL    HW126210   2.208   2.756   2.443
 8437SOL    HW226211   2.327   2.724   2.336
 8438SOL     OW26212   1.588   4.563   3.250
 8438SOL    HW126213   1.616   4.475   3.289
 8438SOL    HW226214   1.493   4.558   3.221
 8439SOL     OW26215   5.864   5.812   3.482
 8439SOL    HW126216   5.865   5.908   3.512
 8439SOL    HW226217   5.796   5.801   3.410
 8440SOL     OW26218   2.105   1.342   3.380
 8440SOL    HW126219   2.154   1.273   3.433
 8440SOL    HW226220   2.052   1.299   3.307
 8441SOL     OW26221   5.696   0.157   5.455
 8441SOL    HW126222   5.780   0.139   5.404
 8441SOL    HW226223   5.621   0.174   5.392
 8442SOL     OW26224   3.767   0.839   5.211
 8442SOL    HW126225   3.861   0.805   5.213
 8442SOL    HW226226   3.751   0.888   5.126
 8443SOL     OW26227   1.469   4.881   3.600
 8443SOL    HW126228   1.503   4.829   3.520
 8443SOL    HW226229   1.492   4.978   3.588
 8444SOL     OW26230   4.648   5.968   3.353
 8444SOL    HW126231   4.657   5.909   3.433
 8444SOL    HW226232   4.577   6.037   3.370
 8445SOL     OW26233   3.356   6.973   6.894
 8445SOL    HW126234   3.296   6.897   6.917
 8445SOL    HW226235   3.337   0.027   6.955
 8446SOL     OW26236   0.397   5.932   5.133
 8446SOL    HW126237   0.453   5.886   5.063
 8446SOL    HW226238   0.456   5.981   5.197
 8447SOL     OW26239   3.663   1.502   2.418
 8447SOL    HW126240   3.682   1.592   2.457
 8447SOL    HW226241   3.714   1.433   2.468
 8448SOL     OW26242   5.061   6.664   2.927
 8448SOL    HW126243   5.031   6.726   2.999
 8448SOL    HW226244   5.102   6.717   2.853
 8449SOL     OW26245   1.867   2.379   3.142
 8449SOL    HW126246   1.924   2.414   3.216
 8449SOL    HW226247   1.778   2.352   3.178
 8450SOL     OW26248   6.528   0.943   6.776
 8450SOL    HW126249   6.563   1.008   6.844
 8450SOL    HW226250   6.580   0.953   6.692
 8451SOL     OW26251   4.392   1.910   1.290
 8451SOL    HW126252   4.480   1.938   1.253
 8451SOL    HW226253   4.406   1.863   1.377
 8452SOL     OW26254   5.161   1.791   4.719
 8452SOL    HW126255   5.174   1.867   4.655
 8452SOL    HW226256   5.222   1.716   4.694
 8453SOL     OW26257   0.725   6.087   6.970
 8453SOL    HW126258   0.808   6.142   6.961
 8453SOL    HW226259   0.651   6.144   7.006
 8454SOL     OW26260   0.574   4.706   0.032
 8454SOL    HW126261   0.653   4.702   6.994
 8454SOL    HW226262   0.594   4.652   0.115
 8455SOL     OW26263   0.973   0.591   2.863
 8455SOL    HW126264   0.937   0.636   2.781
 8455SOL    HW226265   0.987   0.494   2.844
 8456SOL     OW26266   5.464   1.306   3.402
 8456SOL    HW126267   5.400   1.354   3.342
 8456SOL    HW226268   5.432   1.213   3.419
 8457SOL     OW26269   6.322   6.276   4.912
 8457SOL    HW126270   6.224   6.293   4.906
 8457SOL    HW226271   6.369   6.362   4.931
 8458SOL     OW26272   6.751   0.570   6.802
 8458SOL    HW126273   6.705   0.549   6.716
 8458SOL    HW226274   6.836   0.619   6.784
 8459SOL     OW26275   1.627   5.890   3.152
 8459SOL    HW126276   1.722   5.877   3.126
 8459SOL    HW226277   1.607   5.837   3.234
 8460SOL     OW26278   3.145   4.166   5.134
 8460SOL    HW126279   3.157   4.139   5.039
 8460SOL    HW226280   3.057   4.213   5.145
 8461SOL     OW26281   6.665   2.712   4.893
 8461SOL    HW126282   6.719   2.796   4.894
 8461SOL    HW226283   6.569   2.735   4.878
 8462SOL     OW26284   2.291   2.200   1.822
 8462SOL    HW126285   2.337   2.194   1.910
 8462SOL    HW226286   2.359   2.210   1.749
 8463SOL     OW26287   5.827   0.671   2.221
 8463SOL    HW126288   5.794   0.663   2.127
 8463SOL    HW226289   5.819   0.766   2.252
 8464SOL     OW26290   5.878   2.857   4.480
 8464SOL    HW126291   5.833   2.830   4.565
 8464SOL    HW226292   5.850   2.796   4.406
 8465SOL     OW26293   1.586   2.008   0.391
 8465SOL    HW126294   1.680   1.998   0.359
 8465SOL    HW226295   1.578   2.092   0.445
 8466SOL     OW26296   0.850   5.879   3.356
 8466SOL    HW126297   0.947   5.901   3.345
 8466SOL    HW226298   0.804   5.885   3.267
 8467SOL     OW26299   3.063   5.551   1.047
 8467SOL    HW126300   3.076   5.545   0.948
 8467SOL    HW226301   3.149   5.529   1.093
 8468SOL     OW26302   4.794   1.794   6.742
 8468SOL    HW126303   4.893   1.778   6.746
 8468SOL    HW226304   4.746   1.710   6.769
 8469SOL     OW26305   3.247   2.851   6.484
 8469SOL    HW126306   3.333   2.828   6.438
 8469SOL    HW226307   3.266   2.912   6.561
 8470SOL     OW26308   2.881   3.365   6.787
 8470SOL    HW126309   2.899   3.392   6.692
 8470SOL    HW226310   2.877   3.266   6.794
 8471SOL     OW26311   3.358   0.925   3.703
 8471SOL    HW126312   3.415   0.894   3.626
 8471SOL    HW226313   3.262   0.926   3.675
 8472SOL     OW26314   1.074   6.783   4.181
 8472SOL    HW126315   0.978   6.759   4.191
 8472SOL    HW226316   1.117   6.723   4.113
 8473SOL     OW26317   6.961   4.983   6.798
 8473SOL    HW126318   6.971   4.913   6.727
 8473SOL    HW226319   0.028   5.019   6.822
 8474SOL     OW26320   3.372   3.849   1.349
 8474SOL    HW126321   3.312   3.811   1.278
 8474SOL    HW226322   3.352   3.804   1.436
 8475SOL     OW26323   6.061   1.515   2.692
 8475SOL    HW126324   6.150   1.519   2.646
 8475SOL    HW226325   6.073   1.533   2.789
 8476SOL     OW26326   4.371   1.025   2.178
 8476SOL    HW126327   4.366   0.969   2.261
 8476SOL    HW226328   4.335   1.116   2.197
 8477SOL     OW26329   2.735   0.656   1.203
 8477SOL    HW126330   2.660   0.722   1.209
 8477SOL    HW226331   2.708   0.580   1.144
 8478SOL     OW26332   1.401   0.563   5.559
 8478SOL    HW126333   1.479   0.551   5.497
 8478SOL    HW226334   1.360   0.653   5.542
 8479SOL     OW26335   5.957   0.934   0.865
 8479SOL    HW126336   5.986   0.971   0.953
 8479SOL    HW226337   5.919   0.842   0.878
 8480SOL     OW26338   3.277   0.927   1.354
 8480SOL    HW126339   3.225   0.879   1.283
 8480SOL    HW226340   3.329   0.860   1.408
 8481SOL     OW26341   3.753   1.218   4.278
 8481SOL    HW126342   3.678   1.202   4.343
 8481SOL    HW226343   3.781   1.313   4.283
 8482SOL     OW26344   1.346   6.927   2.315
 8482SOL    HW126345   1.406   6.978   2.254
 8482SOL    HW226346   1.382   6.835   2.328
 8483SOL     OW26347   3.716   6.008   0.645
 8483SOL    HW126348   3.793   6.011   0.580
 8483SOL    HW226349   3.650   5.939   0.614
 8484SOL     OW26350   0.728   4.979   4.642
 8484SOL    HW126351   0.630   4.994   4.633
 8484SOL    HW226352   0.760   5.016   4.730
 8485SOL     OW26353   2.301   3.985   0.025
 8485SOL    HW126354   2.350   3.940   6.974
 8485SOL    HW226355   2.351   3.972   0.111
 8486SOL     OW26356   5.619   0.888   2.052
 8486SOL    HW126357   5.625   0.861   1.956
 8486SOL    HW226358   5.586   0.810   2.106
 8487SOL     OW26359   5.046   0.316   1.300
 8487SOL    HW126360   4.975   0.246   1.293
 8487SOL    HW226361   5.013   0.402   1.262
 8488SOL     OW26362   4.937   3.493   4.022
 8488SOL    HW126363   4.924   3.421   4.090
 8488SOL    HW226364   4.957   3.452   3.933
 8489SOL     OW26365   5.009   4.547   1.759
 8489SOL    HW126366   5.107   4.544   1.778
 8489SOL    HW226367   4.994   4.570   1.663
 8490SOL     OW26368   4.382   4.947   3.046
 8490SOL    HW126369   4.293   4.925   3.086
 8490SOL    HW226370   4.389   4.905   2.956
 8491SOL     OW26371   2.240   0.568   2.354
 8491SOL    HW126372   2.265   0.567   2.451
 8491SOL    HW226373   2.284   0.492   2.307
 8492SOL     OW26374   5.942   2.373   5.181
 8492SOL    HW126375   5.896   2.292   5.143
 8492SOL    HW226376   5.974   2.352   5.274
 8493SOL     OW26377   4.360   1.506   6.613
 8493SOL    HW126378   4.402   1.425   6.653
 8493SOL    HW226379   4.297   1.478   6.540
 8494SOL     OW26380   3.318   5.648   6.502
 8494SOL    HW126381   3.240   5.612   6.450
 8494SOL    HW226382   3.289   5.666   6.596
 8495SOL     OW26383   6.909   2.574   1.169
 8495SOL    HW126384   6.963   2.657   1.150
 8495SOL    HW226385   6.835   2.567   1.103
 8496SOL     OW26386   0.190   2.440   3.351
 8496SOL    HW126387   0.175   2.349   3.312
 8496SOL    HW226388   0.269   2.483   3.306
 8497SOL     OW26389   5.960   5.381   3.524
 8497SOL    HW126390   5.956   5.360   3.427
 8497SOL    HW226391   6.027   5.453   3.540
 8498SOL     OW26392   7.007   0.819   1.434
 8498SOL    HW126393   6.989   0.915   1.455
 8498SOL    HW226394   6.983   0.801   1.338
 8499SOL     OW26395   3.316   4.454   6.323
 8499SOL    HW126396   3.265   4.368   6.329
 8499SOL    HW226397   3.410   4.439   6.354
 8500SOL     OW26398   2.642   6.462   6.008
 8500SOL    HW126399   2.635   6.422   5.917
 8500SOL    HW226400   2.559   6.440   6.059
 8501SOL     OW26401   1.779   3.501   6.840
 8501SOL    HW126402   1.811   3.511   6.746
 8501SOL    HW226403   1.691   3.452   6.840
 8502SOL     OW26404   6.783   6.860   1.793
 8502SOL    HW126405   6.778   6.922   1.871
 8502SOL    HW226406   6.772   6.766   1.825
 8503SOL     OW26407   2.701   5.053   3.355
 8503SOL    HW126408   2.697   4.954   3.366
 8503SOL    HW226409   2.779   5.089   3.407
 8504SOL     OW26410   1.311   5.227   3.411
 8504SOL    HW126411   1.242   5.175   3.461
 8504SOL    HW226412   1.275   5.318   3.388
 8505SOL     OW26413   4.973   3.724   3.399
 8505SOL    HW126414   4.941   3.782   3.324
 8505SOL    HW226415   5.010   3.638   3.362
 8506SOL     OW26416   1.624   6.784   0.539
 8506SOL    HW126417   1.534   6.827   0.549
 8506SOL    HW226418   1.613   6.692   0.502
 8507SOL     OW26419   1.642   0.866   6.112
 8507SOL    HW126420   1.590   0.837   6.032
 8507SOL    HW226421   1.637   0.794   6.182
 8508SOL     OW26422   0.080   2.140   5.343
 8508SOL    HW126423   7.014   2.130   5.386
 8508SOL    HW226424   0.146   2.172   5.412
 8509SOL     OW26425   6.264   1.671   4.199
 8509SOL    HW126426   6.243   1.757   4.154
 8509SOL    HW226427   6.277   1.686   4.297
 8510SOL     OW26428   5.770   5.966   2.758
 8510SOL    HW126429   5.681   5.986   2.799
 8510SOL    HW226430   5.827   5.918   2.825
 8511SOL     OW26431   6.857   4.827   1.807
 8511SOL    HW126432   6.954   4.812   1.825
 8511SOL    HW226433   6.806   4.830   1.893
 8512SOL     OW26434   5.137   2.209   6.950
 8512SOL    HW126435   5.075   2.194   0.004
 8512SOL    HW226436   5.230   2.223   6.985
 8513SOL     OW26437   6.518   4.365   1.270
 8513SOL    HW126438   6.520   4.269   1.244
 8513SOL    HW226439   6.553   4.376   1.363
 8514SOL     OW26440   2.607   1.226   4.949
 8514SOL    HW126441   2.532   1.216   4.884
 8514SOL    HW226442   2.610   1.321   4.981
 8515SOL     OW26443   0.898   1.072   0.459
 8515SOL    HW126444   0.814   1.122   0.439
 8515SOL    HW226445   0.885   0.975   0.438
 8516SOL     OW26446   5.808   2.903   2.320
 8516SOL    HW126447   5.861   2.838   2.265
 8516SOL    HW226448   5.856   2.991   2.323
 8517SOL     OW26449   1.449   2.841   5.292
 8517SOL    HW126450   1.543   2.834   5.258
 8517SOL    HW226451   1.403   2.752   5.281
 8518SOL     OW26452   5.520   4.683   6.857
 8518SOL    HW126453   5.510   4.702   6.760
 8518SOL    HW226454   5.490   4.762   6.910
 8519SOL     OW26455   1.538   4.182   0.869
 8519SOL    HW126456   1.513   4.087   0.890
 8519SOL    HW226457   1.607   4.183   0.797
 8520SOL     OW26458   3.824   4.017   4.667
 8520SOL    HW126459   3.798   3.920   4.672
 8520SOL    HW226460   3.897   4.028   4.600
 8521SOL     OW26461   1.542   6.037   5.316
 8521SOL    HW126462   1.442   6.029   5.320
 8521SOL    HW226463   1.576   6.067   5.405
 8522SOL     OW26464   1.393   0.087   0.955
 8522SOL    HW126465   1.379   0.185   0.969
 8522SOL    HW226466   1.443   0.073   0.870
 8523SOL     OW26467   2.661   0.121   6.387
 8523SOL    HW126468   2.736   0.138   6.452
 8523SOL    HW226469   2.629   0.208   6.349
 8524SOL     OW26470   1.677   4.988   4.545
 8524SOL    HW126471   1.615   5.037   4.485
 8524SOL    HW226472   1.758   5.043   4.563
 8525SOL     OW26473   6.716   4.785   1.389
 8525SOL    HW126474   6.797   4.834   1.356
 8525SOL    HW226475   6.639   4.848   1.394
 8526SOL     OW26476   2.497   6.968   0.842
 8526SOL    HW126477   2.482   6.885   0.789
 8526SOL    HW226478   2.595   6.981   0.858
 8527SOL     OW26479   3.580   0.165   6.588
 8527SOL    HW126480   3.516   0.090   6.609
 8527SOL    HW226481   3.567   0.194   6.494
 8528SOL     OW26482   4.777   2.414   0.763
 8528SOL    HW126483   4.791   2.488   0.828
 8528SOL    HW226484   4.683   2.416   0.729
 8529SOL     OW26485   1.177   6.180   6.817
 8529SOL    HW126486   1.189   6.082   6.806
 8529SOL    HW226487   1.250   6.215   6.877
 8530SOL     OW26488   2.894   3.622   4.084
 8530SOL    HW126489   2.914   3.675   4.167
 8530SOL    HW226490   2.796   3.627   4.065
 8531SOL     OW26491   6.868   5.777   3.868
 8531SOL    HW126492   6.857   5.741   3.961
 8531SOL    HW226493   6.960   5.754   3.834
 8532SOL     OW26494   3.718   6.213   4.103
 8532SOL    HW126495   3.637   6.255   4.144
 8532SOL    HW226496   3.699   6.192   4.007
 8533SOL     OW26497   1.092   6.119   6.511
 8533SOL    HW126498   1.154   6.052   6.471
 8533SOL    HW226499   1.094   6.111   6.611
 8534SOL     OW26500   4.168   2.283   3.809
 8534SOL    HW126501   4.190   2.222   3.886
 8534SOL    HW226502   4.069   2.289   3.799
 8535SOL     OW26503   5.703   0.973   3.727
 8535SOL    HW126504   5.795   0.960   3.691
 8535SOL    HW226505   5.703   1.048   3.793
 8536SOL     OW26506   0.221   0.828   4.396
 8536SOL    HW126507   0.286   0.843   4.321
 8536SOL    HW226508   0.136   0.791   4.358
 8537SOL     OW26509   6.821   1.198   3.435
 8537SOL    HW126510   6.851   1.148   3.355
 8537SOL    HW226511   6.860   1.290   3.435
 8538SOL     OW26512   1.236   2.084   0.193
 8538SOL    HW126513   1.238   1.998   0.243
 8538SOL    HW226514   1.327   2.125   0.193
 8539SOL     OW26515   6.397   2.825   2.903
 8539SOL    HW126516   6.376   2.806   2.807
 8539SOL    HW226517   6.339   2.768   2.962
 8540SOL     OW26518   4.480   6.980   0.042
 8540SOL    HW126519   4.405   6.981   6.998
 8540SOL    HW226520   4.561   6.939   0.001
 8541SOL     OW26521   1.973   2.093   3.822
 8541SOL    HW126522   1.895   2.133   3.774
 8541SOL    HW226523   1.975   2.127   3.916
 8542SOL     OW26524   4.215   4.178   6.190
 8542SOL    HW126525   4.215   4.259   6.130
 8542SOL    HW226526   4.230   4.096   6.135
 8543SOL     OW26527   2.054   2.904   0.189
 8543SOL    HW126528   2.080   2.824   0.242
 8543SOL    HW226529   2.132   2.967   0.184
 8544SOL     OW26530   5.366   2.669   4.061
 8544SOL    HW126531   5.443   2.645   4.001
 8544SOL    HW226532   5.285   2.620   4.033
 8545SOL     OW26533   4.997   6.241   5.233
 8545SOL    HW126534   5.043   6.327   5.212
 8545SOL    HW226535   5.011   6.176   5.158
 8546SOL     OW26536   5.012   1.645   4.054
 8546SOL    HW126537   5.091   1.703   4.035
 8546SOL    HW226538   4.968   1.675   4.139
 8547SOL     OW26539   0.957   4.378   3.599
 8547SOL    HW126540   0.894   4.333   3.663
 8547SOL    HW226541   0.923   4.367   3.506
 8548SOL     OW26542   5.352   1.099   4.706
 8548SOL    HW126543   5.302   1.057   4.630
 8548SOL    HW226544   5.294   1.100   4.788
 8549SOL     OW26545   6.290   3.295   4.131
 8549SOL    HW126546   6.273   3.315   4.227
 8549SOL    HW226547   6.267   3.376   4.076
 8550SOL     OW26548   1.437   5.155   6.497
 8550SOL    HW126549   1.530   5.192   6.496
 8550SOL    HW226550   1.406   5.140   6.404
 8551SOL     OW26551   3.643   3.998   6.766
 8551SOL    HW126552   3.727   3.945   6.770
 8551SOL    HW226553   3.574   3.956   6.826
 8552SOL     OW26554   2.981   5.990   3.454
 8552SOL    HW126555   2.923   6.064   3.420
 8552SOL    HW226556   3.048   5.967   3.384
 8553SOL     OW26557   4.966   6.572   0.534
 8553SOL    HW126558   4.912   6.608   0.610
 8553SOL    HW226559   5.034   6.508   0.568
 8554SOL     OW26560   6.982   4.235   7.004
 8554SOL    HW126561   6.896   4.210   0.027
 8554SOL    HW226562   7.009   4.160   6.944
 8555SOL     OW26563   1.085   0.650   4.163
 8555SOL    HW126564   1.041   0.574   4.211
 8555SOL    HW226565   1.129   0.616   4.080
 8556SOL     OW26566   6.679   0.447   3.983
 8556SOL    HW126567   6.671   0.466   3.885
 8556SOL    HW226568   6.591   0.417   4.019
 8557SOL     OW26569   6.966   6.647   1.151
 8557SOL    HW126570   0.042   6.647   1.160
 8557SOL    HW226571   6.941   6.679   1.059
 8558SOL     OW26572   1.395   5.132   1.985
 8558SOL    HW126573   1.297   5.115   1.999
 8558SOL    HW226574   1.428   5.073   1.911
 8559SOL     OW26575   1.304   0.125   2.020
 8559SOL    HW126576   1.317   0.025   2.021
 8559SOL    HW226577   1.221   0.146   1.967
 8560SOL     OW26578   6.283   1.971   0.344
 8560SOL    HW126579   6.218   2.045   0.330
 8560SOL    HW226580   6.244   1.903   0.407
 8561SOL     OW26581   5.045   6.638   3.413
 8561SOL    HW126582   4.969   6.665   3.472
 8561SOL    HW226583   5.011   6.617   3.322
 8562SOL     OW26584   3.514   6.889   4.190
 8562SOL    HW126585   3.577   6.957   4.151
 8562SOL    HW226586   3.424   6.898   4.147
 8563SOL     OW26587   2.746   2.713   0.039
 8563SOL    HW126588   2.674   2.651   0.008
 8563SOL    HW226589   2.778   2.685   0.130
 8564SOL     OW26590   1.292   6.892   3.567
 8564SOL    HW126591   1.249   6.926   3.650
 8564SOL    HW226592   1.317   6.969   3.509
 8565SOL     OW26593   3.943   6.801   0.911
 8565SOL    HW126594   4.035   6.840   0.911
 8565SOL    HW226595   3.907   6.799   1.004
 8566SOL     OW26596   1.216   2.079   3.014
 8566SOL    HW126597   1.160   2.158   3.039
 8566SOL    HW226598   1.312   2.106   3.014
 8567SOL     OW26599   5.037   1.351   1.026
 8567SOL    HW126600   5.013   1.384   1.118
 8567SOL    HW226601   5.136   1.354   1.015
 8568SOL     OW26602   5.298   1.685   0.513
 8568SOL    HW126603   5.257   1.633   0.438
 8568SOL    HW226604   5.396   1.665   0.518
 8569SOL     OW26605   4.650   1.376   4.278
 8569SOL    HW126606   4.680   1.408   4.368
 8569SOL    HW226607   4.712   1.412   4.208
 8570SOL     OW26608   0.378   4.121   6.881
 8570SOL    HW126609   0.456   4.066   6.852
 8570SOL    HW226610   0.393   4.217   6.856
 8571SOL     OW26611   6.777   4.080   4.491
 8571SOL    HW126612   6.754   4.089   4.588
 8571SOL    HW226613   6.790   3.983   4.470
 8572SOL     OW26614   2.130   4.970   5.329
 8572SOL    HW126615   2.053   4.908   5.347
 8572SOL    HW226616   2.094   5.060   5.302
 8573SOL     OW26617   4.188   5.792   5.749
 8573SOL    HW126618   4.134   5.716   5.715
 8573SOL    HW226619   4.145   5.831   5.830
 8574SOL     OW26620   0.393   3.725   5.545
 8574SOL    HW126621   0.429   3.711   5.637
 8574SOL    HW226622   0.325   3.654   5.525
 8575SOL     OW26623   3.213   2.589   0.802
 8575SOL    HW126624   3.303   2.610   0.766
 8575SOL    HW226625   3.215   2.594   0.902
 8576SOL     OW26626   1.310   0.349   1.588
 8576SOL    HW126627   1.242   0.309   1.526
 8576SOL    HW226628   1.401   0.315   1.565
 8577SOL     OW26629   6.434   6.274   3.353
 8577SOL    HW126630   6.483   6.287   3.439
 8577SOL    HW226631   6.449   6.181   3.319
 8578SOL     OW26632   4.554   7.011   3.656
 8578SOL    HW126633   4.547   6.914   3.679
 8578SOL    HW226634   4.549   7.023   3.557
 8579SOL     OW26635   0.979   4.669   3.525
 8579SOL    HW126636   1.070   4.708   3.539
 8579SOL    HW226637   0.982   4.571   3.546
 8580SOL     OW26638   1.695   6.203   1.334
 8580SOL    HW126639   1.782   6.170   1.373
 8580SOL    HW226640   1.622   6.138   1.357
 8581SOL     OW26641   3.092   1.876   0.651
 8581SOL    HW126642   3.170   1.919   0.606
 8581SOL    HW226643   3.025   1.946   0.676
 8582SOL     OW26644   4.312   4.458   1.833
 8582SOL    HW126645   4.368   4.381   1.865
 8582SOL    HW226646   4.255   4.429   1.757
 8583SOL     OW26647   6.295   6.775   5.796
 8583SOL    HW126648   6.275   6.872   5.815
 8583SOL    HW226649   6.284   6.722   5.880
 8584SOL     OW26650   6.493   5.296   0.508
 8584SOL    HW126651   6.555   5.354   0.561
 8584SOL    HW226652   6.398   5.315   0.534
 8585SOL     OW26653   0.064   0.796   0.349
 8585SOL    HW126654   0.097   0.731   0.281
 8585SOL    HW226655   6.999   0.765   0.385
 8586SOL     OW26656   3.836   5.556   2.859
 8586SOL    HW126657   3.874   5.467   2.835
 8586SOL    HW226658   3.895   5.629   2.823
 8587SOL     OW26659   0.255   1.873   2.455
 8587SOL    HW126660   0.159   1.865   2.481
 8587SOL    HW226661   0.271   1.961   2.410
 8588SOL     OW26662   4.409   2.378   6.932
 8588SOL    HW126663   4.469   2.354   7.009
 8588SOL    HW226664   4.454   2.446   6.875
 8589SOL     OW26665   3.871   1.579   3.820
 8589SOL    HW126666   3.820   1.540   3.743
 8589SOL    HW226667   3.869   1.678   3.815
 8590SOL     OW26668   5.897   5.258   5.429
 8590SOL    HW126669   5.850   5.313   5.498
 8590SOL    HW226670   5.981   5.220   5.469
 8591SOL     OW26671   0.961   3.735   6.543
 8591SOL    HW126672   0.912   3.695   6.620
 8591SOL    HW226673   0.907   3.808   6.502
 8592SOL     OW26674   6.522   4.366   1.011
 8592SOL    HW126675   6.546   4.406   1.100
 8592SOL    HW226676   6.509   4.440   0.945
 8593SOL     OW26677   1.960   0.563   2.250
 8593SOL    HW126678   1.892   0.609   2.307
 8593SOL    HW226679   2.045   0.552   2.301
 8594SOL     OW26680   2.995   3.775   4.280
 8594SOL    HW126681   2.993   3.800   4.377
 8594SOL    HW226682   3.028   3.853   4.226
 8595SOL     OW26683   1.800   2.204   2.489
 8595SOL    HW126684   1.880   2.200   2.549
 8595SOL    HW226685   1.766   2.298   2.484
 8596SOL     OW26686   6.116   5.304   1.727
 8596SOL    HW126687   6.027   5.346   1.707
 8596SOL    HW226688   6.123   5.216   1.680
 8597SOL     OW26689   2.641   1.548   0.569
 8597SOL    HW126690   2.571   1.594   0.515
 8597SOL    HW226691   2.642   1.587   0.661
 8598SOL     OW26692   6.014   4.388   1.105
 8598SOL    HW126693   5.944   4.429   1.163
 8598SOL    HW226694   6.028   4.444   1.024
 8599SOL     OW26695   1.832   3.289   3.161
 8599SOL    HW126696   1.793   3.381   3.156
 8599SOL    HW226697   1.931   3.295   3.170
 8600SOL     OW26698   6.609   5.269   6.797
 8600SOL    HW126699   6.679   5.222   6.852
 8600SOL    HW226700   6.529   5.287   6.854
 8601SOL     OW26701   0.497   0.277   4.003
 8601SOL    HW126702   0.531   0.183   4.003
 8601SOL    HW226703   0.403   0.278   4.037
 8602SOL     OW26704   2.357   5.814   2.218
 8602SOL    HW126705   2.372   5.742   2.285
 8602SOL    HW226706   2.360   5.775   2.126
 8603SOL     OW26707   3.999   3.291   0.147
 8603SOL    HW126708   4.018   3.264   0.241
 8603SOL    HW226709   4.031   3.384   0.131
 8604SOL     OW26710   5.554   3.055   3.654
 8604SOL    HW126711   5.561   2.957   3.637
 8604SOL    HW226712   5.471   3.074   3.708
 8605SOL     OW26713   2.514   6.213   3.258
 8605SOL    HW126714   2.440   6.199   3.192
 8605SOL    HW226715   2.477   6.205   3.351
 8606SOL     OW26716   4.041   4.676   5.578
 8606SOL    HW126717   4.129   4.692   5.623
 8606SOL    HW226718   3.997   4.596   5.618
 8607SOL     OW26719   4.330   5.439   2.112
 8607SOL    HW126720   4.390   5.491   2.052
 8607SOL    HW226721   4.356   5.454   2.207
 8608SOL     OW26722   4.394   5.470   2.366
 8608SOL    HW126723   4.485   5.446   2.399
 8608SOL    HW226724   4.328   5.459   2.440
 8609SOL     OW26725   3.236   0.801   5.577
 8609SOL    HW126726   3.169   0.800   5.651
 8609SOL    HW226727   3.304   0.873   5.594
 8610SOL     OW26728   1.251   6.640   3.697
 8610SOL    HW126729   1.277   6.721   3.644
 8610SOL    HW226730   1.195   6.580   3.640
 8611SOL     OW26731   1.812   1.832   4.675
 8611SOL    HW126732   1.779   1.851   4.583
 8611SOL    HW226733   1.897   1.882   4.691
 8612SOL     OW26734   4.013   2.882   5.928
 8612SOL    HW126735   4.072   2.954   5.892
 8612SOL    HW226736   4.027   2.798   5.875
 8613SOL     OW26737   1.897   1.825   1.062
 8613SOL    HW126738   1.974   1.850   1.120
 8613SOL    HW226739   1.815   1.814   1.118
 8614SOL     OW26740   0.905   2.544   3.015
 8614SOL    HW126741   0.991   2.527   3.064
 8614SOL    HW226742   0.847   2.605   3.070
 8615SOL     OW26743   4.477   2.027   5.084
 8615SOL    HW126744   4.448   1.958   5.018
 8615SOL    HW226745   4.452   2.118   5.050
 8616SOL     OW26746   0.981   4.715   0.690
 8616SOL    HW126747   1.078   4.729   0.671
 8616SOL    HW226748   0.943   4.651   0.624
 8617SOL     OW26749   6.161   2.700   0.970
 8617SOL    HW126750   6.086   2.677   0.908
 8617SOL    HW226751   6.133   2.681   1.064
 8618SOL     OW26752   4.808   6.985   2.916
 8618SOL    HW126753   4.771   0.045   2.957
 8618SOL    HW226754   4.867   6.938   2.981
 8619SOL     OW26755   4.325   5.056   6.764
 8619SOL    HW126756   4.281   5.063   6.674
 8619SOL    HW226757   4.262   5.014   6.829
 8620SOL     OW26758   6.221   6.491   2.794
 8620SOL    HW126759   6.186   6.409   2.748
 8620SOL    HW226760   6.310   6.515   2.756
 8621SOL     OW26761   5.984   1.301   3.820
 8621SOL    HW126762   6.000   1.341   3.910
 8621SOL    HW226763   6.043   1.221   3.808
 8622SOL     OW26764   4.617   4.925   0.552
 8622SOL    HW126765   4.703   4.923   0.603
 8622SOL    HW226766   4.613   4.848   0.489
 8623SOL     OW26767   0.555   3.720   3.155
 8623SOL    HW126768   0.473   3.751   3.107
 8623SOL    HW226769   0.630   3.709   3.090
 8624SOL     OW26770   0.536   4.354   2.984
 8624SOL    HW126771   0.449   4.306   2.993
 8624SOL    HW226772   0.589   4.343   3.069
 8625SOL     OW26773   3.861   0.879   4.917
 8625SOL    HW126774   3.920   0.825   4.978
 8625SOL    HW226775   3.904   0.967   4.900
 8626SOL     OW26776   3.244   3.702   4.004
 8626SOL    HW126777   3.340   3.684   4.025
 8626SOL    HW226778   3.200   3.618   3.971
 8627SOL     OW26779   1.068   1.044   0.783
 8627SOL    HW126780   0.971   1.025   0.797
 8627SOL    HW226781   1.122   0.995   0.851
 8628SOL     OW26782   5.246   0.625   6.614
 8628SOL    HW126783   5.293   0.623   6.526
 8628SOL    HW226784   5.188   0.544   6.623
 8629SOL     OW26785   1.111   4.311   4.151
 8629SOL    HW126786   1.144   4.394   4.106
 8629SOL    HW226787   1.164   4.232   4.119
 8630SOL     OW26788   5.874   4.243   3.974
 8630SOL    HW126789   5.946   4.179   3.948
 8630SOL    HW226790   5.886   4.271   4.069
 8631SOL     OW26791   3.922   5.970   4.948
 8631SOL    HW126792   3.926   5.963   5.048
 8631SOL    HW226793   4.010   6.003   4.914
 8632SOL     OW26794   4.071   0.249   3.042
 8632SOL    HW126795   4.061   0.235   2.943
 8632SOL    HW226796   4.138   0.322   3.059
 8633SOL     OW26797   5.581   1.417   4.203
 8633SOL    HW126798   5.528   1.482   4.148
 8633SOL    HW226799   5.548   1.417   4.297
 8634SOL     OW26800   6.967   4.941   2.185
 8634SOL    HW126801   6.874   4.924   2.151
 8634SOL    HW226802   6.964   4.955   2.284
 8635SOL     OW26803   5.917   3.249   5.585
 8635SOL    HW126804   5.947   3.288   5.672
 8635SOL    HW226805   5.856   3.172   5.602
 8636SOL     OW26806   6.905   5.662   0.505
 8636SOL    HW126807   6.927   5.702   0.595
 8636SOL    HW226808   6.989   5.651   0.452
 8637SOL     OW26809   1.785   0.757   0.847
 8637SOL    HW126810   1.704   0.787   0.796
 8637SOL    HW226811   1.762   0.747   0.944
 8638SOL     OW26812   2.858   5.103   0.613
 8638SOL    HW126813   2.826   5.124   0.521
 8638SOL    HW226814   2.830   5.177   0.675
 8639SOL     OW26815   6.308   3.765   1.976
 8639SOL    HW126816   6.277   3.853   1.940
 8639SOL    HW226817   6.364   3.719   1.907
 8640SOL     OW26818   5.097   5.147   1.063
 8640SOL    HW126819   5.008   5.155   1.108
 8640SOL    HW226820   5.108   5.221   0.996
 8641SOL     OW26821   6.590   4.171   3.037
 8641SOL    HW126822   6.536   4.253   3.056
 8641SOL    HW226823   6.634   4.180   2.948
 8642SOL     OW26824   4.447   0.942   1.545
 8642SOL    HW126825   4.451   1.008   1.619
 8642SOL    HW226826   4.371   0.879   1.560
 8643SOL     OW26827   4.561   0.521   5.992
 8643SOL    HW126828   4.472   0.532   6.034
 8643SOL    HW226829   4.617   0.602   6.009
 8644SOL     OW26830   5.901   2.309   4.652
 8644SOL    HW126831   5.961   2.287   4.575
 8644SOL    HW226832   5.870   2.403   4.645
 8645SOL     OW26833   6.361   4.132   1.246
 8645SOL    HW126834   6.318   4.200   1.305
 8645SOL    HW226835   6.297   4.104   1.174
 8646SOL     OW26836   5.517   0.451   6.979
 8646SOL    HW126837   5.552   0.477   0.046
 8646SOL    HW226838   5.438   0.508   6.956
 8647SOL     OW26839   3.822   5.073   0.086
 8647SOL    HW126840   3.803   5.016   0.166
 8647SOL    HW226841   3.790   5.026   0.004
 8648SOL     OW26842   5.628   1.217   3.933
 8648SOL    HW126843   5.580   1.303   3.955
 8648SOL    HW226844   5.724   1.224   3.963
 8649SOL     OW26845   6.123   3.891   5.749
 8649SOL    HW126846   6.187   3.962   5.720
 8649SOL    HW226847   6.169   3.828   5.812
 8650SOL     OW26848   2.220   5.230   3.383
 8650SOL    HW126849   2.274   5.147   3.375
 8650SOL    HW226850   2.236   5.288   3.302
 8651SOL     OW26851   3.543   1.652   6.919
 8651SOL    HW126852   3.537   1.732   6.860
 8651SOL    HW226853   3.638   1.637   6.947
 8652SOL     OW26854   1.843   3.722   3.630
 8652SOL    HW126855   1.833   3.637   3.578
 8652SOL    HW226856   1.788   3.717   3.713
 8653SOL     OW26857   0.312   3.102   0.147
 8653SOL    HW126858   0.292   3.072   0.240
 8653SOL    HW226859   0.229   3.140   0.105
 8654SOL     OW26860   0.205   0.043   2.972
 8654SOL    HW126861   0.189   0.016   3.067
 8654SOL    HW226862   0.142   7.018   2.912
 8655SOL     OW26863   6.410   6.052   4.722
 8655SOL    HW126864   6.486   6.004   4.764
 8655SOL    HW226865   6.380   6.126   4.782
 8656SOL     OW26866   6.682   0.822   1.161
 8656SOL    HW126867   6.705   0.794   1.254
 8656SOL    HW226868   6.683   0.922   1.156
 8657SOL     OW26869   4.626   4.583   6.642
 8657SOL    HW126870   4.662   4.492   6.660
 8657SOL    HW226871   4.530   4.577   6.615
 8658SOL     OW26872   6.004   5.386   6.943
 8658SOL    HW126873   5.929   5.329   6.910
 8658SOL    HW226874   6.019   5.461   6.880
 8659SOL     OW26875   5.179   0.540   3.311
 8659SOL    HW126876   5.154   0.622   3.364
 8659SOL    HW226877   5.276   0.521   3.324
 8660SOL     OW26878   5.619   3.646   0.720
 8660SOL    HW126879   5.573   3.569   0.676
 8660SOL    HW226880   5.646   3.621   0.813
 8661SOL     OW26881   6.990   3.817   1.893
 8661SOL    HW126882   0.020   3.874   1.956
 8661SOL    HW226883   6.998   3.721   1.920
 8662SOL     OW26884   6.597   6.177   1.036
 8662SOL    HW126885   6.652   6.124   1.100
 8662SOL    HW226886   6.643   6.265   1.017
 8663SOL     OW26887   2.462   5.699   1.273
 8663SOL    HW126888   2.513   5.784   1.282
 8663SOL    HW226889   2.428   5.689   1.180
 8664SOL     OW26890   3.915   5.944   6.950
 8664SOL    HW126891   3.969   5.977   6.873
 8664SOL    HW226892   3.939   5.850   6.971
 8665SOL     OW26893   4.662   5.347   5.366
 8665SOL    HW126894   4.698   5.440   5.359
 8665SOL    HW226895   4.680   5.298   5.281
 8666SOL     OW26896   5.046   2.486   5.442
 8666SOL    HW126897   5.102   2.455   5.519
 8666SOL    HW226898   5.057   2.423   5.365
 8667SOL     OW26899   5.070   1.461   3.862
 8667SOL    HW126900   4.977   1.435   3.836
 8667SOL    HW226901   5.066   1.520   3.942
 8668SOL     OW26902   5.009   2.088   4.287
 8668SOL    HW126903   4.929   2.054   4.237
 8668SOL    HW226904   4.982   2.164   4.345
 8669SOL     OW26905   4.040   0.229   5.993
 8669SOL    HW126906   4.011   0.289   6.068
 8669SOL    HW226907   4.093   0.152   6.031
 8670SOL     OW26908   3.593   5.854   4.337
 8670SOL    HW126909   3.528   5.896   4.399
 8670SOL    HW226910   3.659   5.922   4.306
 8671SOL     OW26911   6.337   6.695   4.074
 8671SOL    HW126912   6.403   6.739   4.013
 8671SOL    HW226913   6.302   6.612   4.030
 8672SOL     OW26914   3.462   4.954   4.457
 8672SOL    HW126915   3.551   4.918   4.429
 8672SOL    HW226916   3.455   5.051   4.430
 8673SOL     OW26917   6.493   2.132   0.921
 8673SOL    HW126918   6.531   2.099   0.835
 8673SOL    HW226919   6.395   2.114   0.923
 8674SOL     OW26920   6.759   0.344   2.507
 8674SOL    HW126921   6.796   0.376   2.594
 8674SOL    HW226922   6.731   0.422   2.451
 8675SOL     OW26923   2.282   0.751   3.474
 8675SOL    HW126924   2.195   0.796   3.453
 8675SOL    HW226925   2.266   0.673   3.533
 8676SOL     OW26926   4.293   0.153   2.532
 8676SOL    HW126927   4.267   0.066   2.573
 8676SOL    HW226928   4.363   0.197   2.587
 8677SOL     OW26929   2.758   4.300   5.992
 8677SOL    HW126930   2.853   4.281   5.968
 8677SOL    HW226931   2.699   4.227   5.958
 8678SOL     OW26932   1.156   0.203   6.961
 8678SOL    HW126933   1.199   0.225   0.025
 8678SOL    HW226934   1.224   0.168   6.897
 8679SOL     OW26935   6.180   1.934   5.276
 8679SOL    HW126936   6.178   1.935   5.176
 8679SOL    HW226937   6.195   1.840   5.308
 8680SOL     OW26938   1.280   3.665   0.106
 8680SOL    HW126939   1.323   3.582   0.141
 8680SOL    HW226940   1.185   3.668   0.135
 8681SOL     OW26941   4.171   4.346   0.143
 8681SOL    HW126942   4.199   4.351   0.238
 8681SOL    HW226943   4.077   4.381   0.134
 8682SOL     OW26944   2.697   6.408   2.453
 8682SOL    HW126945   2.742   6.325   2.486
 8682SOL    HW226946   2.616   6.384   2.401
 8683SOL     OW26947   0.514   2.782   1.464
 8683SOL    HW126948   0.548   2.785   1.557
 8683SOL    HW226949   0.586   2.749   1.403
 8684SOL     OW26950   6.183   2.946   5.160
 8684SOL    HW126951   6.196   3.032   5.111
 8684SOL    HW226952   6.112   2.892   5.116
 8685SOL     OW26953   0.903   1.686   6.628
 8685SOL    HW126954   0.897   1.591   6.657
 8685SOL    HW226955   0.816   1.713   6.585
 8686SOL     OW26956   0.002   2.109   2.465
 8686SOL    HW126957   0.069   2.183   2.475
 8686SOL    HW226958   0.021   2.037   2.530
 8687SOL     OW26959   3.750   6.758   2.377
 8687SOL    HW126960   3.803   6.760   2.293
 8687SOL    HW226961   3.672   6.696   2.366
 8688SOL     OW26962   2.779   0.370   1.625
 8688SOL    HW126963   2.771   0.459   1.579
 8688SOL    HW226964   2.846   0.377   1.699
 8689SOL     OW26965   4.374   6.155   7.006
 8689SOL    HW126966   4.296   6.206   6.969
 8689SOL    HW226967   4.340   6.084   0.045
 8690SOL     OW26968   0.590   1.856   3.650
 8690SOL    HW126969   0.515   1.915   3.680
 8690SOL    HW226970   0.670   1.872   3.708
 8691SOL     OW26971   4.654   2.837   6.455
 8691SOL    HW126972   4.595   2.832   6.535
 8691SOL    HW226973   4.666   2.746   6.417
 8692SOL     OW26974   2.640   2.237   3.629
 8692SOL    HW126975   2.545   2.242   3.597
 8692SOL    HW226976   2.645   2.266   3.724
 8693SOL     OW26977   5.733   1.923   1.018
 8693SOL    HW126978   5.750   2.009   0.970
 8693SOL    HW226979   5.786   1.922   1.103
 8694SOL     OW26980   4.528   0.285   6.812
 8694SOL    HW126981   4.567   0.340   6.738
 8694SOL    HW226982   4.541   0.188   6.790
 8695SOL     OW26983   5.135   3.486   5.252
 8695SOL    HW126984   5.224   3.451   5.283
 8695SOL    HW226985   5.069   3.478   5.326
 8696SOL     OW26986   2.575   5.943   1.292
 8696SOL    HW126987   2.659   5.974   1.247
 8696SOL    HW226988   2.591   5.934   1.390
 8697SOL     OW26989   6.607   3.550   0.974
 8697SOL    HW126990   6.694   3.589   1.004
 8697SOL    HW226991   6.532   3.592   1.025
 8698SOL     OW26992   5.416   6.217   4.637
 8698SOL    HW126993   5.428   6.200   4.734
 8698SOL    HW226994   5.375   6.137   4.593
 8699SOL     OW26995   0.925   1.619   5.739
 8699SOL    HW126996   0.874   1.601   5.655
 8699SOL    HW226997   0.867   1.600   5.818
 8700SOL     OW26998   2.326   0.631   4.930
 8700SOL    HW126999   2.230   0.649   4.951
 8700SOL    HW227000   2.382   0.710   4.956
 8701SOL     OW27001   1.032   0.671   4.983
 8701SOL    HW127002   0.958   0.726   4.944
 8701SOL    HW227003   1.061   0.603   4.916
 8702SOL     OW27004   5.733   5.140   0.318
 8702SOL    HW127005   5.683   5.196   0.252
 8702SOL    HW227006   5.826   5.125   0.285
 8703SOL     OW27007   2.983   5.890   1.332
 8703SOL    HW127008   2.970   5.824   1.406
 8703SOL    HW227009   2.972   5.983   1.368
 8704SOL     OW27010   6.595   4.904   2.468
 8704SOL    HW127011   6.577   4.859   2.381
 8704SOL    HW227012   6.623   4.999   2.452
 8705SOL     OW27013   5.151   0.047   6.289
 8705SOL    HW127014   5.220   0.119   6.278
 8705SOL    HW227015   5.091   0.046   6.209
 8706SOL     OW27016   5.333   2.165   6.743
 8706SOL    HW127017   5.244   2.175   6.787
 8706SOL    HW227018   5.355   2.068   6.735
 8707SOL     OW27019   4.384   3.006   6.929
 8707SOL    HW127020   4.453   3.070   6.964
 8707SOL    HW227021   4.293   3.044   6.943
 8708SOL     OW27022   3.925   1.100   1.183
 8708SOL    HW127023   3.946   1.014   1.228
 8708SOL    HW227024   3.843   1.140   1.223
 8709SOL     OW27025   6.965   4.616   0.134
 8709SOL    HW127026   0.035   4.650   0.124
 8709SOL    HW227027   6.956   4.528   0.086
 8710SOL     OW27028   2.087   3.693   2.828
 8710SOL    HW127029   1.989   3.679   2.842
 8710SOL    HW227030   2.125   3.614   2.780
 8711SOL     OW27031   6.267   0.844   2.758
 8711SOL    HW127032   6.350   0.900   2.753
 8711SOL    HW227033   6.287   0.751   2.725
 8712SOL     OW27034   2.958   1.529   4.906
 8712SOL    HW127035   2.959   1.435   4.873
 8712SOL    HW227036   3.051   1.556   4.932
 8713SOL     OW27037   6.417   4.499   3.524
 8713SOL    HW127038   6.396   4.586   3.479
 8713SOL    HW227039   6.333   4.455   3.553
 8714SOL     OW27040   1.416   0.826   5.929
 8714SOL    HW127041   1.445   0.919   5.905
 8714SOL    HW227042   1.327   0.830   5.974
 8715SOL     OW27043   6.425   1.352   1.997
 8715SOL    HW127044   6.399   1.263   2.033
 8715SOL    HW227045   6.517   1.375   2.029
 8716SOL     OW27046   0.822   1.170   1.580
 8716SOL    HW127047   0.800   1.075   1.557
 8716SOL    HW227048   0.743   1.212   1.625
 8717SOL     OW27049   4.113   3.663   2.003
 8717SOL    HW127050   4.209   3.671   2.028
 8717SOL    HW227051   4.056   3.667   2.086
 8718SOL     OW27052   6.868   2.700   4.604
 8718SOL    HW127053   6.799   2.652   4.550
 8718SOL    HW227054   6.827   2.783   4.643
 8719SOL     OW27055   1.083   0.392   5.867
 8719SOL    HW127056   1.023   0.443   5.929
 8719SOL    HW227057   1.160   0.354   5.919
 8720SOL     OW27058   5.366   4.811   4.982
 8720SOL    HW127059   5.443   4.753   4.956
 8720SOL    HW227060   5.334   4.785   5.073
 8721SOL     OW27061   6.794   2.069   4.338
 8721SOL    HW127062   6.837   1.982   4.311
 8721SOL    HW227063   6.845   2.145   4.298
 8722SOL     OW27064   3.744   2.453   0.914
 8722SOL    HW127065   3.732   2.427   0.818
 8722SOL    HW227066   3.787   2.378   0.964
 8723SOL     OW27067   6.757   5.356   0.593
 8723SOL    HW127068   6.743   5.384   0.688
 8723SOL    HW227069   6.851   5.377   0.566
 8724SOL     OW27070   5.389   0.543   5.994
 8724SOL    HW127071   5.455   0.582   6.058
 8724SOL    HW227072   5.436   0.509   5.913
 8725SOL     OW27073   2.101   0.195   0.332
 8725SOL    HW127074   2.178   0.221   0.273
 8725SOL    HW227075   2.135   0.160   0.418
 8726SOL     OW27076   6.016   0.096   1.597
 8726SOL    HW127077   6.104   0.122   1.557
 8726SOL    HW227078   5.962   0.047   1.530
 8727SOL     OW27079   6.467   6.305   1.439
 8727SOL    HW127080   6.439   6.212   1.463
 8727SOL    HW227081   6.559   6.304   1.400
 8728SOL     OW27082   3.429   6.633   5.160
 8728SOL    HW127083   3.506   6.630   5.096
 8728SOL    HW227084   3.413   6.728   5.188
 8729SOL     OW27085   4.095   5.452   3.407
 8729SOL    HW127086   4.154   5.514   3.356
 8729SOL    HW227087   4.122   5.358   3.390
 8730SOL     OW27088   0.555   6.262   2.365
 8730SOL    HW127089   0.620   6.218   2.303
 8730SOL    HW227090   0.481   6.198   2.386
 8731SOL     OW27091   1.174   1.894   3.401
 8731SOL    HW127092   1.183   1.983   3.445
 8731SOL    HW227093   1.111   1.837   3.453
 8732SOL     OW27094   5.747   3.637   1.591
 8732SOL    HW127095   5.759   3.537   1.588
 8732SOL    HW227096   5.656   3.661   1.557
 8733SOL     OW27097   1.174   6.367   1.880
 8733SOL    HW127098   1.116   6.389   1.959
 8733SOL    HW227099   1.229   6.286   1.900
 8734SOL     OW27100   0.464   5.620   1.369
 8734SOL    HW127101   0.486   5.578   1.281
 8734SOL    HW227102   0.369   5.599   1.393
 8735SOL     OW27103   0.213   1.822   6.869
 8735SOL    HW127104   0.211   1.770   6.955
 8735SOL    HW227105   0.237   1.917   6.888
 8736SOL     OW27106   0.704   5.008   6.901
 8736SOL    HW127107   0.790   4.967   6.872
 8736SOL    HW227108   0.712   5.038   6.996
 8737SOL     OW27109   3.412   6.097   6.020
 8737SOL    HW127110   3.497   6.123   5.973
 8737SOL    HW227111   3.406   6.146   6.107
 8738SOL     OW27112   1.540   3.878   4.128
 8738SOL    HW127113   1.556   3.802   4.191
 8738SOL    HW227114   1.625   3.928   4.113
 8739SOL     OW27115   6.992   3.445   5.322
 8739SOL    HW127116   6.898   3.412   5.333
 8739SOL    HW227117   6.993   3.522   5.257
 8740SOL     OW27118   2.726   0.285   6.774
 8740SOL    HW127119   2.640   0.330   6.751
 8740SOL    HW227120   2.724   0.256   6.870
 8741SOL     OW27121   0.937   2.704   2.407
 8741SOL    HW127122   1.027   2.678   2.441
 8741SOL    HW227123   0.873   2.715   2.483
 8742SOL     OW27124   4.627   0.031   1.644
 8742SOL    HW127125   4.669   0.115   1.678
 8742SOL    HW227126   4.601   6.996   1.721
 8743SOL     OW27127   1.969   5.779   2.279
 8743SOL    HW127128   1.964   5.681   2.261
 8743SOL    HW227129   2.015   5.794   2.367
 8744SOL     OW27130   4.021   2.844   6.323
 8744SOL    HW127131   4.100   2.839   6.262
 8744SOL    HW227132   4.050   2.871   6.414
 8745SOL     OW27133   6.002   2.054   5.465
 8745SOL    HW127134   6.034   2.143   5.432
 8745SOL    HW227135   6.040   1.982   5.407
 8746SOL     OW27136   5.165   4.771   5.356
 8746SOL    HW127137   5.124   4.686   5.324
 8746SOL    HW227138   5.179   4.767   5.455
 8747SOL     OW27139   1.363   2.546   4.429
 8747SOL    HW127140   1.418   2.621   4.465
 8747SOL    HW227141   1.423   2.467   4.414
 8748SOL     OW27142   1.314   0.494   6.881
 8748SOL    HW127143   1.341   0.418   6.821
 8748SOL    HW227144   1.316   0.464   6.976
 8749SOL     OW27145   3.933   0.411   3.343
 8749SOL    HW127146   3.852   0.422   3.285
 8749SOL    HW227147   3.935   0.482   3.413
 8750SOL     OW27148   2.004   2.081   5.212
 8750SOL    HW127149   2.066   2.102   5.136
 8750SOL    HW227150   1.913   2.062   5.176
 8751SOL     OW27151   0.945   0.203   2.197
 8751SOL    HW127152   0.970   0.293   2.160
 8751SOL    HW227153   0.845   0.193   2.193
 8752SOL     OW27154   1.883   3.514   6.532
 8752SOL    HW127155   1.945   3.525   6.454
 8752SOL    HW227156   1.856   3.418   6.539
 8753SOL     OW27157   5.636   1.377   4.938
 8753SOL    HW127158   5.587   1.463   4.923
 8753SOL    HW227159   5.693   1.384   5.020
 8754SOL     OW27160   0.808   1.238   6.154
 8754SOL    HW127161   0.868   1.183   6.212
 8754SOL    HW227162   0.831   1.220   6.058
 8755SOL     OW27163   2.525   0.897   0.355
 8755SOL    HW127164   2.538   0.839   0.436
 8755SOL    HW227165   2.556   0.847   0.274
 8756SOL     OW27166   2.157   3.011   4.285
 8756SOL    HW127167   2.229   3.080   4.297
 8756SOL    HW227168   2.165   2.971   4.194
 8757SOL     OW27169   4.059   6.323   4.815
 8757SOL    HW127170   4.105   6.242   4.778
 8757SOL    HW227171   4.106   6.354   4.897
 8758SOL     OW27172   6.257   6.397   2.163
 8758SOL    HW127173   6.278   6.392   2.065
 8758SOL    HW227174   6.332   6.443   2.211
 8759SOL     OW27175   4.716   0.750   5.996
 8759SOL    HW127176   4.810   0.784   5.999
 8759SOL    HW227177   4.653   0.827   6.008
 8760SOL     OW27178   1.805   1.932   4.172
 8760SOL    HW127179   1.735   1.865   4.147
 8760SOL    HW227180   1.893   1.886   4.180
 8761SOL     OW27181   4.933   6.981   6.895
 8761SOL    HW127182   4.930   0.037   6.834
 8761SOL    HW227183   4.989   6.909   6.854
 8762SOL     OW27184   1.128   3.511   1.425
 8762SOL    HW127185   1.143   3.454   1.344
 8762SOL    HW227186   1.195   3.487   1.495
 8763SOL     OW27187   0.306   6.168   5.651
 8763SOL    HW127188   0.273   6.107   5.579
 8763SOL    HW227189   0.326   6.115   5.734
 8764SOL     OW27190   4.764   1.548   4.473
 8764SOL    HW127191   4.761   1.516   4.567
 8764SOL    HW227192   4.769   1.648   4.472
 8765SOL     OW27193   5.975   6.812   4.336
 8765SOL    HW127194   5.910   6.818   4.261
 8765SOL    HW227195   5.927   6.789   4.421
 8766SOL     OW27196   2.287   4.907   3.082
 8766SOL    HW127197   2.290   4.808   3.082
 8766SOL    HW227198   2.318   4.942   3.170
 8767SOL     OW27199   4.649   1.179   3.171
 8767SOL    HW127200   4.577   1.130   3.122
 8767SOL    HW227201   4.729   1.120   3.181
 8768SOL     OW27202   1.993   3.756   0.192
 8768SOL    HW127203   1.959   3.821   0.260
 8768SOL    HW227204   1.994   3.799   0.102
 8769SOL     OW27205   1.453   7.012   5.618
 8769SOL    HW127206   1.382   7.013   5.688
 8769SOL    HW227207   1.542   7.000   5.661
 8770SOL     OW27208   5.450   3.370   1.383
 8770SOL    HW127209   5.361   3.414   1.393
 8770SOL    HW227210   5.508   3.425   1.323
 8771SOL     OW27211   1.785   1.532   6.751
 8771SOL    HW127212   1.697   1.575   6.735
 8771SOL    HW227213   1.827   1.508   6.663
 8772SOL     OW27214   5.595   1.486   6.395
 8772SOL    HW127215   5.690   1.479   6.363
 8772SOL    HW227216   5.591   1.459   6.491
 8773SOL     OW27217   2.852   2.264   3.191
 8773SOL    HW127218   2.932   2.208   3.207
 8773SOL    HW227219   2.825   2.257   3.094
 8774SOL     OW27220   0.990   1.532   0.706
 8774SOL    HW127221   1.070   1.544   0.646
 8774SOL    HW227222   0.941   1.619   0.712
 8775SOL     OW27223   6.123   6.916   3.598
 8775SOL    HW127224   6.173   6.831   3.582
 8775SOL    HW227225   6.033   6.896   3.636
 8776SOL     OW27226   3.218   3.271   4.916
 8776SOL    HW127227   3.241   3.187   4.964
 8776SOL    HW227228   3.269   3.347   4.955
 8777SOL     OW27229   6.151   6.150   2.173
 8777SOL    HW127230   6.186   6.238   2.141
 8777SOL    HW227231   6.177   6.137   2.269
 8778SOL     OW27232   0.226   2.184   3.796
 8778SOL    HW127233   0.149   2.211   3.738
 8778SOL    HW227234   0.195   2.176   3.891
 8779SOL     OW27235   1.775   4.872   0.962
 8779SOL    HW127236   1.789   4.937   1.037
 8779SOL    HW227237   1.837   4.894   0.887
 8780SOL     OW27238   0.674   5.327   4.564
 8780SOL    HW127239   0.772   5.343   4.572
 8780SOL    HW227240   0.656   5.273   4.482
 8781SOL     OW27241   0.596   1.897   2.987
 8781SOL    HW127242   0.671   1.844   3.026
 8781SOL    HW227243   0.609   1.994   3.008
 8782SOL     OW27244   4.290   1.286   2.662
 8782SOL    HW127245   4.333   1.362   2.711
 8782SOL    HW227246   4.191   1.303   2.655
 8783SOL     OW27247   5.678   3.794   4.406
 8783SOL    HW127248   5.737   3.852   4.463
 8783SOL    HW227249   5.645   3.847   4.328
 8784SOL     OW27250   5.335   4.980   5.627
 8784SOL    HW127251   5.387   4.978   5.542
 8784SOL    HW227252   5.375   4.915   5.692
 8785SOL     OW27253   5.933   4.371   7.010
 8785SOL    HW127254   5.929   4.363   0.086
 8785SOL    HW227255   5.861   4.433   6.978
 8786SOL     OW27256   1.653   6.774   6.786
 8786SOL    HW127257   1.647   6.866   6.750
 8786SOL    HW227258   1.588   6.763   6.862
 8787SOL     OW27259   1.786   3.618   1.592
 8787SOL    HW127260   1.801   3.562   1.673
 8787SOL    HW227261   1.751   3.708   1.619
 8788SOL     OW27262   0.372   1.875   5.409
 8788SOL    HW127263   0.347   1.926   5.491
 8788SOL    HW227264   0.370   1.777   5.429
 8789SOL     OW27265   6.610   0.427   6.609
 8789SOL    HW127266   6.601   0.459   6.515
 8789SOL    HW227267   6.528   0.374   6.634
 8790SOL     OW27268   6.217   1.451   7.015
 8790SOL    HW127269   6.153   1.525   0.010
 8790SOL    HW227270   6.176   1.364   0.017
 8791SOL     OW27271   4.903   6.485   6.022
 8791SOL    HW127272   4.870   6.561   6.077
 8791SOL    HW227273   4.941   6.519   5.936
 8792SOL     OW27274   4.664   6.781   2.817
 8792SOL    HW127275   4.734   6.843   2.853
 8792SOL    HW227276   4.596   6.763   2.887
 8793SOL     OW27277   1.894   6.084   3.472
 8793SOL    HW127278   1.958   6.101   3.547
 8793SOL    HW227279   1.814   6.036   3.508
 8794SOL     OW27280   2.115   0.194   2.790
 8794SOL    HW127281   2.134   0.211   2.693
 8794SOL    HW227282   2.057   0.114   2.800
 8795SOL     OW27283   1.576   6.661   5.739
 8795SOL    HW127284   1.643   6.639   5.810
 8795SOL    HW227285   1.580   6.759   5.720
 8796SOL     OW27286   4.708   2.355   5.503
 8796SOL    HW127287   4.715   2.434   5.564
 8796SOL    HW227288   4.650   2.378   5.425
 8797SOL     OW27289   0.415   6.941   5.989
 8797SOL    HW127290   0.401   6.961   6.086
 8797SOL    HW227291   0.333   6.899   5.951
 8798SOL     OW27292   5.420   3.439   5.010
 8798SOL    HW127293   5.337   3.437   4.954
 8798SOL    HW227294   5.466   3.350   5.004
 8799SOL     OW27295   3.124   5.062   3.325
 8799SOL    HW127296   3.159   5.006   3.250
 8799SOL    HW227297   3.196   5.124   3.357
 8800SOL     OW27298   4.574   4.916   6.576
 8800SOL    HW127299   4.569   4.867   6.663
 8800SOL    HW227300   4.621   5.003   6.588
 8801SOL     OW27301   2.520   1.532   4.131
 8801SOL    HW127302   2.484   1.624   4.143
 8801SOL    HW227303   2.454   1.466   4.168
 8802SOL     OW27304   2.277   6.465   2.174
 8802SOL    HW127305   2.314   6.518   2.249
 8802SOL    HW227306   2.250   6.526   2.099
 8803SOL     OW27307   3.120   5.700   0.154
 8803SOL    HW127308   3.140   5.798   0.158
 8803SOL    HW227309   3.087   5.677   0.062
 8804SOL     OW27310   4.289   0.371   1.169
 8804SOL    HW127311   4.221   0.418   1.113
 8804SOL    HW227312   4.313   0.427   1.248
 8805SOL     OW27313   0.437   0.140   3.254
 8805SOL    HW127314   0.504   0.108   3.320
 8805SOL    HW227315   0.344   0.122   3.287
 8806SOL     OW27316   1.353   5.208   0.497
 8806SOL    HW127317   1.418   5.214   0.572
 8806SOL    HW227318   1.268   5.255   0.523
 8807SOL     OW27319   0.444   6.044   5.881
 8807SOL    HW127320   0.422   5.947   5.884
 8807SOL    HW227321   0.543   6.056   5.893
 8808SOL     OW27322   5.107   1.077   0.239
 8808SOL    HW127323   5.015   1.115   0.249
 8808SOL    HW227324   5.157   1.089   0.326
 8809SOL     OW27325   5.696   3.965   1.299
 8809SOL    HW127326   5.623   3.923   1.246
 8809SOL    HW227327   5.770   3.900   1.312
 8810SOL     OW27328   4.084   1.403   3.541
 8810SOL    HW127329   3.999   1.362   3.509
 8810SOL    HW227330   4.137   1.335   3.590
 8811SOL     OW27331   1.815   1.757   3.181
 8811SOL    HW127332   1.805   1.668   3.226
 8811SOL    HW227333   1.889   1.752   3.114
 8812SOL     OW27334   1.328   1.017   0.675
 8812SOL    HW127335   1.273   1.099   0.687
 8812SOL    HW227336   1.385   1.026   0.593
 8813SOL     OW27337   1.608   6.996   2.186
 8813SOL    HW127338   1.704   6.968   2.197
 8813SOL    HW227339   1.604   0.072   2.171
 8814SOL     OW27340   6.000   0.875   6.337
 8814SOL    HW127341   6.013   0.966   6.299
 8814SOL    HW227342   6.076   0.853   6.398
 8815SOL     OW27343   0.137   5.923   2.455
 8815SOL    HW127344   0.172   5.888   2.368
 8815SOL    HW227345   0.070   5.995   2.438
 8816SOL     OW27346   1.348   5.926   1.578
 8816SOL    HW127347   1.315   5.854   1.640
 8816SOL    HW227348   1.380   6.004   1.632
 8817SOL     OW27349   1.653   5.503   5.085
 8817SOL    HW127350   1.629   5.600   5.090
 8817SOL    HW227351   1.637   5.460   5.174
 8818SOL     OW27352   0.401   4.868   3.596
 8818SOL    HW127353   0.344   4.789   3.620
 8818SOL    HW227354   0.366   4.910   3.512
 8819SOL     OW27355   4.925   6.500   4.228
 8819SOL    HW127356   4.889   6.484   4.320
 8819SOL    HW227357   4.895   6.427   4.167
 8820SOL     OW27358   1.533   2.341   4.414
 8820SOL    HW127359   1.554   2.287   4.333
 8820SOL    HW227360   1.605   2.329   4.482
 8821SOL     OW27361   2.620   0.389   6.262
 8821SOL    HW127362   2.615   0.381   6.162
 8821SOL    HW227363   2.663   0.476   6.286
 8822SOL     OW27364   0.851   1.923   3.755
 8822SOL    HW127365   0.842   1.974   3.669
 8822SOL    HW227366   0.909   1.843   3.741
 8823SOL     OW27367   1.924   6.834   0.920
 8823SOL    HW127368   1.931   6.873   0.828
 8823SOL    HW227369   1.829   6.812   0.940
 8824SOL     OW27370   3.283   3.825   0.579
 8824SOL    HW127371   3.358   3.767   0.610
 8824SOL    HW227372   3.309   3.868   0.492
 8825SOL     OW27373   0.858   1.481   2.354
 8825SOL    HW127374   0.957   1.479   2.366
 8825SOL    HW227375   0.836   1.468   2.257
 8826SOL     OW27376   5.545   1.305   6.764
 8826SOL    HW127377   5.633   1.327   6.723
 8826SOL    HW227378   5.558   1.240   6.839
 8827SOL     OW27379   1.897   1.526   3.306
 8827SOL    HW127380   1.980   1.516   3.361
 8827SOL    HW227381   1.843   1.442   3.312
 8828SOL     OW27382   3.163   6.515   2.578
 8828SOL    HW127383   3.191   6.611   2.588
 8828SOL    HW227384   3.126   6.482   2.665
 8829SOL     OW27385   7.010   2.262   0.038
 8829SOL    HW127386   7.000   2.359   0.061
 8829SOL    HW227387   6.921   2.225   0.010
 8830SOL     OW27388   0.973   1.756   0.429
 8830SOL    HW127389   0.982   1.672   0.375
 8830SOL    HW227390   0.913   1.740   0.507
 8831SOL     OW27391   6.393   1.153   3.162
 8831SOL    HW127392   6.463   1.081   3.172
 8831SOL    HW227393   6.438   1.242   3.158
 8832SOL     OW27394   6.403   0.501   2.452
 8832SOL    HW127395   6.492   0.538   2.424
 8832SOL    HW227396   6.330   0.548   2.403
 8833SOL     OW27397   2.376   5.135   4.361
 8833SOL    HW127398   2.439   5.057   4.367
 8833SOL    HW227399   2.422   5.217   4.394
 8834SOL     OW27400   6.111   3.138   4.945
 8834SOL    HW127401   6.088   3.224   4.991
 8834SOL    HW227402   6.033   3.075   4.949
 8835SOL     OW27403   0.003   6.629   5.667
 8835SOL    HW127404   0.073   6.560   5.684
 8835SOL    HW227405   6.979   6.609   5.581
 8836SOL     OW27406   4.226   0.960   6.770
 8836SOL    HW127407   4.195   0.907   6.849
 8836SOL    HW227408   4.308   1.012   6.793
 8837SOL     OW27409   0.309   0.852   1.937
 8837SOL    HW127410   0.363   0.927   1.897
 8837SOL    HW227411   0.339   0.765   1.897
 8838SOL     OW27412   2.468   5.269   3.278
 8838SOL    HW127413   2.516   5.187   3.248
 8838SOL    HW227414   2.502   5.297   3.368
 8839SOL     OW27415   6.357   6.216   3.696
 8839SOL    HW127416   6.365   6.232   3.794
 8839SOL    HW227417   6.448   6.202   3.657
 8840SOL     OW27418   5.728   2.263   1.856
 8840SOL    HW127419   5.689   2.191   1.912
 8840SOL    HW227420   5.822   2.282   1.885
 8841SOL     OW27421   0.791   1.574   5.504
 8841SOL    HW127422   0.765   1.597   5.410
 8841SOL    HW227423   0.782   1.476   5.519
 8842SOL     OW27424   2.471   2.538   1.899
 8842SOL    HW127425   2.408   2.525   1.822
 8842SOL    HW227426   2.444   2.619   1.951
 8843SOL     OW27427   1.217   2.681   5.018
 8843SOL    HW127428   1.145   2.711   4.956
 8843SOL    HW227429   1.178   2.668   5.109
 8844SOL     OW27430   6.470   0.654   6.199
 8844SOL    HW127431   6.402   0.639   6.270
 8844SOL    HW227432   6.430   0.711   6.127
 8845SOL     OW27433   5.171   4.358   6.955
 8845SOL    HW127434   5.194   4.272   6.911
 8845SOL    HW227435   5.072   4.363   6.970
 8846SOL     OW27436   2.241   4.526   3.891
 8846SOL    HW127437   2.168   4.593   3.878
 8846SOL    HW227438   2.273   4.493   3.802
 8847SOL     OW27439   3.225   0.086   2.018
 8847SOL    HW127440   3.163   0.116   1.945
 8847SOL    HW227441   3.248   0.163   2.077
 8848SOL     OW27442   1.784   0.687   2.419
 8848SOL    HW127443   1.685   0.693   2.402
 8848SOL    HW227444   1.801   0.690   2.517
 8849SOL     OW27445   3.023   6.829   1.323
 8849SOL    HW127446   3.032   6.731   1.307
 8849SOL    HW227447   2.926   6.853   1.326
 8850SOL     OW27448   3.551   2.457   6.498
 8850SOL    HW127449   3.462   2.413   6.499
 8850SOL    HW227450   3.623   2.388   6.497
 8851SOL     OW27451   1.522   4.836   2.698
 8851SOL    HW127452   1.441   4.884   2.666
 8851SOL    HW227453   1.532   4.750   2.648
 8852SOL     OW27454   1.046   1.390   6.277
 8852SOL    HW127455   0.980   1.327   6.235
 8852SOL    HW227456   1.020   1.484   6.255
 8853SOL     OW27457   3.729   1.064   0.173
 8853SOL    HW127458   3.728   1.158   0.138
 8853SOL    HW227459   3.815   1.047   0.221
 8854SOL     OW27460   1.070   3.280   5.034
 8854SOL    HW127461   1.080   3.346   5.109
 8854SOL    HW227462   1.159   3.261   4.994
 8855SOL     OW27463   5.756   5.136   0.813
 8855SOL    HW127464   5.835   5.085   0.848
 8855SOL    HW227465   5.774   5.166   0.720
 8856SOL     OW27466   0.629   5.347   6.309
 8856SOL    HW127467   0.568   5.324   6.233
 8856SOL    HW227468   0.674   5.434   6.291
 8857SOL     OW27469   6.451   1.110   5.603
 8857SOL    HW127470   6.438   1.192   5.547
 8857SOL    HW227471   6.541   1.112   5.646
 8858SOL     OW27472   6.356   4.804   4.752
 8858SOL    HW127473   6.310   4.889   4.726
 8858SOL    HW227474   6.294   4.749   4.808
 8859SOL     OW27475   0.681   0.620   3.609
 8859SOL    HW127476   0.672   0.718   3.593
 8859SOL    HW227477   0.602   0.587   3.662
 8860SOL     OW27478   6.883   2.613   2.023
 8860SOL    HW127479   6.938   2.588   2.102
 8860SOL    HW227480   6.932   2.588   1.939
 8861SOL     OW27481   4.689   2.259   1.683
 8861SOL    HW127482   4.775   2.208   1.679
 8861SOL    HW227483   4.677   2.297   1.775
 8862SOL     OW27484   4.648   4.891   5.287
 8862SOL    HW127485   4.747   4.901   5.273
 8862SOL    HW227486   4.626   4.794   5.300
 8863SOL     OW27487   2.178   3.841   3.625
 8863SOL    HW127488   2.117   3.871   3.698
 8863SOL    HW227489   2.212   3.921   3.575
 8864SOL     OW27490   5.963   1.554   5.663
 8864SOL    HW127491   6.001   1.646   5.671
 8864SOL    HW227492   6.034   1.487   5.687
 8865SOL     OW27493   1.959   1.445   6.523
 8865SOL    HW127494   1.894   1.467   6.450
 8865SOL    HW227495   2.052   1.460   6.489
 8866SOL     OW27496   6.037   5.909   2.449
 8866SOL    HW127497   6.027   5.999   2.492
 8866SOL    HW227498   5.991   5.840   2.505
 8867SOL     OW27499   6.502   4.175   2.559
 8867SOL    HW127500   6.570   4.249   2.564
 8867SOL    HW227501   6.425   4.205   2.503
 8868SOL     OW27502   0.276   3.312   3.392
 8868SOL    HW127503   0.188   3.356   3.408
 8868SOL    HW227504   0.345   3.381   3.372
 8869SOL     OW27505   3.371   6.422   3.517
 8869SOL    HW127506   3.391   6.335   3.470
 8869SOL    HW227507   3.346   6.403   3.612
 8870SOL     OW27508   1.806   0.723   2.698
 8870SOL    HW127509   1.845   0.669   2.772
 8870SOL    HW227510   1.711   0.694   2.683
 8871SOL     OW27511   0.474   0.548   2.647
 8871SOL    HW127512   0.441   0.639   2.672
 8871SOL    HW227513   0.402   0.480   2.664
 8872SOL     OW27514   0.455   5.023   4.668
 8872SOL    HW127515   0.462   5.114   4.629
 8872SOL    HW227516   0.435   5.029   4.765
 8873SOL     OW27517   1.653   1.050   2.444
 8873SOL    HW127518   1.610   0.980   2.388
 8873SOL    HW227519   1.746   1.067   2.411
 8874SOL     OW27520   3.194   6.014   0.304
 8874SOL    HW127521   3.200   6.043   0.400
 8874SOL    HW227522   3.285   5.989   0.272
 8875SOL     OW27523   0.243   3.015   3.509
 8875SOL    HW127524   0.249   3.101   3.458
 8875SOL    HW227525   0.152   3.007   3.549
 8876SOL     OW27526   3.529   0.561   6.196
 8876SOL    HW127527   3.526   0.571   6.096
 8876SOL    HW227528   3.438   0.576   6.234
 8877SOL     OW27529   1.857   4.352   1.287
 8877SOL    HW127530   1.940   4.330   1.237
 8877SOL    HW227531   1.845   4.287   1.362
 8878SOL     OW27532   4.547   3.937   0.970
 8878SOL    HW127533   4.643   3.961   0.953
 8878SOL    HW227534   4.501   4.013   1.016
 8879SOL     OW27535   5.903   4.821   2.979
 8879SOL    HW127536   5.948   4.850   2.895
 8879SOL    HW227537   5.822   4.768   2.958
 8880SOL     OW27538   4.219   6.907   4.122
 8880SOL    HW127539   4.279   6.921   4.044
 8880SOL    HW227540   4.273   6.907   4.207
 8881SOL     OW27541   4.448   5.120   4.647
 8881SOL    HW127542   4.464   5.126   4.549
 8881SOL    HW227543   4.403   5.204   4.679
 8882SOL     OW27544   4.245   0.634   0.752
 8882SOL    HW127545   4.321   0.631   0.688
 8882SOL    HW227546   4.276   0.673   0.839
 8883SOL     OW27547   6.884   6.421   4.844
 8883SOL    HW127548   6.899   6.463   4.934
 8883SOL    HW227549   6.833   6.336   4.855
 8884SOL     OW27550   5.305   3.631   4.810
 8884SOL    HW127551   5.260   3.586   4.733
 8884SOL    HW227552   5.247   3.624   4.891
 8885SOL     OW27553   6.205   5.418   0.657
 8885SOL    HW127554   6.159   5.449   0.740
 8885SOL    HW227555   6.267   5.489   0.624
 8886SOL     OW27556   3.508   5.713   6.294
 8886SOL    HW127557   3.482   5.694   6.199
 8886SOL    HW227558   3.426   5.708   6.352
 8887SOL     OW27559   5.340   1.635   1.907
 8887SOL    HW127560   5.284   1.697   1.963
 8887SOL    HW227561   5.364   1.680   1.822
 8888SOL     OW27562   2.394   1.721   3.397
 8888SOL    HW127563   2.345   1.761   3.320
 8888SOL    HW227564   2.473   1.779   3.420
 8889SOL     OW27565   0.346   6.504   6.084
 8889SOL    HW127566   0.347   6.429   6.151
 8889SOL    HW227567   0.378   6.470   5.996
 8890SOL     OW27568   0.446   6.711   0.311
 8890SOL    HW127569   0.453   6.804   0.345
 8890SOL    HW227570   0.391   6.656   0.374
 8891SOL     OW27571   6.087   4.096   0.123
 8891SOL    HW127572   6.092   4.154   0.043
 8891SOL    HW227573   6.074   4.152   0.205
 8892SOL     OW27574   3.102   5.667   3.649
 8892SOL    HW127575   3.170   5.726   3.691
 8892SOL    HW227576   3.144   5.615   3.575
 8893SOL     OW27577   1.464   5.010   4.926
 8893SOL    HW127578   1.514   5.092   4.897
 8893SOL    HW227579   1.472   4.999   5.025
 8894SOL     OW27580   4.463   1.448   0.092
 8894SOL    HW127581   4.398   1.383   0.130
 8894SOL    HW227582   4.529   1.475   0.162
 8895SOL     OW27583   0.250   3.793   1.223
 8895SOL    HW127584   0.324   3.727   1.236
 8895SOL    HW227585   0.238   3.847   1.306
 8896SOL     OW27586   0.373   2.044   4.813
 8896SOL    HW127587   0.406   2.069   4.904
 8896SOL    HW227588   0.440   2.073   4.745
 8897SOL     OW27589   1.853   3.663   4.170
 8897SOL    HW127590   1.820   3.569   4.172
 8897SOL    HW227591   1.939   3.667   4.119
 8898SOL     OW27592   5.101   4.302   2.917
 8898SOL    HW127593   5.064   4.335   3.004
 8898SOL    HW227594   5.173   4.235   2.934
 8899SOL     OW27595   0.018   3.521   5.935
 8899SOL    HW127596   0.070   3.583   5.876
 8899SOL    HW227597   0.017   3.430   5.896
 8900SOL     OW27598   4.936   2.723   4.101
 8900SOL    HW127599   4.978   2.713   4.191
 8900SOL    HW227600   4.837   2.711   4.109
 8901SOL     OW27601   1.309   2.949   4.422
 8901SOL    HW127602   1.221   2.902   4.409
 8901SOL    HW227603   1.361   2.947   4.337
 8902SOL     OW27604   0.610   4.477   0.230
 8902SOL    HW127605   0.675   4.403   0.213
 8902SOL    HW227606   0.519   4.450   0.198
 8903SOL     OW27607   1.580   6.960   5.216
 8903SOL    HW127608   1.661   7.011   5.188
 8903SOL    HW227609   1.543   6.910   5.137
 8904SOL     OW27610   0.386   0.801   3.472
 8904SOL    HW127611   0.400   0.726   3.407
 8904SOL    HW227612   0.420   0.887   3.433
 8905SOL     OW27613   1.197   3.660   2.082
 8905SOL    HW127614   1.293   3.670   2.057
 8905SOL    HW227615   1.173   3.729   2.150
 8906SOL     OW27616   6.700   6.963   0.314
 8906SOL    HW127617   6.682   0.037   0.329
 8906SOL    HW227618   6.648   6.931   0.235
 8907SOL     OW27619   2.973   3.168   4.570
 8907SOL    HW127620   2.967   3.224   4.488
 8907SOL    HW227621   2.949   3.222   4.650
 8908SOL     OW27622   0.967   5.872   0.539
 8908SOL    HW127623   1.003   5.865   0.446
 8908SOL    HW227624   1.001   5.795   0.594
 8909SOL     OW27625   2.872   0.647   0.130
 8909SOL    HW127626   2.775   0.636   0.154
 8909SOL    HW227627   2.901   0.739   0.156
 8910SOL     OW27628   2.171   1.792   3.883
 8910SOL    HW127629   2.141   1.887   3.895
 8910SOL    HW227630   2.157   1.764   3.789
 8911SOL     OW27631   4.873   1.384   4.096
 8911SOL    HW127632   4.876   1.478   4.063
 8911SOL    HW227633   4.966   1.351   4.113
 8912SOL     OW27634   3.227   3.648   5.075
 8912SOL    HW127635   3.295   3.576   5.065
 8912SOL    HW227636   3.250   3.705   5.154
 8913SOL     OW27637   5.682   5.960   6.943
 8913SOL    HW127638   5.631   5.918   7.017
 8913SOL    HW227639   5.749   6.024   6.980
 8914SOL     OW27640   4.881   6.225   6.435
 8914SOL    HW127641   4.945   6.250   6.363
 8914SOL    HW227642   4.900   6.277   6.518
 8915SOL     OW27643   1.005   1.254   4.060
 8915SOL    HW127644   0.914   1.271   4.022
 8915SOL    HW227645   1.027   1.325   4.127
 8916SOL     OW27646   5.339   0.679   0.032
 8916SOL    HW127647   5.362   0.747   0.102
 8916SOL    HW227648   5.281   0.608   0.071
 8917SOL     OW27649   5.595   1.630   0.557
 8917SOL    HW127650   5.640   1.700   0.611
 8917SOL    HW227651   5.592   1.544   0.610
 8918SOL     OW27652   0.828   4.036   2.441
 8918SOL    HW127653   0.799   3.954   2.391
 8918SOL    HW227654   0.788   4.117   2.397
 8919SOL     OW27655   5.921   3.702   0.711
 8919SOL    HW127656   5.862   3.705   0.792
 8919SOL    HW227657   5.913   3.788   0.660
 8920SOL     OW27658   6.420   1.529   0.520
 8920SOL    HW127659   6.394   1.615   0.476
 8920SOL    HW227660   6.509   1.540   0.565
 8921SOL     OW27661   1.581   3.122   1.449
 8921SOL    HW127662   1.494   3.136   1.496
 8921SOL    HW227663   1.565   3.095   1.354
 8922SOL     OW27664   3.926   0.143   3.254
 8922SOL    HW127665   3.986   0.154   3.175
 8922SOL    HW227666   3.909   0.232   3.296
 8923SOL     OW27667   1.646   2.304   5.039
 8923SOL    HW127668   1.570   2.315   4.975
 8923SOL    HW227669   1.616   2.331   5.131
 8924SOL     OW27670   5.021   5.566   4.916
 8924SOL    HW127671   5.090   5.599   4.981
 8924SOL    HW227672   4.976   5.486   4.954
 8925SOL     OW27673   1.294   0.754   3.488
 8925SOL    HW127674   1.208   0.784   3.446
 8925SOL    HW227675   1.289   0.656   3.506
 8926SOL     OW27676   6.498   2.755   5.208
 8926SOL    HW127677   6.472   2.738   5.113
 8926SOL    HW227678   6.466   2.846   5.235
 8927SOL     OW27679   7.015   1.250   6.481
 8927SOL    HW127680   0.031   1.221   6.394
 8927SOL    HW227681   6.932   1.302   6.466
 8928SOL     OW27682   1.940   6.556   5.089
 8928SOL    HW127683   1.900   6.473   5.129
 8928SOL    HW227684   1.910   6.636   5.141
 8929SOL     OW27685   6.836   2.456   4.447
 8929SOL    HW127686   6.788   2.500   4.371
 8929SOL    HW227687   6.934   2.456   4.428
 8930SOL     OW27688   1.461   4.336   3.695
 8930SOL    HW127689   1.434   4.401   3.766
 8930SOL    HW227690   1.555   4.353   3.666
 8931SOL     OW27691   3.657   2.707   0.876
 8931SOL    HW127692   3.600   2.712   0.794
 8931SOL    HW227693   3.671   2.610   0.901
 8932SOL     OW27694   0.652   3.262   2.950
 8932SOL    HW127695   0.612   3.176   2.917
 8932SOL    HW227696   0.681   3.251   3.045
 8933SOL     OW27697   3.766   1.548   5.702
 8933SOL    HW127698   3.721   1.630   5.736
 8933SOL    HW227699   3.820   1.506   5.775
 8934SOL     OW27700   2.544   6.110   3.925
 8934SOL    HW127701   2.597   6.052   3.988
 8934SOL    HW227702   2.480   6.053   3.874
 8935SOL     OW27703   6.839   5.160   1.386
 8935SOL    HW127704   6.814   5.163   1.482
 8935SOL    HW227705   6.929   5.117   1.376
 8936SOL     OW27706   2.073   3.382   0.608
 8936SOL    HW127707   2.069   3.304   0.545
 8936SOL    HW227708   2.019   3.363   0.689
 8937SOL     OW27709   0.720   6.021   5.802
 8937SOL    HW127710   0.675   6.053   5.719
 8937SOL    HW227711   0.798   6.080   5.822
 8938SOL     OW27712   6.493   5.157   0.861
 8938SOL    HW127713   6.435   5.224   0.906
 8938SOL    HW227714   6.561   5.123   0.926
 8939SOL     OW27715   5.292   2.321   4.469
 8939SOL    HW127716   5.313   2.400   4.411
 8939SOL    HW227717   5.198   2.292   4.454
 8940SOL     OW27718   6.497   0.940   3.564
 8940SOL    HW127719   6.531   1.015   3.507
 8940SOL    HW227720   6.531   0.950   3.657
 8941SOL     OW27721   5.235   2.595   6.595
 8941SOL    HW127722   5.199   2.559   6.682
 8941SOL    HW227723   5.224   2.526   6.524
 8942SOL     OW27724   0.446   2.094   5.059
 8942SOL    HW127725   0.434   2.193   5.061
 8942SOL    HW227726   0.368   2.050   5.103
 8943SOL     OW27727   4.928   3.316   1.342
 8943SOL    HW127728   4.935   3.271   1.253
 8943SOL    HW227729   4.867   3.263   1.401
 8944SOL     OW27730   4.070   5.482   0.618
 8944SOL    HW127731   3.988   5.535   0.642
 8944SOL    HW227732   4.127   5.535   0.555
 8945SOL     OW27733   2.311   0.736   4.344
 8945SOL    HW127734   2.265   0.648   4.340
 8945SOL    HW227735   2.247   0.805   4.379
 8946SOL     OW27736   3.679   1.985   4.667
 8946SOL    HW127737   3.603   2.022   4.721
 8946SOL    HW227738   3.724   1.912   4.719
 8947SOL     OW27739   4.012   3.695   5.162
 8947SOL    HW127740   3.917   3.675   5.137
 8947SOL    HW227741   4.016   3.722   5.258
 8948SOL     OW27742   5.352   4.684   3.340
 8948SOL    HW127743   5.345   4.653   3.435
 8948SOL    HW227744   5.346   4.784   3.338
 8949SOL     OW27745   1.853   6.807   0.171
 8949SOL    HW127746   1.894   6.897   0.177
 8949SOL    HW227747   1.764   6.814   0.124
 8950SOL     OW27748   4.659   2.635   4.732
 8950SOL    HW127749   4.732   2.605   4.671
 8950SOL    HW227750   4.696   2.697   4.801
 8951SOL     OW27751   1.388   2.624   5.615
 8951SOL    HW127752   1.452   2.548   5.598
 8951SOL    HW227753   1.299   2.602   5.576
 8952SOL     OW27754   0.729   1.250   2.995
 8952SOL    HW127755   0.649   1.207   2.953
 8952SOL    HW227756   0.765   1.192   3.067
 8953SOL     OW27757   1.998   3.457   0.176
 8953SOL    HW127758   2.025   3.420   0.087
 8953SOL    HW227759   2.006   3.556   0.174
 8954SOL     OW27760   1.623   6.108   6.423
 8954SOL    HW127761   1.697   6.147   6.478
 8954SOL    HW227762   1.611   6.011   6.447
 8955SOL     OW27763   6.748   4.162   3.316
 8955SOL    HW127764   6.847   4.159   3.304
 8955SOL    HW227765   6.711   4.243   3.270
 8956SOL     OW27766   0.418   0.710   6.252
 8956SOL    HW127767   0.470   0.639   6.205
 8956SOL    HW227768   0.394   0.783   6.187
 8957SOL     OW27769   2.574   4.676   2.497
 8957SOL    HW127770   2.594   4.708   2.405
 8957SOL    HW227771   2.559   4.577   2.496
 8958SOL     OW27772   1.767   6.581   4.485
 8958SOL    HW127773   1.852   6.619   4.522
 8958SOL    HW227774   1.787   6.497   4.435
 8959SOL     OW27775   1.244   4.763   0.578
 8959SOL    HW127776   1.274   4.805   0.664
 8959SOL    HW227777   1.320   4.763   0.513
 8960SOL     OW27778   3.636   5.689   1.671
 8960SOL    HW127779   3.557   5.651   1.623
 8960SOL    HW227780   3.668   5.624   1.740
 8961SOL     OW27781   1.853   2.390   3.719
 8961SOL    HW127782   1.773   2.429   3.764
 8961SOL    HW227783   1.828   2.303   3.677
 8962SOL     OW27784   5.935   0.676   3.309
 8962SOL    HW127785   5.885   0.590   3.315
 8962SOL    HW227786   6.013   0.673   3.372
 8963SOL     OW27787   5.947   0.564   4.332
 8963SOL    HW127788   5.909   0.575   4.424
 8963SOL    HW227789   6.031   0.618   4.324
 8964SOL     OW27790   5.272   4.576   1.794
 8964SOL    HW127791   5.357   4.558   1.843
 8964SOL    HW227792   5.278   4.665   1.749
 8965SOL     OW27793   1.626   5.271   1.655
 8965SOL    HW127794   1.719   5.290   1.688
 8965SOL    HW227795   1.628   5.265   1.555
 8966SOL     OW27796   2.094   2.373   6.431
 8966SOL    HW127797   2.020   2.427   6.392
 8966SOL    HW227798   2.174   2.431   6.446
 8967SOL     OW27799   4.141   0.723   0.305
 8967SOL    HW127800   4.099   0.632   0.292
 8967SOL    HW227801   4.239   0.717   0.287
 8968SOL     OW27802   5.331   6.369   1.423
 8968SOL    HW127803   5.419   6.413   1.442
 8968SOL    HW227804   5.279   6.360   1.508
 8969SOL     OW27805   6.407   0.685   3.795
 8969SOL    HW127806   6.471   0.676   3.718
 8969SOL    HW227807   6.459   0.689   3.881
 8970SOL     OW27808   3.383   2.392   1.595
 8970SOL    HW127809   3.360   2.296   1.614
 8970SOL    HW227810   3.477   2.410   1.626
 8971SOL     OW27811   3.703   5.441   1.806
 8971SOL    HW127812   3.800   5.435   1.829
 8971SOL    HW227813   3.650   5.388   1.873
 8972SOL     OW27814   5.336   6.119   5.313
 8972SOL    HW127815   5.297   6.027   5.310
 8972SOL    HW227816   5.359   6.141   5.408
 8973SOL     OW27817   1.277   5.140   0.221
 8973SOL    HW127818   1.252   5.052   0.262
 8973SOL    HW227819   1.294   5.207   0.293
 8974SOL     OW27820   0.764   3.823   6.172
 8974SOL    HW127821   0.753   3.734   6.128
 8974SOL    HW227822   0.811   3.886   6.109
 8975SOL     OW27823   3.153   0.393   0.505
 8975SOL    HW127824   3.116   0.436   0.423
 8975SOL    HW227825   3.182   0.464   0.570
 8976SOL     OW27826   1.945   5.566   4.430
 8976SOL    HW127827   1.893   5.563   4.516
 8976SOL    HW227828   1.941   5.477   4.385
 8977SOL     OW27829   6.573   1.321   5.864
 8977SOL    HW127830   6.635   1.268   5.922
 8977SOL    HW227831   6.485   1.274   5.857
 8978SOL     OW27832   5.832   6.380   0.658
 8978SOL    HW127833   5.931   6.365   0.661
 8978SOL    HW227834   5.810   6.435   0.578
 8979SOL     OW27835   1.891   3.841   4.824
 8979SOL    HW127836   1.840   3.796   4.751
 8979SOL    HW227837   1.841   3.832   4.910
 8980SOL     OW27838   3.615   3.225   4.522
 8980SOL    HW127839   3.652   3.137   4.551
 8980SOL    HW227840   3.573   3.216   4.432
 8981SOL     OW27841   3.393   1.685   4.752
 8981SOL    HW127842   3.456   1.731   4.813
 8981SOL    HW227843   3.312   1.655   4.803
 8982SOL     OW27844   3.105   4.273   0.533
 8982SOL    HW127845   3.061   4.194   0.492
 8982SOL    HW227846   3.085   4.355   0.480
 8983SOL     OW27847   4.202   5.215   0.064
 8983SOL    HW127848   4.227   5.243   6.994
 8983SOL    HW227849   4.161   5.291   0.112
 8984SOL     OW27850   2.550   5.930   3.135
 8984SOL    HW127851   2.554   5.901   3.231
 8984SOL    HW227852   2.472   5.886   3.090
 8985SOL     OW27853   3.751   3.184   0.022
 8985SOL    HW127854   3.682   3.160   0.090
 8985SOL    HW227855   3.832   3.220   0.068
 8986SOL     OW27856   3.836   4.887   3.102
 8986SOL    HW127857   3.879   4.848   3.184
 8986SOL    HW227858   3.766   4.953   3.130
 8987SOL     OW27859   5.339   5.762   2.762
 8987SOL    HW127860   5.255   5.776   2.814
 8987SOL    HW227861   5.384   5.679   2.794
 8988SOL     OW27862   0.602   5.178   4.324
 8988SOL    HW127863   0.540   5.107   4.293
 8988SOL    HW227864   0.642   5.225   4.245
 8989SOL     OW27865   4.234   2.985   6.506
 8989SOL    HW127866   4.299   2.956   6.576
 8989SOL    HW227867   4.158   3.034   6.549
 8990SOL     OW27868   0.218   5.110   3.697
 8990SOL    HW127869   0.280   5.110   3.775
 8990SOL    HW227870   0.263   5.155   3.619
 8991SOL     OW27871   1.459   2.326   4.853
 8991SOL    HW127872   1.516   2.313   4.772
 8991SOL    HW227873   1.398   2.404   4.840
 8992SOL     OW27874   6.091   2.153   0.277
 8992SOL    HW127875   6.062   2.104   0.195
 8992SOL    HW227876   6.093   2.251   0.258
 8993SOL     OW27877   4.094   3.170   6.104
 8993SOL    HW127878   4.017   3.167   6.041
 8993SOL    HW227879   4.179   3.171   6.052
 8994SOL     OW27880   2.109   4.651   4.603
 8994SOL    HW127881   2.083   4.588   4.676
 8994SOL    HW227882   2.175   4.718   4.638
 8995SOL     OW27883   0.009   1.431   1.392
 8995SOL    HW127884   0.036   1.521   1.426
 8995SOL    HW227885   6.989   1.441   1.302
 8996SOL     OW27886   5.264   3.882   6.847
 8996SOL    HW127887   5.244   3.828   6.929
 8996SOL    HW227888   5.283   3.820   6.770
 8997SOL     OW27889   5.637   1.083   5.003
 8997SOL    HW127890   5.631   1.182   5.001
 8997SOL    HW227891   5.729   1.054   4.977
 8998SOL     OW27892   6.074   4.056   3.892
 8998SOL    HW127893   6.117   4.018   3.973
 8998SOL    HW227894   6.144   4.082   3.825
 8999SOL     OW27895   4.633   0.009   5.912
 8999SOL    HW127896   4.663   7.018   5.817
 8999SOL    HW227897   4.609   0.105   5.925
 9000SOL     OW27898   1.799   4.626   1.628
 9000SOL    HW127899   1.880   4.588   1.671
 9000SOL    HW227900   1.801   4.607   1.530
 9001SOL     OW27901   6.977   5.021   2.452
 9001SOL    HW127902   6.999   5.014   2.549
 9001SOL    HW227903   0.009   5.092   2.409
 9002SOL     OW27904   1.165   4.410   5.627
 9002SOL    HW127905   1.245   4.354   5.603
 9002SOL    HW227906   1.156   4.484   5.560
 9003SOL     OW27907   5.307   2.082   0.984
 9003SOL    HW127908   5.360   2.013   1.034
 9003SOL    HW227909   5.243   2.125   1.047
 9004SOL     OW27910   4.388   5.296   0.589
 9004SOL    HW127911   4.323   5.246   0.532
 9004SOL    HW227912   4.464   5.329   0.532
 9005SOL     OW27913   5.373   1.331   6.221
 9005SOL    HW127914   5.421   1.395   6.282
 9005SOL    HW227915   5.316   1.383   6.157
 9006SOL     OW27916   3.432   0.453   0.501
 9006SOL    HW127917   3.452   0.460   0.599
 9006SOL    HW227918   3.359   0.387   0.486
 9007SOL     OW27919   2.527   1.229   2.505
 9007SOL    HW127920   2.520   1.195   2.599
 9007SOL    HW227921   2.511   1.328   2.504
 9008SOL     OW27922   0.193   5.719   2.932
 9008SOL    HW127923   0.289   5.735   2.908
 9008SOL    HW227924   0.138   5.798   2.906
 9009SOL     OW27925   3.758   5.600   0.588
 9009SOL    HW127926   3.794   5.667   0.524
 9009SOL    HW227927   3.666   5.627   0.617
 9010SOL     OW27928   2.371   6.546   3.990
 9010SOL    HW127929   2.332   6.489   3.917
 9010SOL    HW227930   2.373   6.642   3.961
 9011SOL     OW27931   4.611   0.703   2.783
 9011SOL    HW127932   4.681   0.773   2.775
 9011SOL    HW227933   4.635   0.639   2.857
 9012SOL     OW27934   2.545   5.781   0.714
 9012SOL    HW127935   2.510   5.741   0.629
 9012SOL    HW227936   2.547   5.881   0.705
 9013SOL     OW27937   1.593   6.632   4.694
 9013SOL    HW127938   1.654   6.623   4.615
 9013SOL    HW227939   1.498   6.625   4.663
 9014SOL     OW27940   6.287   2.605   1.857
 9014SOL    HW127941   6.381   2.572   1.869
 9014SOL    HW227942   6.240   2.546   1.791
 9015SOL     OW27943   4.911   2.878   0.700
 9015SOL    HW127944   4.828   2.935   0.705
 9015SOL    HW227945   4.973   2.917   0.631
 9016SOL     OW27946   5.796   5.493   6.284
 9016SOL    HW127947   5.872   5.523   6.226
 9016SOL    HW227948   5.709   5.518   6.241
 9017SOL     OW27949   3.304   1.197   4.898
 9017SOL    HW127950   3.285   1.258   4.974
 9017SOL    HW227951   3.250   1.113   4.908
 9018SOL     OW27952   3.646   3.188   6.633
 9018SOL    HW127953   3.719   3.143   6.684
 9018SOL    HW227954   3.568   3.205   6.693
 9019SOL     OW27955   1.322   3.450   3.100
 9019SOL    HW127956   1.356   3.360   3.125
 9019SOL    HW227957   1.267   3.443   3.016
 9020SOL     OW27958   6.403   5.524   1.826
 9020SOL    HW127959   6.488   5.541   1.877
 9020SOL    HW227960   6.348   5.457   1.876
 9021SOL     OW27961   6.979   0.271   3.646
 9021SOL    HW127962   6.910   0.268   3.717
 9021SOL    HW227963   6.944   0.228   3.563
 9022SOL     OW27964   3.714   2.868   6.538
 9022SOL    HW127965   3.643   2.866   6.609
 9022SOL    HW227966   3.804   2.869   6.581
 9023SOL     OW27967   4.111   3.275   1.409
 9023SOL    HW127968   4.150   3.360   1.375
 9023SOL    HW227969   4.025   3.294   1.457
 9024SOL     OW27970   1.005   5.160   5.676
 9024SOL    HW127971   1.061   5.243   5.672
 9024SOL    HW227972   1.017   5.107   5.592
 9025SOL     OW27973   0.294   5.740   0.821
 9025SOL    HW127974   0.294   5.640   0.811
 9025SOL    HW227975   0.257   5.782   0.738
 9026SOL     OW27976   3.840   1.557   6.958
 9026SOL    HW127977   3.874   1.570   0.027
 9026SOL    HW227978   3.895   1.612   6.894
 9027SOL     OW27979   1.001   3.798   3.529
 9027SOL    HW127980   0.951   3.712   3.514
 9027SOL    HW227981   0.958   3.871   3.476
 9028SOL     OW27982   3.720   3.953   5.242
 9028SOL    HW127983   3.818   3.958   5.263
 9028SOL    HW227984   3.695   4.030   5.183
 9029SOL     OW27985   4.377   0.552   4.550
 9029SOL    HW127986   4.320   0.607   4.489
 9029SOL    HW227987   4.354   0.456   4.540
 9030SOL     OW27988   2.311   2.674   4.170
 9030SOL    HW127989   2.290   2.749   4.232
 9030SOL    HW227990   2.226   2.625   4.147
 9031SOL     OW27991   4.814   0.352   4.741
 9031SOL    HW127992   4.759   0.409   4.802
 9031SOL    HW227993   4.792   0.375   4.646
 9032SOL     OW27994   4.885   3.555   1.262
 9032SOL    HW127995   4.911   3.476   1.316
 9032SOL    HW227996   4.956   3.626   1.269
 9033SOL     OW27997   0.686   5.122   2.384
 9033SOL    HW127998   0.674   5.205   2.329
 9033SOL    HW227999   0.653   5.139   2.477
 9034SOL     OW28000   3.409   6.415   4.926
 9034SOL    HW128001   3.503   6.447   4.916
 9034SOL    HW228002   3.362   6.470   4.995
 9035SOL     OW28003   2.369   5.875   0.257
 9035SOL    HW128004   2.330   5.920   0.177
 9035SOL    HW228005   2.466   5.898   0.265
 9036SOL     OW28006   1.245   3.520   4.804
 9036SOL    HW128007   1.208   3.551   4.716
 9036SOL    HW228008   1.230   3.591   4.872
 9037SOL     OW28009   0.928   2.486   3.925
 9037SOL    HW128010   0.944   2.531   3.837
 9037SOL    HW228011   0.831   2.467   3.936
 9038SOL     OW28012   4.629   3.280   6.485
 9038SOL    HW128013   4.538   3.288   6.446
 9038SOL    HW228014   4.697   3.275   6.411
 9039SOL     OW28015   3.399   4.956   6.961
 9039SOL    HW128016   3.453   4.999   6.889
 9039SOL    HW228017   3.410   5.007   0.023
 9040SOL     OW28018   2.068   2.319   1.899
 9040SOL    HW128019   2.007   2.306   1.821
 9040SOL    HW228020   2.155   2.273   1.882
 9041SOL     OW28021   0.468   2.289   1.074
 9041SOL    HW128022   0.458   2.367   1.013
 9041SOL    HW228023   0.540   2.228   1.039
 9042SOL     OW28024   3.254   5.951   5.566
 9042SOL    HW128025   3.175   5.993   5.611
 9042SOL    HW228026   3.272   5.997   5.480
 9043SOL     OW28027   2.623   1.197   6.750
 9043SOL    HW128028   2.684   1.249   6.690
 9043SOL    HW228029   2.579   1.260   6.815
 9044SOL     OW28030   0.390   0.142   0.038
 9044SOL    HW128031   0.404   0.072   0.108
 9044SOL    HW228032   0.478   0.181   0.012
 9045SOL     OW28033   4.447   0.324   3.207
 9045SOL    HW128034   4.401   0.330   3.119
 9045SOL    HW228035   4.379   0.327   3.280
 9046SOL     OW28036   3.548   3.099   2.793
 9046SOL    HW128037   3.499   3.108   2.880
 9046SOL    HW228038   3.526   3.177   2.734
 9047SOL     OW28039   1.568   4.412   5.850
 9047SOL    HW128040   1.581   4.318   5.821
 9047SOL    HW228041   1.588   4.421   5.947
 9048SOL     OW28042   5.938   2.397   6.324
 9048SOL    HW128043   5.901   2.490   6.315
 9048SOL    HW228044   5.864   2.335   6.350
 9049SOL     OW28045   3.279   6.723   6.212
 9049SOL    HW128046   3.210   6.715   6.284
 9049SOL    HW228047   3.319   6.634   6.195
 9050SOL     OW28048   0.522   4.496   1.721
 9050SOL    HW128049   0.465   4.570   1.685
 9050SOL    HW228050   0.611   4.532   1.748
 9051SOL     OW28051   2.924   1.516   1.423
 9051SOL    HW128052   2.909   1.615   1.429
 9051SOL    HW228053   3.022   1.498   1.416
 9052SOL     OW28054   1.725   3.115   4.737
 9052SOL    HW128055   1.819   3.095   4.711
 9052SOL    HW228056   1.671   3.135   4.655
 9053SOL     OW28057   2.053   1.737   1.328
 9053SOL    HW128058   1.958   1.727   1.359
 9053SOL    HW228059   2.070   1.833   1.303
 9054SOL     OW28060   2.969   5.499   3.851
 9054SOL    HW128061   2.883   5.474   3.808
 9054SOL    HW228062   3.032   5.535   3.783
 9055SOL     OW28063   0.330   4.236   5.030
 9055SOL    HW128064   0.277   4.318   5.010
 9055SOL    HW228065   0.409   4.231   4.970
 9056SOL     OW28066   6.052   2.322   2.621
 9056SOL    HW128067   6.100   2.254   2.676
 9056SOL    HW228068   5.967   2.283   2.586
 9057SOL     OW28069   4.383   1.235   4.557
 9057SOL    HW128070   4.435   1.200   4.478
 9057SOL    HW228071   4.446   1.267   4.627
 9058SOL     OW28072   1.255   0.836   6.386
 9058SOL    HW128073   1.178   0.776   6.363
 9058SOL    HW228074   1.307   0.796   6.461
 9059SOL     OW28075   1.493   2.349   2.321
 9059SOL    HW128076   1.494   2.249   2.318
 9059SOL    HW228077   1.587   2.383   2.321
 9060SOL     OW28078   4.808   2.862   4.559
 9060SOL    HW128079   4.787   2.879   4.655
 9060SOL    HW228080   4.850   2.771   4.550
 9061SOL     OW28081   4.853   5.325   2.587
 9061SOL    HW128082   4.757   5.343   2.564
 9061SOL    HW228083   4.861   5.304   2.684
 9062SOL     OW28084   1.518   5.330   1.374
 9062SOL    HW128085   1.458   5.398   1.333
 9062SOL    HW228086   1.610   5.368   1.383
 9063SOL     OW28087   2.803   1.817   3.419
 9063SOL    HW128088   2.902   1.806   3.434
 9063SOL    HW228089   2.770   1.741   3.363
 9064SOL     OW28090   6.440   3.436   6.796
 9064SOL    HW128091   6.365   3.370   6.801
 9064SOL    HW228092   6.521   3.391   6.756
 9065SOL     OW28093   2.889   1.056   0.681
 9065SOL    HW128094   2.874   1.050   0.582
 9065SOL    HW228095   2.918   0.966   0.715
 9066SOL     OW28096   5.065   6.549   0.100
 9066SOL    HW128097   4.993   6.577   0.163
 9066SOL    HW228098   5.024   6.527   0.011
 9067SOL     OW28099   1.554   6.761   3.497
 9067SOL    HW128100   1.458   6.736   3.492
 9067SOL    HW228101   1.611   6.680   3.484
 9068SOL     OW28102   1.554   5.935   6.176
 9068SOL    HW128103   1.500   6.017   6.195
 9068SOL    HW228104   1.611   5.913   6.255
 9069SOL     OW28105   2.103   2.299   6.165
 9069SOL    HW128106   2.096   2.318   6.263
 9069SOL    HW228107   2.070   2.206   6.147
 9070SOL     OW28108   1.515   4.213   4.860
 9070SOL    HW128109   1.433   4.270   4.870
 9070SOL    HW228110   1.554   4.194   4.950
 9071SOL     OW28111   6.080   6.604   0.261
 9071SOL    HW128112   6.128   6.692   0.268
 9071SOL    HW228113   6.133   6.534   0.308
 9072SOL     OW28114   6.677   4.315   0.020
 9072SOL    HW128115   6.667   4.290   6.947
 9072SOL    HW228116   6.687   4.232   0.075
 9073SOL     OW28117   1.873   1.127   2.310
 9073SOL    HW128118   1.874   1.141   2.212
 9073SOL    HW228119   1.864   1.215   2.357
 9074SOL     OW28120   1.367   0.049   3.409
 9074SOL    HW128121   1.315   0.134   3.398
 9074SOL    HW228122   1.441   0.046   3.341
 9075SOL     OW28123   6.681   0.565   2.401
 9075SOL    HW128124   6.716   0.561   2.307
 9075SOL    HW228125   6.740   0.624   2.456
 9076SOL     OW28126   6.665   0.610   5.735
 9076SOL    HW128127   6.620   0.697   5.718
 9076SOL    HW228128   6.638   0.575   5.825
 9077SOL     OW28129   5.801   6.127   2.378
 9077SOL    HW128130   5.796   6.205   2.315
 9077SOL    HW228131   5.785   6.042   2.328
 9078SOL     OW28132   3.990   3.256   4.626
 9078SOL    HW128133   4.026   3.232   4.535
 9078SOL    HW228134   4.064   3.290   4.684
 9079SOL     OW28135   3.419   6.929   5.601
 9079SOL    HW128136   3.435   6.830   5.606
 9079SOL    HW228137   3.323   6.948   5.622
 9080SOL     OW28138   5.515   2.121   0.520
 9080SOL    HW128139   5.498   2.220   0.515
 9080SOL    HW228140   5.465   2.076   0.446
 9081SOL     OW28141   5.714   6.439   1.910
 9081SOL    HW128142   5.721   6.451   2.009
 9081SOL    HW228143   5.776   6.366   1.882
 9082SOL     OW28144   3.153   1.251   4.031
 9082SOL    HW128145   3.098   1.260   3.948
 9082SOL    HW228146   3.227   1.185   4.014
 9083SOL     OW28147   4.857   4.862   4.660
 9083SOL    HW128148   4.864   4.779   4.715
 9083SOL    HW228149   4.799   4.843   4.580
 9084SOL     OW28150   3.306   4.149   3.277
 9084SOL    HW128151   3.362   4.110   3.203
 9084SOL    HW228152   3.210   4.150   3.248
 9085SOL     OW28153   1.742   2.267   1.040
 9085SOL    HW128154   1.776   2.281   0.947
 9085SOL    HW228155   1.647   2.234   1.036
 9086SOL     OW28156   0.737   4.107   1.231
 9086SOL    HW128157   0.706   4.156   1.150
 9086SOL    HW228158   0.837   4.097   1.228
 9087SOL     OW28159   4.893   3.639   2.000
 9087SOL    HW128160   4.827   3.644   1.925
 9087SOL    HW228161   4.960   3.568   1.979
 9088SOL     OW28162   5.254   0.811   6.808
 9088SOL    HW128163   5.251   0.743   6.735
 9088SOL    HW228164   5.280   0.767   6.894
 9089SOL     OW28165   4.415   0.130   5.552
 9089SOL    HW128166   4.444   0.197   5.621
 9089SOL    HW228167   4.444   0.038   5.581
 9090SOL     OW28168   5.474   1.403   4.476
 9090SOL    HW128169   5.549   1.344   4.508
 9090SOL    HW228170   5.396   1.346   4.450
 9091SOL     OW28171   3.228   3.942   6.667
 9091SOL    HW128172   3.268   3.936   6.576
 9091SOL    HW228173   3.299   3.927   6.736
 9092SOL     OW28174   6.618   2.809   0.064
 9092SOL    HW128175   6.684   2.824   0.138
 9092SOL    HW228176   6.614   2.712   0.042
 9093SOL     OW28177   1.318   6.559   5.800
 9093SOL    HW128178   1.264   6.642   5.819
 9093SOL    HW228179   1.414   6.585   5.784
 9094SOL     OW28180   0.198   3.366   2.148
 9094SOL    HW128181   0.200   3.420   2.231
 9094SOL    HW228182   0.273   3.300   2.149
 9095SOL     OW28183   5.479   5.816   5.370
 9095SOL    HW128184   5.481   5.787   5.274
 9095SOL    HW228185   5.404   5.769   5.417
 9096SOL     OW28186   6.208   5.491   2.663
 9096SOL    HW128187   6.235   5.587   2.667
 9096SOL    HW228188   6.280   5.437   2.621
 9097SOL     OW28189   0.985   3.071   5.959
 9097SOL    HW128190   0.948   2.979   5.970
 9097SOL    HW228191   1.079   3.073   5.992
 9098SOL     OW28192   1.572   3.666   4.303
 9098SOL    HW128193   1.517   3.614   4.369
 9098SOL    HW228194   1.669   3.654   4.323
 9099SOL     OW28195   2.146   3.725   6.949
 9099SOL    HW128196   2.214   3.668   6.994
 9099SOL    HW228197   2.191   3.785   6.882
 9100SOL     OW28198   1.113   4.771   3.007
 9100SOL    HW128199   1.066   4.684   2.991
 9100SOL    HW228200   1.067   4.843   2.956
 9101SOL     OW28201   1.474   2.268   1.894
 9101SOL    HW128202   1.569   2.285   1.919
 9101SOL    HW228203   1.431   2.211   1.965
 9102SOL     OW28204   4.554   6.004   2.869
 9102SOL    HW128205   4.625   6.000   2.798
 9102SOL    HW228206   4.490   6.077   2.846
 9103SOL     OW28207   6.130   1.791   0.525
 9103SOL    HW128208   6.042   1.804   0.570
 9103SOL    HW228209   6.203   1.790   0.594
 9104SOL     OW28210   5.964   0.970   6.628
 9104SOL    HW128211   6.034   0.900   6.635
 9104SOL    HW228212   5.919   0.963   6.538
 9105SOL     OW28213   2.195   0.216   6.317
 9105SOL    HW128214   2.100   0.228   6.347
 9105SOL    HW228215   2.256   0.239   6.393
 9106SOL     OW28216   1.632   4.654   0.064
 9106SOL    HW128217   1.715   4.602   0.085
 9106SOL    HW228218   1.551   4.598   0.085
 9107SOL     OW28219   2.133   1.121   6.885
 9107SOL    HW128220   2.220   1.072   6.883
 9107SOL    HW228221   2.060   1.061   6.853
 9108SOL     OW28222   5.720   4.841   6.086
 9108SOL    HW128223   5.692   4.937   6.086
 9108SOL    HW228224   5.754   4.817   5.995
 9109SOL     OW28225   5.202   2.785   2.771
 9109SOL    HW128226   5.269   2.786   2.697
 9109SOL    HW228227   5.243   2.826   2.853
 9110SOL     OW28228   1.444   5.911   4.387
 9110SOL    HW128229   1.414   5.820   4.414
 9110SOL    HW228230   1.395   5.980   4.440
 9111SOL     OW28231   4.197   2.757   5.567
 9111SOL    HW128232   4.126   2.749   5.498
 9111SOL    HW228233   4.176   2.833   5.629
 9112SOL     OW28234   1.099   5.405   2.327
 9112SOL    HW128235   1.182   5.376   2.373
 9112SOL    HW228236   1.053   5.326   2.287
 9113SOL     OW28237   5.362   1.732   3.725
 9113SOL    HW128238   5.429   1.661   3.750
 9113SOL    HW228239   5.302   1.698   3.653
 9114SOL     OW28240   1.137   5.917   5.059
 9114SOL    HW128241   1.131   5.817   5.063
 9114SOL    HW228242   1.232   5.945   5.075
 9115SOL     OW28243   5.454   4.325   4.113
 9115SOL    HW128244   5.515   4.271   4.172
 9115SOL    HW228245   5.501   4.344   4.027
 9116SOL     OW28246   0.930   7.003   3.264
 9116SOL    HW128247   0.999   0.050   3.250
 9116SOL    HW228248   0.902   6.964   3.176
 9117SOL     OW28249   3.724   0.751   6.804
 9117SOL    HW128250   3.739   0.837   6.754
 9117SOL    HW228251   3.773   0.677   6.758
 9118SOL     OW28252   6.459   4.168   1.609
 9118SOL    HW128253   6.513   4.247   1.582
 9118SOL    HW228254   6.495   4.130   1.694
 9119SOL     OW28255   3.890   0.271   1.044
 9119SOL    HW128256   3.885   0.231   1.135
 9119SOL    HW228257   3.929   0.364   1.050
 9120SOL     OW28258   6.135   3.185   5.411
 9120SOL    HW128259   6.175   3.252   5.473
 9120SOL    HW228260   6.053   3.145   5.453
 9121SOL     OW28261   3.247   0.765   4.853
 9121SOL    HW128262   3.222   0.774   4.757
 9121SOL    HW228263   3.216   0.847   4.903
 9122SOL     OW28264   2.260   4.096   2.316
 9122SOL    HW128265   2.206   4.163   2.368
 9122SOL    HW228266   2.357   4.121   2.320
 9123SOL     OW28267   0.821   0.116   3.717
 9123SOL    HW128268   0.770   0.193   3.755
 9123SOL    HW228269   0.893   0.150   3.658
 9124SOL     OW28270   2.785   5.344   1.675
 9124SOL    HW128271   2.799   5.283   1.597
 9124SOL    HW228272   2.687   5.346   1.699
 9125SOL     OW28273   4.775   6.257   1.117
 9125SOL    HW128274   4.767   6.251   1.017
 9125SOL    HW228275   4.753   6.350   1.147
 9126SOL     OW28276   3.839   4.799   0.211
 9126SOL    HW128277   3.869   4.706   0.191
 9126SOL    HW228278   3.750   4.796   0.256
 9127SOL     OW28279   0.327   4.087   5.246
 9127SOL    HW128280   0.413   4.038   5.228
 9127SOL    HW228281   0.306   4.147   5.168
 9128SOL     OW28282   5.923   3.503   5.477
 9128SOL    HW128283   5.892   3.429   5.537
 9128SOL    HW228284   5.937   3.467   5.385
 9129SOL     OW28285   1.515   2.505   0.953
 9129SOL    HW128286   1.602   2.552   0.940
 9129SOL    HW228287   1.441   2.573   0.958
 9130SOL     OW28288   2.642   3.930   5.266
 9130SOL    HW128289   2.556   3.945   5.217
 9130SOL    HW228290   2.705   4.004   5.246
 9131SOL     OW28291   5.127   2.252   1.103
 9131SOL    HW128292   5.059   2.224   1.171
 9131SOL    HW228293   5.135   2.352   1.104
 9132SOL     OW28294   0.052   4.384   3.507
 9132SOL    HW128295   0.036   4.365   3.604
 9132SOL    HW228296   0.030   4.303   3.453
 9133SOL     OW28297   4.688   1.296   0.478
 9133SOL    HW128298   4.739   1.222   0.521
 9133SOL    HW228299   4.590   1.279   0.487
 9134SOL     OW28300   4.178   5.178   0.461
 9134SOL    HW128301   4.122   5.203   0.540
 9134SOL    HW228302   4.145   5.226   0.379
 9135SOL     OW28303   7.019   6.686   2.701
 9135SOL    HW128304   0.042   6.672   2.614
 9135SOL    HW228305   6.945   6.620   2.711
 9136SOL     OW28306   6.068   4.262   6.623
 9136SOL    HW128307   5.974   4.253   6.657
 9136SOL    HW228308   6.084   4.357   6.597
 9137SOL     OW28309   5.423   5.971   6.777
 9137SOL    HW128310   5.482   6.029   6.721
 9137SOL    HW228311   5.468   5.952   6.864
 9138SOL     OW28312   3.395   3.208   1.082
 9138SOL    HW128313   3.304   3.172   1.060
 9138SOL    HW228314   3.389   3.266   1.163
 9139SOL     OW28315   6.692   0.054   0.898
 9139SOL    HW128316   6.695   6.993   0.953
 9139SOL    HW228317   6.601   0.065   0.859
 9140SOL     OW28318   1.059   3.927   2.989
 9140SOL    HW128319   0.998   4.002   2.965
 9140SOL    HW228320   1.020   3.875   3.066
 9141SOL     OW28321   6.724   5.552   5.596
 9141SOL    HW128322   6.689   5.641   5.566
 9141SOL    HW228323   6.759   5.560   5.689
 9142SOL     OW28324   1.351   4.120   4.403
 9142SOL    HW128325   1.311   4.177   4.331
 9142SOL    HW228326   1.451   4.119   4.394
 9143SOL     OW28327   0.181   4.189   2.923
 9143SOL    HW128328   0.155   4.105   2.970
 9143SOL    HW228329   0.098   4.238   2.895
 9144SOL     OW28330   2.426   4.649   5.421
 9144SOL    HW128331   2.366   4.725   5.445
 9144SOL    HW228332   2.381   4.563   5.441
 9145SOL     OW28333   1.298   5.949   5.690
 9145SOL    HW128334   1.340   5.909   5.771
 9145SOL    HW228335   1.364   5.950   5.615
 9146SOL     OW28336   6.140   2.988   3.292
 9146SOL    HW128337   6.113   3.001   3.388
 9146SOL    HW228338   6.170   2.893   3.279
 9147SOL     OW28339   4.240   6.979   4.610
 9147SOL    HW128340   4.141   6.994   4.614
 9147SOL    HW228341   4.267   6.964   4.515
 9148SOL     OW28342   6.164   6.354   1.483
 9148SOL    HW128343   6.261   6.328   1.478
 9148SOL    HW228344   6.109   6.272   1.498
 9149SOL     OW28345   0.486   3.446   2.092
 9149SOL    HW128346   0.516   3.410   2.180
 9149SOL    HW228347   0.543   3.408   2.019
 9150SOL     OW28348   2.341   2.590   0.817
 9150SOL    HW128349   2.439   2.569   0.814
 9150SOL    HW228350   2.292   2.516   0.862
 9151SOL     OW28351   1.830   3.133   3.770
 9151SOL    HW128352   1.746   3.084   3.745
 9151SOL    HW228353   1.850   3.202   3.701
 9152SOL     OW28354   1.524   4.597   2.586
 9152SOL    HW128355   1.466   4.556   2.515
 9152SOL    HW228356   1.616   4.558   2.581
 9153SOL     OW28357   0.123   4.026   6.369
 9153SOL    HW128358   0.081   4.095   6.310
 9153SOL    HW228359   0.171   4.071   6.444
 9154SOL     OW28360   5.416   4.846   2.568
 9154SOL    HW128361   5.357   4.852   2.648
 9154SOL    HW228362   5.511   4.843   2.597
 9155SOL     OW28363   1.397   6.509   2.685
 9155SOL    HW128364   1.346   6.594   2.697
 9155SOL    HW228365   1.352   6.436   2.737
 9156SOL     OW28366   6.886   3.919   6.471
 9156SOL    HW128367   6.977   3.954   6.452
 9156SOL    HW228368   6.860   3.852   6.401
 9157SOL     OW28369   1.518   4.635   6.342
 9157SOL    HW128370   1.590   4.613   6.408
 9157SOL    HW228371   1.537   4.589   6.255
 9158SOL     OW28372   6.731   3.781   4.673
 9158SOL    HW128373   6.769   3.860   4.722
 9158SOL    HW228374   6.721   3.705   4.736
 9159SOL     OW28375   3.336   1.502   4.066
 9159SOL    HW128376   3.331   1.602   4.062
 9159SOL    HW228377   3.244   1.464   4.059
 9160SOL     OW28378   0.249   4.476   1.491
 9160SOL    HW128379   0.281   4.527   1.571
 9160SOL    HW228380   0.256   4.533   1.410
 9161SOL     OW28381   6.749   4.531   2.169
 9161SOL    HW128382   6.810   4.540   2.090
 9161SOL    HW228383   6.698   4.446   2.163
 9162SOL     OW28384   3.928   2.004   1.646
 9162SOL    HW128385   3.953   2.050   1.561
 9162SOL    HW228386   3.841   2.041   1.679
 9163SOL     OW28387   1.611   2.515   3.825
 9163SOL    HW128388   1.659   2.572   3.758
 9163SOL    HW228389   1.514   2.511   3.801
 9164SOL     OW28390   2.733   6.922   0.355
 9164SOL    HW128391   2.766   6.878   0.272
 9164SOL    HW228392   2.637   6.899   0.369
 9165SOL     OW28393   5.301   1.865   6.347
 9165SOL    HW128394   5.237   1.903   6.413
 9165SOL    HW228395   5.365   1.805   6.394
 9166SOL     OW28396   5.423   5.750   1.634
 9166SOL    HW128397   5.482   5.727   1.557
 9166SOL    HW228398   5.479   5.781   1.711
 9167SOL     OW28399   1.819   1.092   4.788
 9167SOL    HW128400   1.740   1.085   4.728
 9167SOL    HW228401   1.838   1.188   4.808
 9168SOL     OW28402   6.832   6.004   4.480
 9168SOL    HW128403   6.865   5.911   4.462
 9168SOL    HW228404   6.782   6.038   4.400
 9169SOL     OW28405   6.898   5.889   1.018
 9169SOL    HW128406   6.872   5.975   1.063
 9169SOL    HW228407   6.848   5.880   0.932
 9170SOL     OW28408   1.016   1.411   5.952
 9170SOL    HW128409   1.017   1.311   5.947
 9170SOL    HW228410   1.106   1.444   5.981
 9171SOL     OW28411   3.162   4.914   6.828
 9171SOL    HW128412   3.239   4.910   6.892
 9171SOL    HW228413   3.154   5.007   6.792
 9172SOL     OW28414   4.587   1.523   3.879
 9172SOL    HW128415   4.638   1.570   3.952
 9172SOL    HW228416   4.492   1.512   3.907
 9173SOL     OW28417   5.636   2.867   4.921
 9173SOL    HW128418   5.679   2.785   4.958
 9173SOL    HW228419   5.571   2.904   4.988
 9174SOL     OW28420   0.407   4.475   0.496
 9174SOL    HW128421   0.361   4.542   0.438
 9174SOL    HW228422   0.408   4.508   0.591
 9175SOL     OW28423   1.822   0.114   0.008
 9175SOL    HW128424   1.791   0.136   0.100
 9175SOL    HW228425   1.762   0.160   6.964
 9176SOL     OW28426   1.616   1.507   2.350
 9176SOL    HW128427   1.576   1.426   2.306
 9176SOL    HW228428   1.612   1.496   2.449
 9177SOL     OW28429   0.341   4.594   3.650
 9177SOL    HW128430   0.267   4.536   3.615
 9177SOL    HW228431   0.412   4.536   3.691
 9178SOL     OW28432   2.113   5.627   0.746
 9178SOL    HW128433   2.084   5.679   0.665
 9178SOL    HW228434   2.146   5.690   0.816
 9179SOL     OW28435   3.432   5.636   4.359
 9179SOL    HW128436   3.489   5.718   4.357
 9179SOL    HW228437   3.386   5.630   4.448
 9180SOL     OW28438   6.708   1.012   5.052
 9180SOL    HW128439   6.746   1.006   5.145
 9180SOL    HW228440   6.729   1.102   5.013
 9181SOL     OW28441   2.555   1.947   3.445
 9181SOL    HW128442   2.553   2.021   3.378
 9181SOL    HW228443   2.649   1.912   3.453
 9182SOL     OW28444   1.073   1.542   3.143
 9182SOL    HW128445   1.057   1.639   3.159
 9182SOL    HW228446   0.995   1.503   3.093
 9183SOL     OW28447   0.967   1.863   6.306
 9183SOL    HW128448   1.015   1.879   6.392
 9183SOL    HW228449   0.870   1.848   6.325
 9184SOL     OW28450   3.691   3.372   0.517
 9184SOL    HW128451   3.748   3.453   0.512
 9184SOL    HW228452   3.699   3.330   0.608
 9185SOL     OW28453   0.703   1.130   6.887
 9185SOL    HW128454   0.760   1.203   6.925
 9185SOL    HW228455   0.606   1.150   6.905
 9186SOL     OW28456   5.564   1.159   6.507
 9186SOL    HW128457   5.472   1.190   6.480
 9186SOL    HW228458   5.575   1.167   6.606
 9187SOL     OW28459   5.725   2.116   0.825
 9187SOL    HW128460   5.701   2.026   0.789
 9187SOL    HW228461   5.814   2.145   0.789
 9188SOL     OW28462   1.693   0.906   2.173
 9188SOL    HW128463   1.732   0.847   2.102
 9188SOL    HW228464   1.765   0.933   2.237
 9189SOL     OW28465   3.933   1.415   4.815
 9189SOL    HW128466   3.953   1.478   4.890
 9189SOL    HW228467   3.838   1.430   4.785
 9190SOL     OW28468   6.752   1.886   5.437
 9190SOL    HW128469   6.776   1.979   5.410
 9190SOL    HW228470   6.702   1.841   5.363
 9191SOL     OW28471   5.878   0.069   0.499
 9191SOL    HW128472   5.806   0.006   0.470
 9191SOL    HW228473   5.860   0.160   0.461
 9192SOL     OW28474   5.196   4.372   4.225
 9192SOL    HW128475   5.286   4.350   4.187
 9192SOL    HW228476   5.204   4.448   4.289
 9193SOL     OW28477   2.990   3.119   3.314
 9193SOL    HW128478   2.949   3.207   3.289
 9193SOL    HW228479   2.979   3.054   3.239
 9194SOL     OW28480   3.673   5.522   2.503
 9194SOL    HW128481   3.773   5.521   2.504
 9194SOL    HW228482   3.640   5.616   2.494
 9195SOL     OW28483   0.469   2.903   2.413
 9195SOL    HW128484   0.430   2.992   2.435
 9195SOL    HW228485   0.546   2.916   2.350
 9196SOL     OW28486   4.548   0.000   3.386
 9196SOL    HW128487   4.571   6.935   3.345
 9196SOL    HW228488   4.570   0.074   3.322
 9197SOL     OW28489   3.471   2.837   5.133
 9197SOL    HW128490   3.557   2.805   5.173
 9197SOL    HW228491   3.394   2.791   5.178
 9198SOL     OW28492   5.352   2.110   5.416
 9198SOL    HW128493   5.406   2.178   5.465
 9198SOL    HW228494   5.274   2.082   5.472
 9199SOL     OW28495   1.635   3.808   6.390
 9199SOL    HW128496   1.651   3.894   6.340
 9199SOL    HW228497   1.634   3.732   6.325
 9200SOL     OW28498   6.170   6.174   0.462
 9200SOL    HW128499   6.105   6.118   0.411
 9200SOL    HW228500   6.170   6.267   0.425
 9201SOL     OW28501   1.874   4.323   2.989
 9201SOL    HW128502   1.784   4.292   2.959
 9201SOL    HW228503   1.897   4.278   3.075
 9202SOL     OW28504   3.580   5.619   3.781
 9202SOL    HW128505   3.511   5.546   3.784
 9202SOL    HW228506   3.575   5.666   3.693
 9203SOL     OW28507   5.254   0.941   6.051
 9203SOL    HW128508   5.283   1.033   6.024
 9203SOL    HW228509   5.271   0.928   6.149
 9204SOL     OW28510   4.837   4.189   1.716
 9204SOL    HW128511   4.794   4.098   1.710
 9204SOL    HW228512   4.767   4.257   1.740
 9205SOL     OW28513   4.894   3.127   2.228
 9205SOL    HW128514   4.872   3.083   2.315
 9205SOL    HW228515   4.816   3.120   2.166
 9206SOL     OW28516   0.435   6.715   3.094
 9206SOL    HW128517   0.472   6.645   3.033
 9206SOL    HW228518   0.349   6.684   3.134
 9207SOL     OW28519   3.940   6.586   6.920
 9207SOL    HW128520   3.928   6.677   6.880
 9207SOL    HW228521   4.031   6.580   6.962
 9208SOL     OW28522   4.803   4.598   2.168
 9208SOL    HW128523   4.792   4.690   2.206
 9208SOL    HW228524   4.899   4.571   2.175
 9209SOL     OW28525   3.900   0.639   2.985
 9209SOL    HW128526   3.859   0.588   3.061
 9209SOL    HW228527   3.999   0.644   2.999
 9210SOL     OW28528   1.369   6.892   0.625
 9210SOL    HW128529   1.304   6.847   0.685
 9210SOL    HW228530   1.332   6.979   0.594
 9211SOL     OW28531   4.826   1.697   6.110
 9211SOL    HW128532   4.772   1.615   6.133
 9211SOL    HW228533   4.876   1.727   6.191
 9212SOL     OW28534   6.052   3.425   4.788
 9212SOL    HW128535   6.143   3.383   4.792
 9212SOL    HW228536   6.026   3.439   4.693
 9213SOL     OW28537   6.786   6.862   2.396
 9213SOL    HW128538   6.718   6.851   2.322
 9213SOL    HW228539   6.764   6.943   2.449
 9214SOL     OW28540   1.859   2.401   5.593
 9214SOL    HW128541   1.919   2.345   5.535
 9214SOL    HW228542   1.913   2.442   5.666
 9215SOL     OW28543   0.462   3.174   2.681
 9215SOL    HW128544   0.499   3.116   2.754
 9215SOL    HW228545   0.528   3.246   2.660
 9216SOL     OW28546   3.055   5.380   4.108
 9216SOL    HW128547   3.113   5.435   4.168
 9216SOL    HW228548   3.030   5.433   4.027
 9217SOL     OW28549   4.720   1.045   5.878
 9217SOL    HW128550   4.791   1.066   5.811
 9217SOL    HW228551   4.682   1.131   5.914
 9218SOL     OW28552   6.156   5.440   6.375
 9218SOL    HW128553   6.070   5.457   6.424
 9218SOL    HW228554   6.193   5.352   6.403
 9219SOL     OW28555   3.666   2.902   5.556
 9219SOL    HW128556   3.644   2.943   5.645
 9219SOL    HW228557   3.749   2.944   5.520
 9220SOL     OW28558   0.843   6.438   3.442
 9220SOL    HW128559   0.878   6.451   3.534
 9220SOL    HW228560   0.819   6.526   3.402
 9221SOL     OW28561   2.108   1.331   0.529
 9221SOL    HW128562   2.059   1.246   0.546
 9221SOL    HW228563   2.131   1.338   0.432
 9222SOL     OW28564   1.924   3.086   4.122
 9222SOL    HW128565   1.996   3.043   4.177
 9222SOL    HW228566   1.958   3.170   4.082
 9223SOL     OW28567   0.357   2.868   5.140
 9223SOL    HW128568   0.367   2.840   5.044
 9223SOL    HW228569   0.289   2.940   5.148
 9224SOL     OW28570   2.330   4.356   3.439
 9224SOL    HW128571   2.260   4.394   3.500
 9224SOL    HW228572   2.415   4.407   3.450
 9225SOL     OW28573   5.400   5.801   6.542
 9225SOL    HW128574   5.399   5.845   6.632
 9225SOL    HW228575   5.424   5.868   6.472
 9226SOL     OW28576   0.783   0.798   0.980
 9226SOL    HW128577   0.795   0.877   0.921
 9226SOL    HW228578   0.721   0.733   0.937
 9227SOL     OW28579   2.555   4.218   0.722
 9227SOL    HW128580   2.506   4.269   0.793
 9227SOL    HW228581   2.596   4.136   0.761
 9228SOL     OW28582   3.413   3.289   5.294
 9228SOL    HW128583   3.314   3.297   5.309
 9228SOL    HW228584   3.431   3.257   5.201
 9229SOL     OW28585   6.936   5.040   0.266
 9229SOL    HW128586   6.868   5.113   0.266
 9229SOL    HW228587   6.938   4.996   0.176
 9230SOL     OW28588   4.446   1.417   4.952
 9230SOL    HW128589   4.451   1.318   4.954
 9230SOL    HW228590   4.362   1.448   4.998
 9231SOL     OW28591   6.728   5.924   3.281
 9231SOL    HW128592   6.761   5.830   3.292
 9231SOL    HW228593   6.756   5.978   3.360
 9232SOL     OW28594   1.084   4.966   2.388
 9232SOL    HW128595   0.995   4.954   2.344
 9232SOL    HW228596   1.156   4.958   2.319
 9233SOL     OW28597   0.459   6.529   6.834
 9233SOL    HW128598   0.363   6.547   6.809
 9233SOL    HW228599   0.519   6.563   6.761
 9234SOL     OW28600   2.185   4.092   0.454
 9234SOL    HW128601   2.275   4.050   0.440
 9234SOL    HW228602   2.161   4.088   0.551
 9235SOL     OW28603   1.896   2.238   2.848
 9235SOL    HW128604   1.869   2.160   2.905
 9235SOL    HW228605   1.816   2.296   2.832
 9236SOL     OW28606   2.523   3.196   6.703
 9236SOL    HW128607   2.589   3.199   6.628
 9236SOL    HW228608   2.449   3.132   6.681
 9237SOL     OW28609   5.332   5.190   3.448
 9237SOL    HW128610   5.389   5.242   3.512
 9237SOL    HW228611   5.262   5.141   3.499
 9238SOL     OW28612   1.119   2.470   4.530
 9238SOL    HW128613   1.216   2.497   4.534
 9238SOL    HW228614   1.062   2.551   4.543
 9239SOL     OW28615   1.388   4.841   6.839
 9239SOL    HW128616   1.313   4.906   6.844
 9239SOL    HW228617   1.401   4.799   6.929
 9240SOL     OW28618   4.338   2.013   2.856
 9240SOL    HW128619   4.343   1.951   2.934
 9240SOL    HW228620   4.391   2.096   2.876
 9241SOL     OW28621   5.568   6.805   1.235
 9241SOL    HW128622   5.529   6.746   1.163
 9241SOL    HW228623   5.628   6.873   1.193
 9242SOL     OW28624   1.516   2.600   0.644
 9242SOL    HW128625   1.591   2.659   0.673
 9242SOL    HW228626   1.513   2.519   0.702
 9243SOL     OW28627   1.122   0.882   0.202
 9243SOL    HW128628   1.086   0.870   0.110
 9243SOL    HW228629   1.173   0.968   0.207
 9244SOL     OW28630   3.666   6.735   5.753
 9244SOL    HW128631   3.578   6.707   5.714
 9244SOL    HW228632   3.696   6.820   5.710
 9245SOL     OW28633   1.194   4.836   3.581
 9245SOL    HW128634   1.175   4.926   3.542
 9245SOL    HW228635   1.292   4.829   3.602
 9246SOL     OW28636   5.840   0.127   6.457
 9246SOL    HW128637   5.779   0.093   6.528
 9246SOL    HW228638   5.836   0.066   6.378
 9247SOL     OW28639   3.940   6.186   3.242
 9247SOL    HW128640   3.944   6.227   3.334
 9247SOL    HW228641   3.960   6.088   3.249
 9248SOL     OW28642   2.347   0.661   6.770
 9248SOL    HW128643   2.303   0.685   6.684
 9248SOL    HW228644   2.444   0.682   6.765
 9249SOL     OW28645   3.102   6.379   0.941
 9249SOL    HW128646   3.139   6.388   1.033
 9249SOL    HW228647   3.176   6.390   0.874
 9250SOL     OW28648   0.290   2.773   3.995
 9250SOL    HW128649   0.312   2.695   3.937
 9250SOL    HW228650   0.223   2.832   3.948
 9251SOL     OW28651   3.054   2.823   0.929
 9251SOL    HW128652   2.960   2.792   0.916
 9251SOL    HW228653   3.104   2.755   0.983
 9252SOL     OW28654   5.423   1.879   5.175
 9252SOL    HW128655   5.379   1.843   5.093
 9252SOL    HW228656   5.374   1.959   5.207
 9253SOL     OW28657   0.859   5.630   5.236
 9253SOL    HW128658   0.799   5.553   5.217
 9253SOL    HW228659   0.811   5.699   5.291
 9254SOL     OW28660   6.890   4.321   2.598
 9254SOL    HW128661   6.901   4.405   2.651
 9254SOL    HW228662   6.854   4.248   2.656
 9255SOL     OW28663   6.795   4.206   0.459
 9255SOL    HW128664   6.826   4.153   0.538
 9255SOL    HW228665   6.711   4.255   0.483
 9256SOL     OW28666   3.016   6.441   1.345
 9256SOL    HW128667   3.061   6.359   1.310
 9256SOL    HW228668   3.008   6.509   1.273
 9257SOL     OW28669   6.809   5.744   4.135
 9257SOL    HW128670   6.826   5.662   4.190
 9257SOL    HW228671   6.719   5.781   4.157
 9258SOL     OW28672   3.247   5.013   1.285
 9258SOL    HW128673   3.167   5.070   1.306
 9258SOL    HW228674   3.249   4.935   1.347
 9259SOL     OW28675   2.107   1.896   6.982
 9259SOL    HW128676   2.187   1.889   6.922
 9259SOL    HW228677   2.043   1.822   6.962
 9260SOL     OW28678   5.561   4.083   4.769
 9260SOL    HW128679   5.527   4.102   4.861
 9260SOL    HW228680   5.566   3.984   4.754
 9261SOL     OW28681   3.651   2.495   1.682
 9261SOL    HW128682   3.723   2.564   1.672
 9261SOL    HW228683   3.676   2.432   1.756
 9262SOL     OW28684   6.437   6.340   5.287
 9262SOL    HW128685   6.365   6.397   5.248
 9262SOL    HW228686   6.433   6.248   5.247
 9263SOL     OW28687   2.143   4.419   3.647
 9263SOL    HW128688   2.096   4.352   3.705
 9263SOL    HW228689   2.077   4.462   3.586
 9264SOL     OW28690   4.898   4.262   6.877
 9264SOL    HW128691   4.881   4.172   6.837
 9264SOL    HW228692   4.824   4.324   6.852
 9265SOL     OW28693   5.791   1.465   1.039
 9265SOL    HW128694   5.778   1.514   1.125
 9265SOL    HW228695   5.883   1.425   1.037
 9266SOL     OW28696   1.262   4.902   1.240
 9266SOL    HW128697   1.177   4.875   1.195
 9266SOL    HW228698   1.339   4.854   1.197
 9267SOL     OW28699   6.859   0.945   4.456
 9267SOL    HW128700   6.771   0.976   4.492
 9267SOL    HW228701   6.922   1.023   4.451
 9268SOL     OW28702   0.575   6.987   1.446
 9268SOL    HW128703   0.619   6.961   1.533
 9268SOL    HW228704   0.646   7.007   1.378
 9269SOL     OW28705   3.704   1.334   0.073
 9269SOL    HW128706   3.756   1.389   0.008
 9269SOL    HW228707   3.662   1.394   0.142
 9270SOL     OW28708   1.903   0.367   6.368
 9270SOL    HW128709   1.844   0.364   6.450
 9270SOL    HW228710   1.875   0.295   6.305
 9271SOL     OW28711   1.320   5.857   4.724
 9271SOL    HW128712   1.221   5.841   4.719
 9271SOL    HW228713   1.340   5.951   4.696
 9272SOL     OW28714   6.549   6.304   6.446
 9272SOL    HW128715   6.512   6.396   6.430
 9272SOL    HW228716   6.624   6.287   6.382
 9273SOL     OW28717   4.716   4.695   3.560
 9273SOL    HW128718   4.732   4.790   3.531
 9273SOL    HW228719   4.623   4.669   3.536
 9274SOL     OW28720   0.390   3.069   0.721
 9274SOL    HW128721   0.387   3.076   0.622
 9274SOL    HW228722   0.480   3.098   0.754
 9275SOL     OW28723   6.776   0.700   0.355
 9275SOL    HW128724   6.812   0.671   0.444
 9275SOL    HW228725   6.744   0.795   0.362
 9276SOL     OW28726   2.660   5.573   0.427
 9276SOL    HW128727   2.687   5.503   0.493
 9276SOL    HW228728   2.734   5.639   0.416
 9277SOL     OW28729   5.158   5.653   1.640
 9277SOL    HW128730   5.249   5.694   1.647
 9277SOL    HW228731   5.166   5.555   1.623
 9278SOL     OW28732   0.947   0.338   5.637
 9278SOL    HW128733   1.007   0.313   5.561
 9278SOL    HW228734   1.003   0.372   5.713
 9279SOL     OW28735   4.179   5.881   1.387
 9279SOL    HW128736   4.197   5.847   1.295
 9279SOL    HW228737   4.096   5.838   1.423
 9280SOL     OW28738   1.339   6.807   2.631
 9280SOL    HW128739   1.438   6.815   2.640
 9280SOL    HW228740   1.316   6.788   2.535
 9281SOL     OW28741   2.386   5.435   0.192
 9281SOL    HW128742   2.335   5.521   0.194
 9281SOL    HW228743   2.482   5.454   0.171
 9282SOL     OW28744   3.333   0.219   5.170
 9282SOL    HW128745   3.429   0.222   5.142
 9282SOL    HW228746   3.310   0.302   5.219
 9283SOL     OW28747   4.462   6.519   1.118
 9283SOL    HW128748   4.556   6.554   1.111
 9283SOL    HW228749   4.399   6.595   1.127
 9284SOL     OW28750   3.991   3.983   5.217
 9284SOL    HW128751   4.083   3.982   5.256
 9284SOL    HW228752   3.969   3.893   5.181
 9285SOL     OW28753   0.508   5.199   2.599
 9285SOL    HW128754   0.548   5.241   2.681
 9285SOL    HW228755   0.438   5.260   2.562
 9286SOL     OW28756   4.946   6.470   1.496
 9286SOL    HW128757   4.947   6.553   1.440
 9286SOL    HW228758   4.866   6.415   1.473
 9287SOL     OW28759   3.879   3.963   5.611
 9287SOL    HW128760   3.931   3.902   5.552
 9287SOL    HW228761   3.784   3.933   5.616
 9288SOL     OW28762   3.200   2.046   2.382
 9288SOL    HW128763   3.256   2.016   2.459
 9288SOL    HW228764   3.113   2.081   2.416
 9289SOL     OW28765   5.160   6.405   0.650
 9289SOL    HW128766   5.248   6.369   0.620
 9289SOL    HW228767   5.128   6.353   0.729
 9290SOL     OW28768   4.950   1.157   3.794
 9290SOL    HW128769   4.906   1.224   3.855
 9290SOL    HW228770   4.910   1.067   3.809
 9291SOL     OW28771   0.904   4.482   6.275
 9291SOL    HW128772   0.991   4.434   6.284
 9291SOL    HW228773   0.895   4.519   6.183
 9292SOL     OW28774   0.936   1.405   6.734
 9292SOL    HW128775   0.967   1.465   6.808
 9292SOL    HW228776   1.013   1.350   6.703
 9293SOL     OW28777   4.637   2.758   4.350
 9293SOL    HW128778   4.675   2.777   4.440
 9293SOL    HW228779   4.582   2.675   4.353
 9294SOL     OW28780   4.678   0.400   6.601
 9294SOL    HW128781   4.634   0.490   6.610
 9294SOL    HW228782   4.668   0.367   6.508
 9295SOL     OW28783   0.471   1.037   5.417
 9295SOL    HW128784   0.372   1.028   5.409
 9295SOL    HW228785   0.516   0.973   5.355
 9296SOL     OW28786   1.990   4.650   6.502
 9296SOL    HW128787   2.000   4.734   6.449
 9296SOL    HW228788   1.894   4.622   6.503
 9297SOL     OW28789   6.298   5.809   2.395
 9297SOL    HW128790   6.304   5.755   2.311
 9297SOL    HW228791   6.202   5.821   2.420
 9298SOL     OW28792   1.540   5.051   6.728
 9298SOL    HW128793   1.519   4.958   6.758
 9298SOL    HW228794   1.503   5.066   6.636
 9299SOL     OW28795   2.480   2.613   4.746
 9299SOL    HW128796   2.562   2.661   4.715
 9299SOL    HW228797   2.507   2.534   4.802
 9300SOL     OW28798   1.690   5.444   4.810
 9300SOL    HW128799   1.780   5.404   4.793
 9300SOL    HW228800   1.686   5.480   4.903
 9301SOL     OW28801   0.144   4.686   4.814
 9301SOL    HW128802   0.104   4.670   4.724
 9301SOL    HW228803   0.144   4.784   4.834
 9302SOL     OW28804   2.196   3.487   5.185
 9302SOL    HW128805   2.232   3.438   5.265
 9302SOL    HW228806   2.227   3.582   5.186
 9303SOL     OW28807   2.450   4.418   0.510
 9303SOL    HW128808   2.456   4.364   0.594
 9303SOL    HW228809   2.528   4.397   0.451
 9304SOL     OW28810   4.544   5.033   6.977
 9304SOL    HW128811   4.582   5.124   6.994
 9304SOL    HW228812   4.467   5.040   6.914
 9305SOL     OW28813   2.149   2.052   1.613
 9305SOL    HW128814   2.191   2.100   1.691
 9305SOL    HW228815   2.060   2.017   1.640
 9306SOL     OW28816   6.798   6.088   5.189
 9306SOL    HW128817   6.869   6.155   5.168
 9306SOL    HW228818   6.759   6.107   5.279
 9307SOL     OW28819   2.079   3.474   1.462
 9307SOL    HW128820   1.994   3.522   1.482
 9307SOL    HW228821   2.133   3.465   1.547
 9308SOL     OW28822   2.078   3.718   2.104
 9308SOL    HW128823   2.004   3.729   2.037
 9308SOL    HW228824   2.141   3.647   2.072
 9309SOL     OW28825   4.868   5.098   6.395
 9309SOL    HW128826   4.920   5.018   6.365
 9309SOL    HW228827   4.927   5.179   6.397
 9310SOL     OW28828   5.954   6.632   0.018
 9310SOL    HW128829   6.018   6.613   0.093
 9310SOL    HW228830   5.861   6.637   0.054
 9311SOL     OW28831   4.417   3.592   1.271
 9311SOL    HW128832   4.515   3.615   1.271
 9311SOL    HW228833   4.405   3.495   1.249
 9312SOL     OW28834   0.502   2.879   3.142
 9312SOL    HW128835   0.593   2.920   3.139
 9312SOL    HW228836   0.461   2.894   3.232
 9313SOL     OW28837   0.655   1.055   2.226
 9313SOL    HW128838   0.662   0.998   2.308
 9313SOL    HW228839   0.558   1.074   2.207
 9314SOL     OW28840   5.260   3.720   0.480
 9314SOL    HW128841   5.277   3.676   0.392
 9314SOL    HW228842   5.294   3.814   0.477
 9315SOL     OW28843   5.030   6.785   6.067
 9315SOL    HW128844   4.969   6.863   6.084
 9315SOL    HW228845   5.048   6.777   5.969
 9316SOL     OW28846   4.780   0.800   5.497
 9316SOL    HW128847   4.734   0.722   5.538
 9316SOL    HW228848   4.797   0.869   5.567
 9317SOL     OW28849   3.977   5.932   3.282
 9317SOL    HW128850   3.963   5.891   3.372
 9317SOL    HW228851   3.947   5.869   3.211
 9318SOL     OW28852   3.956   6.437   1.715
 9318SOL    HW128853   3.873   6.426   1.768
 9318SOL    HW228854   3.998   6.348   1.699
 9319SOL     OW28855   2.925   3.088   6.821
 9319SOL    HW128856   2.911   3.117   6.916
 9319SOL    HW228857   2.876   3.002   6.805
 9320SOL     OW28858   6.460   6.462   7.019
 9320SOL    HW128859   6.494   6.505   0.080
 9320SOL    HW228860   6.409   6.380   0.019
 9321SOL     OW28861   0.588   3.440   4.885
 9321SOL    HW128862   0.683   3.409   4.880
 9321SOL    HW228863   0.542   3.392   4.960
 9322SOL     OW28864   6.020   3.327   6.886
 9322SOL    HW128865   5.959   3.389   6.935
 9322SOL    HW228866   5.998   3.232   6.910
 9323SOL     OW28867   0.580   2.115   5.713
 9323SOL    HW128868   0.558   2.204   5.674
 9323SOL    HW228869   0.673   2.115   5.749
 9324SOL     OW28870   1.008   4.681   2.088
 9324SOL    HW128871   1.003   4.766   2.139
 9324SOL    HW228872   0.986   4.604   2.148
 9325SOL     OW28873   1.036   4.469   3.297
 9325SOL    HW128874   0.974   4.543   3.321
 9325SOL    HW228875   0.993   4.412   3.227
 9326SOL     OW28876   4.618   4.380   1.721
 9326SOL    HW128877   4.668   4.412   1.802
 9326SOL    HW228878   4.549   4.313   1.748
 9327SOL     OW28879   3.990   0.877   3.330
 9327SOL    HW128880   3.977   0.936   3.250
 9327SOL    HW228881   4.075   0.903   3.376
 9328SOL     OW28882   2.394   0.066   4.233
 9328SOL    HW128883   2.331   7.012   4.225
 9328SOL    HW228884   2.466   0.043   4.298
 9329SOL     OW28885   0.482   5.252   6.745
 9329SOL    HW128886   0.532   5.173   6.710
 9329SOL    HW228887   0.461   5.314   6.670
 9330SOL     OW28888   6.539   6.034   6.919
 9330SOL    HW128889   6.615   6.089   6.885
 9330SOL    HW228890   6.463   6.037   6.853
 9331SOL     OW28891   1.585   3.483   4.037
 9331SOL    HW128892   1.499   3.487   4.088
 9331SOL    HW228893   1.660   3.458   4.100
 9332SOL     OW28894   4.748   5.713   0.603
 9332SOL    HW128895   4.820   5.782   0.610
 9332SOL    HW228896   4.749   5.655   0.685
 9333SOL     OW28897   4.492   4.044   0.555
 9333SOL    HW128898   4.522   4.111   0.623
 9333SOL    HW228899   4.526   4.069   0.465
 9334SOL     OW28900   6.014   5.960   6.004
 9334SOL    HW128901   6.025   6.009   6.091
 9334SOL    HW228902   5.953   6.013   5.944
 9335SOL     OW28903   0.680   3.729   1.598
 9335SOL    HW128904   0.664   3.827   1.583
 9335SOL    HW228905   0.754   3.698   1.538
 9336SOL     OW28906   6.005   6.783   5.605
 9336SOL    HW128907   6.018   6.706   5.668
 9336SOL    HW228908   6.001   6.748   5.511
 9337SOL     OW28909   2.340   0.203   6.082
 9337SOL    HW128910   2.281   0.204   6.163
 9337SOL    HW228911   2.404   0.279   6.086
 9338SOL     OW28912   5.758   6.822   0.396
 9338SOL    HW128913   5.665   6.787   0.399
 9338SOL    HW228914   5.766   6.892   0.325
 9339SOL     OW28915   5.828   3.755   5.465
 9339SOL    HW128916   5.882   3.671   5.473
 9339SOL    HW228917   5.888   3.834   5.476
 9340SOL     OW28918   3.897   5.384   1.128
 9340SOL    HW128919   3.823   5.322   1.100
 9340SOL    HW228920   3.862   5.448   1.196
 9341SOL     OW28921   5.272   4.129   6.747
 9341SOL    HW128922   5.221   4.155   6.665
 9341SOL    HW228923   5.237   4.042   6.782
 9342SOL     OW28924   3.493   0.466   4.016
 9342SOL    HW128925   3.590   0.490   4.017
 9342SOL    HW228926   3.480   0.378   4.063
 9343SOL     OW28927   4.665   3.963   1.373
 9343SOL    HW128928   4.621   4.019   1.444
 9343SOL    HW228929   4.753   3.931   1.406
 9344SOL     OW28930   6.066   6.319   5.082
 9344SOL    HW128931   6.098   6.410   5.108
 9344SOL    HW228932   6.022   6.276   5.160
 9345SOL     OW28933   1.019   5.883   0.227
 9345SOL    HW128934   1.077   5.802   0.235
 9345SOL    HW228935   0.940   5.863   0.168
 9346SOL     OW28936   5.594   5.992   0.613
 9346SOL    HW128937   5.646   6.048   0.676
 9346SOL    HW228938   5.557   5.913   0.661
 9347SOL     OW28939   3.652   5.408   0.766
 9347SOL    HW128940   3.732   5.467   0.751
 9347SOL    HW228941   3.585   5.457   0.823
 9348SOL     OW28942   2.647   5.728   1.938
 9348SOL    HW128943   2.702   5.810   1.951
 9348SOL    HW228944   2.552   5.747   1.965
 9349SOL     OW28945   6.745   5.593   1.854
 9349SOL    HW128946   6.721   5.625   1.946
 9349SOL    HW228947   6.830   5.635   1.825
 9350SOL     OW28948   6.613   0.516   6.006
 9350SOL    HW128949   6.681   0.450   6.038
 9350SOL    HW228950   6.589   0.578   6.080
 9351SOL     OW28951   3.249   2.424   5.777
 9351SOL    HW128952   3.215   2.426   5.871
 9351SOL    HW228953   3.249   2.517   5.740
 9352SOL     OW28954   3.290   2.664   5.653
 9352SOL    HW128955   3.389   2.652   5.646
 9352SOL    HW228956   3.270   2.760   5.673
 9353SOL     OW28957   0.726   3.410   1.478
 9353SOL    HW128958   0.748   3.375   1.387
 9353SOL    HW228959   0.643   3.466   1.473
 9354SOL     OW28960   5.072   1.849   1.406
 9354SOL    HW128961   4.974   1.834   1.397
 9354SOL    HW228962   5.091   1.948   1.401
 9355SOL     OW28963   6.569   0.286   3.383
 9355SOL    HW128964   6.557   0.319   3.289
 9355SOL    HW228965   6.665   0.265   3.398
 9356SOL     OW28966   4.414   4.583   2.367
 9356SOL    HW128967   4.319   4.613   2.361
 9356SOL    HW228968   4.443   4.546   2.279
 9357SOL     OW28969   3.746   3.198   0.740
 9357SOL    HW128970   3.825   3.142   0.763
 9357SOL    HW228971   3.673   3.182   0.806
 9358SOL     OW28972   5.989   4.498   2.129
 9358SOL    HW128973   6.050   4.425   2.160
 9358SOL    HW228974   5.910   4.503   2.190
 9359SOL     OW28975   6.360   3.775   5.866
 9359SOL    HW128976   6.405   3.862   5.887
 9359SOL    HW228977   6.317   3.738   5.949
 9360SOL     OW28978   1.861   0.760   6.807
 9360SOL    HW128979   1.768   0.784   6.835
 9360SOL    HW228980   1.914   0.843   6.792
 9361SOL     OW28981   2.880   0.057   2.188
 9361SOL    HW128982   2.926   0.075   2.101
 9361SOL    HW228983   2.783   0.041   2.171
 9362SOL     OW28984   2.428   1.258   3.053
 9362SOL    HW128985   2.485   1.285   3.131
 9362SOL    HW228986   2.354   1.199   3.084
 9363SOL     OW28987   3.062   5.926   2.145
 9363SOL    HW128988   3.072   5.970   2.056
 9363SOL    HW228989   3.018   5.837   2.134
 9364SOL     OW28990   4.570   4.791   0.143
 9364SOL    HW128991   4.545   4.865   0.082
 9364SOL    HW228992   4.540   4.704   0.105
 9365SOL     OW28993   2.669   1.500   4.977
 9365SOL    HW128994   2.626   1.587   4.952
 9365SOL    HW228995   2.765   1.501   4.949
 9366SOL     OW28996   2.599   1.883   0.402
 9366SOL    HW128997   2.586   1.895   0.501
 9366SOL    HW228998   2.591   1.786   0.379
 9367SOL     OW28999   6.854   5.662   3.360
 9367SOL    HW129000   6.812   5.574   3.337
 9367SOL    HW229001   6.905   5.652   3.446
 9368SOL     OW29002   3.046   2.310   1.380
 9368SOL    HW129003   3.033   2.348   1.472
 9368SOL    HW229004   2.968   2.335   1.323
 9369SOL     OW29005   0.196   2.420   4.480
 9369SOL    HW129006   0.159   2.508   4.449
 9369SOL    HW229007   0.243   2.432   4.567
 9370SOL     OW29008   6.006   1.262   3.057
 9370SOL    HW129009   5.977   1.236   3.149
 9370SOL    HW229010   5.964   1.200   2.990
 9371SOL     OW29011   0.487   6.417   0.692
 9371SOL    HW129012   0.543   6.350   0.642
 9371SOL    HW229013   0.393   6.386   0.696
 9372SOL     OW29014   5.899   6.652   4.822
 9372SOL    HW129015   5.989   6.610   4.814
 9372SOL    HW229016   5.909   6.749   4.845
 9373SOL     OW29017   3.703   1.860   3.382
 9373SOL    HW129018   3.687   1.768   3.347
 9373SOL    HW229019   3.630   1.921   3.352
 9374SOL     OW29020   5.359   3.606   0.258
 9374SOL    HW129021   5.447   3.652   0.246
 9374SOL    HW229022   5.373   3.508   0.266
 9375SOL     OW29023   0.582   1.367   3.817
 9375SOL    HW129024   0.608   1.415   3.733
 9375SOL    HW229025   0.530   1.285   3.793
 9376SOL     OW29026   2.317   4.020   1.809
 9376SOL    HW129027   2.272   4.017   1.898
 9376SOL    HW229028   2.306   3.932   1.762
 9377SOL     OW29029   5.977   5.091   4.544
 9377SOL    HW129030   5.995   5.060   4.451
 9377SOL    HW229031   5.908   5.164   4.542
 9378SOL     OW29032   2.456   0.172   0.511
 9378SOL    HW129033   2.511   0.195   0.431
 9378SOL    HW229034   2.508   0.190   0.594
 9379SOL     OW29035   5.056   4.769   4.214
 9379SOL    HW129036   5.114   4.817   4.280
 9379SOL    HW229037   5.024   4.683   4.254
 9380SOL     OW29038   5.967   0.008   5.738
 9380SOL    HW129039   5.981   6.949   5.683
 9380SOL    HW229040   6.020   7.023   5.823
 9381SOL     OW29041   2.336   1.656   5.752
 9381SOL    HW129042   2.382   1.715   5.818
 9381SOL    HW229043   2.281   1.712   5.690
 9382SOL     OW29044   5.153   2.173   2.850
 9382SOL    HW129045   5.109   2.257   2.880
 9382SOL    HW229046   5.183   2.183   2.755
 9383SOL     OW29047   3.925   5.905   4.449
 9383SOL    HW129048   3.913   5.887   4.351
 9383SOL    HW229049   3.933   5.818   4.498
 9384SOL     OW29050   4.766   5.781   1.703
 9384SOL    HW129051   4.858   5.821   1.697
 9384SOL    HW229052   4.720   5.815   1.786
 9385SOL     OW29053   3.621   1.143   3.065
 9385SOL    HW129054   3.636   1.061   3.010
 9385SOL    HW229055   3.619   1.224   3.006
 9386SOL     OW29056   2.907   7.017   5.555
 9386SOL    HW129057   2.887   0.087   5.584
 9386SOL    HW229058   2.892   6.954   5.631
 9387SOL     OW29059   3.742   6.885   7.020
 9387SOL    HW129060   3.674   6.855   6.952
 9387SOL    HW229061   3.730   6.832   0.081
 9388SOL     OW29062   6.838   0.514   3.233
 9388SOL    HW129063   6.813   0.570   3.312
 9388SOL    HW229064   6.928   0.473   3.249
 9389SOL     OW29065   2.419   0.782   5.734
 9389SOL    HW129066   2.458   0.864   5.690
 9389SOL    HW229067   2.336   0.807   5.784
 9390SOL     OW29068   2.926   5.208   2.580
 9390SOL    HW129069   2.869   5.290   2.586
 9390SOL    HW229070   2.995   5.210   2.652
 9391SOL     OW29071   0.479   1.111   6.146
 9391SOL    HW129072   0.527   1.140   6.063
 9391SOL    HW229073   0.432   1.025   6.128
 9392SOL     OW29074   1.555   5.980   4.151
 9392SOL    HW129075   1.639   6.031   4.169
 9392SOL    HW229076   1.524   5.936   4.235
 9393SOL     OW29077   3.690   2.184   5.172
 9393SOL    HW129078   3.590   2.182   5.162
 9393SOL    HW229079   3.732   2.145   5.090
 9394SOL     OW29080   6.185   2.928   2.471
 9394SOL    HW129081   6.164   2.934   2.373
 9394SOL    HW229082   6.142   3.005   2.519
 9395SOL     OW29083   2.202   3.625   0.632
 9395SOL    HW129084   2.168   3.531   0.629
 9395SOL    HW229085   2.135   3.686   0.590
 9396SOL     OW29086   6.311   0.259   6.076
 9396SOL    HW129087   6.315   0.303   5.987
 9396SOL    HW229088   6.396   0.208   6.091
 9397SOL     OW29089   2.827   0.226   1.205
 9397SOL    HW129090   2.862   0.184   1.121
 9397SOL    HW229091   2.755   0.169   1.244
 9398SOL     OW29092   2.718   1.825   6.331
 9398SOL    HW129093   2.795   1.835   6.395
 9398SOL    HW229094   2.658   1.752   6.363
 9399SOL     OW29095   6.928   0.561   5.605
 9399SOL    HW129096   6.839   0.604   5.622
 9399SOL    HW229097   6.923   0.464   5.629
 9400SOL     OW29098   5.920   3.154   2.226
 9400SOL    HW129099   5.966   3.237   2.258
 9400SOL    HW229100   5.985   3.096   2.177
 9401SOL     OW29101   3.108   6.938   2.922
 9401SOL    HW129102   3.199   6.907   2.952
 9401SOL    HW229103   3.040   6.871   2.949
 9402SOL     OW29104   1.958   5.287   6.394
 9402SOL    HW129105   1.995   5.247   6.477
 9402SOL    HW229106   1.924   5.215   6.334
 9403SOL     OW29107   5.261   1.748   3.967
 9403SOL    HW129108   5.263   1.830   4.025
 9403SOL    HW229109   5.302   1.770   3.878
 9404SOL     OW29110   1.246   4.804   6.580
 9404SOL    HW129111   1.263   4.903   6.579
 9404SOL    HW229112   1.302   4.762   6.651
 9405SOL     OW29113   6.279   6.784   1.001
 9405SOL    HW129114   6.323   6.759   0.915
 9405SOL    HW229115   6.252   6.700   1.050
 9406SOL     OW29116   0.480   1.392   4.943
 9406SOL    HW129117   0.417   1.315   4.935
 9406SOL    HW229118   0.494   1.414   5.040
 9407SOL     OW29119   3.401   5.808   3.006
 9407SOL    HW129120   3.423   5.730   3.065
 9407SOL    HW229121   3.413   5.781   2.910
 9408SOL     OW29122   4.145   1.638   6.231
 9408SOL    HW129123   4.152   1.614   6.135
 9408SOL    HW229124   4.054   1.674   6.250
 9409SOL     OW29125   5.928   3.812   3.986
 9409SOL    HW129126   5.845   3.833   3.935
 9409SOL    HW229127   6.004   3.865   3.948
 9410SOL     OW29128   4.156   6.175   2.582
 9410SOL    HW129129   4.246   6.219   2.583
 9410SOL    HW229130   4.140   6.129   2.669
 9411SOL     OW29131   4.102   5.383   0.279
 9411SOL    HW129132   4.142   5.463   0.324
 9411SOL    HW229133   4.009   5.405   0.250
 9412SOL     OW29134   6.972   2.357   1.319
 9412SOL    HW129135   6.922   2.432   1.275
 9412SOL    HW229136   0.031   2.338   1.266
 9413SOL     OW29137   3.977   5.985   5.491
 9413SOL    HW129138   3.896   5.971   5.548
 9413SOL    HW229139   3.950   6.027   5.405
 9414SOL     OW29140   2.920   1.618   2.311
 9414SOL    HW129141   3.002   1.675   2.310
 9414SOL    HW229142   2.942   1.526   2.280
 9415SOL     OW29143   2.448   6.613   2.389
 9415SOL    HW129144   2.371   6.669   2.358
 9415SOL    HW229145   2.525   6.625   2.325
 9416SOL     OW29146   1.105   2.053   1.670
 9416SOL    HW129147   1.106   1.971   1.728
 9416SOL    HW229148   1.190   2.104   1.683
 9417SOL     OW29149   2.719   5.421   5.541
 9417SOL    HW129150   2.670   5.342   5.506
 9417SOL    HW229151   2.750   5.478   5.465
 9418SOL     OW29152   2.795   5.138   1.140
 9418SOL    HW129153   2.827   5.082   1.063
 9418SOL    HW229154   2.802   5.084   1.224
 9419SOL     OW29155   3.126   6.757   4.991
 9419SOL    HW129156   3.209   6.811   5.005
 9419SOL    HW229157   3.150   6.661   4.979
 9420SOL     OW29158   0.239   1.262   4.749
 9420SOL    HW129159   0.179   1.336   4.778
 9420SOL    HW229160   0.185   1.178   4.739
 9421SOL     OW29161   0.806   4.236   5.486
 9421SOL    HW129162   0.824   4.264   5.392
 9421SOL    HW229163   0.864   4.290   5.548
 9422SOL     OW29164   5.140   0.697   2.268
 9422SOL    HW129165   5.123   0.781   2.216
 9422SOL    HW229166   5.110   0.710   2.362
 9423SOL     OW29167   3.960   0.740   3.849
 9423SOL    HW129168   4.050   0.724   3.809
 9423SOL    HW229169   3.913   0.812   3.798
 9424SOL     OW29170   3.559   6.291   4.520
 9424SOL    HW129171   3.589   6.350   4.444
 9424SOL    HW229172   3.608   6.204   4.516
 9425SOL     OW29173   0.858   3.034   4.763
 9425SOL    HW129174   0.774   3.020   4.710
 9425SOL    HW229175   0.837   3.035   4.860
 9426SOL     OW29176   3.196   0.273   6.653
 9426SOL    HW129177   3.119   0.211   6.636
 9426SOL    HW229178   3.247   0.288   6.569
 9427SOL     OW29179   2.852   5.457   4.825
 9427SOL    HW129180   2.907   5.452   4.908
 9427SOL    HW229181   2.788   5.534   4.831
 9428SOL     OW29182   5.694   0.466   2.771
 9428SOL    HW129183   5.753   0.404   2.823
 9428SOL    HW229184   5.636   0.412   2.709
 9429SOL     OW29185   0.676   4.092   2.223
 9429SOL    HW129186   0.712   4.077   2.131
 9429SOL    HW229187   0.610   4.020   2.245
 9430SOL     OW29188   6.768   7.009   2.029
 9430SOL    HW129189   6.730   6.933   2.081
 9430SOL    HW229190   6.703   0.061   2.027
 9431SOL     OW29191   6.675   4.147   1.118
 9431SOL    HW129192   6.742   4.187   1.181
 9431SOL    HW229193   6.623   4.220   1.074
 9432SOL     OW29194   6.417   6.868   3.035
 9432SOL    HW129195   6.468   6.813   3.101
 9432SOL    HW229196   6.335   6.818   3.006
 9433SOL     OW29197   3.456   4.680   5.281
 9433SOL    HW129198   3.363   4.645   5.290
 9433SOL    HW229199   3.455   4.779   5.287
 9434SOL     OW29200   5.347   4.841   2.847
 9434SOL    HW129201   5.312   4.813   2.937
 9434SOL    HW229202   5.401   4.925   2.857
 9435SOL     OW29203   1.500   0.723   4.154
 9435SOL    HW129204   1.536   0.636   4.187
 9435SOL    HW229205   1.539   0.798   4.208
 9436SOL     OW29206   2.443   3.514   0.380
 9436SOL    HW129207   2.534   3.554   0.389
 9436SOL    HW229208   2.373   3.580   0.407
 9437SOL     OW29209   1.547   5.130   3.500
 9437SOL    HW129210   1.454   5.166   3.492
 9437SOL    HW229211   1.598   5.150   3.417
 9438SOL     OW29212   1.001   6.449   2.055
 9438SOL    HW129213   0.979   6.546   2.041
 9438SOL    HW229214   0.916   6.396   2.062
 9439SOL     OW29215   0.298   2.703   2.356
 9439SOL    HW129216   0.362   2.779   2.365
 9439SOL    HW229217   0.349   2.619   2.335
 9440SOL     OW29218   5.306   6.366   6.339
 9440SOL    HW129219   5.358   6.389   6.257
 9440SOL    HW229220   5.303   6.446   6.399
 9441SOL     OW29221   1.698   5.050   5.230
 9441SOL    HW129222   1.736   5.028   5.140
 9441SOL    HW229223   1.601   5.026   5.231
 9442SOL     OW29224   0.209   3.098   0.945
 9442SOL    HW129225   0.291   3.077   0.892
 9442SOL    HW229226   0.128   3.088   0.888
 9443SOL     OW29227   2.104   4.042   1.512
 9443SOL    HW129228   2.080   4.057   1.416
 9443SOL    HW229229   2.201   4.058   1.525
 9444SOL     OW29230   0.294   3.443   0.269
 9444SOL    HW129231   0.328   3.491   0.350
 9444SOL    HW229232   0.369   3.390   0.229
 9445SOL     OW29233   5.471   3.664   1.435
 9445SOL    HW129234   5.446   3.737   1.499
 9445SOL    HW229235   5.414   3.670   1.353
 9446SOL     OW29236   6.503   5.866   1.923
 9446SOL    HW129237   6.423   5.844   1.867
 9446SOL    HW229238   6.582   5.883   1.864
 9447SOL     OW29239   5.896   3.885   2.260
 9447SOL    HW129240   5.878   3.879   2.161
 9447SOL    HW229241   5.846   3.814   2.308
 9448SOL     OW29242   5.616   6.424   0.253
 9448SOL    HW129243   5.532   6.370   0.262
 9448SOL    HW229244   5.655   6.441   0.343
 9449SOL     OW29245   5.746   5.146   5.748
 9449SOL    HW129246   5.726   5.064   5.695
 9449SOL    HW229247   5.773   5.121   5.841
 9450SOL     OW29248   3.036   4.882   4.773
 9450SOL    HW129249   2.996   4.819   4.706
 9450SOL    HW229250   3.026   4.842   4.865
 9451SOL     OW29251   4.424   5.381   6.310
 9451SOL    HW129252   4.461   5.317   6.242
 9451SOL    HW229253   4.492   5.451   6.330
 9452SOL     OW29254   2.455   4.782   1.663
 9452SOL    HW129255   2.541   4.734   1.677
 9452SOL    HW229256   2.418   4.810   1.752
 9453SOL     OW29257   2.703   5.143   3.003
 9453SOL    HW129258   2.608   5.167   2.987
 9453SOL    HW229259   2.708   5.050   3.040
 9454SOL     OW29260   1.528   3.384   5.989
 9454SOL    HW129261   1.580   3.362   5.907
 9454SOL    HW229262   1.555   3.324   6.063
 9455SOL     OW29263   3.438   1.511   2.148
 9455SOL    HW129264   3.461   1.592   2.201
 9455SOL    HW229265   3.340   1.493   2.155
 9456SOL     OW29266   1.235   3.624   1.052
 9456SOL    HW129267   1.228   3.542   1.108
 9456SOL    HW229268   1.208   3.602   0.958
 9457SOL     OW29269   1.098   3.281   0.204
 9457SOL    HW129270   1.100   3.209   0.134
 9457SOL    HW229271   1.173   3.345   0.187
 9458SOL     OW29272   6.855   5.328   5.124
 9458SOL    HW129273   6.851   5.234   5.156
 9458SOL    HW229274   6.948   5.364   5.137
 9459SOL     OW29275   6.276   5.779   1.777
 9459SOL    HW129276   6.178   5.768   1.788
 9459SOL    HW229277   6.320   5.689   1.774
 9460SOL     OW29278   1.145   1.643   5.460
 9460SOL    HW129279   1.115   1.574   5.526
 9460SOL    HW229280   1.071   1.710   5.446
 9461SOL     OW29281   0.893   0.831   4.017
 9461SOL    HW129282   0.987   0.805   4.035
 9461SOL    HW229283   0.831   0.770   4.066
 9462SOL     OW29284   1.106   2.591   2.071
 9462SOL    HW129285   1.030   2.577   2.134
 9462SOL    HW229286   1.126   2.689   2.065
 9463SOL     OW29287   5.784   1.364   0.369
 9463SOL    HW129288   5.768   1.343   0.465
 9463SOL    HW229289   5.834   1.288   0.326
 9464SOL     OW29290   6.044   6.917   6.032
 9464SOL    HW129291   6.108   6.841   6.040
 9464SOL    HW229292   5.958   6.885   5.992
 9465SOL     OW29293   6.390   0.503   4.254
 9465SOL    HW129294   6.401   0.423   4.194
 9465SOL    HW229295   6.449   0.493   4.334
 9466SOL     OW29296   2.326   2.823   6.341
 9466SOL    HW129297   2.365   2.787   6.256
 9466SOL    HW229298   2.246   2.879   6.321
 9467SOL     OW29299   1.749   2.903   2.274
 9467SOL    HW129300   1.844   2.871   2.275
 9467SOL    HW229301   1.695   2.843   2.215
 9468SOL     OW29302   0.058   3.277   5.798
 9468SOL    HW129303   0.146   3.294   5.753
 9468SOL    HW229304   0.069   3.205   5.866
 9469SOL     OW29305   5.985   5.310   2.428
 9469SOL    HW129306   5.960   5.272   2.517
 9469SOL    HW229307   5.966   5.243   2.356
 9470SOL     OW29308   4.310   3.620   0.343
 9470SOL    HW129309   4.404   3.639   0.314
 9470SOL    HW229310   4.308   3.600   0.441
 9471SOL     OW29311   0.083   1.929   5.737
 9471SOL    HW129312   0.162   1.984   5.710
 9471SOL    HW229313   0.034   1.974   5.812
 9472SOL     OW29314   5.500   4.564   4.302
 9472SOL    HW129315   5.408   4.589   4.332
 9472SOL    HW229316   5.501   4.468   4.275
 9473SOL     OW29317   2.381   5.715   6.132
 9473SOL    HW129318   2.383   5.659   6.049
 9473SOL    HW229319   2.464   5.771   6.135
 9474SOL     OW29320   4.603   5.339   2.467
 9474SOL    HW129321   4.544   5.264   2.494
 9474SOL    HW229322   4.646   5.318   2.379
 9475SOL     OW29323   2.766   3.967   1.287
 9475SOL    HW129324   2.837   4.034   1.308
 9475SOL    HW229325   2.804   3.875   1.298
 9476SOL     OW29326   4.079   3.402   5.025
 9476SOL    HW129327   4.021   3.429   5.102
 9476SOL    HW229328   4.138   3.478   5.000
 9477SOL     OW29329   1.083   2.303   1.412
 9477SOL    HW129330   1.177   2.280   1.388
 9477SOL    HW229331   1.078   2.320   1.511
 9478SOL     OW29332   5.737   4.547   5.447
 9478SOL    HW129333   5.669   4.615   5.421
 9478SOL    HW229334   5.721   4.516   5.540
 9479SOL     OW29335   6.271   6.049   6.397
 9479SOL    HW129336   6.249   5.953   6.380
 9479SOL    HW229337   6.326   6.085   6.321
 9480SOL     OW29338   5.777   4.687   0.112
 9480SOL    HW129339   5.706   4.701   0.180
 9480SOL    HW229340   5.767   4.596   0.072
 9481SOL     OW29341   6.955   3.498   1.704
 9481SOL    HW129342   6.932   3.499   1.801
 9481SOL    HW229343   6.918   3.580   1.660
 9482SOL     OW29344   4.696   1.187   1.959
 9482SOL    HW129345   4.746   1.100   1.953
 9482SOL    HW229346   4.723   1.236   2.042
 9483SOL     OW29347   2.005   1.766   0.329
 9483SOL    HW129348   2.001   1.716   0.415
 9483SOL    HW229349   2.023   1.702   0.254
 9484SOL     OW29350   6.613   1.416   4.117
 9484SOL    HW129351   6.571   1.395   4.206
 9484SOL    HW229352   6.550   1.471   4.063
 9485SOL     OW29353   0.873   0.460   2.613
 9485SOL    HW129354   0.892   0.371   2.654
 9485SOL    HW229355   0.777   0.485   2.630
 9486SOL     OW29356   2.870   6.077   1.518
 9486SOL    HW129357   2.874   6.126   1.431
 9486SOL    HW229358   2.963   6.053   1.547
 9487SOL     OW29359   3.527   3.689   3.800
 9487SOL    HW129360   3.619   3.681   3.840
 9487SOL    HW229361   3.517   3.622   3.727
 9488SOL     OW29362   1.294   6.425   1.428
 9488SOL    HW129363   1.241   6.379   1.356
 9488SOL    HW229364   1.383   6.453   1.392
 9489SOL     OW29365   4.091   4.834   1.238
 9489SOL    HW129366   4.071   4.844   1.335
 9489SOL    HW229367   4.016   4.785   1.193
 9490SOL     OW29368   5.124   1.041   1.542
 9490SOL    HW129369   5.085   1.052   1.451
 9490SOL    HW229370   5.210   1.093   1.548
 9491SOL     OW29371   6.018   4.937   5.199
 9491SOL    HW129372   5.977   4.941   5.290
 9491SOL    HW229373   5.999   5.022   5.150
 9492SOL     OW29374   3.339   3.958   1.645
 9492SOL    HW129375   3.420   3.898   1.645
 9492SOL    HW229376   3.354   4.033   1.581
 9493SOL     OW29377   4.721   5.916   3.084
 9493SOL    HW129378   4.656   5.954   3.018
 9493SOL    HW229379   4.694   5.942   3.176
 9494SOL     OW29380   4.996   3.086   6.045
 9494SOL    HW129381   5.061   3.097   6.119
 9494SOL    HW229382   4.924   3.155   6.053
 9495SOL     OW29383   6.160   1.850   4.813
 9495SOL    HW129384   6.168   1.933   4.758
 9495SOL    HW229385   6.064   1.834   4.837
 9496SOL     OW29386   5.676   3.823   0.128
 9496SOL    HW129387   5.599   3.887   0.129
 9496SOL    HW229388   5.661   3.754   0.058
 9497SOL     OW29389   5.622   5.460   6.924
 9497SOL    HW129390   5.690   5.428   6.858
 9497SOL    HW229391   5.572   5.538   6.886
 9498SOL     OW29392   3.786   0.037   5.859
 9498SOL    HW129393   3.696   0.070   5.831
 9498SOL    HW229394   3.852   0.055   5.786
 9499SOL     OW29395   2.722   3.924   5.524
 9499SOL    HW129396   2.705   3.944   5.428
 9499SOL    HW229397   2.786   3.847   5.532
 9500SOL     OW29398   4.354   5.970   1.587
 9500SOL    HW129399   4.300   5.950   1.505
 9500SOL    HW229400   4.405   5.889   1.615
 9501SOL     OW29401   3.531   1.282   4.440
 9501SOL    HW129402   3.460   1.302   4.508
 9501SOL    HW229403   3.488   1.261   4.352
 9502SOL     OW29404   6.560   2.361   5.087
 9502SOL    HW129405   6.645   2.383   5.038
 9502SOL    HW229406   6.482   2.382   5.028
 9503SOL     OW29407   0.873   6.960   1.904
 9503SOL    HW129408   0.906   0.031   1.897
 9503SOL    HW229409   0.802   6.954   1.974
 9504SOL     OW29410   0.477   3.094   0.446
 9504SOL    HW129411   0.549   3.025   0.440
 9504SOL    HW229412   0.389   3.053   0.422
 9505SOL     OW29413   6.128   3.395   3.178
 9505SOL    HW129414   6.060   3.418   3.247
 9505SOL    HW229415   6.214   3.441   3.199
 9506SOL     OW29416   7.004   3.651   0.232
 9506SOL    HW129417   6.984   3.623   0.138
 9506SOL    HW229418   6.922   3.638   0.288
 9507SOL     OW29419   1.094   1.465   3.662
 9507SOL    HW129420   1.176   1.473   3.719
 9507SOL    HW229421   1.104   1.387   3.601
 9508SOL     OW29422   5.229   1.761   0.798
 9508SOL    HW129423   5.264   1.756   0.892
 9508SOL    HW229424   5.301   1.731   0.735
 9509SOL     OW29425   2.457   6.598   5.479
 9509SOL    HW129426   2.426   6.687   5.515
 9509SOL    HW229427   2.452   6.530   5.552
 9510SOL     OW29428   6.372   4.688   2.745
 9510SOL    HW129429   6.314   4.685   2.826
 9510SOL    HW229430   6.426   4.772   2.745
 9511SOL     OW29431   0.690   2.206   6.973
 9511SOL    HW129432   0.647   2.179   0.036
 9511SOL    HW229433   0.716   2.124   6.922
 9512SOL     OW29434   1.103   2.273   3.917
 9512SOL    HW129435   1.027   2.333   3.893
 9512SOL    HW229436   1.100   2.253   4.015
 9513SOL     OW29437   2.068   3.638   4.034
 9513SOL    HW129438   2.077   3.597   3.943
 9513SOL    HW229439   2.138   3.600   4.094
 9514SOL     OW29440   1.648   3.671   0.234
 9514SOL    HW129441   1.656   3.753   0.292
 9514SOL    HW229442   1.656   3.698   0.138
 9515SOL     OW29443   1.621   6.470   6.319
 9515SOL    HW129444   1.656   6.527   6.393
 9515SOL    HW229445   1.546   6.413   6.352
 9516SOL     OW29446   5.433   3.921   3.941
 9516SOL    HW129447   5.393   3.831   3.922
 9516SOL    HW229448   5.372   3.992   3.906
 9517SOL     OW29449   0.676   5.511   1.477
 9517SOL    HW129450   0.606   5.563   1.428
 9517SOL    HW229451   0.739   5.470   1.411
 9518SOL     OW29452   0.675   2.593   6.510
 9518SOL    HW129453   0.663   2.659   6.584
 9518SOL    HW229454   0.721   2.637   6.433
 9519SOL     OW29455   3.254   3.675   2.891
 9519SOL    HW129456   3.216   3.665   2.983
 9519SOL    HW229457   3.352   3.693   2.897
 9520SOL     OW29458   6.985   0.400   5.348
 9520SOL    HW129459   6.896   0.354   5.350
 9520SOL    HW229460   6.987   0.470   5.419
 9521SOL     OW29461   3.188   0.141   0.761
 9521SOL    HW129462   3.122   0.190   0.704
 9521SOL    HW229463   3.263   0.108   0.704
 9522SOL     OW29464   4.103   5.979   1.110
 9522SOL    HW129465   4.174   5.910   1.126
 9522SOL    HW229466   4.017   5.933   1.088
 9523SOL     OW29467   2.523   5.369   4.458
 9523SOL    HW129468   2.614   5.354   4.419
 9523SOL    HW229469   2.520   5.457   4.505
 9524SOL     OW29470   1.839   4.180   1.512
 9524SOL    HW129471   1.837   4.256   1.578
 9524SOL    HW229472   1.917   4.121   1.532
 9525SOL     OW29473   1.824   2.206   5.828
 9525SOL    HW129474   1.883   2.284   5.804
 9525SOL    HW229475   1.831   2.136   5.758
 9526SOL     OW29476   5.215   5.127   6.757
 9526SOL    HW129477   5.270   5.185   6.697
 9526SOL    HW229478   5.165   5.059   6.703
 9527SOL     OW29479   3.710   7.009   3.341
 9527SOL    HW129480   3.742   6.938   3.403
 9527SOL    HW229481   3.787   0.043   3.312
 9528SOL     OW29482   6.116   1.510   0.939
 9528SOL    HW129483   6.190   1.501   0.873
 9528SOL    HW229484   6.095   1.607   0.953
 9529SOL     OW29485   6.242   1.806   1.594
 9529SOL    HW129486   6.216   1.778   1.501
 9529SOL    HW229487   6.341   1.821   1.598
 9530SOL     OW29488   0.736   5.339   3.819
 9530SOL    HW129489   0.730   5.258   3.761
 9530SOL    HW229490   0.805   5.401   3.783
 9531SOL     OW29491   3.949   4.804   3.335
 9531SOL    HW129492   3.927   4.726   3.393
 9531SOL    HW229493   3.963   4.885   3.393
 9532SOL     OW29494   5.796   5.536   2.383
 9532SOL    HW129495   5.738   5.485   2.320
 9532SOL    HW229496   5.879   5.484   2.402
 9533SOL     OW29497   1.835   5.545   3.761
 9533SOL    HW129498   1.878   5.532   3.851
 9533SOL    HW229499   1.870   5.477   3.697
 9534SOL     OW29500   6.099   4.656   4.847
 9534SOL    HW129501   6.150   4.625   4.767
 9534SOL    HW229502   6.001   4.646   4.829
 9535SOL     OW29503   1.135   1.443   5.674
 9535SOL    HW129504   1.056   1.451   5.734
 9535SOL    HW229505   1.215   1.483   5.719
 9536SOL     OW29506   3.612   3.845   4.629
 9536SOL    HW129507   3.603   3.810   4.536
 9536SOL    HW229508   3.569   3.936   4.635
 9537SOL     OW29509   1.254   0.856   3.782
 9537SOL    HW129510   1.199   0.935   3.809
 9537SOL    HW229511   1.254   0.848   3.682
 9538SOL     OW29512   3.654   0.582   4.648
 9538SOL    HW129513   3.593   0.585   4.569
 9538SOL    HW229514   3.638   0.663   4.705
 9539SOL     OW29515   3.548   2.911   3.584
 9539SOL    HW129516   3.487   2.842   3.624
 9539SOL    HW229517   3.554   2.898   3.485
 9540SOL     OW29518   4.763   5.113   3.983
 9540SOL    HW129519   4.772   5.050   4.060
 9540SOL    HW229520   4.824   5.085   3.909
 9541SOL     OW29521   1.661   6.184   5.137
 9541SOL    HW129522   1.586   6.249   5.124
 9541SOL    HW229523   1.631   6.111   5.199
 9542SOL     OW29524   5.570   4.671   4.047
 9542SOL    HW129525   5.568   4.642   4.142
 9542SOL    HW229526   5.598   4.594   3.989
 9543SOL     OW29527   2.861   0.936   6.053
 9543SOL    HW129528   2.943   0.961   6.105
 9543SOL    HW229529   2.789   1.003   6.071
 9544SOL     OW29530   5.404   3.882   3.612
 9544SOL    HW129531   5.312   3.843   3.615
 9544SOL    HW229532   5.401   3.973   3.571
 9545SOL     OW29533   1.236   4.756   1.959
 9545SOL    HW129534   1.225   4.789   1.865
 9545SOL    HW229535   1.147   4.729   1.996
 9546SOL     OW29536   3.158   1.518   5.827
 9546SOL    HW129537   3.084   1.576   5.860
 9546SOL    HW229538   3.123   1.428   5.803
 9547SOL     OW29539   3.308   6.380   3.783
 9547SOL    HW129540   3.246   6.449   3.820
 9547SOL    HW229541   3.288   6.291   3.824
 9548SOL     OW29542   1.092   5.162   6.413
 9548SOL    HW129543   1.000   5.177   6.377
 9548SOL    HW229544   1.086   5.123   6.505
 9549SOL     OW29545   3.825   1.942   2.363
 9549SOL    HW129546   3.824   1.975   2.268
 9549SOL    HW229547   3.834   2.020   2.425
 9550SOL     OW29548   5.291   2.573   1.491
 9550SOL    HW129549   5.382   2.560   1.529
 9550SOL    HW229550   5.273   2.670   1.477
 9551SOL     OW29551   6.110   1.947   6.639
 9551SOL    HW129552   6.166   2.010   6.693
 9551SOL    HW229553   6.031   1.918   6.693
 9552SOL     OW29554   2.178   0.979   6.434
 9552SOL    HW129555   2.235   1.054   6.467
 9552SOL    HW229556   2.144   1.000   6.343
 9553SOL     OW29557   5.237   2.397   0.304
 9553SOL    HW129558   5.280   2.340   0.234
 9553SOL    HW229559   5.175   2.462   0.261
 9554SOL     OW29560   2.463   6.580   4.249
 9554SOL    HW129561   2.538   6.643   4.268
 9554SOL    HW229562   2.443   6.580   4.151
 9555SOL     OW29563   6.528   1.280   3.502
 9555SOL    HW129564   6.623   1.251   3.490
 9555SOL    HW229565   6.507   1.354   3.437
 9556SOL     OW29566   2.035   4.390   1.068
 9556SOL    HW129567   2.006   4.472   1.018
 9556SOL    HW229568   2.118   4.354   1.026
 9557SOL     OW29569   5.243   0.301   1.927
 9557SOL    HW129570   5.165   0.271   1.872
 9557SOL    HW229571   5.268   0.395   1.901
 9558SOL     OW29572   5.929   6.232   5.700
 9558SOL    HW129573   5.986   6.211   5.621
 9558SOL    HW229574   5.874   6.152   5.724
 9559SOL     OW29575   1.459   3.649   6.890
 9559SOL    HW129576   1.550   3.674   6.923
 9559SOL    HW229577   1.392   3.666   6.963
 9560SOL     OW29578   3.553   0.379   1.862
 9560SOL    HW129579   3.647   0.367   1.830
 9560SOL    HW229580   3.501   0.296   1.843
 9561SOL     OW29581   0.482   0.961   1.278
 9561SOL    HW129582   0.576   0.986   1.253
 9561SOL    HW229583   0.424   0.961   1.197
 9562SOL     OW29584   2.585   5.496   3.857
 9562SOL    HW129585   2.562   5.554   3.935
 9562SOL    HW229586   2.584   5.400   3.885
 9563SOL     OW29587   0.690   6.594   0.256
 9563SOL    HW129588   0.679   6.564   0.161
 9563SOL    HW229589   0.606   6.637   0.288
 9564SOL     OW29590   1.780   0.765   1.136
 9564SOL    HW129591   1.692   0.720   1.151
 9564SOL    HW229592   1.850   0.723   1.194
 9565SOL     OW29593   3.346   1.086   3.948
 9565SOL    HW129594   3.336   1.040   3.860
 9565SOL    HW229595   3.427   1.144   3.947
 9566SOL     OW29596   2.454   6.758   0.669
 9566SOL    HW129597   2.476   6.807   0.584
 9566SOL    HW229598   2.403   6.675   0.647
 9567SOL     OW29599   6.999   4.808   0.493
 9567SOL    HW129600   7.004   4.852   0.404
 9567SOL    HW229601   0.001   4.712   0.485
 9568SOL     OW29602   4.065   1.925   6.686
 9568SOL    HW129603   4.105   1.986   6.755
 9568SOL    HW229604   3.967   1.944   6.678
 9569SOL     OW29605   5.754   0.436   1.737
 9569SOL    HW129606   5.796   0.527   1.738
 9569SOL    HW229607   5.763   0.395   1.646
 9570SOL     OW29608   0.515   3.417   0.882
 9570SOL    HW129609   0.577   3.495   0.883
 9570SOL    HW229610   0.441   3.433   0.947
 9571SOL     OW29611   2.586   2.788   6.480
 9571SOL    HW129612   2.609   2.701   6.436
 9571SOL    HW229613   2.518   2.836   6.424
 9572SOL     OW29614   2.262   4.096   3.527
 9572SOL    HW129615   2.270   4.194   3.511
 9572SOL    HW229616   2.225   4.052   3.445
 9573SOL     OW29617   6.834   0.708   5.256
 9573SOL    HW129618   6.819   0.635   5.323
 9573SOL    HW229619   6.889   0.673   5.180
 9574SOL     OW29620   4.047   3.041   1.302
 9574SOL    HW129621   4.002   2.974   1.361
 9574SOL    HW229622   4.056   3.128   1.351
 9575SOL     OW29623   5.865   6.749   2.035
 9575SOL    HW129624   5.909   6.701   2.111
 9575SOL    HW229625   5.771   6.773   2.060
 9576SOL     OW29626   1.389   1.644   0.181
 9576SOL    HW129627   1.347   1.576   0.120
 9576SOL    HW229628   1.486   1.623   0.191
 9577SOL     OW29629   0.105   6.199   0.832
 9577SOL    HW129630   0.164   6.118   0.825
 9577SOL    HW229631   0.118   6.243   0.921
 9578SOL     OW29632   1.500   2.943   3.031
 9578SOL    HW129633   1.566   2.922   3.103
 9578SOL    HW229634   1.417   2.888   3.044
 9579SOL     OW29635   5.820   0.125   2.268
 9579SOL    HW129636   5.907   0.141   2.314
 9579SOL    HW229637   5.747   0.119   2.337
 9580SOL     OW29638   5.362   4.602   0.927
 9580SOL    HW129639   5.434   4.632   0.989
 9580SOL    HW229640   5.280   4.579   0.980
 9581SOL     OW29641   6.486   0.649   6.911
 9581SOL    HW129642   6.576   0.622   6.877
 9581SOL    HW229643   6.486   0.747   6.932
 9582SOL     OW29644   3.888   5.873   4.178
 9582SOL    HW129645   3.924   5.795   4.127
 9582SOL    HW229646   3.933   5.956   4.147
 9583SOL     OW29647   3.381   4.670   1.650
 9583SOL    HW129648   3.458   4.644   1.708
 9583SOL    HW229649   3.304   4.609   1.666
 9584SOL     OW29650   1.611   4.175   4.608
 9584SOL    HW129651   1.567   4.237   4.543
 9584SOL    HW229652   1.577   4.195   4.700
 9585SOL     OW29653   5.324   6.009   1.545
 9585SOL    HW129654   5.361   5.916   1.545
 9585SOL    HW229655   5.323   6.044   1.639
 9586SOL     OW29656   4.297   4.955   1.562
 9586SOL    HW129657   4.310   4.974   1.659
 9586SOL    HW229658   4.346   5.023   1.508
 9587SOL     OW29659   2.564   6.390   2.040
 9587SOL    HW129660   2.498   6.367   1.969
 9587SOL    HW229661   2.564   6.319   2.111
 9588SOL     OW29662   6.115   6.258   0.724
 9588SOL    HW129663   6.177   6.334   0.743
 9588SOL    HW229664   6.126   6.228   0.629
 9589SOL     OW29665   1.584   3.348   6.316
 9589SOL    HW129666   1.568   3.366   6.413
 9589SOL    HW229667   1.612   3.253   6.304
 9590SOL     OW29668   5.659   1.596   2.135
 9590SOL    HW129669   5.696   1.616   2.226
 9590SOL    HW229670   5.733   1.589   2.069
 9591SOL     OW29671   3.569   6.520   6.286
 9591SOL    HW129672   3.626   6.439   6.283
 9591SOL    HW229673   3.487   6.505   6.230
 9592SOL     OW29674   2.568   4.347   6.490
 9592SOL    HW129675   2.580   4.370   6.586
 9592SOL    HW229676   2.540   4.251   6.482
 9593SOL     OW29677   2.186   1.417   5.793
 9593SOL    HW129678   2.204   1.369   5.879
 9593SOL    HW229679   2.233   1.506   5.793
 9594SOL     OW29680   2.320   6.296   3.872
 9594SOL    HW129681   2.251   6.230   3.901
 9594SOL    HW229682   2.408   6.273   3.913
 9595SOL     OW29683   0.463   3.090   3.656
 9595SOL    HW129684   0.402   3.032   3.602
 9595SOL    HW229685   0.538   3.034   3.692
 9596SOL     OW29686   0.786   5.274   1.027
 9596SOL    HW129687   0.785   5.322   1.115
 9596SOL    HW229688   0.698   5.227   1.014
 9597SOL     OW29689   1.031   4.265   1.894
 9597SOL    HW129690   0.943   4.309   1.879
 9597SOL    HW229691   1.054   4.268   1.992
 9598SOL     OW29692   1.651   3.881   2.737
 9598SOL    HW129693   1.750   3.892   2.732
 9598SOL    HW229694   1.610   3.965   2.772
 9599SOL     OW29695   3.423   0.033   3.871
 9599SOL    HW129696   3.382   7.003   3.945
 9599SOL    HW229697   3.508   7.012   3.841
 9600SOL     OW29698   2.730   0.428   1.022
 9600SOL    HW129699   2.813   0.465   0.981
 9600SOL    HW229700   2.754   0.358   1.089
 9601SOL     OW29701   6.643   4.654   1.148
 9601SOL    HW129702   6.709   4.677   1.076
 9601SOL    HW229703   6.679   4.684   1.236
 9602SOL     OW29704   4.566   4.638   5.673
 9602SOL    HW129705   4.509   4.590   5.607
 9602SOL    HW229706   4.547   4.736   5.668
 9603SOL     OW29707   5.836   6.244   6.068
 9603SOL    HW129708   5.868   6.267   6.160
 9603SOL    HW229709   5.821   6.146   6.061
 9604SOL     OW29710   4.828   0.582   1.491
 9604SOL    HW129711   4.791   0.515   1.555
 9604SOL    HW229712   4.795   0.673   1.516
 9605SOL     OW29713   0.064   5.288   3.127
 9605SOL    HW129714   0.064   5.364   3.063
 9605SOL    HW229715   0.095   5.205   3.082
 9606SOL     OW29716   1.583   1.492   7.006
 9606SOL    HW129717   1.535   1.571   6.968
 9606SOL    HW229718   1.560   1.411   6.954
 9607SOL     OW29719   3.000   1.821   6.944
 9607SOL    HW129720   3.052   1.776   7.017
 9607SOL    HW229721   2.975   1.753   6.875
 9608SOL     OW29722   6.856   4.534   2.765
 9608SOL    HW129723   6.781   4.590   2.728
 9608SOL    HW229724   6.932   4.594   2.791
 9609SOL     OW29725   3.636   2.616   6.171
 9609SOL    HW129726   3.733   2.610   6.195
 9609SOL    HW229727   3.584   2.653   6.248
 9610SOL     OW29728   1.769   4.553   2.643
 9610SOL    HW129729   1.857   4.598   2.625
 9610SOL    HW229730   1.746   4.564   2.740
 9611SOL     OW29731   2.174   6.696   0.954
 9611SOL    HW129732   2.199   6.704   0.857
 9611SOL    HW229733   2.076   6.713   0.964
 9612SOL     OW29734   0.693   3.176   1.876
 9612SOL    HW129735   0.659   3.264   1.844
 9612SOL    HW229736   0.620   3.127   1.923
 9613SOL     OW29737   6.040   6.523   3.512
 9613SOL    HW129738   6.059   6.428   3.535
 9613SOL    HW229739   6.118   6.580   3.538
 9614SOL     OW29740   3.856   2.171   2.538
 9614SOL    HW129741   3.899   2.261   2.533
 9614SOL    HW229742   3.756   2.182   2.538
 9615SOL     OW29743   2.542   2.242   1.038
 9615SOL    HW129744   2.631   2.256   0.996
 9615SOL    HW229745   2.551   2.250   1.138
 9616SOL     OW29746   3.557   3.050   0.944
 9616SOL    HW129747   3.572   2.964   0.993
 9616SOL    HW229748   3.484   3.102   0.989
 9617SOL     OW29749   2.179   2.937   3.652
 9617SOL    HW129750   2.203   2.840   3.658
 9617SOL    HW229751   2.263   2.992   3.651
 9618SOL     OW29752   2.896   0.812   1.021
 9618SOL    HW129753   2.841   0.732   1.048
 9618SOL    HW229754   2.868   0.891   1.074
 9619SOL     OW29755   1.864   0.127   5.663
 9619SOL    HW129756   1.816   0.215   5.656
 9619SOL    HW229757   1.962   0.144   5.669
 9620SOL     OW29758   4.702   0.715   4.685
 9620SOL    HW129759   4.798   0.726   4.713
 9620SOL    HW229760   4.695   0.640   4.620
 9621SOL     OW29761   1.691   2.888   1.934
 9621SOL    HW129762   1.703   2.879   1.836
 9621SOL    HW229763   1.620   2.956   1.954
 9622SOL     OW29764   5.797   1.240   0.613
 9622SOL    HW129765   5.761   1.156   0.655
 9622SOL    HW229766   5.752   1.319   0.655
 9623SOL     OW29767   2.461   2.892   6.864
 9623SOL    HW129768   2.505   2.964   6.810
 9623SOL    HW229769   2.512   2.807   6.853
 9624SOL     OW29770   5.948   3.407   2.965
 9624SOL    HW129771   5.957   3.402   2.866
 9624SOL    HW229772   6.038   3.406   3.007
 9625SOL     OW29773   5.631   5.824   0.161
 9625SOL    HW129774   5.668   5.755   0.100
 9625SOL    HW229775   5.676   5.818   0.250
 9626SOL     OW29776   3.766   4.981   0.533
 9626SOL    HW129777   3.758   5.021   0.625
 9626SOL    HW229778   3.696   5.021   0.474
 9627SOL     OW29779   0.680   6.096   6.563
 9627SOL    HW129780   0.748   6.030   6.594
 9627SOL    HW229781   0.653   6.075   6.469
 9628SOL     OW29782   5.240   5.384   0.998
 9628SOL    HW129783   5.322   5.414   1.045
 9628SOL    HW229784   5.258   5.378   0.900
 9629SOL     OW29785   1.667   0.656   1.456
 9629SOL    HW129786   1.652   0.682   1.360
 9629SOL    HW229787   1.750   0.702   1.489
 9630SOL     OW29788   6.492   0.163   5.132
 9630SOL    HW129789   6.513   0.260   5.129
 9630SOL    HW229790   6.416   0.143   5.069
 9631SOL     OW29791   6.157   0.064   6.323
 9631SOL    HW129792   6.189   0.157   6.343
 9631SOL    HW229793   6.089   0.037   6.392
 9632SOL     OW29794   1.590   6.481   2.503
 9632SOL    HW129795   1.544   6.493   2.591
 9632SOL    HW229796   1.543   6.410   2.451
 9633SOL     OW29797   6.041   5.604   6.781
 9633SOL    HW129798   6.073   5.595   6.686
 9633SOL    HW229799   6.103   5.664   6.831
 9634SOL     OW29800   1.310   6.315   4.681
 9634SOL    HW129801   1.360   6.315   4.767
 9634SOL    HW229802   1.338   6.237   4.625
 9635SOL     OW29803   2.304   5.368   5.050
 9635SOL    HW129804   2.327   5.332   5.141
 9635SOL    HW229805   2.384   5.361   4.990
 9636SOL     OW29806   3.786   1.685   5.201
 9636SOL    HW129807   3.815   1.633   5.282
 9636SOL    HW229808   3.808   1.781   5.214
 9637SOL     OW29809   2.156   1.922   6.392
 9637SOL    HW129810   2.163   2.020   6.411
 9637SOL    HW229811   2.110   1.876   6.468
 9638SOL     OW29812   6.847   3.115   5.180
 9638SOL    HW129813   6.811   3.200   5.140
 9638SOL    HW229814   6.933   3.134   5.227
 9639SOL     OW29815   4.076   1.858   2.452
 9639SOL    HW129816   4.141   1.833   2.379
 9639SOL    HW229817   3.987   1.877   2.411
 9640SOL     OW29818   2.320   2.669   3.283
 9640SOL    HW129819   2.291   2.574   3.270
 9640SOL    HW229820   2.346   2.708   3.194
 9641SOL     OW29821   4.971   6.837   0.471
 9641SOL    HW129822   4.987   6.741   0.494
 9641SOL    HW229823   4.964   6.847   0.372
 9642SOL     OW29824   3.446   0.400   4.734
 9642SOL    HW129825   3.519   0.456   4.694
 9642SOL    HW229826   3.479   0.306   4.746
 9643SOL     OW29827   5.104   4.107   3.221
 9643SOL    HW129828   5.111   4.021   3.170
 9643SOL    HW229829   5.036   4.166   3.177
 9644SOL     OW29830   1.086   3.050   6.374
 9644SOL    HW129831   1.160   3.111   6.403
 9644SOL    HW229832   1.092   2.963   6.422
 9645SOL     OW29833   3.101   5.175   5.166
 9645SOL    HW129834   3.183   5.232   5.161
 9645SOL    HW229835   3.021   5.233   5.182
 9646SOL     OW29836   4.411   4.920   2.185
 9646SOL    HW129837   4.320   4.961   2.188
 9646SOL    HW229838   4.405   4.829   2.144
 9647SOL     OW29839   6.489   3.275   1.306
 9647SOL    HW129840   6.513   3.236   1.217
 9647SOL    HW229841   6.555   3.347   1.329
 9648SOL     OW29842   4.402   2.299   1.280
 9648SOL    HW129843   4.325   2.362   1.268
 9648SOL    HW229844   4.402   2.263   1.373
 9649SOL     OW29845   2.291   6.484   0.281
 9649SOL    HW129846   2.263   6.572   0.244
 9649SOL    HW229847   2.384   6.491   0.318
 9650SOL     OW29848   6.930   5.847   2.249
 9650SOL    HW129849   6.926   5.801   2.338
 9650SOL    HW229850   6.928   5.946   2.263
 9651SOL     OW29851   0.770   1.552   5.980
 9651SOL    HW129852   0.867   1.530   5.987
 9651SOL    HW229853   0.716   1.478   6.020
 9652SOL     OW29854   0.835   4.796   2.478
 9652SOL    HW129855   0.741   4.785   2.445
 9652SOL    HW229856   0.835   4.855   2.559
 9653SOL     OW29857   4.667   4.911   4.455
 9653SOL    HW129858   4.702   4.991   4.406
 9653SOL    HW229859   4.573   4.929   4.486
 9654SOL     OW29860   2.263   2.693   2.026
 9654SOL    HW129861   2.213   2.649   2.101
 9654SOL    HW229862   2.205   2.760   1.982
 9655SOL     OW29863   0.017   1.756   6.210
 9655SOL    HW129864   0.036   1.719   6.301
 9655SOL    HW229865   6.950   1.801   6.211
 9656SOL     OW29866   3.279   6.913   2.236
 9656SOL    HW129867   3.195   6.861   2.219
 9656SOL    HW229868   3.316   6.947   2.149
 9657SOL     OW29869   6.175   1.276   5.255
 9657SOL    HW129870   6.178   1.345   5.183
 9657SOL    HW229871   6.222   1.193   5.225
 9658SOL     OW29872   6.147   3.242   2.073
 9658SOL    HW129873   6.165   3.243   2.172
 9658SOL    HW229874   6.091   3.321   2.049
 9659SOL     OW29875   0.843   4.801   0.259
 9659SOL    HW129876   0.841   4.763   0.167
 9659SOL    HW229877   0.809   4.733   0.324
 9660SOL     OW29878   0.874   5.438   0.673
 9660SOL    HW129879   0.786   5.437   0.721
 9660SOL    HW229880   0.945   5.402   0.734
 9661SOL     OW29881   4.460   0.032   0.628
 9661SOL    HW129882   4.535   0.073   0.576
 9661SOL    HW229883   4.487   0.023   0.724
 9662SOL     OW29884   5.914   1.662   4.215
 9662SOL    HW129885   5.950   1.576   4.180
 9662SOL    HW229886   5.849   1.700   4.150
 9663SOL     OW29887   1.714   5.462   2.872
 9663SOL    HW129888   1.760   5.503   2.951
 9663SOL    HW229889   1.779   5.406   2.821
 9664SOL     OW29890   4.412   6.595   2.218
 9664SOL    HW129891   4.358   6.579   2.135
 9664SOL    HW229892   4.432   6.508   2.262
 9665SOL     OW29893   5.520   4.074   5.030
 9665SOL    HW129894   5.599   4.110   5.080
 9665SOL    HW229895   5.475   4.003   5.084
 9666SOL     OW29896   5.319   4.256   2.502
 9666SOL    HW129897   5.353   4.165   2.478
 9666SOL    HW229898   5.250   4.285   2.435
 9667SOL     OW29899   3.982   3.947   4.180
 9667SOL    HW129900   3.924   3.971   4.103
 9667SOL    HW229901   4.025   3.858   4.163
 9668SOL     OW29902   0.252   1.214   5.733
 9668SOL    HW129903   0.278   1.121   5.761
 9668SOL    HW229904   0.333   1.265   5.706
 9669SOL     OW29905   0.404   6.971   0.297
 9669SOL    HW129906   0.394   0.010   0.375
 9669SOL    HW229907   0.315   6.934   0.272
 9670SOL     OW29908   4.833   4.493   6.411
 9670SOL    HW129909   4.763   4.446   6.464
 9670SOL    HW229910   4.806   4.589   6.398
 9671SOL     OW29911   6.862   5.056   5.571
 9671SOL    HW129912   6.858   5.137   5.512
 9671SOL    HW229913   6.911   4.983   5.523
 9672SOL     OW29914   0.512   5.811   4.930
 9672SOL    HW129915   0.603   5.838   4.901
 9672SOL    HW229916   0.446   5.833   4.858
 9673SOL     OW29917   3.515   4.383   6.531
 9673SOL    HW129918   3.548   4.450   6.597
 9673SOL    HW229919   3.579   4.375   6.455
 9674SOL     OW29920   3.066   6.486   1.817
 9674SOL    HW129921   3.026   6.460   1.729
 9674SOL    HW229922   3.002   6.463   1.890
 9675SOL     OW29923   6.562   1.955   2.281
 9675SOL    HW129924   6.534   1.859   2.280
 9675SOL    HW229925   6.555   1.992   2.188
 9676SOL     OW29926   0.971   3.699   5.364
 9676SOL    HW129927   0.928   3.787   5.344
 9676SOL    HW229928   0.913   3.625   5.330
 9677SOL     OW29929   2.031   3.850   5.958
 9677SOL    HW129930   2.042   3.751   5.965
 9677SOL    HW229931   1.951   3.872   5.903
 9678SOL     OW29932   4.085   3.688   3.450
 9678SOL    HW129933   3.987   3.674   3.459
 9678SOL    HW229934   4.113   3.763   3.509
 9679SOL     OW29935   1.607   2.701   2.131
 9679SOL    HW129936   1.514   2.668   2.116
 9679SOL    HW229937   1.639   2.752   2.051
 9680SOL     OW29938   6.165   6.263   3.479
 9680SOL    HW129939   6.236   6.252   3.410
 9680SOL    HW229940   6.206   6.262   3.570
 9681SOL     OW29941   2.308   0.829   2.323
 9681SOL    HW129942   2.272   0.738   2.345
 9681SOL    HW229943   2.283   0.853   2.229
 9682SOL     OW29944   5.760   4.096   3.678
 9682SOL    HW129945   5.699   4.074   3.602
 9682SOL    HW229946   5.764   4.019   3.741
 9683SOL     OW29947   4.030   5.937   0.200
 9683SOL    HW129948   3.979   5.977   0.125
 9683SOL    HW229949   4.127   5.962   0.193
 9684SOL     OW29950   0.258   4.029   5.501
 9684SOL    HW129951   0.292   4.062   5.413
 9684SOL    HW229952   0.325   3.966   5.541
 9685SOL     OW29953   1.655   3.205   1.014
 9685SOL    HW129954   1.651   3.246   0.923
 9685SOL    HW229955   1.742   3.228   1.058
 9686SOL     OW29956   6.492   0.544   1.799
 9686SOL    HW129957   6.499   0.539   1.699
 9686SOL    HW229958   6.560   0.609   1.834
 9687SOL     OW29959   2.285   0.248   3.688
 9687SOL    HW129960   2.384   0.234   3.696
 9687SOL    HW229961   2.264   0.345   3.704
 9688SOL     OW29962   0.149   1.427   3.241
 9688SOL    HW129963   0.062   1.477   3.251
 9688SOL    HW229964   0.157   1.360   3.315
 9689SOL     OW29965   2.806   6.280   6.403
 9689SOL    HW129966   2.794   6.182   6.383
 9689SOL    HW229967   2.899   6.296   6.436
 9690SOL     OW29968   6.318   4.975   0.716
 9690SOL    HW129969   6.383   5.019   0.778
 9690SOL    HW229970   6.368   4.917   0.652
 9691SOL     OW29971   1.858   5.115   2.029
 9691SOL    HW129972   1.765   5.079   2.043
 9691SOL    HW229973   1.924   5.040   2.037
 9692SOL     OW29974   2.924   5.444   1.887
 9692SOL    HW129975   2.885   5.412   1.801
 9692SOL    HW229976   2.862   5.424   1.962
 9693SOL     OW29977   6.872   6.231   2.045
 9693SOL    HW129978   6.864   6.131   2.038
 9693SOL    HW229979   6.960   6.260   2.007
 9694SOL     OW29980   1.709   2.517   0.048
 9694SOL    HW129981   1.640   2.453   0.015
 9694SOL    HW229982   1.764   2.549   6.994
 9695SOL     OW29983   6.493   3.892   1.306
 9695SOL    HW129984   6.447   3.977   1.283
 9695SOL    HW229985   6.592   3.906   1.305
 9696SOL     OW29986   3.916   2.977   1.732
 9696SOL    HW129987   4.007   3.016   1.719
 9696SOL    HW229988   3.889   2.985   1.828
 9697SOL     OW29989   0.309   5.148   0.055
 9697SOL    HW129990   0.354   5.237   0.052
 9697SOL    HW229991   0.269   5.127   6.989
 9698SOL     OW29992   5.806   1.374   5.144
 9698SOL    HW129993   5.792   1.311   5.221
 9698SOL    HW229994   5.846   1.459   5.178
 9699SOL     OW29995   1.376   3.735   6.470
 9699SOL    HW129996   1.387   3.783   6.556
 9699SOL    HW229997   1.450   3.761   6.407
 9700SOL     OW29998   3.495   4.541   5.660
 9700SOL    HW129999   3.402   4.576   5.650
 9700SOL    HW230000   3.539   4.538   5.571
 9701SOL     OW30001   4.515   4.868   4.725
 9701SOL    HW130002   4.587   4.872   4.794
 9701SOL    HW230003   4.501   4.960   4.687
 9702SOL     OW30004   4.749   1.023   0.960
 9702SOL    HW130005   4.664   1.058   0.921
 9702SOL    HW230006   4.740   1.017   1.060
 9703SOL     OW30007   3.110   6.269   4.075
 9703SOL    HW130008   3.116   6.332   4.153
 9703SOL    HW230009   3.191   6.280   4.017
 9704SOL     OW30010   3.971   6.889   3.039
 9704SOL    HW130011   3.872   6.901   3.035
 9704SOL    HW230012   3.992   6.810   3.096
 9705SOL     OW30013   3.415   4.626   0.670
 9705SOL    HW130014   3.371   4.591   0.753
 9705SOL    HW230015   3.436   4.551   0.608
 9706SOL     OW30016   6.179   3.310   2.329
 9706SOL    HW130017   6.110   3.378   2.355
 9706SOL    HW230018   6.236   3.288   2.408
 9707SOL     OW30019   1.499   4.464   1.905
 9707SOL    HW130020   1.429   4.416   1.852
 9707SOL    HW230021   1.585   4.414   1.900
 9708SOL     OW30022   2.165   1.727   3.617
 9708SOL    HW130023   2.067   1.749   3.615
 9708SOL    HW230024   2.208   1.757   3.532
 9709SOL     OW30025   1.646   6.381   3.220
 9709SOL    HW130026   1.698   6.428   3.149
 9709SOL    HW230027   1.595   6.305   3.180
 9710SOL     OW30028   0.367   1.249   3.166
 9710SOL    HW130029   0.437   1.296   3.218
 9710SOL    HW230030   0.277   1.286   3.189
 9711SOL     OW30031   1.380   3.627   5.965
 9711SOL    HW130032   1.313   3.609   5.893
 9711SOL    HW230033   1.431   3.544   5.986
 9712SOL     OW30034   5.775   1.983   4.224
 9712SOL    HW130035   5.684   1.968   4.262
 9712SOL    HW230036   5.792   2.081   4.213
 9713SOL     OW30037   0.194   4.855   3.178
 9713SOL    HW130038   0.120   4.808   3.227
 9713SOL    HW230039   0.154   4.916   3.110
 9714SOL     OW30040   1.876   2.528   1.899
 9714SOL    HW130041   1.948   2.467   1.930
 9714SOL    HW230042   1.792   2.476   1.883
 9715SOL     OW30043   5.115   5.371   5.199
 9715SOL    HW130044   5.151   5.315   5.274
 9715SOL    HW230045   5.037   5.324   5.158
 9716SOL     OW30046   4.246   1.860   6.481
 9716SOL    HW130047   4.251   1.760   6.483
 9716SOL    HW230048   4.182   1.891   6.552
 9717SOL     OW30049   5.924   5.633   3.832
 9717SOL    HW130050   5.858   5.569   3.793
 9717SOL    HW230051   5.921   5.627   3.931
 9718SOL     OW30052   3.691   3.609   0.993
 9718SOL    HW130053   3.754   3.616   1.071
 9718SOL    HW230054   3.734   3.648   0.912
 9719SOL     OW30055   0.416   2.461   0.283
 9719SOL    HW130056   0.507   2.458   0.243
 9719SOL    HW230057   0.354   2.403   0.230
 9720SOL     OW30058   0.776   6.575   2.260
 9720SOL    HW130059   0.810   6.607   2.172
 9720SOL    HW230060   0.761   6.654   2.320
 9721SOL     OW30061   6.846   3.918   2.558
 9721SOL    HW130062   6.760   3.876   2.528
 9721SOL    HW230063   6.825   3.995   2.618
 9722SOL     OW30064   0.411   0.503   3.681
 9722SOL    HW130065   0.368   0.568   3.619
 9722SOL    HW230066   0.376   0.411   3.661
 9723SOL     OW30067   0.114   0.524   3.147
 9723SOL    HW130068   0.212   0.528   3.125
 9723SOL    HW230069   0.103   0.503   3.244
 9724SOL     OW30070   3.002   2.440   1.052
 9724SOL    HW130071   2.941   2.470   1.125
 9724SOL    HW230072   3.089   2.409   1.091
 9725SOL     OW30073   5.203   3.353   5.867
 9725SOL    HW130074   5.279   3.330   5.928
 9725SOL    HW230075   5.237   3.368   5.775
 9726SOL     OW30076   4.899   6.795   4.796
 9726SOL    HW130077   4.878   6.704   4.832
 9726SOL    HW230078   4.986   6.792   4.746
 9727SOL     OW30079   0.826   3.309   5.906
 9727SOL    HW130080   0.879   3.234   5.945
 9727SOL    HW230081   0.754   3.335   5.970
 9728SOL     OW30082   2.353   6.072   6.582
 9728SOL    HW130083   2.336   6.157   6.632
 9728SOL    HW230084   2.335   6.086   6.485
 9729SOL     OW30085   1.289   4.527   3.201
 9729SOL    HW130086   1.307   4.460   3.129
 9729SOL    HW230087   1.207   4.500   3.251
 9730SOL     OW30088   6.645   3.375   2.500
 9730SOL    HW130089   6.667   3.391   2.404
 9730SOL    HW230090   6.587   3.294   2.507
 9731SOL     OW30091   3.467   5.144   0.655
 9731SOL    HW130092   3.509   5.235   0.662
 9731SOL    HW230093   3.372   5.153   0.626
 9732SOL     OW30094   6.948   6.103   2.371
 9732SOL    HW130095   6.986   6.171   2.308
 9732SOL    HW230096   6.887   6.149   2.436
 9733SOL     OW30097   4.989   5.059   4.485
 9733SOL    HW130098   4.988   4.961   4.466
 9733SOL    HW230099   5.027   5.076   4.576
 9734SOL     OW30100   5.284   2.399   3.986
 9734SOL    HW130101   5.195   2.423   4.025
 9734SOL    HW230102   5.272   2.379   3.889
 9735SOL     OW30103   2.326   5.434   1.893
 9735SOL    HW130104   2.282   5.348   1.918
 9735SOL    HW230105   2.383   5.419   1.812
 9736SOL     OW30106   4.545   1.323   6.687
 9736SOL    HW130107   4.623   1.285   6.736
 9736SOL    HW230108   4.529   1.271   6.604
 9737SOL     OW30109   4.127   2.190   5.219
 9737SOL    HW130110   4.162   2.272   5.173
 9737SOL    HW230111   4.202   2.143   5.266
 9738SOL     OW30112   1.970   1.230   3.149
 9738SOL    HW130113   1.980   1.138   3.113
 9738SOL    HW230114   1.873   1.256   3.149
 9739SOL     OW30115   6.446   4.965   1.825
 9739SOL    HW130116   6.384   4.956   1.746
 9739SOL    HW230117   6.440   4.882   1.881
 9740SOL     OW30118   5.845   4.534   2.746
 9740SOL    HW130119   5.908   4.611   2.733
 9740SOL    HW230120   5.761   4.552   2.694
 9741SOL     OW30121   4.487   1.766   1.989
 9741SOL    HW130122   4.490   1.805   2.081
 9741SOL    HW230123   4.428   1.821   1.931
 9742SOL     OW30124   5.535   0.852   3.546
 9742SOL    HW130125   5.591   0.920   3.592
 9742SOL    HW230126   5.587   0.813   3.470
 9743SOL     OW30127   1.731   3.115   5.985
 9743SOL    HW130128   1.796   3.049   5.948
 9743SOL    HW230129   1.646   3.110   5.932
 9744SOL     OW30130   1.737   1.355   1.948
 9744SOL    HW130131   1.661   1.367   2.011
 9744SOL    HW230132   1.799   1.284   1.983
 9745SOL     OW30133   0.695   2.301   5.429
 9745SOL    HW130134   0.644   2.348   5.358
 9745SOL    HW230135   0.698   2.203   5.409
 9746SOL     OW30136   5.825   0.704   4.878
 9746SOL    HW130137   5.924   0.693   4.877
 9746SOL    HW230138   5.784   0.638   4.940
 9747SOL     OW30139   0.927   0.154   6.811
 9747SOL    HW130140   0.906   0.244   6.772
 9747SOL    HW230141   1.010   0.161   6.867
 9748SOL     OW30142   1.251   6.089   4.164
 9748SOL    HW130143   1.329   6.039   4.126
 9748SOL    HW230144   1.283   6.171   4.210
 9749SOL     OW30145   0.649   3.241   4.626
 9749SOL    HW130146   0.696   3.153   4.630
 9749SOL    HW230147   0.553   3.230   4.654
 9750SOL     OW30148   4.655   5.381   3.619
 9750SOL    HW130149   4.706   5.407   3.537
 9750SOL    HW230150   4.640   5.461   3.676
 9751SOL     OW30151   1.762   2.461   0.546
 9751SOL    HW130152   1.799   2.406   0.620
 9751SOL    HW230153   1.703   2.533   0.584
 9752SOL     OW30154   4.271   0.751   5.473
 9752SOL    HW130155   4.310   0.666   5.439
 9752SOL    HW230156   4.210   0.790   5.404
 9753SOL     OW30157   6.607   5.798   5.504
 9753SOL    HW130158   6.624   5.814   5.407
 9753SOL    HW230159   6.519   5.837   5.530
 9754SOL     OW30160   1.485   1.900   6.969
 9754SOL    HW130161   1.560   1.850   7.013
 9754SOL    HW230162   1.438   1.956   0.014
 9755SOL     OW30163   4.057   3.815   4.763
 9755SOL    HW130164   3.970   3.778   4.795
 9755SOL    HW230165   4.075   3.902   4.807
 9756SOL     OW30166   5.943   2.683   6.346
 9756SOL    HW130167   6.010   2.722   6.409
 9756SOL    HW230168   5.976   2.690   6.253
 9757SOL     OW30169   5.715   2.587   4.162
 9757SOL    HW130170   5.798   2.531   4.158
 9757SOL    HW230171   5.661   2.574   4.079
 9758SOL     OW30172   2.876   0.580   6.875
 9758SOL    HW130173   2.781   0.557   6.854
 9758SOL    HW230174   2.892   0.568   6.973
 9759SOL     OW30175   3.071   6.749   0.929
 9759SOL    HW130176   3.154   6.695   0.940
 9759SOL    HW230177   3.063   6.816   1.003
 9760SOL     OW30178   5.706   4.306   5.980
 9760SOL    HW130179   5.732   4.383   6.038
 9760SOL    HW230180   5.682   4.227   6.037
 9761SOL     OW30181   5.348   5.453   1.849
 9761SOL    HW130182   5.355   5.551   1.828
 9761SOL    HW230183   5.330   5.441   1.946
 9762SOL     OW30184   2.737   2.327   5.135
 9762SOL    HW130185   2.742   2.392   5.210
 9762SOL    HW230186   2.681   2.365   5.061
 9763SOL     OW30187   3.098   2.062   1.765
 9763SOL    HW130188   3.170   2.055   1.834
 9763SOL    HW230189   3.033   1.987   1.776
 9764SOL     OW30190   1.209   1.812   3.135
 9764SOL    HW130191   1.187   1.897   3.087
 9764SOL    HW230192   1.200   1.827   3.234
 9765SOL     OW30193   0.360   2.392   5.844
 9765SOL    HW130194   0.386   2.331   5.919
 9765SOL    HW230195   0.433   2.397   5.777
 9766SOL     OW30196   2.615   0.119   3.182
 9766SOL    HW130197   2.607   0.211   3.144
 9766SOL    HW230198   2.690   0.071   3.137
 9767SOL     OW30199   5.053   0.715   5.363
 9767SOL    HW130200   4.957   0.743   5.363
 9767SOL    HW230201   5.075   0.675   5.274
 9768SOL     OW30202   4.580   2.190   2.585
 9768SOL    HW130203   4.548   2.256   2.653
 9768SOL    HW230204   4.631   2.238   2.514
 9769SOL     OW30205   1.151   1.926   0.891
 9769SOL    HW130206   1.182   1.833   0.913
 9769SOL    HW230207   1.180   1.950   0.798
 9770SOL     OW30208   5.507   4.545   5.619
 9770SOL    HW130209   5.541   4.468   5.671
 9770SOL    HW230210   5.419   4.522   5.577
 9771SOL     OW30211   3.971   5.541   5.900
 9771SOL    HW130212   3.975   5.611   5.971
 9771SOL    HW230213   3.911   5.572   5.826
 9772SOL     OW30214   0.195   0.503   1.958
 9772SOL    HW130215   0.292   0.511   1.981
 9772SOL    HW230216   0.183   0.429   1.891
 9773SOL     OW30217   6.360   5.381   3.805
 9773SOL    HW130218   6.293   5.321   3.849
 9773SOL    HW230219   6.397   5.445   3.872
 9774SOL     OW30220   6.192   4.842   3.889
 9774SOL    HW130221   6.189   4.749   3.927
 9774SOL    HW230222   6.247   4.901   3.948
 9775SOL     OW30223   2.043   2.367   4.841
 9775SOL    HW130224   1.995   2.444   4.883
 9775SOL    HW230225   1.979   2.313   4.786
 9776SOL     OW30226   6.959   5.760   4.474
 9776SOL    HW130227   6.994   5.773   4.381
 9776SOL    HW230228   7.003   5.679   4.515
 9777SOL     OW30229   5.409   4.320   6.116
 9777SOL    HW130230   5.309   4.314   6.117
 9777SOL    HW230231   5.448   4.229   6.110
 9778SOL     OW30232   5.165   6.858   2.741
 9778SOL    HW130233   5.256   6.900   2.729
 9778SOL    HW230234   5.144   6.801   2.661
 9779SOL     OW30235   2.768   1.870   5.577
 9779SOL    HW130236   2.830   1.803   5.535
 9779SOL    HW230237   2.818   1.955   5.594
 9780SOL     OW30238   2.665   4.282   0.363
 9780SOL    HW130239   2.662   4.229   0.278
 9780SOL    HW230240   2.677   4.220   0.440
 9781SOL     OW30241   2.500   5.055   4.923
 9781SOL    HW130242   2.502   5.154   4.903
 9781SOL    HW230243   2.535   5.006   4.843
 9782SOL     OW30244   6.238   0.245   1.583
 9782SOL    HW130245   6.225   0.312   1.657
 9782SOL    HW230246   6.335   0.240   1.560
 9783SOL     OW30247   5.505   1.405   1.904
 9783SOL    HW130248   5.458   1.321   1.931
 9783SOL    HW230249   5.441   1.482   1.909
 9784SOL     OW30250   4.635   0.907   3.053
 9784SOL    HW130251   4.722   0.878   3.013
 9784SOL    HW230252   4.599   0.835   3.112
 9785SOL     OW30253   0.638   2.479   2.072
 9785SOL    HW130254   0.637   2.576   2.048
 9785SOL    HW230255   0.672   2.426   1.993
 9786SOL     OW30256   3.010   5.929   5.161
 9786SOL    HW130257   3.098   5.921   5.207
 9786SOL    HW230258   3.020   5.984   5.078
 9787SOL     OW30259   4.970   4.213   2.030
 9787SOL    HW130260   5.057   4.224   1.982
 9787SOL    HW230261   4.901   4.272   1.990
 9788SOL     OW30262   6.415   0.701   5.346
 9788SOL    HW130263   6.387   0.653   5.429
 9788SOL    HW230264   6.352   0.679   5.272
 9789SOL     OW30265   2.553   5.278   5.180
 9789SOL    HW130266   2.617   5.211   5.143
 9789SOL    HW230267   2.519   5.247   5.268
 9790SOL     OW30268   5.879   2.242   4.197
 9790SOL    HW130269   5.915   2.297   4.273
 9790SOL    HW230270   5.869   2.299   4.116
 9791SOL     OW30271   0.650   1.760   1.817
 9791SOL    HW130272   0.665   1.840   1.874
 9791SOL    HW230273   0.713   1.763   1.739
 9792SOL     OW30274   4.399   4.879   0.864
 9792SOL    HW130275   4.429   4.818   0.937
 9792SOL    HW230276   4.456   4.961   0.863
 9793SOL     OW30277   5.658   5.771   2.300
 9793SOL    HW130278   5.731   5.705   2.315
 9793SOL    HW230279   5.696   5.853   2.257
 9794SOL     OW30280   4.806   3.045   6.447
 9794SOL    HW130281   4.810   3.069   6.350
 9794SOL    HW230282   4.746   2.966   6.459
 9795SOL     OW30283   1.864   3.410   3.883
 9795SOL    HW130284   1.775   3.437   3.919
 9795SOL    HW230285   1.863   3.313   3.860
 9796SOL     OW30286   2.826   5.129   0.328
 9796SOL    HW130287   2.735   5.147   0.292
 9796SOL    HW230288   2.844   5.031   0.327
 9797SOL     OW30289   4.659   3.433   5.959
 9797SOL    HW130290   4.601   3.509   5.932
 9797SOL    HW230291   4.746   3.438   5.911
 9798SOL     OW30292   2.472   1.551   1.108
 9798SOL    HW130293   2.486   1.461   1.067
 9798SOL    HW230294   2.394   1.548   1.171
 9799SOL     OW30295   2.953   3.250   2.700
 9799SOL    HW130296   3.034   3.309   2.710
 9799SOL    HW230297   2.903   3.276   2.617
 9800SOL     OW30298   4.407   4.939   6.330
 9800SOL    HW130299   4.461   4.988   6.398
 9800SOL    HW230300   4.450   4.947   6.240
 9801SOL     OW30301   3.966   5.949   6.555
 9801SOL    HW130302   3.982   5.876   6.622
 9801SOL    HW230303   4.030   5.940   6.479
 9802SOL     OW30304   6.647   3.459   0.580
 9802SOL    HW130305   6.567   3.443   0.521
 9802SOL    HW230306   6.645   3.396   0.657
 9803SOL     OW30307   6.050   0.689   6.562
 9803SOL    HW130308   6.116   0.620   6.589
 9803SOL    HW230309   5.998   0.657   6.482
 9804SOL     OW30310   6.206   6.062   4.356
 9804SOL    HW130311   6.240   6.011   4.276
 9804SOL    HW230312   6.117   6.025   4.383
 9805SOL     OW30313   1.701   5.316   0.074
 9805SOL    HW130314   1.698   5.240   0.008
 9805SOL    HW230315   1.640   5.296   0.151
 9806SOL     OW30316   0.141   2.011   2.987
 9806SOL    HW130317   0.115   2.048   3.076
 9806SOL    HW230318   0.197   2.078   2.937
 9807SOL     OW30319   4.059   2.509   0.760
 9807SOL    HW130320   4.042   2.417   0.797
 9807SOL    HW230321   3.991   2.573   0.796
 9808SOL     OW30322   0.564   1.536   4.726
 9808SOL    HW130323   0.537   1.469   4.796
 9808SOL    HW230324   0.557   1.494   4.636
 9809SOL     OW30325   0.589   0.762   4.713
 9809SOL    HW130326   0.520   0.834   4.726
 9809SOL    HW230327   0.610   0.753   4.615
 9810SOL     OW30328   3.654   0.851   3.318
 9810SOL    HW130329   3.740   0.863   3.367
 9810SOL    HW230330   3.673   0.830   3.222
 9811SOL     OW30331   0.430   7.001   2.381
 9811SOL    HW130332   0.510   6.951   2.413
 9811SOL    HW230333   0.410   6.977   2.286
 9812SOL     OW30334   4.956   2.809   6.131
 9812SOL    HW130335   4.860   2.783   6.137
 9812SOL    HW230336   4.964   2.891   6.073
 9813SOL     OW30337   6.598   4.391   0.339
 9813SOL    HW130338   6.629   4.406   0.433
 9813SOL    HW230339   6.637   4.461   0.279
 9814SOL     OW30340   6.815   0.122   5.920
 9814SOL    HW130341   6.878   0.131   5.997
 9814SOL    HW230342   6.839   0.041   5.866
 9815SOL     OW30343   5.706   3.417   2.254
 9815SOL    HW130344   5.802   3.447   2.251
 9815SOL    HW230345   5.667   3.419   2.162
 9816SOL     OW30346   6.724   6.674   6.760
 9816SOL    HW130347   6.777   6.743   6.810
 9816SOL    HW230348   6.743   6.583   6.799
 9817SOL     OW30349   2.649   6.287   0.186
 9817SOL    HW130350   2.734   6.300   0.135
 9817SOL    HW230351   2.594   6.216   0.141
 9818SOL     OW30352   0.852   6.701   3.630
 9818SOL    HW130353   0.834   6.719   3.533
 9818SOL    HW230354   0.877   6.787   3.675
 9819SOL     OW30355   0.190   3.641   4.912
 9819SOL    HW130356   0.120   3.571   4.896
 9819SOL    HW230357   0.224   3.674   4.824
 9820SOL     OW30358   3.593   1.805   5.921
 9820SOL    HW130359   3.687   1.788   5.951
 9820SOL    HW230360   3.565   1.897   5.948
 9821SOL     OW30361   4.416   2.453   1.862
 9821SOL    HW130362   4.399   2.426   1.767
 9821SOL    HW230363   4.513   2.442   1.883
 9822SOL     OW30364   3.594   6.265   5.172
 9822SOL    HW130365   3.657   6.261   5.095
 9822SOL    HW230366   3.507   6.222   5.147
 9823SOL     OW30367   1.988   0.438   3.230
 9823SOL    HW130368   1.928   0.433   3.310
 9823SOL    HW230369   1.971   0.360   3.170
 9824SOL     OW30370   0.836   5.902   5.135
 9824SOL    HW130371   0.830   5.803   5.146
 9824SOL    HW230372   0.931   5.931   5.138
 9825SOL     OW30373   5.340   6.198   5.584
 9825SOL    HW130374   5.285   6.241   5.656
 9825SOL    HW230375   5.432   6.238   5.583
 9826SOL     OW30376   1.984   6.454   5.490
 9826SOL    HW130377   2.058   6.403   5.534
 9826SOL    HW230378   1.947   6.521   5.553
 9827SOL     OW30379   1.267   5.713   1.739
 9827SOL    HW130380   1.307   5.644   1.679
 9827SOL    HW230381   1.241   5.671   1.826
 9828SOL     OW30382   4.115   2.212   4.629
 9828SOL    HW130383   4.196   2.268   4.642
 9828SOL    HW230384   4.142   2.119   4.605
 9829SOL     OW30385   4.680   5.250   5.109
 9829SOL    HW130386   4.655   5.329   5.054
 9829SOL    HW230387   4.604   5.185   5.110
 9830SOL     OW30388   5.957   2.581   2.523
 9830SOL    HW130389   5.898   2.634   2.584
 9830SOL    HW230390   5.953   2.485   2.548
 9831SOL     OW30391   0.506   4.024   2.914
 9831SOL    HW130392   0.575   3.976   2.860
 9831SOL    HW230393   0.470   4.101   2.862
 9832SOL     OW30394   4.503   4.650   4.570
 9832SOL    HW130395   4.405   4.651   4.551
 9832SOL    HW230396   4.528   4.731   4.624
 9833SOL     OW30397   3.473   4.189   3.964
 9833SOL    HW130398   3.404   4.145   3.906
 9833SOL    HW230399   3.429   4.261   4.017
 9834SOL     OW30400   2.543   5.944   5.757
 9834SOL    HW130401   2.485   5.862   5.761
 9834SOL    HW230402   2.487   6.025   5.770
 9835SOL     OW30403   3.723   4.156   4.080
 9835SOL    HW130404   3.788   4.129   4.009
 9835SOL    HW230405   3.644   4.200   4.038
 9836SOL     OW30406   0.097   3.633   5.717
 9836SOL    HW130407   0.052   3.702   5.660
 9836SOL    HW230408   0.130   3.559   5.659
 9837SOL     OW30409   5.385   2.173   3.238
 9837SOL    HW130410   5.382   2.074   3.251
 9837SOL    HW230411   5.386   2.193   3.140
 9838SOL     OW30412   1.357   6.930   1.421
 9838SOL    HW130413   1.334   6.861   1.490
 9838SOL    HW230414   1.442   6.976   1.448
 9839SOL     OW30415   4.637   0.428   3.356
 9839SOL    HW130416   4.702   0.353   3.367
 9839SOL    HW230417   4.558   0.397   3.303
 9840SOL     OW30418   6.131   0.945   7.006
 9840SOL    HW130419   6.147   0.846   7.006
 9840SOL    HW230420   6.173   0.985   0.064
 9841SOL     OW30421   0.569   6.316   3.437
 9841SOL    HW130422   0.601   6.356   3.523
 9841SOL    HW230423   0.579   6.217   3.441
 9842SOL     OW30424   2.640   1.873   6.637
 9842SOL    HW130425   2.621   1.960   6.591
 9842SOL    HW230426   2.738   1.855   6.635
 9843SOL     OW30427   1.079   0.495   1.375
 9843SOL    HW130428   1.040   0.527   1.288
 9843SOL    HW230429   1.044   0.552   1.450
 9844SOL     OW30430   4.936   6.751   4.324
 9844SOL    HW130431   5.021   6.803   4.314
 9844SOL    HW230432   4.944   6.664   4.275
 9845SOL     OW30433   1.840   3.766   1.952
 9845SOL    HW130434   1.870   3.819   1.873
 9845SOL    HW230435   1.819   3.828   2.028
 9846SOL     OW30436   5.637   2.373   0.858
 9846SOL    HW130437   5.643   2.275   0.839
 9846SOL    HW230438   5.551   2.409   0.822
 9847SOL     OW30439   4.073   4.009   6.881
 9847SOL    HW130440   4.151   3.953   6.851
 9847SOL    HW230441   3.992   3.983   6.829
 9848SOL     OW30442   3.298   3.714   5.555
 9848SOL    HW130443   3.328   3.706   5.650
 9848SOL    HW230444   3.370   3.756   5.500
 9849SOL     OW30445   0.676   1.797   4.694
 9849SOL    HW130446   0.622   1.716   4.718
 9849SOL    HW230447   0.632   1.846   4.619
 9850SOL     OW30448   1.049   0.361   4.565
 9850SOL    HW130449   0.966   0.375   4.510
 9850SOL    HW230450   1.110   0.298   4.517
 9851SOL     OW30451   3.724   4.954   4.339
 9851SOL    HW130452   3.804   4.923   4.289
 9851SOL    HW230453   3.746   5.036   4.391
 9852SOL     OW30454   2.162   0.752   6.952
 9852SOL    HW130455   2.234   0.791   7.009
 9852SOL    HW230456   2.204   0.711   6.871
 9853SOL     OW30457   6.703   4.640   3.491
 9853SOL    HW130458   6.784   4.657   3.547
 9853SOL    HW230459   6.628   4.608   3.549
 9854SOL     OW30460   0.881   4.602   6.033
 9854SOL    HW130461   0.785   4.630   6.040
 9854SOL    HW230462   0.913   4.614   5.939
 9855SOL     OW30463   1.154   4.774   1.464
 9855SOL    HW130464   1.165   4.687   1.417
 9855SOL    HW230465   1.207   4.845   1.417
 9856SOL     OW30466   5.860   4.081   3.275
 9856SOL    HW130467   5.936   4.116   3.221
 9856SOL    HW230468   5.779   4.138   3.260
 9857SOL     OW30469   3.466   0.756   5.180
 9857SOL    HW130470   3.512   0.710   5.256
 9857SOL    HW230471   3.449   0.690   5.106
 9858SOL     OW30472   6.065   6.669   2.682
 9858SOL    HW130473   6.124   6.600   2.724
 9858SOL    HW230474   5.994   6.696   2.747
 9859SOL     OW30475   0.191   6.046   3.683
 9859SOL    HW130476   0.110   6.097   3.651
 9859SOL    HW230477   0.267   6.110   3.694
 9860SOL     OW30478   1.401   2.927   4.168
 9860SOL    HW130479   1.493   2.955   4.141
 9860SOL    HW230480   1.336   2.997   4.138
 9861SOL     OW30481   3.472   1.575   3.568
 9861SOL    HW130482   3.414   1.622   3.634
 9861SOL    HW230483   3.481   1.631   3.486
 9862SOL     OW30484   1.061   5.245   0.613
 9862SOL    HW130485   0.970   5.256   0.572
 9862SOL    HW230486   1.052   5.203   0.703
 9863SOL     OW30487   3.525   5.718   0.864
 9863SOL    HW130488   3.497   5.624   0.885
 9863SOL    HW230489   3.485   5.781   0.931
 9864SOL     OW30490   2.943   5.254   5.920
 9864SOL    HW130491   2.902   5.303   5.998
 9864SOL    HW230492   2.885   5.265   5.840
 9865SOL     OW30493   0.233   6.017   5.448
 9865SOL    HW130494   0.152   5.966   5.419
 9865SOL    HW230495   0.235   6.106   5.404
 9866SOL     OW30496   6.066   4.308   5.215
 9866SOL    HW130497   5.996   4.263   5.160
 9866SOL    HW230498   6.079   4.401   5.182
 9867SOL     OW30499   4.552   1.974   1.698
 9867SOL    HW130500   4.536   2.055   1.642
 9867SOL    HW230501   4.494   1.978   1.779
 9868SOL     OW30502   2.119   3.591   3.521
 9868SOL    HW130503   2.141   3.674   3.572
 9868SOL    HW230504   2.146   3.601   3.425
 9869SOL     OW30505   6.220   3.029   1.054
 9869SOL    HW130506   6.270   2.943   1.063
 9869SOL    HW230507   6.270   3.102   1.100
 9870SOL     OW30508   2.959   1.089   2.743
 9870SOL    HW130509   3.044   1.077   2.692
 9870SOL    HW230510   2.918   1.000   2.762
 9871SOL     OW30511   6.792   4.446   4.493
 9871SOL    HW130512   6.771   4.434   4.396
 9871SOL    HW230513   6.869   4.386   4.518
 9872SOL     OW30514   0.952   4.928   6.141
 9872SOL    HW130515   0.968   4.845   6.088
 9872SOL    HW230516   0.917   4.999   6.080
 9873SOL     OW30517   1.023   1.652   6.147
 9873SOL    HW130518   1.006   1.732   6.203
 9873SOL    HW230519   1.071   1.679   6.063
 9874SOL     OW30520   0.368   2.501   4.679
 9874SOL    HW130521   0.451   2.447   4.688
 9874SOL    HW230522   0.390   2.590   4.641
 9875SOL     OW30523   6.613   5.633   0.980
 9875SOL    HW130524   6.597   5.622   1.078
 9875SOL    HW230525   6.531   5.670   0.937
 9876SOL     OW30526   1.769   6.503   3.991
 9876SOL    HW130527   1.767   6.583   3.930
 9876SOL    HW230528   1.675   6.473   4.009
 9877SOL     OW30529   0.696   4.916   5.023
 9877SOL    HW130530   0.779   4.860   5.015
 9877SOL    HW230531   0.694   4.982   4.948
 9878SOL     OW30532   2.197   2.772   6.922
 9878SOL    HW130533   2.286   2.807   6.891
 9878SOL    HW230534   2.181   2.802   7.016
 9879SOL     OW30535   6.844   5.353   6.342
 9879SOL    HW130536   6.808   5.268   6.305
 9879SOL    HW230537   6.815   5.364   6.437
 9880SOL     OW30538   3.087   1.403   0.047
 9880SOL    HW130539   3.012   1.372   0.105
 9880SOL    HW230540   3.105   1.500   0.065
 9881SOL     OW30541   6.084   0.694   4.067
 9881SOL    HW130542   6.105   0.787   4.039
 9881SOL    HW230543   6.110   0.681   4.163
 9882SOL     OW30544   3.150   2.985   4.760
 9882SOL    HW130545   3.074   2.920   4.756
 9882SOL    HW230546   3.119   3.076   4.733
 9883SOL     OW30547   2.244   7.020   1.747
 9883SOL    HW130548   2.270   7.006   1.842
 9883SOL    HW230549   2.281   6.945   1.691
 9884SOL     OW30550   2.616   3.669   5.652
 9884SOL    HW130551   2.567   3.601   5.598
 9884SOL    HW230552   2.703   3.690   5.608
 9885SOL     OW30553   5.457   2.963   5.105
 9885SOL    HW130554   5.464   2.937   5.202
 9885SOL    HW230555   5.361   2.979   5.082
 9886SOL     OW30556   4.266   5.768   1.135
 9886SOL    HW130557   4.361   5.753   1.161
 9886SOL    HW230558   4.246   5.718   1.051
 9887SOL     OW30559   3.074   6.978   6.533
 9887SOL    HW130560   3.134   6.909   6.575
 9887SOL    HW230561   3.122   7.018   6.454
 9888SOL     OW30562   6.571   6.691   3.172
 9888SOL    HW130563   6.662   6.655   3.191
 9888SOL    HW230564   6.510   6.671   3.249
 9889SOL     OW30565   6.940   5.584   3.600
 9889SOL    HW130566   6.994   5.500   3.614
 9889SOL    HW230567   6.952   5.645   3.678
 9890SOL     OW30568   0.599   3.829   2.029
 9890SOL    HW130569   0.657   3.901   1.992
 9890SOL    HW230570   0.511   3.868   2.056
 9891SOL     OW30571   5.332   5.399   0.723
 9891SOL    HW130572   5.392   5.476   0.747
 9891SOL    HW230573   5.289   5.417   0.634
 9892SOL     OW30574   1.864   4.548   3.967
 9892SOL    HW130575   1.870   4.531   4.066
 9892SOL    HW230576   1.920   4.627   3.943
 9893SOL     OW30577   5.442   5.330   3.656
 9893SOL    HW130578   5.468   5.276   3.736
 9893SOL    HW230579   5.520   5.338   3.594
 9894SOL     OW30580   4.006   3.396   5.765
 9894SOL    HW130581   3.957   3.310   5.776
 9894SOL    HW230582   4.104   3.380   5.774
 9895SOL     OW30583   5.388   1.926   6.976
 9895SOL    HW130584   5.460   1.994   6.962
 9895SOL    HW230585   5.347   1.901   6.888
 9896SOL     OW30586   4.077   4.132   0.420
 9896SOL    HW130587   4.142   4.056   0.419
 9896SOL    HW230588   4.051   4.153   0.514
 9897SOL     OW30589   0.103   1.868   3.773
 9897SOL    HW130590   0.123   1.870   3.675
 9897SOL    HW230591   0.006   1.846   3.787
 9898SOL     OW30592   1.192   5.187   5.131
 9898SOL    HW130593   1.247   5.244   5.069
 9898SOL    HW230594   1.160   5.243   5.207
 9899SOL     OW30595   5.746   4.834   1.895
 9899SOL    HW130596   5.815   4.761   1.904
 9899SOL    HW230597   5.770   4.893   1.819
 9900SOL     OW30598   0.788   3.606   3.652
 9900SOL    HW130599   0.728   3.575   3.725
 9900SOL    HW230600   0.736   3.660   3.586
 9901SOL     OW30601   3.090   2.055   5.416
 9901SOL    HW130602   3.052   2.129   5.359
 9901SOL    HW230603   3.043   2.054   5.504
 9902SOL     OW30604   4.537   4.149   6.715
 9902SOL    HW130605   4.531   4.077   6.783
 9902SOL    HW230606   4.458   4.210   6.724
 9903SOL     OW30607   4.000   1.571   1.385
 9903SOL    HW130608   3.946   1.535   1.461
 9903SOL    HW230609   3.993   1.671   1.384
 9904SOL     OW30610   6.352   0.561   2.034
 9904SOL    HW130611   6.391   0.558   1.942
 9904SOL    HW230612   6.294   0.481   2.047
 9905SOL     OW30613   1.372   6.536   5.397
 9905SOL    HW130614   1.296   6.514   5.458
 9905SOL    HW230615   1.369   6.633   5.373
 9906SOL     OW30616   2.988   3.053   6.146
 9906SOL    HW130617   3.074   3.098   6.166
 9906SOL    HW230618   2.964   2.993   6.223
 9907SOL     OW30619   1.995   6.675   2.803
 9907SOL    HW130620   2.009   6.686   2.705
 9907SOL    HW230621   2.061   6.731   2.853
 9908SOL     OW30622   1.163   3.341   5.491
 9908SOL    HW130623   1.104   3.333   5.571
 9908SOL    HW230624   1.238   3.276   5.497
 9909SOL     OW30625   4.295   6.704   2.528
 9909SOL    HW130626   4.392   6.684   2.542
 9909SOL    HW230627   4.240   6.628   2.563
 9910SOL     OW30628   0.134   3.939   1.453
 9910SOL    HW130629   0.116   3.877   1.529
 9910SOL    HW230630   0.220   3.987   1.469
 9911SOL     OW30631   3.004   4.824   3.612
 9911SOL    HW130632   2.931   4.756   3.622
 9911SOL    HW230633   2.965   4.909   3.575
 9912SOL     OW30634   4.766   0.118   1.402
 9912SOL    HW130635   4.839   0.052   1.386
 9912SOL    HW230636   4.713   0.091   1.482
 9913SOL     OW30637   4.615   1.938   2.695
 9913SOL    HW130638   4.593   2.028   2.657
 9913SOL    HW230639   4.708   1.913   2.669
 9914SOL     OW30640   1.619   6.472   5.531
 9914SOL    HW130641   1.613   6.537   5.607
 9914SOL    HW230642   1.540   6.484   5.471
 9915SOL     OW30643   5.149   3.913   4.562
 9915SOL    HW130644   5.216   3.977   4.526
 9915SOL    HW230645   5.057   3.950   4.550
 9916SOL     OW30646   2.293   3.097   1.405
 9916SOL    HW130647   2.295   3.030   1.479
 9916SOL    HW230648   2.321   3.186   1.441
 9917SOL     OW30649   2.008   3.220   5.587
 9917SOL    HW130650   1.949   3.216   5.507
 9917SOL    HW230651   2.010   3.313   5.623
 9918SOL     OW30652   1.479   1.135   5.092
 9918SOL    HW130653   1.562   1.146   5.147
 9918SOL    HW230654   1.399   1.160   5.147
 9919SOL     OW30655   0.428   5.250   2.913
 9919SOL    HW130656   0.429   5.152   2.930
 9919SOL    HW230657   0.521   5.286   2.912
 9920SOL     OW30658   4.709   6.820   1.535
 9920SOL    HW130659   4.796   6.789   1.573
 9920SOL    HW230660   4.671   6.892   1.592
 9921SOL     OW30661   5.311   0.115   2.532
 9921SOL    HW130662   5.339   0.039   2.592
 9921SOL    HW230663   5.285   0.194   2.588
 9922SOL     OW30664   4.475   3.087   1.345
 9922SOL    HW130665   4.461   3.106   1.442
 9922SOL    HW230666   4.507   2.993   1.334
 9923SOL     OW30667   6.641   1.958   6.418
 9923SOL    HW130668   6.643   2.056   6.399
 9923SOL    HW230669   6.546   1.928   6.429
 9924SOL     OW30670   6.092   0.602   3.005
 9924SOL    HW130671   6.113   0.546   3.085
 9924SOL    HW230672   6.131   0.694   3.018
 9925SOL     OW30673   2.280   2.782   4.874
 9925SOL    HW130674   2.306   2.853   4.940
 9925SOL    HW230675   2.348   2.709   4.876
 9926SOL     OW30676   1.313   1.140   0.230
 9926SOL    HW130677   1.387   1.160   0.294
 9926SOL    HW230678   1.350   1.095   0.149
 9927SOL     OW30679   0.855   2.488   2.623
 9927SOL    HW130680   0.861   2.422   2.548
 9927SOL    HW230681   0.873   2.441   2.710
 9928SOL     OW30682   7.001   3.096   2.876
 9928SOL    HW130683   0.032   3.079   2.958
 9928SOL    HW230684   6.998   3.194   2.856
 9929SOL     OW30685   2.082   4.210   6.346
 9929SOL    HW130686   2.104   4.308   6.349
 9929SOL    HW230687   2.066   4.177   6.439
 9930SOL     OW30688   0.425   5.882   0.102
 9930SOL    HW130689   0.449   5.787   0.123
 9930SOL    HW230690   0.366   5.884   0.021
 9931SOL     OW30691   2.571   5.872   6.521
 9931SOL    HW130692   2.478   5.854   6.490
 9931SOL    HW230693   2.572   5.953   6.581
 9932SOL     OW30694   1.982   2.464   0.186
 9932SOL    HW130695   2.010   2.487   0.093
 9932SOL    HW230696   1.883   2.472   0.195
 9933SOL     OW30697   1.167   2.176   3.541
 9933SOL    HW130698   1.163   2.132   3.631
 9933SOL    HW230699   1.239   2.244   3.541
 9934SOL     OW30700   3.682   1.140   6.076
 9934SOL    HW130701   3.672   1.240   6.075
 9934SOL    HW230702   3.595   1.098   6.049
 9935SOL     OW30703   2.461   2.020   0.899
 9935SOL    HW130704   2.479   2.100   0.956
 9935SOL    HW230705   2.422   1.947   0.956
 9936SOL     OW30706   5.988   6.516   5.724
 9936SOL    HW130707   5.932   6.536   5.804
 9936SOL    HW230708   5.966   6.425   5.689
 9937SOL     OW30709   0.374   0.264   3.561
 9937SOL    HW130710   0.323   0.233   3.480
 9937SOL    HW230711   0.390   0.187   3.622
 9938SOL     OW30712   0.089   1.469   3.631
 9938SOL    HW130713   0.096   1.377   3.595
 9938SOL    HW230714   0.055   1.531   3.560
 9939SOL     OW30715   3.294   4.404   1.258
 9939SOL    HW130716   3.207   4.408   1.306
 9939SOL    HW230717   3.296   4.325   1.197
 9940SOL     OW30718   0.115   0.795   3.400
 9940SOL    HW130719   0.158   0.721   3.451
 9940SOL    HW230720   0.147   0.793   3.305
 9941SOL     OW30721   5.245   4.848   6.845
 9941SOL    HW130722   5.213   4.849   6.940
 9941SOL    HW230723   5.233   4.939   6.805
 9942SOL     OW30724   4.853   4.847   2.823
 9942SOL    HW130725   4.821   4.781   2.892
 9942SOL    HW230726   4.803   4.832   2.737
 9943SOL     OW30727   2.289   3.958   6.376
 9943SOL    HW130728   2.219   3.969   6.447
 9943SOL    HW230729   2.301   3.860   6.356
 9944SOL     OW30730   0.620   4.914   6.276
 9944SOL    HW130731   0.549   4.965   6.324
 9944SOL    HW230732   0.663   4.850   6.340
 9945SOL     OW30733   6.069   3.222   6.041
 9945SOL    HW130734   6.065   3.257   6.135
 9945SOL    HW230735   6.154   3.171   6.029
 9946SOL     OW30736   5.717   1.493   1.747
 9946SOL    HW130737   5.687   1.555   1.675
 9946SOL    HW230738   5.639   1.469   1.805
 9947SOL     OW30739   1.281   1.841   3.827
 9947SOL    HW130740   1.250   1.935   3.815
 9947SOL    HW230741   1.318   1.807   3.741
 9948SOL     OW30742   5.709   0.123   4.275
 9948SOL    HW130743   5.661   0.069   4.206
 9948SOL    HW230744   5.644   0.185   4.321
 9949SOL     OW30745   6.069   4.844   4.382
 9949SOL    HW130746   6.145   4.909   4.384
 9949SOL    HW230747   6.073   4.791   4.297
 9950SOL     OW30748   5.633   4.079   5.344
 9950SOL    HW130749   5.652   3.998   5.290
 9950SOL    HW230750   5.716   4.135   5.352
 9951SOL     OW30751   0.492   2.225   3.670
 9951SOL    HW130752   0.409   2.217   3.726
 9951SOL    HW230753   0.473   2.190   3.578
 9952SOL     OW30754   0.689   5.083   1.890
 9952SOL    HW130755   0.686   5.167   1.943
 9952SOL    HW230756   0.771   5.030   1.913
 9953SOL     OW30757   5.853   2.304   3.597
 9953SOL    HW130758   5.939   2.258   3.572
 9953SOL    HW230759   5.787   2.293   3.523
 9954SOL     OW30760   3.711   1.409   6.087
 9954SOL    HW130761   3.666   1.498   6.077
 9954SOL    HW230762   3.747   1.400   6.180
 9955SOL     OW30763   5.665   4.363   1.012
 9955SOL    HW130764   5.704   4.404   1.094
 9955SOL    HW230765   5.715   4.280   0.989
 9956SOL     OW30766   2.091   3.107   3.067
 9956SOL    HW130767   2.136   3.028   3.024
 9956SOL    HW230768   2.129   3.121   3.158
 9957SOL     OW30769   5.023   0.056   1.052
 9957SOL    HW130770   4.928   0.076   1.077
 9957SOL    HW230771   5.051   6.993   1.095
 9958SOL     OW30772   5.393   5.977   0.131
 9958SOL    HW130773   5.460   5.918   0.176
 9958SOL    HW230774   5.330   5.922   0.078
 9959SOL     OW30775   4.978   4.404   0.695
 9959SOL    HW130776   5.016   4.489   0.657
 9959SOL    HW230777   4.999   4.329   0.632
 9960SOL     OW30778   0.341   0.356   6.837
 9960SOL    HW130779   0.350   0.306   6.923
 9960SOL    HW230780   0.244   0.356   6.809
 9961SOL     OW30781   2.849   5.275   1.401
 9961SOL    HW130782   2.943   5.243   1.385
 9961SOL    HW230783   2.836   5.363   1.357
 9962SOL     OW30784   3.305   0.346   1.518
 9962SOL    HW130785   3.251   0.270   1.480
 9962SOL    HW230786   3.391   0.310   1.554
 9963SOL     OW30787   0.652   1.088   6.386
 9963SOL    HW130788   0.578   1.021   6.395
 9963SOL    HW230789   0.653   1.124   6.293
 9964SOL     OW30790   4.513   4.202   5.980
 9964SOL    HW130791   4.550   4.211   5.887
 9964SOL    HW230792   4.418   4.234   5.981
 9965SOL     OW30793   2.730   5.602   4.284
 9965SOL    HW130794   2.804   5.600   4.216
 9965SOL    HW230795   2.721   5.513   4.327
 9966SOL     OW30796   3.931   4.889   2.285
 9966SOL    HW130797   3.891   4.911   2.374
 9966SOL    HW230798   3.858   4.879   2.217
 9967SOL     OW30799   6.885   0.437   2.746
 9967SOL    HW130800   6.871   0.501   2.822
 9967SOL    HW230801   6.918   0.350   2.782
 9968SOL     OW30802   3.336   6.797   0.249
 9968SOL    HW130803   3.380   6.845   0.325
 9968SOL    HW230804   3.379   6.708   0.237
 9969SOL     OW30805   1.843   5.693   3.309
 9969SOL    HW130806   1.885   5.774   3.267
 9969SOL    HW230807   1.807   5.716   3.399
 9970SOL     OW30808   6.512   3.588   1.286
 9970SOL    HW130809   6.425   3.552   1.319
 9970SOL    HW230810   6.502   3.684   1.261
 9971SOL     OW30811   0.869   5.149   3.299
 9971SOL    HW130812   0.794   5.120   3.358
 9971SOL    HW230813   0.863   5.101   3.211
 9972SOL     OW30814   2.812   3.768   6.459
 9972SOL    HW130815   2.859   3.825   6.526
 9972SOL    HW230816   2.726   3.810   6.434
 9973SOL     OW30817   2.853   2.064   3.565
 9973SOL    HW130818   2.772   2.117   3.587
 9973SOL    HW230819   2.827   1.981   3.516
 9974SOL     OW30820   1.487   3.057   2.754
 9974SOL    HW130821   1.449   2.991   2.689
 9974SOL    HW230822   1.473   3.023   2.847
 9975SOL     OW30823   1.921   5.211   6.907
 9975SOL    HW130824   1.957   5.303   6.924
 9975SOL    HW230825   1.996   5.146   6.901
 9976SOL     OW30826   3.196   4.217   6.394
 9976SOL    HW130827   3.175   4.267   6.478
 9976SOL    HW230828   3.114   4.170   6.363
 9977SOL     OW30829   5.011   6.617   5.462
 9977SOL    HW130830   4.958   6.647   5.541
 9977SOL    HW230831   5.101   6.587   5.492
 9978SOL     OW30832   0.940   3.322   6.597
 9978SOL    HW130833   0.930   3.312   6.498
 9978SOL    HW230834   0.880   3.396   6.629
 9979SOL     OW30835   3.802   3.301   4.912
 9979SOL    HW130836   3.902   3.306   4.915
 9979SOL    HW230837   3.770   3.333   4.823
 9980SOL     OW30838   2.038   1.692   0.830
 9980SOL    HW130839   2.004   1.724   0.741
 9980SOL    HW230840   2.004   1.752   0.902
 9981SOL     OW30841   6.983   2.872   1.655
 9981SOL    HW130842   6.912   2.926   1.610
 9981SOL    HW230843   0.021   2.833   1.586
 9982SOL     OW30844   2.029   1.968   4.765
 9982SOL    HW130845   2.058   2.062   4.782
 9982SOL    HW230846   2.044   1.913   4.847
 9983SOL     OW30847   0.887   2.525   2.218
 9983SOL    HW130848   0.794   2.520   2.182
 9983SOL    HW230849   0.890   2.590   2.294
 9984SOL     OW30850   0.347   5.896   1.226
 9984SOL    HW130851   0.437   5.862   1.255
 9984SOL    HW230852   0.321   5.974   1.283
 9985SOL     OW30853   3.991   4.867   0.421
 9985SOL    HW130854   3.970   4.844   0.326
 9985SOL    HW230855   3.916   4.921   0.459
 9986SOL     OW30856   5.546   5.149   6.927
 9986SOL    HW130857   5.508   5.070   6.976
 9986SOL    HW230858   5.525   5.233   6.979
 9987SOL     OW30859   5.170   2.723   1.113
 9987SOL    HW130860   5.127   2.706   1.025
 9987SOL    HW230861   5.162   2.642   1.171
 9988SOL     OW30862   5.261   6.436   4.390
 9988SOL    HW130863   5.349   6.465   4.428
 9988SOL    HW230864   5.189   6.496   4.424
 9989SOL     OW30865   6.369   5.300   2.517
 9989SOL    HW130866   6.448   5.346   2.477
 9989SOL    HW230867   6.305   5.275   2.444
 9990SOL     OW30868   0.751   6.747   3.960
 9990SOL    HW130869   0.811   6.771   3.884
 9990SOL    HW230870   0.668   6.703   3.925
 9991SOL     OW30871   1.585   4.816   3.348
 9991SOL    HW130872   1.607   4.724   3.315
 9991SOL    HW230873   1.644   4.882   3.302
 9992SOL     OW30874   3.470   4.987   0.892
 9992SOL    HW130875   3.488   5.028   0.803
 9992SOL    HW230876   3.542   4.921   0.913
 9993SOL     OW30877   3.706   6.638   4.506
 9993SOL    HW130878   3.712   6.625   4.407
 9993SOL    HW230879   3.611   6.657   4.531
 9994SOL     OW30880   6.572   4.450   4.658
 9994SOL    HW130881   6.645   4.456   4.589
 9994SOL    HW230882   6.493   4.402   4.619
 9995SOL     OW30883   2.963   0.635   4.833
 9995SOL    HW130884   2.933   0.681   4.750
 9995SOL    HW230885   3.037   0.571   4.811
 9996SOL     OW30886   2.747   3.235   1.037
 9996SOL    HW130887   2.757   3.328   1.001
 9996SOL    HW230888   2.681   3.236   1.113
 9997SOL     OW30889   6.145   2.785   3.677
 9997SOL    HW130890   6.238   2.811   3.654
 9997SOL    HW230891   6.146   2.720   3.753
 9998SOL     OW30892   4.954   4.469   2.745
 9998SOL    HW130893   4.991   4.397   2.803
 9998SOL    HW230894   4.995   4.557   2.769
 9999SOL     OW30895   1.090   6.113   3.592
 9999SOL    HW130896   0.998   6.139   3.564
 9999SOL    HW230897   1.100   6.125   3.691
10000SOL     OW30898   5.591   1.932   1.547
10000SOL    HW130899   5.613   1.995   1.473
10000SOL    HW230900   5.547   1.981   1.622
10001SOL     OW30901   4.047   6.178   1.920
10001SOL    HW130902   4.079   6.267   1.887
10001SOL    HW230903   4.036   6.181   2.020
10002SOL     OW30904   2.850   0.915   1.864
10002SOL    HW130905   2.924   0.980   1.845
10002SOL    HW230906   2.889   0.824   1.879
10003SOL     OW30907   1.519   0.833   3.871
10003SOL    HW130908   1.512   0.821   3.970
10003SOL    HW230909   1.440   0.884   3.838
10004SOL     OW30910   6.071   4.006   4.916
10004SOL    HW130911   5.977   4.000   4.883
10004SOL    HW230912   6.073   3.989   5.015
10005SOL     OW30913   2.014   5.508   3.359
10005SOL    HW130914   2.032   5.441   3.286
10005SOL    HW230915   1.940   5.569   3.329
10006SOL     OW30916   5.465   0.506   5.200
10006SOL    HW130917   5.395   0.435   5.193
10006SOL    HW230918   5.514   0.495   5.287
10007SOL     OW30919   1.894   5.051   4.229
10007SOL    HW130920   1.802   5.043   4.191
10007SOL    HW230921   1.925   4.961   4.260
10008SOL     OW30922   4.465   1.350   6.296
10008SOL    HW130923   4.468   1.439   6.250
10008SOL    HW230924   4.381   1.344   6.351
10009SOL     OW30925   1.070   3.161   1.946
10009SOL    HW130926   1.157   3.208   1.961
10009SOL    HW230927   1.005   3.188   2.018
10010SOL     OW30928   2.241   4.236   0.185
10010SOL    HW130929   2.200   4.229   0.094
10010SOL    HW230930   2.288   4.150   0.207
10011SOL     OW30931   1.077   3.577   0.456
10011SOL    HW130932   1.041   3.561   0.364
10011SOL    HW230933   1.161   3.525   0.468
10012SOL     OW30934   4.977   1.522   2.666
10012SOL    HW130935   5.020   1.545   2.578
10012SOL    HW230936   4.927   1.601   2.701
10013SOL     OW30937   0.550   6.225   4.614
10013SOL    HW130938   0.578   6.225   4.710
10013SOL    HW230939   0.519   6.317   4.589
10014SOL     OW30940   0.528   6.985   3.036
10014SOL    HW130941   0.487   6.899   3.066
10014SOL    HW230942   0.479   0.039   3.077
10015SOL     OW30943   4.125   4.438   5.770
10015SOL    HW130944   4.037   4.448   5.724
10015SOL    HW230945   4.182   4.372   5.721
10016SOL     OW30946   2.842   6.985   2.751
10016SOL    HW130947   2.787   7.011   2.831
10016SOL    HW230948   2.897   0.039   2.722
10017SOL     OW30949   2.724   1.576   2.988
10017SOL    HW130950   2.795   1.647   2.983
10017SOL    HW230951   2.761   1.495   3.032
10018SOL     OW30952   6.339   2.653   6.277
10018SOL    HW130953   6.333   2.576   6.341
10018SOL    HW230954   6.425   2.702   6.291
10019SOL     OW30955   0.480   1.713   2.812
10019SOL    HW130956   0.506   1.622   2.845
10019SOL    HW230957   0.521   1.783   2.871
10020SOL     OW30958   6.703   0.541   2.133
10020SOL    HW130959   6.605   0.534   2.116
10020SOL    HW230960   6.754   0.504   2.056
10021SOL     OW30961   1.037   3.948   2.164
10021SOL    HW130962   1.029   3.956   2.065
10021SOL    HW230963   0.967   4.005   2.207
10022SOL     OW30964   2.579   6.017   0.514
10022SOL    HW130965   2.614   5.977   0.429
10022SOL    HW230966   2.525   6.098   0.492
10023SOL     OW30967   1.685   6.952   5.731
10023SOL    HW130968   1.763   7.000   5.691
10023SOL    HW230969   1.693   6.955   5.831
10024SOL     OW30970   1.700   4.605   3.012
10024SOL    HW130971   1.668   4.565   3.098
10024SOL    HW230972   1.658   4.556   2.935
10025SOL     OW30973   1.240   4.305   1.724
10025SOL    HW130974   1.166   4.280   1.785
10025SOL    HW230975   1.276   4.223   1.679
10026SOL     OW30976   5.446   1.664   4.214
10026SOL    HW130977   5.384   1.645   4.291
10026SOL    HW230978   5.401   1.728   4.151
10027SOL     OW30979   1.981   1.813   5.933
10027SOL    HW130980   1.917   1.890   5.934
10027SOL    HW230981   2.031   1.812   5.846
10028SOL     OW30982   4.640   0.378   1.584
10028SOL    HW130983   4.573   0.399   1.655
10028SOL    HW230984   4.597   0.383   1.494
10029SOL     OW30985   0.102   3.186   4.843
10029SOL    HW130986   0.111   3.134   4.928
10029SOL    HW230987   0.190   3.188   4.796
10030SOL     OW30988   3.006   0.118   4.507
10030SOL    HW130989   2.940   0.059   4.554
10030SOL    HW230990   3.076   0.148   4.573
10031SOL     OW30991   3.091   4.945   4.329
10031SOL    HW130992   3.164   4.951   4.261
10031SOL    HW230993   3.130   4.924   4.418
10032SOL     OW30994   2.999   6.164   4.584
10032SOL    HW130995   3.001   6.111   4.499
10032SOL    HW230996   3.091   6.170   4.622
10033SOL     OW30997   4.005   1.702   2.694
10033SOL    HW130998   3.919   1.732   2.735
10033SOL    HW230999   4.032   1.766   2.622
10034SOL     OW31000   2.630   0.502   3.533
10034SOL    HW131001   2.662   0.586   3.576
10034SOL    HW231002   2.707   0.456   3.489
10035SOL     OW31003   6.025   3.130   1.786
10035SOL    HW131004   5.949   3.097   1.842
10035SOL    HW231005   6.088   3.182   1.843
10036SOL     OW31006   6.336   0.596   6.481
10036SOL    HW131007   6.348   0.499   6.459
10036SOL    HW231008   6.282   0.606   6.565
10037SOL     OW31009   6.332   6.933   6.799
10037SOL    HW131010   6.357   7.014   6.852
10037SOL    HW231011   6.383   6.854   6.832
10038SOL     OW31012   4.304   0.305   6.949
10038SOL    HW131013   4.322   0.253   0.010
10038SOL    HW231014   4.385   0.302   6.891
10039SOL     OW31015   6.060   5.226   3.739
10039SOL    HW131016   6.139   5.272   3.779
10039SOL    HW231017   6.026   5.280   3.661
10040SOL     OW31018   3.530   0.373   0.065
10040SOL    HW131019   3.612   0.410   0.021
10040SOL    HW231020   3.524   0.275   0.046
10041SOL     OW31021   6.699   4.851   4.902
10041SOL    HW131022   6.789   4.889   4.880
10041SOL    HW231023   6.683   4.769   4.847
10042SOL     OW31024   0.083   0.125   4.875
10042SOL    HW131025   0.165   0.182   4.878
10042SOL    HW231026   0.009   0.170   4.924
10043SOL     OW31027   1.172   1.218   3.027
10043SOL    HW131028   1.230   1.280   3.080
10043SOL    HW231029   1.147   1.261   2.940
10044SOL     OW31030   2.539   1.465   5.637
10044SOL    HW131031   2.490   1.545   5.673
10044SOL    HW231032   2.548   1.473   5.538
10045SOL     OW31033   4.386   6.435   4.721
10045SOL    HW131034   4.373   6.391   4.632
10045SOL    HW231035   4.450   6.511   4.711
10046SOL     OW31036   0.128   2.285   2.072
10046SOL    HW131037   0.031   2.290   2.046
10046SOL    HW231038   0.161   2.192   2.061
10047SOL     OW31039   6.570   1.809   5.198
10047SOL    HW131040   6.607   1.741   5.135
10047SOL    HW231041   6.560   1.897   5.151
10048SOL     OW31042   3.482   1.881   1.709
10048SOL    HW131043   3.413   1.826   1.757
10048SOL    HW231044   3.536   1.822   1.650
10049SOL     OW31045   2.024   0.605   6.291
10049SOL    HW131046   1.977   0.523   6.324
10049SOL    HW231047   1.988   0.686   6.340
10050SOL     OW31048   4.836   2.572   4.534
10050SOL    HW131049   4.827   2.526   4.446
10050SOL    HW231050   4.922   2.545   4.577
10051SOL     OW31051   6.143   2.615   4.808
10051SOL    HW131052   6.210   2.621   4.734
10051SOL    HW231053   6.053   2.644   4.774
10052SOL     OW31054   1.454   3.336   1.685
10052SOL    HW131055   1.470   3.390   1.768
10052SOL    HW231056   1.530   3.272   1.671
10053SOL     OW31057   3.436   4.915   3.774
10053SOL    HW131058   3.490   4.907   3.858
10053SOL    HW231059   3.493   4.953   3.701
10054SOL     OW31060   3.769   5.499   5.403
10054SOL    HW131061   3.846   5.539   5.352
10054SOL    HW231062   3.716   5.440   5.342
10055SOL     OW31063   6.646   2.005   5.004
10055SOL    HW131064   6.582   2.057   5.061
10055SOL    HW231065   6.717   2.067   4.971
10056SOL     OW31066   6.658   4.698   1.658
10056SOL    HW131067   6.664   4.694   1.558
10056SOL    HW231068   6.727   4.761   1.693
10057SOL     OW31069   4.096   1.970   4.301
10057SOL    HW131070   4.133   1.988   4.392
10057SOL    HW231071   4.007   1.925   4.309
10058SOL     OW31072   0.181   5.242   4.166
10058SOL    HW131073   0.101   5.291   4.131
10058SOL    HW231074   0.253   5.242   4.097
10059SOL     OW31075   5.105   0.723   0.834
10059SOL    HW131076   5.084   0.801   0.894
10059SOL    HW231077   5.168   0.661   0.881
10060SOL     OW31078   2.996   2.302   1.665
10060SOL    HW131079   2.972   2.364   1.740
10060SOL    HW231080   3.010   2.210   1.702
10061SOL     OW31081   5.993   1.229   4.255
10061SOL    HW131082   5.925   1.224   4.328
10061SOL    HW231083   5.951   1.268   4.173
10062SOL     OW31084   6.255   5.872   3.525
10062SOL    HW131085   6.287   5.827   3.608
10062SOL    HW231086   6.205   5.955   3.550
10063SOL     OW31087   1.048   3.480   3.659
10063SOL    HW131088   1.124   3.544   3.670
10063SOL    HW231089   0.963   3.531   3.651
10064SOL     OW31090   4.995   5.646   4.402
10064SOL    HW131091   4.983   5.580   4.327
10064SOL    HW231092   4.907   5.690   4.421
10065SOL     OW31093   1.009   6.499   2.858
10065SOL    HW131094   1.082   6.431   2.863
10065SOL    HW231095   0.922   6.457   2.885
10066SOL     OW31096   0.816   7.006   4.239
10066SOL    HW131097   0.819   0.017   4.145
10066SOL    HW231098   0.746   0.032   4.290
10067SOL     OW31099   4.738   4.480   3.994
10067SOL    HW131100   4.835   4.482   3.969
10067SOL    HW231101   4.694   4.566   3.966
10068SOL     OW31102   5.339   2.879   4.342
10068SOL    HW131103   5.438   2.895   4.344
10068SOL    HW231104   5.291   2.963   4.366
10069SOL     OW31105   3.046   0.941   3.722
10069SOL    HW131106   3.046   0.943   3.622
10069SOL    HW231107   3.017   1.030   3.757
10070SOL     OW31108   0.876   6.145   4.888
10070SOL    HW131109   0.904   6.183   4.976
10070SOL    HW231110   0.919   6.195   4.814
10071SOL     OW31111   5.058   5.471   4.181
10071SOL    HW131112   5.158   5.464   4.177
10071SOL    HW231113   5.021   5.389   4.223
10072SOL     OW31114   0.299   6.477   3.395
10072SOL    HW131115   0.276   6.557   3.339
10072SOL    HW231116   0.386   6.439   3.365
10073SOL     OW31117   6.482   4.715   5.376
10073SOL    HW131118   6.413   4.762   5.322
10073SOL    HW231119   6.439   4.642   5.430
10074SOL     OW31120   1.308   0.306   6.332
10074SOL    HW131121   1.387   0.244   6.331
10074SOL    HW231122   1.335   0.394   6.294
10075SOL     OW31123   1.512   2.574   3.455
10075SOL    HW131124   1.521   2.603   3.359
10075SOL    HW231125   1.601   2.582   3.500
10076SOL     OW31126   4.853   0.066   4.619
10076SOL    HW131127   4.771   0.095   4.668
10076SOL    HW231128   4.913   0.015   4.681
10077SOL     OW31129   3.870   2.588   6.283
10077SOL    HW131130   3.956   2.537   6.280
10077SOL    HW231131   3.888   2.684   6.302
10078SOL     OW31132   5.851   6.881   5.182
10078SOL    HW131133   5.767   6.866   5.130
10078SOL    HW231134   5.848   6.970   5.227
10079SOL     OW31135   1.217   2.979   1.290
10079SOL    HW131136   1.121   2.984   1.264
10079SOL    HW231137   1.233   3.037   1.370
10080SOL     OW31138   2.083   2.650   0.339
10080SOL    HW131139   2.183   2.642   0.344
10080SOL    HW231140   2.045   2.571   0.291
10081SOL     OW31141   0.449   0.160   6.694
10081SOL    HW131142   0.422   0.240   6.748
10081SOL    HW231143   0.458   0.186   6.598
10082SOL     OW31144   6.060   1.983   1.681
10082SOL    HW131145   6.104   2.016   1.764
10082SOL    HW231146   6.113   1.908   1.642
10083SOL     OW31147   4.070   0.095   3.851
10083SOL    HW131148   4.139   0.066   3.916
10083SOL    HW231149   4.038   0.187   3.874
10084SOL     OW31150   2.478   1.219   5.808
10084SOL    HW131151   2.396   1.178   5.769
10084SOL    HW231152   2.500   1.304   5.760
10085SOL     OW31153   0.874   5.294   3.004
10085SOL    HW131154   0.833   5.217   3.053
10085SOL    HW231155   0.911   5.359   3.071
10086SOL     OW31156   6.423   4.737   1.962
10086SOL    HW131157   6.339   4.717   2.013
10086SOL    HW231158   6.475   4.652   1.950
10087SOL     OW31159   1.271   0.760   4.341
10087SOL    HW131160   1.192   0.754   4.281
10087SOL    HW231161   1.352   0.728   4.293
10088SOL     OW31162   1.037   6.295   4.697
10088SOL    HW131163   1.040   6.222   4.629
10088SOL    HW231164   1.125   6.343   4.698
10089SOL     OW31165   2.673   1.625   2.691
10089SOL    HW131166   2.707   1.623   2.785
10089SOL    HW231167   2.729   1.687   2.637
10090SOL     OW31168   0.864   4.313   0.614
10090SOL    HW131169   0.841   4.393   0.670
10090SOL    HW231170   0.792   4.297   0.547
10091SOL     OW31171   0.960   3.687   4.419
10091SOL    HW131172   1.034   3.639   4.466
10091SOL    HW231173   0.873   3.641   4.438
10092SOL     OW31174   1.656   3.109   5.166
10092SOL    HW131175   1.692   3.151   5.083
10092SOL    HW231176   1.623   3.017   5.146
10093SOL     OW31177   0.065   5.437   5.191
10093SOL    HW131178   0.088   5.511   5.253
10093SOL    HW231179   0.084   5.349   5.235
10094SOL     OW31180   2.806   0.855   2.501
10094SOL    HW131181   2.861   0.935   2.476
10094SOL    HW231182   2.710   0.880   2.508
10095SOL     OW31183   7.008   1.413   6.217
10095SOL    HW131184   0.005   1.464   6.300
10095SOL    HW231185   6.913   1.430   6.190
10096SOL     OW31186   0.191   5.193   2.702
10096SOL    HW131187   0.206   5.282   2.745
10096SOL    HW231188   0.278   5.158   2.667
10097SOL     OW31189   0.892   1.276   0.965
10097SOL    HW131190   0.844   1.301   1.050
10097SOL    HW231191   0.989   1.266   0.984
10098SOL     OW31192   1.925   6.094   5.894
10098SOL    HW131193   1.996   6.159   5.867
10098SOL    HW231194   1.940   6.066   5.989
10099SOL     OW31195   6.971   3.636   5.132
10099SOL    HW131196   6.949   3.601   5.041
10099SOL    HW231197   0.017   3.707   5.124
10100SOL     OW31198   4.793   1.018   4.898
10100SOL    HW131199   4.701   1.041   4.867
10100SOL    HW231200   4.861   1.066   4.843
10101SOL     OW31201   6.971   4.703   2.401
10101SOL    HW131202   6.978   4.800   2.421
10101SOL    HW231203   6.884   4.684   2.355
10102SOL     OW31204   3.442   1.250   2.209
10102SOL    HW131205   3.520   1.207   2.256
10102SOL    HW231206   3.463   1.345   2.190
10103SOL     OW31207   2.720   1.117   5.180
10103SOL    HW131208   2.772   1.043   5.138
10103SOL    HW231209   2.657   1.156   5.113
10104SOL     OW31210   1.131   4.619   5.423
10104SOL    HW131211   1.035   4.645   5.429
10104SOL    HW231212   1.149   4.582   5.331
10105SOL     OW31213   1.854   1.134   6.337
10105SOL    HW131214   1.934   1.106   6.283
10105SOL    HW231215   1.885   1.176   6.423
10106SOL     OW31216   5.091   5.212   0.769
10106SOL    HW131217   5.108   5.309   0.781
10106SOL    HW231218   5.084   5.191   0.671
10107SOL     OW31219   6.140   1.304   6.084
10107SOL    HW131220   6.112   1.242   6.156
10107SOL    HW231221   6.062   1.326   6.025
10108SOL     OW31222   6.175   6.496   0.492
10108SOL    HW131223   6.103   6.547   0.539
10108SOL    HW231224   6.260   6.501   0.545
10109SOL     OW31225   5.077   5.905   3.490
10109SOL    HW131226   5.014   5.845   3.441
10109SOL    HW231227   5.157   5.923   3.433
10110SOL     OW31228   3.649   6.842   6.016
10110SOL    HW131229   3.717   6.906   5.979
10110SOL    HW231230   3.643   6.762   5.957
10111SOL     OW31231   6.635   3.227   3.417
10111SOL    HW131232   6.706   3.163   3.447
10111SOL    HW231233   6.561   3.177   3.374
10112SOL     OW31234   5.125   4.006   5.090
10112SOL    HW131235   5.204   3.970   5.140
10112SOL    HW231236   5.145   4.006   4.992
10113SOL     OW31237   3.993   0.921   0.003
10113SOL    HW131238   4.082   0.934   0.046
10113SOL    HW231239   3.926   0.892   0.071
10114SOL     OW31240   5.139   1.467   6.881
10114SOL    HW131241   5.132   1.384   6.936
10114SOL    HW231242   5.233   1.481   6.852
10115SOL     OW31243   2.040   2.590   3.798
10115SOL    HW131244   1.963   2.528   3.781
10115SOL    HW231245   2.013   2.683   3.774
10116SOL     OW31246   0.544   0.005   0.901
10116SOL    HW131247   0.531   0.063   0.981
10116SOL    HW231248   0.530   6.932   0.927
10117SOL     OW31249   6.251   0.518   4.998
10117SOL    HW131250   6.319   0.446   5.008
10117SOL    HW231251   6.226   0.553   5.088
10118SOL     OW31252   6.958   5.474   2.845
10118SOL    HW131253   0.029   5.496   2.869
10118SOL    HW231254   6.896   5.537   2.892
10119SOL     OW31255   2.379   0.394   5.058
10119SOL    HW131256   2.477   0.377   5.068
10119SOL    HW231257   2.365   0.486   5.023
10120SOL     OW31258   0.736   3.232   3.889
10120SOL    HW131259   0.708   3.137   3.873
10120SOL    HW231260   0.832   3.243   3.861
10121SOL     OW31261   6.438   4.825   5.043
10121SOL    HW131262   6.459   4.743   4.990
10121SOL    HW231263   6.383   4.800   5.123
10122SOL     OW31264   4.886   2.768   0.254
10122SOL    HW131265   4.852   2.725   0.338
10122SOL    HW231266   4.864   2.865   0.255
10123SOL     OW31267   0.541   6.176   0.935
10123SOL    HW131268   0.635   6.146   0.951
10123SOL    HW231269   0.513   6.151   0.843
10124SOL     OW31270   2.998   4.242   0.187
10124SOL    HW131271   2.914   4.209   0.144
10124SOL    HW231272   2.993   4.341   0.201
10125SOL     OW31273   1.978   0.952   3.096
10125SOL    HW131274   2.033   0.965   3.013
10125SOL    HW231275   1.937   0.861   3.094
10126SOL     OW31276   6.446   5.554   0.085
10126SOL    HW131277   6.507   5.520   0.156
10126SOL    HW231278   6.451   5.653   0.081
10127SOL     OW31279   3.155   5.451   5.645
10127SOL    HW131280   3.182   5.514   5.572
10127SOL    HW231281   3.097   5.379   5.606
10128SOL     OW31282   6.955   1.519   0.753
10128SOL    HW131283   0.032   1.509   0.751
10128SOL    HW231284   6.918   1.473   0.834
10129SOL     OW31285   5.128   2.633   3.911
10129SOL    HW131286   5.125   2.637   3.811
10129SOL    HW231287   5.036   2.647   3.947
10130SOL     OW31288   1.017   5.578   2.668
10130SOL    HW131289   0.976   5.669   2.673
10130SOL    HW231290   1.107   5.585   2.624
10131SOL     OW31291   0.674   1.857   2.290
10131SOL    HW131292   0.618   1.837   2.209
10131SOL    HW231293   0.620   1.837   2.372
10132SOL     OW31294   3.683   6.585   2.985
10132SOL    HW131295   3.604   6.588   3.046
10132SOL    HW231296   3.727   6.675   2.981
10133SOL     OW31297   4.299   6.370   3.621
10133SOL    HW131298   4.260   6.394   3.532
10133SOL    HW231299   4.396   6.396   3.624
10134SOL     OW31300   6.177   1.113   3.369
10134SOL    HW131301   6.261   1.128   3.317
10134SOL    HW231302   6.199   1.083   3.462
10135SOL     OW31303   4.737   4.202   2.681
10135SOL    HW131304   4.780   4.271   2.623
10135SOL    HW231305   4.765   4.111   2.651
10136SOL     OW31306   6.019   0.101   3.509
10136SOL    HW131307   6.058   0.186   3.545
10136SOL    HW231308   6.075   0.024   3.539
10137SOL     OW31309   6.453   5.696   4.714
10137SOL    HW131310   6.484   5.610   4.674
10137SOL    HW231311   6.527   5.763   4.711
10138SOL     OW31312   5.450   2.400   0.459
10138SOL    HW131313   5.481   2.465   0.389
10138SOL    HW231314   5.353   2.379   0.444
10139SOL     OW31315   3.686   2.891   3.064
10139SOL    HW131316   3.684   2.885   2.964
10139SOL    HW231317   3.625   2.823   3.103
10140SOL     OW31318   6.307   5.781   6.846
10140SOL    HW131319   6.363   5.786   6.928
10140SOL    HW231320   6.352   5.725   6.777
10141SOL     OW31321   2.510   1.852   4.620
10141SOL    HW131322   2.556   1.914   4.684
10141SOL    HW231323   2.417   1.884   4.604
10142SOL     OW31324   4.663   6.629   5.114
10142SOL    HW131325   4.579   6.679   5.093
10142SOL    HW231326   4.717   6.680   5.181
10143SOL     OW31327   4.416   0.028   1.458
10143SOL    HW131328   4.343   0.089   1.490
10143SOL    HW231329   4.484   0.017   1.530
10144SOL     OW31330   3.497   5.724   5.780
10144SOL    HW131331   3.446   5.675   5.851
10144SOL    HW231332   3.442   5.726   5.696
10145SOL     OW31333   2.974   5.997   6.216
10145SOL    HW131334   2.965   6.071   6.149
10145SOL    HW231335   2.884   5.976   6.255
10146SOL     OW31336   3.341   5.271   4.587
10146SOL    HW131337   3.275   5.206   4.549
10146SOL    HW231338   3.352   5.254   4.685
10147SOL     OW31339   4.608   4.335   4.158
10147SOL    HW131340   4.674   4.375   4.095
10147SOL    HW231341   4.566   4.407   4.213
10148SOL     OW31342   6.052   5.753   0.547
10148SOL    HW131343   5.968   5.785   0.503
10148SOL    HW231344   6.070   5.659   0.521
10149SOL     OW31345   4.792   1.542   0.497
10149SOL    HW131346   4.754   1.449   0.493
10149SOL    HW231347   4.892   1.538   0.495
10150SOL     OW31348   4.778   4.059   0.859
10150SOL    HW131349   4.852   4.013   0.908
10150SOL    HW231350   4.790   4.045   0.761
10151SOL     OW31351   1.076   6.938   6.645
10151SOL    HW131352   1.126   6.968   6.563
10151SOL    HW231353   0.981   6.969   6.638
10152SOL     OW31354   1.631   5.013   4.102
10152SOL    HW131355   1.693   5.064   4.042
10152SOL    HW231356   1.538   5.046   4.089
10153SOL     OW31357   4.572   6.033   3.668
10153SOL    HW131358   4.575   5.979   3.751
10153SOL    HW231359   4.648   6.098   3.667
10154SOL     OW31360   6.504   6.294   6.034
10154SOL    HW131361   6.573   6.361   6.063
10154SOL    HW231362   6.536   6.247   5.952
10155SOL     OW31363   4.032   0.961   6.125
10155SOL    HW131364   4.036   0.866   6.094
10155SOL    HW231365   3.988   1.018   6.055
10156SOL     OW31366   5.726   6.902   2.545
10156SOL    HW131367   5.786   6.829   2.515
10156SOL    HW231368   5.779   6.984   2.565
10157SOL     OW31369   5.659   1.898   5.671
10157SOL    HW131370   5.750   1.940   5.680
10157SOL    HW231371   5.626   1.911   5.577
10158SOL     OW31372   4.918   3.932   6.994
10158SOL    HW131373   4.953   3.995   0.041
10158SOL    HW231374   4.906   3.842   0.011
10159SOL     OW31375   2.709   2.892   6.059
10159SOL    HW131376   2.801   2.872   6.093
10159SOL    HW231377   2.716   2.939   5.971
10160SOL     OW31378   0.961   4.568   2.862
10160SOL    HW131379   1.004   4.529   2.781
10160SOL    HW231380   0.884   4.625   2.835
10161SOL     OW31381   3.414   4.875   0.544
10161SOL    HW131382   3.391   4.794   0.597
10161SOL    HW231383   3.457   4.943   0.603
10162SOL     OW31384   2.596   3.693   0.015
10162SOL    HW131385   2.519   3.648   0.059
10162SOL    HW231386   2.655   3.624   6.996
10163SOL     OW31387   5.895   4.344   6.402
10163SOL    HW131388   5.985   4.299   6.403
10163SOL    HW231389   5.824   4.277   6.424
10164SOL     OW31390   6.647   3.161   4.883
10164SOL    HW131391   6.597   3.232   4.932
10164SOL    HW231392   6.729   3.201   4.841
10165SOL     OW31393   0.959   2.048   4.439
10165SOL    HW131394   0.959   2.123   4.504
10165SOL    HW231395   1.053   2.016   4.424
10166SOL     OW31396   3.618   1.007   1.995
10166SOL    HW131397   3.612   0.995   1.896
10166SOL    HW231398   3.541   0.961   2.039
10167SOL     OW31399   5.570   0.900   6.445
10167SOL    HW131400   5.510   0.858   6.514
10167SOL    HW231401   5.564   0.999   6.451
10168SOL     OW31402   6.623   3.681   5.210
10168SOL    HW131403   6.627   3.777   5.239
10168SOL    HW231404   6.716   3.648   5.191
10169SOL     OW31405   6.665   4.418   3.277
10169SOL    HW131406   6.722   4.475   3.337
10169SOL    HW231407   6.598   4.476   3.232
10170SOL     OW31408   0.837   4.363   5.771
10170SOL    HW131409   0.914   4.426   5.768
10170SOL    HW231410   0.868   4.272   5.800
10171SOL     OW31411   6.576   3.747   6.144
10171SOL    HW131412   6.664   3.780   6.177
10171SOL    HW231413   6.589   3.667   6.085
10172SOL     OW31414   5.893   0.293   2.859
10172SOL    HW131415   5.906   0.298   2.958
10172SOL    HW231416   5.965   0.345   2.813
10173SOL     OW31417   1.746   2.690   1.024
10173SOL    HW131418   1.840   2.687   1.058
10173SOL    HW231419   1.689   2.741   1.089
10174SOL     OW31420   5.479   4.477   2.976
10174SOL    HW131421   5.431   4.436   2.898
10174SOL    HW231422   5.537   4.552   2.943
10175SOL     OW31423   6.514   2.796   4.203
10175SOL    HW131424   6.435   2.824   4.257
10175SOL    HW231425   6.482   2.752   4.118
10176SOL     OW31426   1.261   3.176   5.810
10176SOL    HW131427   1.241   3.256   5.867
10176SOL    HW231428   1.176   3.129   5.786
10177SOL     OW31429   2.932   0.253   0.277
10177SOL    HW131430   2.999   0.328   0.279
10177SOL    HW231431   2.951   0.190   0.352
10178SOL     OW31432   6.210   3.011   4.663
10178SOL    HW131433   6.149   3.063   4.604
10178SOL    HW231434   6.205   3.046   4.757
10179SOL     OW31435   0.701   2.213   6.128
10179SOL    HW131436   0.783   2.228   6.182
10179SOL    HW231437   0.664   2.122   6.149
10180SOL     OW31438   2.792   5.051   6.154
10180SOL    HW131439   2.781   4.996   6.237
10180SOL    HW231440   2.860   5.008   6.095
10181SOL     OW31441   5.315   3.577   2.180
10181SOL    HW131442   5.255   3.650   2.210
10181SOL    HW231443   5.309   3.567   2.080
10182SOL     OW31444   5.804   1.314   1.583
10182SOL    HW131445   5.903   1.302   1.581
10182SOL    HW231446   5.781   1.389   1.646
10183SOL     OW31447   1.442   2.366   6.712
10183SOL    HW131448   1.454   2.323   6.622
10183SOL    HW231449   1.349   2.350   6.744
10184SOL     OW31450   4.640   1.927   6.086
10184SOL    HW131451   4.587   1.842   6.077
10184SOL    HW231452   4.701   1.919   6.165
10185SOL     OW31453   4.884   6.519   0.890
10185SOL    HW131454   4.967   6.467   0.911
10185SOL    HW231455   4.908   6.598   0.834
10186SOL     OW31456   6.015   3.120   3.577
10186SOL    HW131457   5.976   3.194   3.523
10186SOL    HW231458   5.977   3.032   3.547
10187SOL     OW31459   0.514   1.723   2.099
10187SOL    HW131460   0.417   1.711   2.078
10187SOL    HW231461   0.568   1.696   2.020
10188SOL     OW31462   3.893   6.179   0.114
10188SOL    HW131463   3.813   6.193   0.055
10188SOL    HW231464   3.976   6.186   0.059
10189SOL     OW31465   2.551   0.238   5.698
10189SOL    HW131466   2.569   0.148   5.737
10189SOL    HW231467   2.636   0.290   5.691
10190SOL     OW31468   4.880   2.234   1.262
10190SOL    HW131469   4.812   2.295   1.303
10190SOL    HW231470   4.856   2.218   1.166
10191SOL     OW31471   4.893   4.618   6.963
10191SOL    HW131472   4.865   4.714   6.973
10191SOL    HW231473   4.974   4.614   6.905
10192SOL     OW31474   4.136   0.839   4.936
10192SOL    HW131475   4.215   0.781   4.961
10192SOL    HW231476   4.156   0.888   4.852
10193SOL     OW31477   4.211   3.951   1.581
10193SOL    HW131478   4.199   3.865   1.631
10193SOL    HW231479   4.256   3.933   1.494
10194SOL     OW31480   6.068   4.346   4.873
10194SOL    HW131481   6.160   4.334   4.910
10194SOL    HW231482   6.028   4.431   4.908
10195SOL     OW31483   5.772   4.597   1.266
10195SOL    HW131484   5.851   4.650   1.296
10195SOL    HW231485   5.744   4.534   1.338
10196SOL     OW31486   5.875   1.581   4.462
10196SOL    HW131487   5.900   1.616   4.372
10196SOL    HW231488   5.866   1.657   4.526
10197SOL     OW31489   0.067   1.473   4.797
10197SOL    HW131490   0.042   1.476   4.700
10197SOL    HW231491   0.046   1.561   4.839
10198SOL     OW31492   4.038   0.612   2.365
10198SOL    HW131493   4.030   0.623   2.266
10198SOL    HW231494   3.948   0.617   2.407
10199SOL     OW31495   1.357   2.346   6.132
10199SOL    HW131496   1.448   2.318   6.103
10199SOL    HW231497   1.365   2.421   6.198
10200SOL     OW31498   4.808   2.558   1.030
10200SOL    HW131499   4.895   2.578   0.985
10200SOL    HW231500   4.818   2.571   1.129
10201SOL     OW31501   1.080   4.418   0.468
10201SOL    HW131502   1.117   4.400   0.559
10201SOL    HW231503   1.018   4.345   0.441
10202SOL     OW31504   4.151   1.785   5.723
10202SOL    HW131505   4.117   1.790   5.817
10202SOL    HW231506   4.248   1.760   5.724
10203SOL     OW31507   5.248   2.700   4.606
10203SOL    HW131508   5.322   2.708   4.672
10203SOL    HW231509   5.269   2.756   4.526
10204SOL     OW31510   5.062   6.458   6.861
10204SOL    HW131511   5.126   6.535   6.854
10204SOL    HW231512   5.112   6.372   6.850
10205SOL     OW31513   0.330   1.684   0.124
10205SOL    HW131514   0.404   1.746   0.148
10205SOL    HW231515   0.289   1.646   0.207
10206SOL     OW31516   0.951   1.132   5.904
10206SOL    HW131517   0.860   1.149   5.867
10206SOL    HW231518   0.992   1.053   5.857
10207SOL     OW31519   1.232   1.537   6.497
10207SOL    HW131520   1.283   1.451   6.492
10207SOL    HW231521   1.159   1.537   6.429
10208SOL     OW31522   5.308   5.482   4.776
10208SOL    HW131523   5.255   5.429   4.709
10208SOL    HW231524   5.286   5.450   4.868
10209SOL     OW31525   6.855   0.406   6.115
10209SOL    HW131526   6.927   0.455   6.067
10209SOL    HW231527   6.863   0.308   6.097
10210SOL     OW31528   4.695   6.353   1.489
10210SOL    HW131529   4.654   6.444   1.485
10210SOL    HW231530   4.632   6.286   1.451
10211SOL     OW31531   3.968   6.408   5.126
10211SOL    HW131532   3.938   6.327   5.075
10211SOL    HW231533   3.902   6.482   5.112
10212SOL     OW31534   0.687   0.317   5.550
10212SOL    HW131535   0.776   0.342   5.587
10212SOL    HW231536   0.668   0.221   5.571
10213SOL     OW31537   5.147   2.593   0.493
10213SOL    HW131538   5.175   2.515   0.437
10213SOL    HW231539   5.050   2.613   0.478
10214SOL     OW31540   1.394   2.330   1.453
10214SOL    HW131541   1.488   2.301   1.433
10214SOL    HW231542   1.375   2.415   1.405
10215SOL     OW31543   4.133   3.763   2.507
10215SOL    HW131544   4.038   3.744   2.532
10215SOL    HW231545   4.152   3.860   2.520
10216SOL     OW31546   6.151   0.372   1.927
10216SOL    HW131547   6.053   0.352   1.931
10216SOL    HW231548   6.201   0.307   1.984
10217SOL     OW31549   3.021   0.726   3.853
10217SOL    HW131550   2.941   0.726   3.913
10217SOL    HW231551   3.020   0.809   3.797
10218SOL     OW31552   1.208   2.658   2.469
10218SOL    HW131553   1.237   2.682   2.377
10218SOL    HW231554   1.223   2.560   2.484
10219SOL     OW31555   0.697   1.307   2.134
10219SOL    HW131556   0.671   1.235   2.198
10219SOL    HW231557   0.614   1.349   2.097
10220SOL     OW31558   3.505   2.798   1.131
10220SOL    HW131559   3.564   2.769   1.055
10220SOL    HW231560   3.527   2.744   1.213
10221SOL     OW31561   0.629   6.183   2.864
10221SOL    HW131562   0.728   6.186   2.874
10221SOL    HW231563   0.594   6.273   2.837
10222SOL     OW31564   2.985   3.778   4.562
10222SOL    HW131565   3.009   3.686   4.592
10222SOL    HW231566   2.961   3.833   4.642
10223SOL     OW31567   0.763   5.600   1.066
10223SOL    HW131568   0.687   5.556   1.114
10223SOL    HW231569   0.761   5.575   0.970
10224SOL     OW31570   6.171   3.868   3.336
10224SOL    HW131571   6.208   3.916   3.256
10224SOL    HW231572   6.238   3.868   3.410
10225SOL     OW31573   1.515   3.701   5.656
10225SOL    HW131574   1.581   3.634   5.623
10225SOL    HW231575   1.423   3.663   5.651
10226SOL     OW31576   3.770   2.230   6.887
10226SOL    HW131577   3.803   2.308   6.833
10226SOL    HW231578   3.835   2.212   6.961
10227SOL     OW31579   5.367   4.005   0.726
10227SOL    HW131580   5.317   4.091   0.727
10227SOL    HW231581   5.364   3.965   0.634
10228SOL     OW31582   5.328   1.134   0.606
10228SOL    HW131583   5.348   1.054   0.663
10228SOL    HW231584   5.358   1.217   0.653
10229SOL     OW31585   0.476   3.300   5.102
10229SOL    HW131586   0.401   3.366   5.107
10229SOL    HW231587   0.449   3.216   5.150
10230SOL     OW31588   6.536   5.487   2.418
10230SOL    HW131589   6.597   5.547   2.469
10230SOL    HW231590   6.539   5.511   2.321
10231SOL     OW31591   1.726   6.842   3.186
10231SOL    HW131592   1.653   6.839   3.254
10231SOL    HW231593   1.696   6.794   3.103
10232SOL     OW31594   4.238   6.948   2.633
10232SOL    HW131595   4.226   6.951   2.732
10232SOL    HW231596   4.256   6.853   2.604
10233SOL     OW31597   3.846   4.317   6.069
10233SOL    HW131598   3.796   4.254   6.129
10233SOL    HW231599   3.864   4.272   5.981
10234SOL     OW31600   6.888   0.561   1.530
10234SOL    HW131601   6.972   0.535   1.483
10234SOL    HW231602   6.823   0.485   1.526
10235SOL     OW31603   0.987   1.219   3.252
10235SOL    HW131604   1.041   1.206   3.168
10235SOL    HW231605   1.045   1.199   3.331
10236SOL     OW31606   2.211   0.087   0.574
10236SOL    HW131607   2.282   0.149   0.539
10236SOL    HW231608   2.222   7.021   0.531
10237SOL     OW31609   0.333   3.582   6.962
10237SOL    HW131610   0.301   3.618   6.875
10237SOL    HW231611   0.432   3.565   6.957
10238SOL     OW31612   3.960   5.221   0.644
10238SOL    HW131613   3.889   5.223   0.573
10238SOL    HW231614   3.974   5.313   0.680
10239SOL     OW31615   1.441   2.814   4.725
10239SOL    HW131616   1.499   2.820   4.806
10239SOL    HW231617   1.357   2.865   4.740
10240SOL     OW31618   2.476   0.468   1.450
10240SOL    HW131619   2.402   0.429   1.505
10240SOL    HW231620   2.533   0.394   1.413
10241SOL     OW31621   4.351   2.372   1.586
10241SOL    HW131622   4.337   2.448   1.523
10241SOL    HW231623   4.262   2.341   1.620
10242SOL     OW31624   6.977   2.421   0.756
10242SOL    HW131625   0.001   2.427   0.668
10242SOL    HW231626   6.887   2.380   0.743
10243SOL     OW31627   2.556   4.761   0.613
10243SOL    HW131628   2.595   4.676   0.649
10243SOL    HW231629   2.620   4.803   0.549
10244SOL     OW31630   2.169   4.313   1.800
10244SOL    HW131631   2.213   4.284   1.886
10244SOL    HW231632   2.240   4.333   1.732
10245SOL     OW31633   3.688   4.154   0.461
10245SOL    HW131634   3.756   4.170   0.532
10245SOL    HW231635   3.602   4.198   0.486
10246SOL     OW31636   3.420   2.900   4.272
10246SOL    HW131637   3.371   2.970   4.324
10246SOL    HW231638   3.498   2.866   4.326
10247SOL     OW31639   0.851   3.910   4.639
10247SOL    HW131640   0.941   3.921   4.596
10247SOL    HW231641   0.780   3.937   4.574
10248SOL     OW31642   1.412   0.494   3.424
10248SOL    HW131643   1.475   0.550   3.369
10248SOL    HW231644   1.464   0.442   3.491
10249SOL     OW31645   2.149   4.646   6.729
10249SOL    HW131646   2.080   4.655   6.658
10249SOL    HW231647   2.161   4.735   6.775
10250SOL     OW31648   5.200   2.800   6.788
10250SOL    HW131649   5.274   2.816   6.722
10250SOL    HW231650   5.169   2.705   6.782
10251SOL     OW31651   1.574   0.517   4.303
10251SOL    HW131652   1.649   0.459   4.271
10251SOL    HW231653   1.530   0.476   4.382
10252SOL     OW31654   4.862   4.203   5.826
10252SOL    HW131655   4.946   4.220   5.776
10252SOL    HW231656   4.853   4.105   5.843
10253SOL     OW31657   4.190   6.731   0.054
10253SOL    HW131658   4.233   6.775   6.999
10253SOL    HW231659   4.199   6.632   0.046
10254SOL     OW31660   5.577   1.636   4.837
10254SOL    HW131661   5.607   1.605   4.747
10254SOL    HW231662   5.611   1.728   4.854
10255SOL     OW31663   3.358   5.608   1.608
10255SOL    HW131664   3.384   5.520   1.568
10255SOL    HW231665   3.286   5.594   1.676
10256SOL     OW31666   5.048   0.924   2.165
10256SOL    HW131667   5.114   0.976   2.111
10256SOL    HW231668   4.962   0.976   2.170
10257SOL     OW31669   2.664   5.088   2.602
10257SOL    HW131670   2.753   5.102   2.561
10257SOL    HW231671   2.657   4.994   2.635
10258SOL     OW31672   2.482   1.975   2.410
10258SOL    HW131673   2.455   1.950   2.317
10258SOL    HW231674   2.419   1.933   2.476
10259SOL     OW31675   0.668   4.335   4.081
10259SOL    HW131676   0.759   4.351   4.042
10259SOL    HW231677   0.658   4.238   4.104
10260SOL     OW31678   1.232   1.150   3.399
10260SOL    HW131679   1.269   1.146   3.491
10260SOL    HW231680   1.276   1.224   3.348
10261SOL     OW31681   6.903   3.953   0.595
10261SOL    HW131682   6.827   3.925   0.536
10261SOL    HW231683   6.908   3.893   0.675
10262SOL     OW31684   3.661   1.322   6.766
10262SOL    HW131685   3.751   1.290   6.796
10262SOL    HW231686   3.590   1.267   6.811
10263SOL     OW31687   6.048   1.029   1.592
10263SOL    HW131688   6.071   0.990   1.503
10263SOL    HW231689   6.075   1.125   1.594
10264SOL     OW31690   6.056   5.148   6.764
10264SOL    HW131691   5.963   5.117   6.785
10264SOL    HW231692   6.072   5.237   6.806
10265SOL     OW31693   2.268   2.359   6.995
10265SOL    HW131694   2.294   2.402   0.059
10265SOL    HW231695   2.305   2.266   6.992
10266SOL     OW31696   3.132   3.048   2.785
10266SOL    HW131697   3.053   3.108   2.772
10266SOL    HW231698   3.156   3.045   2.882
10267SOL     OW31699   5.748   0.991   0.704
10267SOL    HW131700   5.822   0.983   0.770
10267SOL    HW231701   5.684   0.915   0.715
10268SOL     OW31702   4.995   6.782   1.076
10268SOL    HW131703   4.926   6.732   1.023
10268SOL    HW231704   5.085   6.741   1.059
10269SOL     OW31705   1.972   2.139   6.558
10269SOL    HW131706   2.043   2.204   6.530
10269SOL    HW231707   1.894   2.188   6.595
10270SOL     OW31708   3.427   6.108   2.150
10270SOL    HW131709   3.418   6.011   2.170
10270SOL    HW231710   3.389   6.161   2.226
10271SOL     OW31711   2.369   2.206   0.605
10271SOL    HW131712   2.388   2.112   0.633
10271SOL    HW231713   2.281   2.235   0.642
10272SOL     OW31714   6.596   0.684   4.522
10272SOL    HW131715   6.504   0.722   4.534
10272SOL    HW231716   6.648   0.694   4.607
10273SOL     OW31717   2.789   5.122   4.022
10273SOL    HW131718   2.800   5.141   4.120
10273SOL    HW231719   2.799   5.023   4.007
10274SOL     OW31720   0.088   4.942   5.440
10274SOL    HW131721   0.063   4.852   5.475
10274SOL    HW231722   0.160   4.981   5.498
10275SOL     OW31723   0.693   0.556   3.107
10275SOL    HW131724   0.719   0.460   3.105
10275SOL    HW231725   0.773   0.613   3.126
10276SOL     OW31726   4.690   5.609   5.396
10276SOL    HW131727   4.753   5.637   5.324
10276SOL    HW231728   4.603   5.658   5.386
10277SOL     OW31729   1.191   6.596   4.008
10277SOL    HW131730   1.181   6.602   3.908
10277SOL    HW231731   1.256   6.523   4.030
10278SOL     OW31732   0.425   0.682   5.380
10278SOL    HW131733   0.454   0.594   5.419
10278SOL    HW231734   0.505   0.740   5.366
10279SOL     OW31735   2.323   5.124   4.056
10279SOL    HW131736   2.349   5.150   4.150
10279SOL    HW231737   2.360   5.033   4.036
10280SOL     OW31738   5.271   3.519   0.664
10280SOL    HW131739   5.255   3.600   0.608
10280SOL    HW231740   5.206   3.518   0.740
10281SOL     OW31741   6.286   2.085   3.268
10281SOL    HW131742   6.238   2.162   3.225
10281SOL    HW231743   6.235   2.001   3.252
10282SOL     OW31744   4.916   3.428   2.574
10282SOL    HW131745   4.844   3.478   2.527
10282SOL    HW231746   4.981   3.393   2.506
10283SOL     OW31747   0.426   4.330   1.101
10283SOL    HW131748   0.397   4.419   1.066
10283SOL    HW231749   0.398   4.258   1.037
10284SOL     OW31750   7.018   2.452   3.830
10284SOL    HW131751   7.010   2.378   3.897
10284SOL    HW231752   7.015   2.540   3.877
10285SOL     OW31753   4.718   6.238   3.535
10285SOL    HW131754   4.787   6.284   3.591
10285SOL    HW231755   4.751   6.229   3.441
10286SOL     OW31756   3.544   1.601   4.303
10286SOL    HW131757   3.512   1.685   4.259
10286SOL    HW231758   3.501   1.522   4.259
10287SOL     OW31759   2.060   5.983   2.108
10287SOL    HW131760   2.092   6.074   2.132
10287SOL    HW231761   2.056   5.926   2.191
10288SOL     OW31762   3.577   0.200   5.062
10288SOL    HW131763   3.624   0.258   4.996
10288SOL    HW231764   3.638   0.126   5.091
10289SOL     OW31765   2.966   6.495   0.722
10289SOL    HW131766   2.973   6.420   0.787
10289SOL    HW231767   3.048   6.552   0.727
10290SOL     OW31768   3.251   2.932   2.558
10290SOL    HW131769   3.210   2.970   2.640
10290SOL    HW231770   3.184   2.875   2.510
10291SOL     OW31771   3.392   0.806   2.463
10291SOL    HW131772   3.426   0.897   2.484
10291SOL    HW231773   3.294   0.809   2.446
10292SOL     OW31774   6.723   0.691   6.432
10292SOL    HW131775   6.686   0.754   6.363
10292SOL    HW231776   6.689   0.599   6.414
10293SOL     OW31777   0.673   3.909   3.586
10293SOL    HW131778   0.720   3.841   3.530
10293SOL    HW231779   0.687   3.888   3.683
10294SOL     OW31780   3.110   1.812   2.717
10294SOL    HW131781   3.029   1.793   2.661
10294SOL    HW231782   3.149   1.726   2.749
10295SOL     OW31783   1.106   2.592   6.790
10295SOL    HW131784   1.101   2.538   6.874
10295SOL    HW231785   1.017   2.591   6.744
10296SOL     OW31786   5.775   0.438   5.739
10296SOL    HW131787   5.786   0.520   5.683
10296SOL    HW231788   5.677   0.420   5.751
10297SOL     OW31789   3.162   2.048   6.386
10297SOL    HW131790   3.196   1.959   6.356
10297SOL    HW231791   3.070   2.063   6.349
10298SOL     OW31792   0.969   3.437   2.511
10298SOL    HW131793   1.005   3.515   2.563
10298SOL    HW231794   0.919   3.471   2.431
10299SOL     OW31795   4.733   6.428   2.170
10299SOL    HW131796   4.760   6.459   2.262
10299SOL    HW231797   4.748   6.330   2.163
10300SOL     OW31798   0.746   3.793   2.297
10300SOL    HW131799   0.830   3.741   2.290
10300SOL    HW231800   0.699   3.794   2.209
10301SOL     OW31801   4.298   1.283   6.070
10301SOL    HW131802   4.366   1.310   6.138
10301SOL    HW231803   4.326   1.314   5.980
10302SOL     OW31804   2.844   6.176   4.087
10302SOL    HW131805   2.799   6.265   4.080
10302SOL    HW231806   2.939   6.184   4.056
10303SOL     OW31807   1.149   6.060   3.854
10303SOL    HW131808   1.229   6.089   3.906
10303SOL    HW231809   1.066   6.102   3.893
10304SOL     OW31810   6.528   6.899   0.108
10304SOL    HW131811   6.495   6.828   0.046
10304SOL    HW231812   6.528   6.988   0.060
10305SOL     OW31813   2.594   3.728   5.927
10305SOL    HW131814   2.514   3.767   5.972
10305SOL    HW231815   2.568   3.693   5.838
10306SOL     OW31816   5.556   0.433   0.753
10306SOL    HW131817   5.549   0.471   0.845
10306SOL    HW231818   5.493   0.356   0.743
10307SOL     OW31819   2.814   0.950   4.554
10307SOL    HW131820   2.734   0.891   4.557
10307SOL    HW231821   2.896   0.897   4.575
10308SOL     OW31822   2.441   4.408   2.755
10308SOL    HW131823   2.427   4.407   2.656
10308SOL    HW231824   2.414   4.320   2.793
10309SOL     OW31825   6.319   0.533   5.538
10309SOL    HW131826   6.286   0.439   5.536
10309SOL    HW231827   6.308   0.571   5.630
10310SOL     OW31828   2.701   3.434   6.973
10310SOL    HW131829   2.774   3.453   0.015
10310SOL    HW231830   2.740   3.426   6.881
10311SOL     OW31831   5.696   5.808   6.708
10311SOL    HW131832   5.690   5.865   6.790
10311SOL    HW231833   5.782   5.757   6.709
10312SOL     OW31834   4.672   0.504   2.323
10312SOL    HW131835   4.674   0.410   2.288
10312SOL    HW231836   4.679   0.502   2.423
10313SOL     OW31837   4.273   5.558   2.796
10313SOL    HW131838   4.215   5.504   2.857
10313SOL    HW231839   4.365   5.566   2.835
10314SOL     OW31840   0.653   0.172   6.902
10314SOL    HW131841   0.587   0.126   6.842
10314SOL    HW231842   0.746   0.151   6.872
10315SOL     OW31843   4.929   6.555   3.839
10315SOL    HW131844   4.936   6.458   3.815
10315SOL    HW231845   5.020   6.596   3.840
10316SOL     OW31846   6.338   1.932   6.457
10316SOL    HW131847   6.287   1.890   6.532
10316SOL    HW231848   6.277   1.954   6.382
10317SOL     OW31849   3.886   6.065   6.248
10317SOL    HW131850   3.829   5.985   6.264
10317SOL    HW231851   3.952   6.074   6.323
10318SOL     OW31852   5.583   6.985   0.027
10318SOL    HW131853   5.660   6.993   0.091
10318SOL    HW231854   5.573   0.048   7.000
10319SOL     OW31855   0.127   4.966   4.893
10319SOL    HW131856   0.040   5.005   4.862
10319SOL    HW231857   0.202   5.028   4.870
10320SOL     OW31858   0.058   0.491   3.445
10320SOL    HW131859   0.007   0.544   3.513
10320SOL    HW231860   0.082   0.402   3.483
10321SOL     OW31861   5.618   2.077   2.013
10321SOL    HW131862   5.648   2.100   2.105
10321SOL    HW231863   5.590   1.981   2.010
10322SOL     OW31864   4.547   4.573   4.299
10322SOL    HW131865   4.515   4.616   4.384
10322SOL    HW231866   4.557   4.643   4.228
10323SOL     OW31867   6.038   4.219   5.523
10323SOL    HW131868   6.066   4.277   5.599
10323SOL    HW231869   6.036   4.273   5.438
10324SOL     OW31870   2.961   3.382   2.435
10324SOL    HW131871   3.027   3.311   2.411
10324SOL    HW231872   2.949   3.444   2.357
10325SOL     OW31873   0.413   5.699   2.227
10325SOL    HW131874   0.351   5.777   2.233
10325SOL    HW231875   0.462   5.688   2.314
10326SOL     OW31876   5.332   3.685   6.655
10326SOL    HW131877   5.304   3.650   6.566
10326SOL    HW231878   5.349   3.609   6.718
10327SOL     OW31879   2.645   3.826   1.004
10327SOL    HW131880   2.722   3.764   1.016
10327SOL    HW231881   2.667   3.914   1.046
10328SOL     OW31882   6.451   3.297   2.181
10328SOL    HW131883   6.419   3.323   2.090
10328SOL    HW231884   6.375   3.299   2.245
10329SOL     OW31885   3.104   0.960   3.044
10329SOL    HW131886   3.117   0.918   2.954
10329SOL    HW231887   3.185   0.943   3.101
10330SOL     OW31888   4.851   0.468   0.593
10330SOL    HW131889   4.816   0.465   0.686
10330SOL    HW231890   4.839   0.379   0.549
10331SOL     OW31891   6.145   6.679   6.850
10331SOL    HW131892   6.176   6.774   6.850
10331SOL    HW231893   6.082   6.664   6.926
10332SOL     OW31894   0.748   0.995   0.106
10332SOL    HW131895   0.688   1.054   0.160
10332SOL    HW231896   0.788   1.047   0.031
10333SOL     OW31897   0.637   5.631   4.234
10333SOL    HW131898   0.562   5.609   4.297
10333SOL    HW231899   0.635   5.729   4.213
10334SOL     OW31900   3.259   6.970   4.087
10334SOL    HW131901   3.178   6.997   4.035
10334SOL    HW231902   3.232   6.905   4.159
10335SOL     OW31903   0.323   4.622   6.408
10335SOL    HW131904   0.294   4.705   6.456
10335SOL    HW231905   0.413   4.594   6.442
10336SOL     OW31906   6.097   6.842   2.296
10336SOL    HW131907   6.173   6.864   2.357
10336SOL    HW231908   6.016   6.821   2.352
10337SOL     OW31909   6.420   5.528   6.676
10337SOL    HW131910   6.402   5.462   6.749
10337SOL    HW231911   6.462   5.481   6.598
10338SOL     OW31912   2.054   6.532   1.925
10338SOL    HW131913   2.017   6.561   1.836
10338SOL    HW231914   2.017   6.441   1.948
10339SOL     OW31915   6.452   3.187   6.035
10339SOL    HW131916   6.407   3.119   6.093
10339SOL    HW231917   6.428   3.171   5.940
10340SOL     OW31918   1.704   3.110   6.242
10340SOL    HW131919   1.692   3.122   6.143
10340SOL    HW231920   1.769   3.035   6.258
10341SOL     OW31921   2.034   3.271   2.412
10341SOL    HW131922   1.944   3.229   2.426
10341SOL    HW231923   2.022   3.367   2.385
10342SOL     OW31924   1.533   0.940   3.534
10342SOL    HW131925   1.548   0.847   3.568
10342SOL    HW231926   1.436   0.953   3.517
10343SOL     OW31927   2.210   5.329   0.739
10343SOL    HW131928   2.183   5.425   0.738
10343SOL    HW231929   2.243   5.305   0.830
10344SOL     OW31930   3.594   3.946   6.441
10344SOL    HW131931   3.496   3.959   6.423
10344SOL    HW231932   3.609   3.943   6.540
10345SOL     OW31933   1.146   2.580   5.453
10345SOL    HW131934   1.221   2.538   5.401
10345SOL    HW231935   1.079   2.509   5.477
10346SOL     OW31936   0.189   5.604   1.410
10346SOL    HW131937   0.120   5.575   1.475
10346SOL    HW231938   0.149   5.670   1.346
10347SOL     OW31939   4.268   1.279   3.689
10347SOL    HW131940   4.333   1.205   3.675
10347SOL    HW231941   4.317   1.366   3.697
10348SOL     OW31942   6.183   3.137   0.500
10348SOL    HW131943   6.139   3.088   0.575
10348SOL    HW231944   6.252   3.199   0.536
10349SOL     OW31945   0.795   6.996   6.632
10349SOL    HW131946   0.842   0.042   6.687
10349SOL    HW231947   0.739   6.938   6.691
10350SOL     OW31948   2.789   6.348   5.017
10350SOL    HW131949   2.794   6.336   4.918
10350SOL    HW231950   2.882   6.352   5.055
10351SOL     OW31951   4.616   5.548   5.696
10351SOL    HW131952   4.547   5.487   5.658
10351SOL    HW231953   4.656   5.603   5.623
10352SOL     OW31954   3.539   1.198   6.328
10352SOL    HW131955   3.634   1.193   6.295
10352SOL    HW231956   3.533   1.161   6.420
10353SOL     OW31957   6.704   3.166   4.512
10353SOL    HW131958   6.770   3.172   4.587
10353SOL    HW231959   6.714   3.246   4.453
10354SOL     OW31960   5.283   0.816   1.470
10354SOL    HW131961   5.320   0.823   1.563
10354SOL    HW231962   5.232   0.900   1.449
10355SOL     OW31963   2.841   6.202   2.551
10355SOL    HW131964   2.884   6.181   2.463
10355SOL    HW231965   2.879   6.142   2.621
10356SOL     OW31966   6.665   3.997   5.287
10356SOL    HW131967   6.620   3.998   5.377
10356SOL    HW231968   6.763   4.011   5.299
10357SOL     OW31969   2.401   2.481   6.736
10357SOL    HW131970   2.375   2.529   6.652
10357SOL    HW231971   2.343   2.400   6.748
10358SOL     OW31972   0.554   2.830   2.664
10358SOL    HW131973   0.491   2.755   2.684
10358SOL    HW231974   0.542   2.859   2.569
10359SOL     OW31975   0.170   1.518   1.795
10359SOL    HW131976   0.103   1.559   1.734
10359SOL    HW231977   0.261   1.553   1.773
10360SOL     OW31978   5.292   5.941   3.342
10360SOL    HW131979   5.350   5.948   3.262
10360SOL    HW231980   5.339   5.888   3.413
10361SOL     OW31981   3.193   5.841   2.387
10361SOL    HW131982   3.164   5.865   2.294
10361SOL    HW231983   3.283   5.797   2.384
10362SOL     OW31984   2.305   4.838   4.762
10362SOL    HW131985   2.262   4.927   4.750
10362SOL    HW231986   2.274   4.798   4.849
10363SOL     OW31987   5.135   0.612   2.896
10363SOL    HW131988   5.072   0.609   2.974
10363SOL    HW231989   5.228   0.593   2.929
10364SOL     OW31990   2.296   4.245   1.297
10364SOL    HW131991   2.294   4.232   1.396
10364SOL    HW231992   2.285   4.156   1.252
10365SOL     OW31993   4.746   5.300   0.200
10365SOL    HW131994   4.793   5.215   0.222
10365SOL    HW231995   4.713   5.297   0.106
10366SOL     OW31996   2.584   6.853   3.564
10366SOL    HW131997   2.488   6.876   3.547
10366SOL    HW231998   2.634   6.935   3.590
10367SOL     OW31999   6.286   2.766   3.203
10367SOL    HW132000   6.207   2.742   3.148
10367SOL    HW232001   6.352   2.690   3.203
10368SOL     OW32002   2.170   1.207   2.208
10368SOL    HW132003   2.232   1.153   2.150
10368SOL    HW232004   2.224   1.268   2.266
10369SOL     OW32005   3.811   2.166   0.621
10369SOL    HW132006   3.773   2.086   0.667
10369SOL    HW232007   3.787   2.249   0.671
10370SOL     OW32008   4.218   0.986   5.253
10370SOL    HW132009   4.311   0.948   5.252
10370SOL    HW232010   4.207   1.051   5.178
10371SOL     OW32011   4.541   5.876   5.088
10371SOL    HW132012   4.536   5.833   5.178
10371SOL    HW232013   4.588   5.965   5.096
10372SOL     OW32014   2.240   1.179   4.100
10372SOL    HW132015   2.196   1.266   4.078
10372SOL    HW232016   2.189   1.104   4.058
10373SOL     OW32017   1.055   6.411   4.277
10373SOL    HW132018   1.033   6.495   4.326
10373SOL    HW232019   0.991   6.339   4.304
10374SOL     OW32020   3.083   1.759   3.442
10374SOL    HW132021   3.119   1.808   3.521
10374SOL    HW232022   3.080   1.661   3.462
10375SOL     OW32023   5.509   1.878   1.164
10375SOL    HW132024   5.584   1.893   1.100
10375SOL    HW232025   5.488   1.963   1.212
10376SOL     OW32026   0.138   1.022   3.577
10376SOL    HW132027   0.116   0.950   3.511
10376SOL    HW232028   0.189   0.983   3.653
10377SOL     OW32029   0.203   0.646   3.894
10377SOL    HW132030   0.235   0.560   3.933
10377SOL    HW232031   0.209   0.718   3.963
10378SOL     OW32032   6.643   0.426   6.333
10378SOL    HW132033   6.602   0.335   6.339
10378SOL    HW232034   6.706   0.429   6.256
10379SOL     OW32035   5.336   0.395   4.634
10379SOL    HW132036   5.275   0.410   4.712
10379SOL    HW232037   5.428   0.427   4.657
10380SOL     OW32038   5.031   0.425   2.450
10380SOL    HW132039   5.129   0.413   2.470
10380SOL    HW232040   5.018   0.424   2.351
10381SOL     OW32041   4.554   4.929   5.652
10381SOL    HW132042   4.633   4.927   5.713
10381SOL    HW232043   4.546   5.019   5.609
10382SOL     OW32044   2.213   4.979   6.536
10382SOL    HW132045   2.159   4.937   6.463
10382SOL    HW232046   2.293   5.024   6.497
10383SOL     OW32047   0.609   2.101   1.608
10383SOL    HW132048   0.667   2.158   1.549
10383SOL    HW232049   0.667   2.042   1.664
10384SOL     OW32050   6.605   6.487   0.646
10384SOL    HW132051   6.566   6.407   0.692
10384SOL    HW232052   6.648   6.547   0.714
10385SOL     OW32053   6.509   1.412   6.622
10385SOL    HW132054   6.492   1.418   6.721
10385SOL    HW232055   6.578   1.342   6.604
10386SOL     OW32056   6.211   2.864   5.451
10386SOL    HW132057   6.266   2.939   5.414
10386SOL    HW232058   6.218   2.785   5.391
10387SOL     OW32059   2.067   2.684   3.107
10387SOL    HW132060   1.994   2.658   3.045
10387SOL    HW232061   2.093   2.605   3.163
10388SOL     OW32062   1.491   5.350   2.980
10388SOL    HW132063   1.581   5.354   2.937
10388SOL    HW232064   1.463   5.443   3.006
10389SOL     OW32065   0.921   4.970   3.748
10389SOL    HW132066   0.851   5.001   3.812
10389SOL    HW232067   0.886   4.892   3.695
10390SOL     OW32068   0.731   2.968   3.372
10390SOL    HW132069   0.679   3.040   3.325
10390SOL    HW232070   0.823   2.964   3.334
10391SOL     OW32071   2.356   6.324   6.381
10391SOL    HW132072   2.257   6.309   6.378
10391SOL    HW232073   2.392   6.330   6.288
10392SOL     OW32074   6.622   5.096   0.648
10392SOL    HW132075   6.610   5.155   0.568
10392SOL    HW232076   6.570   5.132   0.725
10393SOL     OW32077   1.057   1.459   4.215
10393SOL    HW132078   1.147   1.447   4.256
10393SOL    HW232079   0.990   1.477   4.287
10394SOL     OW32080   2.245   6.330   0.038
10394SOL    HW132081   2.235   6.392   0.116
10394SOL    HW232082   2.166   6.339   7.000
10395SOL     OW32083   0.333   0.745   5.142
10395SOL    HW132084   0.369   0.722   5.233
10395SOL    HW232085   0.381   0.693   5.072
10396SOL     OW32086   1.480   6.891   4.973
10396SOL    HW132087   1.454   6.796   4.990
10396SOL    HW232088   1.399   6.943   4.946
10397SOL     OW32089   3.310   1.449   3.291
10397SOL    HW132090   3.375   1.524   3.303
10397SOL    HW232091   3.235   1.458   3.357
10398SOL     OW32092   6.135   2.972   2.185
10398SOL    HW132093   6.175   3.046   2.131
10398SOL    HW232094   6.150   2.885   2.139
10399SOL     OW32095   5.255   2.576   5.151
10399SOL    HW132096   5.230   2.653   5.210
10399SOL    HW232097   5.222   2.491   5.191
10400SOL     OW32098   2.714   5.764   2.351
10400SOL    HW132099   2.808   5.785   2.326
10400SOL    HW232100   2.656   5.843   2.331
10401SOL     OW32101   0.833   5.847   2.060
10401SOL    HW132102   0.851   5.945   2.060
10401SOL    HW232103   0.914   5.798   2.094
10402SOL     OW32104   0.390   3.406   4.348
10402SOL    HW132105   0.415   3.321   4.300
10402SOL    HW232106   0.473   3.456   4.371
10403SOL     OW32107   5.500   1.143   2.028
10403SOL    HW132108   5.528   1.203   2.104
10403SOL    HW232109   5.547   1.055   2.037
10404SOL     OW32110   0.626   6.439   3.680
10404SOL    HW132111   0.726   6.435   3.671
10404SOL    HW232112   0.599   6.532   3.706
10405SOL     OW32113   1.681   6.315   5.925
10405SOL    HW132114   1.585   6.301   5.902
10405SOL    HW232115   1.716   6.233   5.971
10406SOL     OW32116   2.392   4.504   5.855
10406SOL    HW132117   2.358   4.417   5.889
10406SOL    HW232118   2.477   4.490   5.804
10407SOL     OW32119   0.501   2.274   6.760
10407SOL    HW132120   0.556   2.310   6.835
10407SOL    HW232121   0.520   2.177   6.748
10408SOL     OW32122   4.721   5.651   3.174
10408SOL    HW132123   4.761   5.590   3.104
10408SOL    HW232124   4.714   5.744   3.137
10409SOL     OW32125   6.797   4.854   2.864
10409SOL    HW132126   6.852   4.912   2.804
10409SOL    HW232127   6.703   4.849   2.828
10410SOL     OW32128   4.650   0.474   0.811
10410SOL    HW132129   4.653   0.435   0.903
10410SOL    HW232130   4.584   0.424   0.755
10411SOL     OW32131   1.997   4.738   2.589
10411SOL    HW132132   2.068   4.697   2.645
10411SOL    HW232133   2.034   4.818   2.541
10412SOL     OW32134   0.487   2.050   0.773
10412SOL    HW132135   0.560   2.091   0.827
10412SOL    HW232136   0.426   2.121   0.739
10413SOL     OW32137   6.700   2.095   6.864
10413SOL    HW132138   6.669   2.126   6.774
10413SOL    HW232139   6.639   2.132   6.935
10414SOL     OW32140   5.716   6.034   5.794
10414SOL    HW132141   5.627   6.047   5.838
10414SOL    HW232142   5.737   5.936   5.791
10415SOL     OW32143   0.622   6.055   3.417
10415SOL    HW132144   0.565   6.001   3.478
10415SOL    HW232145   0.714   6.015   3.413
10416SOL     OW32146   5.933   1.098   5.532
10416SOL    HW132147   5.972   1.186   5.503
10416SOL    HW232148   6.005   1.028   5.534
10417SOL     OW32149   3.985   5.083   4.199
10417SOL    HW132150   4.037   5.002   4.172
10417SOL    HW232151   3.981   5.148   4.123
10418SOL     OW32152   6.269   3.650   6.702
10418SOL    HW132153   6.347   3.598   6.737
10418SOL    HW232154   6.303   3.728   6.650
10419SOL     OW32155   2.660   1.143   4.406
10419SOL    HW132156   2.715   1.092   4.472
10419SOL    HW232157   2.631   1.230   4.446
10420SOL     OW32158   6.550   3.683   3.142
10420SOL    HW132159   6.606   3.762   3.116
10420SOL    HW232160   6.591   3.638   3.221
10421SOL     OW32161   1.205   4.321   4.756
10421SOL    HW132162   1.155   4.240   4.787
10421SOL    HW232163   1.146   4.401   4.760
10422SOL     OW32164   6.659   3.491   4.787
10422SOL    HW132165   6.572   3.540   4.780
10422SOL    HW232166   6.681   3.450   4.698
10423SOL     OW32167   3.196   4.975   3.934
10423SOL    HW132168   3.269   4.960   3.867
10423SOL    HW232169   3.234   5.016   4.017
10424SOL     OW32170   3.693   1.276   0.454
10424SOL    HW132171   3.787   1.243   0.444
10424SOL    HW232172   3.671   1.284   0.551
10425SOL     OW32173   1.450   1.733   0.714
10425SOL    HW132174   1.432   1.737   0.813
10425SOL    HW232175   1.393   1.662   0.673
10426SOL     OW32176   6.340   2.331   6.027
10426SOL    HW132177   6.339   2.291   5.935
10426SOL    HW232178   6.291   2.271   6.090
10427SOL     OW32179   5.617   6.779   4.381
10427SOL    HW132180   5.657   6.780   4.290
10427SOL    HW232181   5.687   6.756   4.448
10428SOL     OW32182   2.454   0.337   4.323
10428SOL    HW132183   2.415   0.379   4.241
10428SOL    HW232184   2.466   0.239   4.306
10429SOL     OW32185   1.169   2.864   2.047
10429SOL    HW132186   1.216   2.951   2.064
10429SOL    HW232187   1.205   2.822   1.964
10430SOL     OW32188   3.189   0.120   3.438
10430SOL    HW132189   3.265   0.066   3.402
10430SOL    HW232190   3.224   0.201   3.485
10431SOL     OW32191   3.443   0.333   2.953
10431SOL    HW132192   3.475   0.259   2.893
10431SOL    HW232193   3.398   0.294   3.033
10432SOL     OW32194   1.431   5.583   5.933
10432SOL    HW132195   1.481   5.560   6.017
10432SOL    HW232196   1.451   5.515   5.863
10433SOL     OW32197   2.888   0.237   2.607
10433SOL    HW132198   2.947   0.175   2.555
10433SOL    HW232199   2.905   0.224   2.705
10434SOL     OW32200   4.721   6.994   5.666
10434SOL    HW132201   4.785   0.038   5.629
10434SOL    HW232202   4.703   6.923   5.598
10435SOL     OW32203   2.337   1.903   6.846
10435SOL    HW132204   2.398   1.978   6.819
10435SOL    HW232205   2.295   1.864   6.764
10436SOL     OW32206   6.753   3.365   5.069
10436SOL    HW132207   6.715   3.374   5.161
10436SOL    HW232208   6.700   3.420   5.005
10437SOL     OW32209   5.279   6.514   4.746
10437SOL    HW132210   5.248   6.430   4.701
10437SOL    HW232211   5.220   6.590   4.720
10438SOL     OW32212   6.829   6.121   6.824
10438SOL    HW132213   6.856   6.027   6.807
10438SOL    HW232214   6.890   6.161   6.893
10439SOL     OW32215   6.857   6.576   5.450
10439SOL    HW132216   6.763   6.604   5.469
10439SOL    HW232217   6.895   6.634   5.378
10440SOL     OW32218   0.040   2.947   0.794
10440SOL    HW132219   0.049   2.848   0.803
10440SOL    HW232220   6.979   2.977   0.839
10441SOL     OW32221   4.305   1.745   0.396
10441SOL    HW132222   4.355   1.805   0.459
10441SOL    HW232223   4.308   1.784   0.303
10442SOL     OW32224   2.192   1.569   6.208
10442SOL    HW132225   2.101   1.612   6.204
10442SOL    HW232226   2.262   1.640   6.202
10443SOL     OW32227   0.542   1.419   3.263
10443SOL    HW132228   0.631   1.404   3.306
10443SOL    HW232229   0.542   1.510   3.220
10444SOL     OW32230   4.140   5.689   4.260
10444SOL    HW132231   4.175   5.782   4.253
10444SOL    HW232232   4.069   5.674   4.190
10445SOL     OW32233   1.191   3.416   2.860
10445SOL    HW132234   1.142   3.336   2.896
10445SOL    HW232235   1.125   3.481   2.821
10446SOL     OW32236   1.729   4.404   5.609
10446SOL    HW132237   1.699   4.440   5.697
10446SOL    HW232238   1.796   4.331   5.624
10447SOL     OW32239   0.332   1.860   3.156
10447SOL    HW132240   0.254   1.891   3.100
10447SOL    HW232241   0.302   1.847   3.250
10448SOL     OW32242   2.444   6.255   2.806
10448SOL    HW132243   2.395   6.341   2.816
10448SOL    HW232244   2.523   6.254   2.868
10449SOL     OW32245   3.843   4.978   4.746
10449SOL    HW132246   3.903   4.978   4.826
10449SOL    HW232247   3.884   4.921   4.675
10450SOL     OW32248   6.997   0.935   6.285
10450SOL    HW132249   7.021   1.004   6.217
10450SOL    HW232250   6.899   0.940   6.305
10451SOL     OW32251   3.160   0.725   3.275
10451SOL    HW132252   3.088   0.666   3.237
10451SOL    HW232253   3.244   0.713   3.222
10452SOL     OW32254   6.965   3.829   4.430
10452SOL    HW132255   0.034   3.824   4.392
10452SOL    HW232256   6.898   3.817   4.357
10453SOL     OW32257   3.919   5.845   3.532
10453SOL    HW132258   3.882   5.871   3.622
10453SOL    HW232259   4.004   5.794   3.545
10454SOL     OW32260   6.709   0.951   6.250
10454SOL    HW132261   6.701   1.049   6.269
10454SOL    HW232262   6.658   0.929   6.167
10455SOL     OW32263   6.372   5.822   3.766
10455SOL    HW132264   6.429   5.905   3.766
10455SOL    HW232265   6.431   5.742   3.776
10456SOL     OW32266   1.102   5.229   6.847
10456SOL    HW132267   1.003   5.226   6.835
10456SOL    HW232268   1.125   5.194   6.938
10457SOL     OW32269   3.500   2.744   6.404
10457SOL    HW132270   3.513   2.665   6.464
10457SOL    HW232271   3.577   2.807   6.414
10458SOL     OW32272   6.980   5.946   6.395
10458SOL    HW132273   6.954   5.915   6.487
10458SOL    HW232274   0.057   5.946   6.388
10459SOL     OW32275   7.018   5.251   0.485
10459SOL    HW132276   0.090   5.246   0.514
10459SOL    HW232277   6.981   5.159   0.476
10460SOL     OW32278   0.421   1.932   0.534
10460SOL    HW132279   0.330   1.930   0.576
10460SOL    HW232280   0.486   1.973   0.598
10461SOL     OW32281   6.962   5.094   6.082
10461SOL    HW132282   6.974   5.060   5.989
10461SOL    HW232283   6.924   5.187   6.078
10462SOL     OW32284   4.495   2.428   0.779
10462SOL    HW132285   4.415   2.487   0.789
10462SOL    HW232286   4.504   2.369   0.859
10463SOL     OW32287   4.463   2.888   6.268
10463SOL    HW132288   4.534   2.880   6.338
10463SOL    HW232289   4.410   2.971   6.284
10464SOL     OW32290   6.568   4.735   2.247
10464SOL    HW132291   6.476   4.700   2.235
10464SOL    HW232292   6.634   4.664   2.224
10465SOL     OW32293   5.165   4.673   1.390
10465SOL    HW132294   5.111   4.590   1.405
10465SOL    HW232295   5.206   4.670   1.299
10466SOL     OW32296   6.298   5.088   6.891
10466SOL    HW132297   6.215   5.083   6.835
10466SOL    HW232298   6.375   5.052   6.838
10467SOL     OW32299   0.794   3.298   0.278
10467SOL    HW132300   0.859   3.283   0.353
10467SOL    HW232301   0.843   3.324   0.196
10468SOL     OW32302   2.768   4.708   3.698
10468SOL    HW132303   2.741   4.618   3.663
10468SOL    HW232304   2.691   4.771   3.690
10469SOL     OW32305   6.820   1.572   4.227
10469SOL    HW132306   6.747   1.525   4.177
10469SOL    HW232307   6.906   1.523   4.216
10470SOL     OW32308   2.159   2.453   3.253
10470SOL    HW132309   2.244   2.403   3.237
10470SOL    HW232310   2.104   2.404   3.320
10471SOL     OW32311   3.169   6.784   6.948
10471SOL    HW132312   3.074   6.789   6.916
10471SOL    HW232313   3.187   6.693   6.985
10472SOL     OW32314   3.555   4.705   6.458
10472SOL    HW132315   3.559   4.725   6.361
10472SOL    HW232316   3.474   4.749   6.498
10473SOL     OW32317   5.210   5.380   0.481
10473SOL    HW132318   5.130   5.355   0.425
10473SOL    HW232319   5.254   5.460   0.441
10474SOL     OW32320   5.252   0.702   4.263
10474SOL    HW132321   5.168   0.757   4.260
10474SOL    HW232322   5.328   0.760   4.291
10475SOL     OW32323   1.487   6.771   1.239
10475SOL    HW132324   1.448   6.832   1.308
10475SOL    HW232325   1.541   6.824   1.174
10476SOL     OW32326   3.783   5.562   6.634
10476SOL    HW132327   3.780   5.505   6.716
10476SOL    HW232328   3.841   5.642   6.651
10477SOL     OW32329   6.762   5.309   3.984
10477SOL    HW132330   6.688   5.345   4.041
10477SOL    HW232331   6.756   5.350   3.892
10478SOL     OW32332   5.963   0.665   6.982
10478SOL    HW132333   5.982   0.567   6.985
10478SOL    HW232334   5.928   0.690   6.892
10479SOL     OW32335   0.933   2.238   1.883
10479SOL    HW132336   1.003   2.250   1.813
10479SOL    HW232337   0.973   2.250   1.974
10480SOL     OW32338   2.059   0.196   2.463
10480SOL    HW132339   2.036   0.209   2.366
10480SOL    HW232340   2.055   0.284   2.510
10481SOL     OW32341   6.987   1.538   2.167
10481SOL    HW132342   0.038   1.572   2.223
10481SOL    HW232343   6.938   1.466   2.216
10482SOL     OW32344   4.908   4.058   4.563
10482SOL    HW132345   4.879   3.977   4.615
10482SOL    HW232346   4.828   4.116   4.546
10483SOL     OW32347   5.937   6.307   0.218
10483SOL    HW132348   6.002   6.342   0.150
10483SOL    HW232349   5.855   6.363   0.218
10484SOL     OW32350   6.136   0.870   2.065
10484SOL    HW132351   6.044   0.905   2.046
10484SOL    HW232352   6.150   0.865   2.164
10485SOL     OW32353   5.689   3.839   5.237
10485SOL    HW132354   5.736   3.805   5.318
10485SOL    HW232355   5.672   3.763   5.174
10486SOL     OW32356   5.457   3.052   1.746
10486SOL    HW132357   5.452   3.062   1.845
10486SOL    HW232358   5.421   3.134   1.702
10487SOL     OW32359   5.693   6.702   1.827
10487SOL    HW132360   5.727   6.610   1.844
10487SOL    HW232361   5.650   6.737   1.910
10488SOL     OW32362   2.502   2.418   6.376
10488SOL    HW132363   2.561   2.398   6.455
10488SOL    HW232364   2.560   2.444   6.298
10489SOL     OW32365   0.880   5.875   6.434
10489SOL    HW132366   0.868   5.852   6.530
10489SOL    HW232367   0.944   5.952   6.426
10490SOL     OW32368   6.901   1.019   3.652
10490SOL    HW132369   6.997   1.038   3.630
10490SOL    HW232370   6.842   1.057   3.581
10491SOL     OW32371   1.444   4.113   6.082
10491SOL    HW132372   1.544   4.105   6.083
10491SOL    HW232373   1.403   4.022   6.073
10492SOL     OW32374   5.097   3.331   5.019
10492SOL    HW132375   5.060   3.397   4.954
10492SOL    HW232376   5.111   3.376   5.107
10493SOL     OW32377   3.211   1.178   1.388
10493SOL    HW132378   3.166   1.211   1.305
10493SOL    HW232379   3.235   1.081   1.377
10494SOL     OW32380   6.234   2.125   4.389
10494SOL    HW132381   6.327   2.098   4.412
10494SOL    HW232382   6.176   2.043   4.386
10495SOL     OW32383   1.313   6.710   0.420
10495SOL    HW132384   1.303   6.629   0.478
10495SOL    HW232385   1.322   6.791   0.478
10496SOL     OW32386   0.166   6.752   5.442
10496SOL    HW132387   0.247   6.810   5.435
10496SOL    HW232388   0.194   6.656   5.440
10497SOL     OW32389   1.168   1.258   1.033
10497SOL    HW132390   1.220   1.313   0.968
10497SOL    HW232391   1.174   1.162   1.007
10498SOL     OW32392   2.354   6.122   6.019
10498SOL    HW132393   2.389   6.118   5.926
10498SOL    HW232394   2.294   6.044   6.036
10499SOL     OW32395   3.510   5.606   3.175
10499SOL    HW132396   3.526   5.507   3.178
10499SOL    HW232397   3.584   5.654   3.222
10500SOL     OW32398   1.519   1.661   6.389
10500SOL    HW132399   1.549   1.691   6.299
10500SOL    HW232400   1.419   1.655   6.391
10501SOL     OW32401   1.439   3.458   2.549
10501SOL    HW132402   1.487   3.404   2.618
10501SOL    HW232403   1.348   3.419   2.535
10502SOL     OW32404   3.263   5.951   6.381
10502SOL    HW132405   3.178   5.945   6.433
10502SOL    HW232406   3.339   5.917   6.436
10503SOL     OW32407   2.988   2.873   0.196
10503SOL    HW132408   2.892   2.894   0.219
10503SOL    HW232409   2.999   2.774   0.187
10504SOL     OW32410   3.123   3.524   0.953
10504SOL    HW132411   3.119   3.481   1.043
10504SOL    HW232412   3.144   3.455   0.883
10505SOL     OW32413   6.675   5.934   1.702
10505SOL    HW132414   6.671   5.881   1.617
10505SOL    HW232415   6.685   6.031   1.679
10506SOL     OW32416   0.597   4.011   5.769
10506SOL    HW132417   0.590   4.034   5.671
10506SOL    HW232418   0.688   3.975   5.788
10507SOL     OW32419   0.892   0.217   6.131
10507SOL    HW132420   0.874   0.125   6.166
10507SOL    HW232421   0.990   0.230   6.121
10508SOL     OW32422   5.575   4.162   2.980
10508SOL    HW132423   5.615   4.077   2.944
10508SOL    HW232424   5.636   4.238   2.961
10509SOL     OW32425   1.515   0.117   6.579
10509SOL    HW132426   1.500   0.128   6.481
10509SOL    HW232427   1.564   0.032   6.596
10510SOL     OW32428   6.288   5.626   0.327
10510SOL    HW132429   6.301   5.725   0.333
10510SOL    HW232430   6.320   5.594   0.238
10511SOL     OW32431   4.279   3.053   0.264
10511SOL    HW132432   4.339   3.117   0.216
10511SOL    HW232433   4.195   3.100   0.293
10512SOL     OW32434   4.339   6.923   5.773
10512SOL    HW132435   4.256   6.867   5.773
10512SOL    HW232436   4.372   6.933   5.867
10513SOL     OW32437   0.522   2.590   6.905
10513SOL    HW132438   0.486   2.575   6.812
10513SOL    HW232439   0.490   2.679   6.939
10514SOL     OW32440   0.498   4.762   0.581
10514SOL    HW132441   0.406   4.786   0.549
10514SOL    HW232442   0.521   4.816   0.662
10515SOL     OW32443   6.519   2.213   3.034
10515SOL    HW132444   6.612   2.183   3.013
10515SOL    HW232445   6.459   2.195   2.956
10516SOL     OW32446   4.053   0.655   6.143
10516SOL    HW132447   4.005   0.658   6.056
10516SOL    HW232448   4.152   0.661   6.128
10517SOL     OW32449   6.760   1.990   2.482
10517SOL    HW132450   6.840   2.035   2.442
10517SOL    HW232451   6.703   1.952   2.409
10518SOL     OW32452   1.001   6.295   1.000
10518SOL    HW132453   0.939   6.372   0.984
10518SOL    HW232454   0.947   6.213   1.017
10519SOL     OW32455   3.457   3.438   5.583
10519SOL    HW132456   3.418   3.405   5.497
10519SOL    HW232457   3.383   3.454   5.649
10520SOL     OW32458   4.110   2.073   6.908
10520SOL    HW132459   4.175   2.099   6.979
10520SOL    HW232460   4.022   2.052   6.950
10521SOL     OW32461   6.554   5.498   1.225
10521SOL    HW132462   6.503   5.461   1.302
10521SOL    HW232463   6.643   5.530   1.256
10522SOL     OW32464   6.524   0.547   1.523
10522SOL    HW132465   6.456   0.614   1.493
10522SOL    HW232466   6.499   0.457   1.489
10523SOL     OW32467   0.273   5.567   6.042
10523SOL    HW132468   0.209   5.616   6.101
10523SOL    HW232469   0.223   5.523   5.967
10524SOL     OW32470   2.849   0.450   3.821
10524SOL    HW132471   2.914   0.503   3.767
10524SOL    HW232472   2.862   0.353   3.802
10525SOL     OW32473   2.368   5.923   5.196
10525SOL    HW132474   2.275   5.917   5.160
10525SOL    HW232475   2.433   5.914   5.120
10526SOL     OW32476   6.914   0.955   2.460
10526SOL    HW132477   6.948   0.864   2.481
10526SOL    HW232478   6.884   0.959   2.365
10527SOL     OW32479   0.762   2.724   4.474
10527SOL    HW132480   0.794   2.731   4.379
10527SOL    HW232481   0.834   2.686   4.531
10528SOL     OW32482   0.068   4.816   5.116
10528SOL    HW132483   0.164   4.801   5.140
10528SOL    HW232484   0.062   4.878   5.038
10529SOL     OW32485   6.672   0.191   3.794
10529SOL    HW132486   6.716   0.232   3.874
10529SOL    HW232487   6.626   0.262   3.741
10530SOL     OW32488   2.917   2.042   6.273
10530SOL    HW132489   2.946   1.963   6.220
10530SOL    HW232490   2.817   2.043   6.280
10531SOL     OW32491   1.643   2.888   4.932
10531SOL    HW132492   1.665   2.969   4.877
10531SOL    HW232493   1.709   2.816   4.912
10532SOL     OW32494   3.825   2.505   5.592
10532SOL    HW132495   3.843   2.522   5.495
10532SOL    HW232496   3.908   2.471   5.636
10533SOL     OW32497   2.732   1.426   5.835
10533SOL    HW132498   2.661   1.437   5.765
10533SOL    HW232499   2.689   1.403   5.923
10534SOL     OW32500   0.245   5.296   0.602
10534SOL    HW132501   0.301   5.346   0.537
10534SOL    HW232502   0.256   5.336   0.693
10535SOL     OW32503   0.422   1.333   2.424
10535SOL    HW132504   0.364   1.360   2.347
10535SOL    HW232505   0.492   1.404   2.440
10536SOL     OW32506   4.643   0.503   2.609
10536SOL    HW132507   4.633   0.435   2.682
10536SOL    HW232508   4.625   0.594   2.645
10537SOL     OW32509   1.598   4.983   2.073
10537SOL    HW132510   1.527   5.053   2.079
10537SOL    HW232511   1.584   4.927   1.992
10538SOL     OW32512   4.538   4.238   0.041
10538SOL    HW132513   4.581   4.303   7.001
10538SOL    HW232514   4.532   4.148   7.021
10539SOL     OW32515   0.528   3.575   6.679
10539SOL    HW132516   0.542   3.629   6.596
10539SOL    HW232517   0.439   3.529   6.675
10540SOL     OW32518   1.775   0.378   6.621
10540SOL    HW132519   1.855   0.424   6.658
10540SOL    HW232520   1.724   0.334   6.695
10541SOL     OW32521   3.665   3.454   0.072
10541SOL    HW132522   3.649   3.414   7.005
10541SOL    HW232523   3.632   3.392   0.143
10542SOL     OW32524   6.893   2.533   0.398
10542SOL    HW132525   6.955   2.542   0.320
10542SOL    HW232526   6.821   2.468   0.376
10543SOL     OW32527   0.644   1.120   5.889
10543SOL    HW132528   0.607   1.125   5.797
10543SOL    HW232529   0.668   1.026   5.911
10544SOL     OW32530   1.953   1.755   2.088
10544SOL    HW132531   1.920   1.715   2.003
10544SOL    HW232532   2.052   1.738   2.096
10545SOL     OW32533   6.523   0.915   2.646
10545SOL    HW132534   6.511   0.816   2.636
10545SOL    HW232535   6.587   0.933   2.722
10546SOL     OW32536   2.513   0.546   4.499
10546SOL    HW132537   2.477   0.481   4.432
10546SOL    HW232538   2.462   0.538   4.585
10547SOL     OW32539   4.264   1.524   1.373
10547SOL    HW132540   4.303   1.608   1.334
10547SOL    HW232541   4.165   1.531   1.374
10548SOL     OW32542   4.982   4.165   4.788
10548SOL    HW132543   4.960   4.152   4.691
10548SOL    HW232544   5.066   4.117   4.810
10549SOL     OW32545   1.052   0.905   1.910
10549SOL    HW132546   1.117   0.890   1.985
10549SOL    HW232547   0.986   0.976   1.936
10550SOL     OW32548   5.442   0.088   4.241
10550SOL    HW132549   5.416   0.179   4.208
10550SOL    HW232550   5.479   0.034   4.165
10551SOL     OW32551   0.977   2.230   6.220
10551SOL    HW132552   1.012   2.167   6.151
10551SOL    HW232553   1.003   2.199   6.311
10552SOL     OW32554   3.426   2.451   5.350
10552SOL    HW132555   3.440   2.547   5.374
10552SOL    HW232556   3.337   2.440   5.306
10553SOL     OW32557   1.422   5.660   0.158
10553SOL    HW132558   1.512   5.669   0.199
10553SOL    HW232559   1.352   5.666   0.229
10554SOL     OW32560   6.669   4.930   6.748
10554SOL    HW132561   6.570   4.944   6.750
10554SOL    HW232562   6.709   4.983   6.672
10555SOL     OW32563   3.818   1.351   1.493
10555SOL    HW132564   3.812   1.319   1.588
10555SOL    HW232565   3.726   1.353   1.453
10556SOL     OW32566   1.739   3.253   4.961
10556SOL    HW132567   1.744   3.209   4.871
10556SOL    HW232568   1.807   3.326   4.967
10557SOL     OW32569   6.808   2.475   3.051
10557SOL    HW132570   6.873   2.486   3.126
10557SOL    HW232571   6.727   2.531   3.069
10558SOL     OW32572   4.732   6.085   5.162
10558SOL    HW132573   4.693   6.166   5.117
10558SOL    HW232574   4.756   6.109   5.256
10559SOL     OW32575   4.312   2.177   0.558
10559SOL    HW132576   4.230   2.235   0.553
10559SOL    HW232577   4.384   2.217   0.502
10560SOL     OW32578   1.151   3.489   4.545
10560SOL    HW132579   1.085   3.436   4.597
10560SOL    HW232580   1.152   3.457   4.450
10561SOL     OW32581   2.130   4.276   6.935
10561SOL    HW132582   2.119   4.275   6.836
10561SOL    HW232583   2.123   4.182   6.970
10562SOL     OW32584   3.996   1.266   0.468
10562SOL    HW132585   4.057   1.332   0.424
10562SOL    HW232586   3.966   1.302   0.557
10563SOL     OW32587   1.336   2.217   5.741
10563SOL    HW132588   1.315   2.140   5.800
10563SOL    HW232589   1.333   2.302   5.794
10564SOL     OW32590   6.021   1.705   2.165
10564SOL    HW132591   5.954   1.651   2.115
10564SOL    HW232592   6.112   1.664   2.154
10565SOL     OW32593   6.157   1.481   5.075
10565SOL    HW132594   6.204   1.521   4.997
10565SOL    HW232595   6.088   1.545   5.109
10566SOL     OW32596   3.715   3.837   5.912
10566SOL    HW132597   3.751   3.801   5.998
10566SOL    HW232598   3.733   3.935   5.907
10567SOL     OW32599   1.766   3.412   4.223
10567SOL    HW132600   1.717   3.403   4.309
10567SOL    HW232601   1.851   3.358   4.227
10568SOL     OW32602   4.954   1.256   2.879
10568SOL    HW132603   4.860   1.289   2.890
10568SOL    HW232604   5.006   1.273   2.963
10569SOL     OW32605   5.895   2.601   4.626
10569SOL    HW132606   5.914   2.605   4.528
10569SOL    HW232607   5.806   2.644   4.644
10570SOL     OW32608   2.114   4.985   2.550
10570SOL    HW132609   2.118   5.032   2.638
10570SOL    HW232610   2.178   4.907   2.551
10571SOL     OW32611   6.478   6.360   2.936
10571SOL    HW132612   6.456   6.267   2.964
10571SOL    HW232613   6.422   6.425   2.987
10572SOL     OW32614   5.582   3.505   2.028
10572SOL    HW132615   5.492   3.465   2.009
10572SOL    HW232616   5.572   3.602   2.049
10573SOL     OW32617   5.988   5.151   5.021
10573SOL    HW132618   6.000   5.079   4.953
10573SOL    HW232619   6.069   5.210   5.022
10574SOL     OW32620   0.401   1.378   3.508
10574SOL    HW132621   0.448   1.394   3.421
10574SOL    HW232622   0.419   1.454   3.570
10575SOL     OW32623   1.161   0.268   5.077
10575SOL    HW132624   1.117   0.186   5.113
10575SOL    HW232625   1.120   0.293   4.989
10576SOL     OW32626   2.080   5.735   4.245
10576SOL    HW132627   2.176   5.735   4.272
10576SOL    HW232628   2.031   5.666   4.299
10577SOL     OW32629   1.862   2.886   6.157
10577SOL    HW132630   1.802   2.806   6.156
10577SOL    HW232631   1.943   2.867   6.101
10578SOL     OW32632   6.201   0.277   5.448
10578SOL    HW132633   6.232   0.243   5.360
10578SOL    HW232634   6.124   0.222   5.480
10579SOL     OW32635   4.469   1.935   0.546
10579SOL    HW132636   4.411   2.016   0.548
10579SOL    HW232637   4.546   1.950   0.484
10580SOL     OW32638   6.999   6.252   0.261
10580SOL    HW132639   7.017   6.342   0.221
10580SOL    HW232640   6.931   6.261   0.334
10581SOL     OW32641   5.776   0.460   3.302
10581SOL    HW132642   5.831   0.394   3.251
10581SOL    HW232643   5.775   0.435   3.399
10582SOL     OW32644   3.787   5.440   6.373
10582SOL    HW132645   3.804   5.493   6.456
10582SOL    HW232646   3.689   5.420   6.367
10583SOL     OW32647   3.872   1.154   6.907
10583SOL    HW132648   3.859   1.217   6.983
10583SOL    HW232649   3.892   1.062   6.942
10584SOL     OW32650   5.694   0.000   1.124
10584SOL    HW132651   5.627   0.071   1.104
10584SOL    HW232652   5.772   0.009   1.061
10585SOL     OW32653   0.613   3.161   6.234
10585SOL    HW132654   0.611   3.064   6.257
10585SOL    HW232655   0.572   3.214   6.308
10586SOL     OW32656   2.907   5.948   5.441
10586SOL    HW132657   2.946   5.928   5.352
10586SOL    HW232658   2.933   5.877   5.506
10587SOL     OW32659   5.997   3.423   1.111
10587SOL    HW132660   6.079   3.374   1.141
10587SOL    HW232661   6.023   3.515   1.079
10588SOL     OW32662   0.818   4.995   3.072
10588SOL    HW132663   0.768   4.917   3.111
10588SOL    HW232664   0.863   4.967   2.988
10589SOL     OW32665   5.567   2.012   3.888
10589SOL    HW132666   5.619   2.022   3.802
10589SOL    HW232667   5.571   1.917   3.918
10590SOL     OW32668   1.206   0.289   3.371
10590SOL    HW132669   1.216   0.294   3.271
10590SOL    HW232670   1.249   0.369   3.412
10591SOL     OW32671   0.875   1.976   6.894
10591SOL    HW132672   0.835   1.936   6.977
10591SOL    HW232673   0.959   2.025   6.919
10592SOL     OW32674   6.147   1.325   0.335
10592SOL    HW132675   6.081   1.272   0.388
10592SOL    HW232676   6.134   1.422   0.353
10593SOL     OW32677   1.806   5.768   1.542
10593SOL    HW132678   1.821   5.679   1.585
10593SOL    HW232679   1.892   5.817   1.537
10594SOL     OW32680   6.897   2.062   3.839
10594SOL    HW132681   6.878   1.964   3.847
10594SOL    HW232682   6.883   2.091   3.744
10595SOL     OW32683   3.951   6.660   6.289
10595SOL    HW132684   3.869   6.716   6.272
10595SOL    HW232685   4.031   6.720   6.294
10596SOL     OW32686   3.824   0.051   2.444
10596SOL    HW132687   3.823   7.021   2.359
10596SOL    HW232688   3.860   0.142   2.427
10597SOL     OW32689   1.873   0.913   4.973
10597SOL    HW132690   1.845   0.994   4.921
10597SOL    HW232691   1.794   0.854   4.989
10598SOL     OW32692   2.185   2.297   6.710
10598SOL    HW132693   2.132   2.252   6.783
10598SOL    HW232694   2.128   2.366   6.666
10599SOL     OW32695   5.757   1.377   7.004
10599SOL    HW132696   5.764   1.288   0.025
10599SOL    HW232697   5.822   1.382   6.929
10600SOL     OW32698   2.297   3.127   5.752
10600SOL    HW132699   2.358   3.201   5.722
10600SOL    HW232700   2.271   3.072   5.673
10601SOL     OW32701   3.108   6.292   6.459
10601SOL    HW132702   3.091   6.382   6.420
10601SOL    HW232703   3.196   6.258   6.427
10602SOL     OW32704   4.479   1.785   1.509
10602SOL    HW132705   4.473   1.690   1.539
10602SOL    HW232706   4.518   1.841   1.582
10603SOL     OW32707   1.855   5.380   4.259
10603SOL    HW132708   1.902   5.293   4.241
10603SOL    HW232709   1.756   5.366   4.250
10604SOL     OW32710   6.649   4.284   4.141
10604SOL    HW132711   6.624   4.255   4.234
10604SOL    HW232712   6.572   4.334   4.100
10605SOL     OW32713   1.425   5.417   6.663
10605SOL    HW132714   1.511   5.461   6.637
10605SOL    HW232715   1.408   5.339   6.602
10606SOL     OW32716   0.686   0.248   1.735
10606SOL    HW132717   0.610   0.276   1.793
10606SOL    HW232718   0.771   0.286   1.770
10607SOL     OW32719   5.353   4.557   0.056
10607SOL    HW132720   5.275   4.497   0.036
10607SOL    HW232721   5.409   4.567   6.997
10608SOL     OW32722   6.219   1.373   4.299
10608SOL    HW132723   6.212   1.421   4.211
10608SOL    HW232724   6.140   1.312   4.309
10609SOL     OW32725   4.130   6.565   0.978
10609SOL    HW132726   4.150   6.636   0.910
10609SOL    HW232727   4.031   6.557   0.990
10610SOL     OW32728   1.050   3.061   5.670
10610SOL    HW132729   1.007   3.074   5.759
10610SOL    HW232730   1.044   2.965   5.644
10611SOL     OW32731   5.643   2.440   6.090
10611SOL    HW132732   5.644   2.415   6.187
10611SOL    HW232733   5.721   2.398   6.044
10612SOL     OW32734   1.993   0.527   6.726
10612SOL    HW132735   2.056   0.531   6.649
10612SOL    HW232736   1.982   0.618   6.766
10613SOL     OW32737   0.649   6.082   5.541
10613SOL    HW132738   0.672   6.099   5.445
10613SOL    HW232739   0.581   6.008   5.546
10614SOL     OW32740   6.611   1.102   4.303
10614SOL    HW132741   6.513   1.088   4.286
10614SOL    HW232742   6.625   1.128   4.399
10615SOL     OW32743   5.455   5.408   5.449
10615SOL    HW132744   5.499   5.365   5.371
10615SOL    HW232745   5.366   5.366   5.465
10616SOL     OW32746   3.442   5.896   6.802
10616SOL    HW132747   3.468   5.961   6.874
10616SOL    HW232748   3.466   5.803   6.831
10617SOL     OW32749   2.006   2.272   0.443
10617SOL    HW132750   2.049   2.329   0.513
10617SOL    HW232751   2.017   2.316   0.354
10618SOL     OW32752   5.943   3.047   0.229
10618SOL    HW132753   5.930   2.994   0.313
10618SOL    HW232754   6.038   3.078   0.224
10619SOL     OW32755   1.108   4.204   4.495
10619SOL    HW132756   1.207   4.197   4.486
10619SOL    HW232757   1.084   4.215   4.591
10620SOL     OW32758   1.409   5.591   4.727
10620SOL    HW132759   1.370   5.680   4.745
10620SOL    HW232760   1.501   5.586   4.766
10621SOL     OW32761   2.014   6.406   6.912
10621SOL    HW132762   1.948   6.353   6.966
10621SOL    HW232763   1.977   6.498   6.897
10622SOL     OW32764   3.855   0.451   1.287
10622SOL    HW132765   3.854   0.487   1.381
10622SOL    HW232766   3.776   0.485   1.237
10623SOL     OW32767   5.797   2.267   3.865
10623SOL    HW132768   5.813   2.275   3.766
10623SOL    HW232769   5.701   2.245   3.882
10624SOL     OW32770   1.790   0.684   4.326
10624SOL    HW132771   1.706   0.630   4.334
10624SOL    HW232772   1.806   0.734   4.412
10625SOL     OW32773   0.339   3.345   0.680
10625SOL    HW132774   0.341   3.245   0.691
10625SOL    HW232775   0.400   3.387   0.747
10626SOL     OW32776   0.748   2.014   1.925
10626SOL    HW132777   0.680   2.083   1.901
10626SOL    HW232778   0.825   2.058   1.970
10627SOL     OW32779   6.365   6.529   3.745
10627SOL    HW132780   6.399   6.437   3.728
10627SOL    HW232781   6.305   6.529   3.824
10628SOL     OW32782   6.282   5.667   6.044
10628SOL    HW132783   6.317   5.760   6.058
10628SOL    HW232784   6.320   5.629   5.961
10629SOL     OW32785   2.421   5.520   5.931
10629SOL    HW132786   2.367   5.444   5.897
10629SOL    HW232787   2.423   5.593   5.862
10630SOL     OW32788   6.208   1.795   3.459
10630SOL    HW132789   6.152   1.837   3.388
10630SOL    HW232790   6.190   1.697   3.463
10631SOL     OW32791   0.920   6.898   3.793
10631SOL    HW132792   0.877   6.983   3.762
10631SOL    HW232793   0.973   6.916   3.876
10632SOL     OW32794   0.064   1.737   4.830
10632SOL    HW132795   0.017   1.774   4.911
10632SOL    HW232796   0.162   1.733   4.848
10633SOL     OW32797   1.891   5.250   1.765
10633SOL    HW132798   1.959   5.177   1.754
10633SOL    HW232799   1.852   5.245   1.857
10634SOL     OW32800   3.868   6.545   1.031
10634SOL    HW132801   3.881   6.458   1.079
10634SOL    HW232802   3.827   6.527   0.941
10635SOL     OW32803   2.313   1.052   1.236
10635SOL    HW132804   2.329   1.135   1.182
10635SOL    HW232805   2.401   1.010   1.259
10636SOL     OW32806   0.825   2.004   1.208
10636SOL    HW132807   0.923   2.015   1.188
10636SOL    HW232808   0.806   2.033   1.302
10637SOL     OW32809   3.307   4.070   4.633
10637SOL    HW132810   3.271   3.999   4.572
10637SOL    HW232811   3.390   4.110   4.592
10638SOL     OW32812   0.402   6.487   5.136
10638SOL    HW132813   0.318   6.530   5.169
10638SOL    HW232814   0.481   6.531   5.179
10639SOL     OW32815   2.063   0.698   5.013
10639SOL    HW132816   2.008   0.776   4.984
10639SOL    HW232817   2.006   0.615   5.014
10640SOL     OW32818   4.658   0.997   0.077
10640SOL    HW132819   4.635   0.926   0.143
10640SOL    HW232820   4.754   1.023   0.089
10641SOL     OW32821   5.688   1.559   0.188
10641SOL    HW132822   5.695   1.503   0.270
10641SOL    HW232823   5.704   1.503   0.107
10642SOL     OW32824   0.334   2.843   1.885
10642SOL    HW132825   0.307   2.806   1.973
10642SOL    HW232826   0.312   2.778   1.813
10643SOL     OW32827   2.484   3.521   5.444
10643SOL    HW132828   2.398   3.473   5.459
10643SOL    HW232829   2.465   3.612   5.407
10644SOL     OW32830   4.467   1.446   3.645
10644SOL    HW132831   4.530   1.448   3.722
10644SOL    HW232832   4.459   1.538   3.605
10645SOL     OW32833   2.736   0.245   4.834
10645SOL    HW132834   2.775   0.169   4.782
10645SOL    HW232835   2.741   0.329   4.780
10646SOL     OW32836   0.983   3.446   6.204
10646SOL    HW132837   0.964   3.378   6.276
10646SOL    HW232838   1.045   3.515   6.240
10647SOL     OW32839   6.880   5.031   0.720
10647SOL    HW132840   6.789   5.047   0.683
10647SOL    HW232841   6.933   4.976   0.655
10648SOL     OW32842   4.613   2.812   6.878
10648SOL    HW132843   4.545   2.884   6.892
10648SOL    HW232844   4.578   2.746   6.812
10649SOL     OW32845   6.929   4.718   5.860
10649SOL    HW132846   6.919   4.700   5.958
10649SOL    HW232847   7.016   4.680   5.828
10650SOL     OW32848   3.012   6.250   3.552
10650SOL    HW132849   3.028   6.312   3.629
10650SOL    HW232850   2.988   6.159   3.585
10651SOL     OW32851   4.620   6.293   6.416
10651SOL    HW132852   4.714   6.259   6.410
10651SOL    HW232853   4.605   6.336   6.505
10652SOL     OW32854   3.251   0.512   6.175
10652SOL    HW132855   3.201   0.437   6.132
10652SOL    HW232856   3.208   0.535   6.263
10653SOL     OW32857   5.231   3.493   4.105
10653SOL    HW132858   5.251   3.517   4.200
10653SOL    HW232859   5.132   3.494   4.091
10654SOL     OW32860   3.979   1.034   0.271
10654SOL    HW132861   4.065   1.010   0.226
10654SOL    HW232862   3.998   1.082   0.356
10655SOL     OW32863   2.871   6.183   1.272
10655SOL    HW132864   2.791   6.242   1.275
10655SOL    HW232865   2.922   6.201   1.188
10656SOL     OW32866   6.544   2.546   6.696
10656SOL    HW132867   6.475   2.479   6.721
10656SOL    HW232868   6.527   2.632   6.744
10657SOL     OW32869   6.285   0.802   0.981
10657SOL    HW132870   6.296   0.799   1.080
10657SOL    HW232871   6.187   0.802   0.958
10658SOL     OW32872   0.119   5.579   4.597
10658SOL    HW132873   0.046   5.511   4.594
10658SOL    HW232874   0.104   5.640   4.675
10659SOL     OW32875   6.081   0.380   0.061
10659SOL    HW132876   6.148   0.340   7.022
10659SOL    HW232877   6.123   0.392   0.151
10660SOL     OW32878   4.684   5.216   5.815
10660SOL    HW132879   4.669   5.231   5.717
10660SOL    HW232880   4.595   5.205   5.861
10661SOL     OW32881   0.325   6.706   2.512
10661SOL    HW132882   0.383   6.646   2.457
10661SOL    HW232883   0.310   6.792   2.463
10662SOL     OW32884   5.657   1.435   0.783
10662SOL    HW132885   5.692   1.507   0.843
10662SOL    HW232886   5.615   1.363   0.838
10663SOL     OW32887   6.735   0.321   0.162
10663SOL    HW132888   6.741   0.288   0.068
10663SOL    HW232889   6.816   0.377   0.182
10664SOL     OW32890   2.094   5.523   0.120
10664SOL    HW132891   2.083   5.619   0.145
10664SOL    HW232892   2.077   5.465   0.199
10665SOL     OW32893   6.432   1.804   1.044
10665SOL    HW132894   6.418   1.814   0.945
10665SOL    HW232895   6.529   1.790   1.062
10666SOL     OW32896   1.586   6.980   0.105
10666SOL    HW132897   1.610   7.008   0.012
10666SOL    HW232898   1.628   0.020   0.171
10667SOL     OW32899   3.381   2.027   5.377
10667SOL    HW132900   3.284   2.013   5.399
10667SOL    HW232901   3.415   2.108   5.424
10668SOL     OW32902   1.337   1.126   5.807
10668SOL    HW132903   1.357   1.211   5.757
10668SOL    HW232904   1.251   1.087   5.772
10669SOL     OW32905   1.184   6.955   0.053
10669SOL    HW132906   1.180   6.867   0.101
10669SOL    HW232907   1.099   7.005   0.069
10670SOL     OW32908   6.309   4.551   5.590
10670SOL    HW132909   6.249   4.622   5.627
10670SOL    HW232910   6.272   4.518   5.504
10671SOL     OW32911   2.165   1.068   3.541
10671SOL    HW132912   2.259   1.101   3.532
10671SOL    HW232913   2.144   1.008   3.464
10672SOL     OW32914   0.324   2.901   1.299
10672SOL    HW132915   0.357   2.889   1.206
10672SOL    HW232916   0.385   2.855   1.363
10673SOL     OW32917   2.647   2.880   5.339
10673SOL    HW132918   2.586   2.951   5.303
10673SOL    HW232919   2.730   2.923   5.374
10674SOL     OW32920   3.567   2.708   1.384
10674SOL    HW132921   3.534   2.802   1.396
10674SOL    HW232922   3.614   2.679   1.467
10675SOL     OW32923   0.373   0.588   5.697
10675SOL    HW132924   0.345   0.682   5.678
10675SOL    HW232925   0.324   0.553   5.776
10676SOL     OW32926   6.507   0.174   6.388
10676SOL    HW132927   6.497   0.095   6.327
10676SOL    HW232928   6.514   0.142   6.483
10677SOL     OW32929   0.190   0.170   0.742
10677SOL    HW132930   0.129   0.248   0.732
10677SOL    HW232931   0.240   0.177   0.829
10678SOL     OW32932   2.985   6.240   3.055
10678SOL    HW132933   2.946   6.308   3.116
10678SOL    HW232934   2.911   6.187   3.013
10679SOL     OW32935   5.265   4.909   4.354
10679SOL    HW132936   5.188   4.929   4.415
10679SOL    HW232937   5.348   4.894   4.408
10680SOL     OW32938   1.138   2.483   3.130
10680SOL    HW132939   1.231   2.463   3.099
10680SOL    HW232940   1.141   2.555   3.199
10681SOL     OW32941   0.319   1.633   6.179
10681SOL    HW132942   0.391   1.610   6.114
10681SOL    HW232943   0.343   1.597   6.269
10682SOL     OW32944   6.833   1.814   2.932
10682SOL    HW132945   6.845   1.904   2.891
10682SOL    HW232946   6.921   1.766   2.935
10683SOL     OW32947   1.690   1.565   4.742
10683SOL    HW132948   1.593   1.544   4.732
10683SOL    HW232949   1.707   1.658   4.710
10684SOL     OW32950   5.979   5.149   0.202
10684SOL    HW132951   6.042   5.202   0.257
10684SOL    HW232952   5.991   5.172   0.105
10685SOL     OW32953   0.115   2.893   2.672
10685SOL    HW132954   0.098   2.924   2.765
10685SOL    HW232955   0.033   2.910   2.616
10686SOL     OW32956   3.132   5.044   0.361
10686SOL    HW132957   3.168   5.119   0.305
10686SOL    HW232958   3.033   5.040   0.351
10687SOL     OW32959   0.098   4.475   3.079
10687SOL    HW132960   0.088   4.546   3.149
10687SOL    HW232961   0.170   4.502   3.015
10688SOL     OW32962   6.093   5.206   2.156
10688SOL    HW132963   6.155   5.173   2.085
10688SOL    HW232964   6.063   5.299   2.133
10689SOL     OW32965   0.385   0.817   2.683
10689SOL    HW132966   0.432   0.857   2.605
10689SOL    HW232967   0.449   0.804   2.758
10690SOL     OW32968   4.655   5.070   1.877
10690SOL    HW132969   4.740   5.087   1.827
10690SOL    HW232970   4.660   4.980   1.921
10691SOL     OW32971   6.788   1.375   1.832
10691SOL    HW132972   6.800   1.289   1.782
10691SOL    HW232973   6.772   1.356   1.929
10692SOL     OW32974   3.556   6.038   3.824
10692SOL    HW132975   3.621   6.002   3.757
10692SOL    HW232976   3.551   5.976   3.903
10693SOL     OW32977   6.606   2.137   1.897
10693SOL    HW132978   6.552   2.056   1.920
10693SOL    HW232979   6.684   2.109   1.841
10694SOL     OW32980   3.553   6.487   0.852
10694SOL    HW132981   3.541   6.575   0.805
10694SOL    HW232982   3.555   6.414   0.784
10695SOL     OW32983   6.772   2.891   3.827
10695SOL    HW132984   6.793   2.965   3.762
10695SOL    HW232985   6.733   2.931   3.911
10696SOL     OW32986   6.741   6.184   1.624
10696SOL    HW132987   6.772   6.242   1.699
10696SOL    HW232988   6.740   6.237   1.539
10697SOL     OW32989   2.698   5.564   3.614
10697SOL    HW132990   2.757   5.645   3.613
10697SOL    HW232991   2.638   5.567   3.694
10698SOL     OW32992   3.068   6.904   3.553
10698SOL    HW132993   3.141   6.883   3.487
10698SOL    HW232994   3.072   7.001   3.577
10699SOL     OW32995   2.377   2.325   3.141
10699SOL    HW132996   2.424   2.263   3.204
10699SOL    HW232997   2.444   2.385   3.098
10700SOL     OW32998   6.884   0.102   1.563
10700SOL    HW132999   6.813   0.033   1.577
10700SOL    HW233000   6.963   0.080   1.621
10701SOL     OW33001   3.419   6.396   0.611
10701SOL    HW133002   3.399   6.306   0.575
10701SOL    HW233003   3.479   6.445   0.548
10702SOL     OW33004   6.858   3.111   1.107
10702SOL    HW133005   6.921   3.080   1.178
10702SOL    HW233006   6.893   3.196   1.067
10703SOL     OW33007   3.994   3.870   3.806
10703SOL    HW133008   3.962   3.780   3.837
10703SOL    HW233009   3.917   3.922   3.770
10704SOL     OW33010   5.246   6.630   1.691
10704SOL    HW133011   5.245   6.530   1.690
10704SOL    HW233012   5.269   6.664   1.600
10705SOL     OW33013   0.231   2.671   6.809
10705SOL    HW133014   0.287   2.730   6.866
10705SOL    HW233015   0.290   2.617   6.748
10706SOL     OW33016   3.616   1.340   2.001
10706SOL    HW133017   3.561   1.257   1.991
10706SOL    HW233018   3.560   1.413   2.038
10707SOL     OW33019   6.034   0.205   6.089
10707SOL    HW133020   6.029   0.109   6.119
10707SOL    HW233021   6.129   0.233   6.084
10708SOL     OW33022   4.546   1.096   1.351
10708SOL    HW133023   4.518   1.057   1.439
10708SOL    HW233024   4.476   1.159   1.319
10709SOL     OW33025   0.480   5.683   5.716
10709SOL    HW133026   0.459   5.585   5.707
10709SOL    HW233027   0.443   5.717   5.802
10710SOL     OW33028   6.238   5.717   3.304
10710SOL    HW133029   6.174   5.643   3.286
10710SOL    HW233030   6.231   5.745   3.400
10711SOL     OW33031   1.836   5.899   4.409
10711SOL    HW133032   1.750   5.927   4.367
10711SOL    HW233033   1.879   5.829   4.352
10712SOL     OW33034   3.657   1.395   4.789
10712SOL    HW133035   3.606   1.439   4.715
10712SOL    HW233036   3.619   1.305   4.807
10713SOL     OW33037   0.983   5.648   1.506
10713SOL    HW133038   1.033   5.724   1.466
10713SOL    HW233039   1.023   5.561   1.476
10714SOL     OW33040   6.765   4.630   5.657
10714SOL    HW133041   6.815   4.679   5.728
10714SOL    HW233042   6.682   4.590   5.695
10715SOL     OW33043   5.854   1.364   4.075
10715SOL    HW133044   5.782   1.377   4.143
10715SOL    HW233045   5.827   1.407   3.989
10716SOL     OW33046   6.168   0.341   3.260
10716SOL    HW133047   6.172   0.323   3.359
10716SOL    HW233048   6.211   0.265   3.211
10717SOL     OW33049   0.102   6.324   1.948
10717SOL    HW133050   0.121   6.256   1.877
10717SOL    HW233051   0.128   6.415   1.914
10718SOL     OW33052   6.911   4.424   6.818
10718SOL    HW133053   6.911   4.345   6.880
10718SOL    HW233054   7.005   4.454   6.803
10719SOL     OW33055   4.562   0.873   2.016
10719SOL    HW133056   4.522   0.958   2.051
10719SOL    HW233057   4.543   0.798   2.079
10720SOL     OW33058   0.544   3.899   0.065
10720SOL    HW133059   0.484   3.904   0.144
10720SOL    HW233060   0.618   3.834   0.083
10721SOL     OW33061   4.685   2.661   4.100
10721SOL    HW133062   4.655   2.680   4.193
10721SOL    HW233063   4.630   2.586   4.062
10722SOL     OW33064   0.249   4.186   0.198
10722SOL    HW133065   0.165   4.175   0.144
10722SOL    HW233066   0.241   4.133   0.282
10723SOL     OW33067   6.349   4.095   0.302
10723SOL    HW133068   6.322   4.163   0.233
10723SOL    HW233069   6.429   4.045   0.269
10724SOL     OW33070   3.450   6.637   5.624
10724SOL    HW133071   3.482   6.562   5.567
10724SOL    HW233072   3.374   6.607   5.681
10725SOL     OW33073   6.908   6.505   5.123
10725SOL    HW133074   6.952   6.573   5.183
10725SOL    HW233075   6.813   6.533   5.107
10726SOL     OW33076   5.137   0.658   4.605
10726SOL    HW133077   5.124   0.674   4.507
10726SOL    HW233078   5.235   0.651   4.625
10727SOL     OW33079   2.232   6.045   0.044
10727SOL    HW133080   2.261   6.012   6.977
10727SOL    HW233081   2.249   6.143   0.051
10728SOL     OW33082   5.690   5.777   3.702
10728SOL    HW133083   5.683   5.677   3.706
10728SOL    HW233084   5.773   5.802   3.651
10729SOL     OW33085   6.006   3.004   3.829
10729SOL    HW133086   6.081   2.939   3.816
10729SOL    HW233087   6.000   3.065   3.750
10730SOL     OW33088   1.922   5.901   3.111
10730SOL    HW133089   1.898   5.984   3.060
10730SOL    HW233090   2.014   5.872   3.086
10731SOL     OW33091   4.844   6.641   6.877
10731SOL    HW133092   4.825   6.563   6.937
10731SOL    HW233093   4.925   6.621   6.821
10732SOL     OW33094   6.200   5.945   3.145
10732SOL    HW133095   6.252   5.891   3.212
10732SOL    HW233096   6.103   5.944   3.170
10733SOL     OW33097   0.498   0.883   6.453
10733SOL    HW133098   0.457   0.916   6.538
10733SOL    HW233099   0.435   0.820   6.408
10734SOL     OW33100   1.077   1.176   4.650
10734SOL    HW133101   1.164   1.149   4.692
10734SOL    HW233102   1.059   1.272   4.669
10735SOL     OW33103   0.509   6.007   2.164
10735SOL    HW133104   0.433   6.042   2.218
10735SOL    HW233105   0.475   5.960   2.083
10736SOL     OW33106   5.587   6.267   4.083
10736SOL    HW133107   5.514   6.317   4.037
10736SOL    HW233108   5.593   6.296   4.178
10737SOL     OW33109   6.487   0.781   2.129
10737SOL    HW133110   6.549   0.800   2.053
10737SOL    HW233111   6.426   0.706   2.104
10738SOL     OW33112   3.907   1.427   1.184
10738SOL    HW133113   3.945   1.479   1.262
10738SOL    HW233114   3.933   1.331   1.192
10739SOL     OW33115   5.938   2.879   3.481
10739SOL    HW133116   5.983   2.818   3.546
10739SOL    HW233117   5.840   2.860   3.478
10740SOL     OW33118   2.315   0.324   5.826
10740SOL    HW133119   2.345   0.270   5.905
10740SOL    HW233120   2.384   0.317   5.754
10741SOL     OW33121   2.390   2.251   3.524
10741SOL    HW133122   2.328   2.224   3.598
10741SOL    HW233123   2.417   2.170   3.472
10742SOL     OW33124   6.222   6.239   2.455
10742SOL    HW133125   6.190   6.230   2.549
10742SOL    HW233126   6.275   6.323   2.446
10743SOL     OW33127   2.988   1.323   5.729
10743SOL    HW133128   2.890   1.342   5.738
10743SOL    HW233129   3.003   1.265   5.649
10744SOL     OW33130   2.148   1.026   0.543
10744SOL    HW133131   2.186   1.027   0.450
10744SOL    HW233132   2.215   0.987   0.605
10745SOL     OW33133   1.335   4.507   2.319
10745SOL    HW133134   1.364   4.412   2.304
10745SOL    HW233135   1.353   4.560   2.236
10746SOL     OW33136   1.943   6.442   6.612
10746SOL    HW133137   1.933   6.516   6.678
10746SOL    HW233138   2.037   6.409   6.612
10747SOL     OW33139   6.287   1.195   4.722
10747SOL    HW133140   6.318   1.227   4.811
10747SOL    HW233141   6.325   1.254   4.650
10748SOL     OW33142   3.571   6.373   1.353
10748SOL    HW133143   3.597   6.306   1.423
10748SOL    HW233144   3.640   6.445   1.349
10749SOL     OW33145   5.878   4.581   1.896
10749SOL    HW133146   5.799   4.530   1.862
10749SOL    HW233147   5.916   4.534   1.976
10750SOL     OW33148   4.337   2.114   4.184
10750SOL    HW133149   4.351   2.119   4.085
10750SOL    HW233150   4.249   2.070   4.203
10751SOL     OW33151   0.467   4.947   5.154
10751SOL    HW133152   0.557   4.919   5.121
10751SOL    HW233153   0.405   4.869   5.151
10752SOL     OW33154   6.463   6.214   0.519
10752SOL    HW133155   6.476   6.294   0.460
10752SOL    HW233156   6.370   6.215   0.555
10753SOL     OW33157   5.242   6.856   4.412
10753SOL    HW133158   5.212   6.945   4.378
10753SOL    HW233159   5.338   6.860   4.438
10754SOL     OW33160   0.693   3.937   2.758
10754SOL    HW133161   0.704   3.864   2.690
10754SOL    HW233162   0.702   4.026   2.714
10755SOL     OW33163   0.010   2.808   1.168
10755SOL    HW133164   0.093   2.752   1.165
10755SOL    HW233165   0.023   2.885   1.231
10756SOL     OW33166   0.585   1.199   0.272
10756SOL    HW133167   0.634   1.245   0.346
10756SOL    HW233168   0.487   1.199   0.293
10757SOL     OW33169   0.056   4.002   2.068
10757SOL    HW133170   6.998   4.055   2.043
10757SOL    HW233171   0.059   3.991   2.168
10758SOL     OW33172   0.493   0.519   6.652
10758SOL    HW133173   0.514   0.469   6.736
10758SOL    HW233174   0.579   0.542   6.605
10759SOL     OW33175   2.802   2.065   5.903
10759SOL    HW133176   2.842   1.979   5.871
10759SOL    HW233177   2.875   2.126   5.934
10760SOL     OW33178   1.004   5.227   0.177
10760SOL    HW133179   0.976   5.322   0.166
10760SOL    HW233180   1.100   5.224   0.207
10761SOL     OW33181   0.520   1.470   5.898
10761SOL    HW133182   0.582   1.408   5.849
10761SOL    HW233183   0.499   1.549   5.840
10762SOL     OW33184   3.000   6.036   6.518
10762SOL    HW133185   3.041   5.979   6.588
10762SOL    HW233186   3.028   6.131   6.531
10763SOL     OW33187   5.185   0.284   3.659
10763SOL    HW133188   5.267   0.298   3.603
10763SOL    HW233189   5.127   0.215   3.618
10764SOL     OW33190   4.703   0.537   4.463
10764SOL    HW133191   4.612   0.547   4.422
10764SOL    HW233192   4.773   0.548   4.391
10765SOL     OW33193   0.574   2.105   2.209
10765SOL    HW133194   0.494   2.082   2.154
10765SOL    HW233195   0.618   2.021   2.241
10766SOL     OW33196   1.683   5.124   6.921
10766SOL    HW133197   1.649   5.106   6.829
10766SOL    HW233198   1.783   5.127   6.920
10767SOL     OW33199   1.513   5.178   0.710
10767SOL    HW133200   1.464   5.242   0.769
10767SOL    HW233201   1.484   5.084   0.731
10768SOL     OW33202   5.345   5.488   0.222
10768SOL    HW133203   5.431   5.460   0.179
10768SOL    HW233204   5.282   5.519   0.151
10769SOL     OW33205   3.262   3.077   4.456
10769SOL    HW133206   3.289   3.173   4.454
10769SOL    HW233207   3.171   3.069   4.497
10770SOL     OW33208   5.859   0.055   3.301
10770SOL    HW133209   5.794   7.002   3.308
10770SOL    HW233210   5.912   0.061   3.386
10771SOL     OW33211   4.919   6.069   5.694
10771SOL    HW133212   4.842   6.133   5.701
10771SOL    HW233213   4.978   6.096   5.618
10772SOL     OW33214   5.368   5.914   2.308
10772SOL    HW133215   5.408   5.822   2.312
10772SOL    HW233216   5.410   5.972   2.377
10773SOL     OW33217   0.107   3.370   1.318
10773SOL    HW133218   0.151   3.290   1.358
10773SOL    HW233219   0.158   3.453   1.343
10774SOL     OW33220   0.707   2.580   0.650
10774SOL    HW133221   0.731   2.512   0.580
10774SOL    HW233222   0.790   2.625   0.682
10775SOL     OW33223   1.373   3.902   0.474
10775SOL    HW133224   1.362   4.001   0.483
10775SOL    HW233225   1.362   3.876   0.378
10776SOL     OW33226   1.026   2.608   3.689
10776SOL    HW133227   1.121   2.582   3.707
10776SOL    HW233228   0.990   2.553   3.614
10777SOL     OW33229   3.128   1.370   1.752
10777SOL    HW133230   3.223   1.348   1.730
10777SOL    HW233231   3.110   1.465   1.725
10778SOL     OW33232   6.129   0.329   3.564
10778SOL    HW133233   6.207   0.362   3.617
10778SOL    HW233234   6.047   0.380   3.590
10779SOL     OW33235   5.382   3.849   5.116
10779SOL    HW133236   5.423   3.827   5.028
10779SOL    HW233237   5.309   3.785   5.136
10780SOL     OW33238   2.143   5.611   5.103
10780SOL    HW133239   2.216   5.545   5.083
10780SOL    HW233240   2.073   5.606   5.033
10781SOL     OW33241   5.879   2.152   5.059
10781SOL    HW133242   5.930   2.066   5.061
10781SOL    HW233243   5.794   2.139   5.008
10782SOL     OW33244   1.380   2.094   5.306
10782SOL    HW133245   1.391   2.088   5.207
10782SOL    HW233246   1.291   2.134   5.328
10783SOL     OW33247   1.289   2.732   3.534
10783SOL    HW133248   1.361   2.672   3.499
10783SOL    HW233249   1.324   2.786   3.610
10784SOL     OW33250   3.487   5.423   2.668
10784SOL    HW133251   3.520   5.432   2.762
10784SOL    HW233252   3.563   5.435   2.605
10785SOL     OW33253   1.410   5.369   2.119
10785SOL    HW133254   1.425   5.328   2.209
10785SOL    HW233255   1.395   5.297   2.051
10786SOL     OW33256   4.259   1.279   2.025
10786SOL    HW133257   4.323   1.352   2.051
10786SOL    HW233258   4.222   1.298   1.934
10787SOL     OW33259   4.578   0.665   3.233
10787SOL    HW133260   4.507   0.722   3.272
10787SOL    HW233261   4.602   0.592   3.297
10788SOL     OW33262   1.558   4.082   0.077
10788SOL    HW133263   1.519   4.016   0.142
10788SOL    HW233264   1.484   4.138   0.038
10789SOL     OW33265   6.547   1.566   1.738
10789SOL    HW133266   6.514   1.491   1.795
10789SOL    HW233267   6.518   1.552   1.643
10790SOL     OW33268   0.644   1.731   5.334
10790SOL    HW133269   0.580   1.698   5.403
10790SOL    HW233270   0.597   1.740   5.246
10791SOL     OW33271   1.202   1.894   4.254
10791SOL    HW133272   1.237   1.986   4.235
10791SOL    HW233273   1.192   1.844   4.168
10792SOL     OW33274   3.988   1.768   2.047
10792SOL    HW133275   3.964   1.673   2.067
10792SOL    HW233276   3.908   1.826   2.063
10793SOL     OW33277   4.530   2.107   4.702
10793SOL    HW133278   4.504   2.104   4.606
10793SOL    HW233279   4.609   2.167   4.714
10794SOL     OW33280   5.209   2.271   0.574
10794SOL    HW133281   5.218   2.244   0.478
10794SOL    HW233282   5.113   2.268   0.601
10795SOL     OW33283   0.327   3.748   3.621
10795SOL    HW133284   0.415   3.721   3.583
10795SOL    HW233285   0.274   3.666   3.642
10796SOL     OW33286   0.407   6.645   5.741
10796SOL    HW133287   0.476   6.717   5.753
10796SOL    HW233288   0.316   6.684   5.755
10797SOL     OW33289   4.371   4.501   6.568
10797SOL    HW133290   4.309   4.573   6.536
10797SOL    HW233291   4.361   4.420   6.510
10798SOL     OW33292   1.554   0.043   6.869
10798SOL    HW133293   1.578   0.091   6.784
10798SOL    HW233294   1.462   0.004   6.860
10799SOL     OW33295   3.404   1.146   2.797
10799SOL    HW133296   3.372   1.117   2.887
10799SOL    HW233297   3.498   1.114   2.783
10800SOL     OW33298   2.126   0.103   5.700
10800SOL    HW133299   2.174   0.070   5.781
10800SOL    HW233300   2.194   0.136   5.633
10801SOL     OW33301   2.116   6.287   5.875
10801SOL    HW133302   2.106   6.380   5.911
10801SOL    HW233303   2.196   6.244   5.916
10802SOL     OW33304   0.871   4.754   4.592
10802SOL    HW133305   0.845   4.850   4.605
10802SOL    HW233306   0.818   4.715   4.516
10803SOL     OW33307   0.516   3.963   4.783
10803SOL    HW133308   0.428   3.986   4.825
10803SOL    HW233309   0.550   4.042   4.733
10804SOL     OW33310   4.986   4.878   1.372
10804SOL    HW133311   4.896   4.843   1.345
10804SOL    HW233312   5.053   4.804   1.371
10805SOL     OW33313   3.756   6.293   0.324
10805SOL    HW133314   3.799   6.284   0.234
10805SOL    HW233315   3.825   6.316   0.392
10806SOL     OW33316   5.695   4.025   6.908
10806SOL    HW133317   5.612   3.996   6.955
10806SOL    HW233318   5.775   3.980   6.949
10807SOL     OW33319   4.818   0.033   3.614
10807SOL    HW133320   4.721   0.010   3.617
10807SOL    HW233321   4.835   0.113   3.671
10808SOL     OW33322   0.379   2.827   7.015
10808SOL    HW133323   0.320   2.864   0.064
10808SOL    HW233324   0.472   2.861   0.004
10809SOL     OW33325   3.374   0.697   3.084
10809SOL    HW133326   3.407   0.791   3.079
10809SOL    HW233327   3.390   0.651   2.997
10810SOL     OW33328   0.699   2.044   6.452
10810SOL    HW133329   0.706   2.144   6.446
10810SOL    HW233330   0.690   2.005   6.361
10811SOL     OW33331   4.925   4.546   5.522
10811SOL    HW133332   4.897   4.540   5.618
10811SOL    HW233333   4.912   4.458   5.478
10812SOL     OW33334   6.499   2.333   2.564
10812SOL    HW133335   6.567   2.366   2.630
10812SOL    HW233336   6.532   2.349   2.471
10813SOL     OW33337   2.404   5.620   2.400
10813SOL    HW133338   2.374   5.647   2.491
10813SOL    HW233339   2.502   5.637   2.391
10814SOL     OW33340   1.782   6.455   5.302
10814SOL    HW133341   1.862   6.484   5.355
10814SOL    HW233342   1.705   6.438   5.364
10815SOL     OW33343   4.547   2.570   3.175
10815SOL    HW133344   4.571   2.482   3.216
10815SOL    HW233345   4.472   2.612   3.227
10816SOL     OW33346   2.103   1.937   2.337
10816SOL    HW133347   2.071   2.031   2.339
10816SOL    HW233348   2.194   1.933   2.297
10817SOL     OW33349   5.022   6.627   2.102
10817SOL    HW133350   4.946   6.642   2.038
10817SOL    HW233351   4.994   6.655   2.194
10818SOL     OW33352   4.591   3.172   6.920
10818SOL    HW133353   4.656   3.177   6.844
10818SOL    HW233354   4.641   3.156   7.005
10819SOL     OW33355   0.558   3.966   6.267
10819SOL    HW133356   0.640   3.927   6.225
10819SOL    HW233357   0.477   3.934   6.217
10820SOL     OW33358   0.325   0.073   4.328
10820SOL    HW133359   0.230   0.103   4.343
10820SOL    HW233360   0.356   0.104   4.238
10821SOL     OW33361   6.933   6.979   0.157
10821SOL    HW133362   6.865   6.972   0.230
10821SOL    HW233363   6.985   0.041   0.167
10822SOL     OW33364   1.432   4.906   0.799
10822SOL    HW133365   1.479   4.828   0.841
10822SOL    HW233366   1.341   4.915   0.838
10823SOL     OW33367   1.285   1.601   1.857
10823SOL    HW133368   1.271   1.525   1.793
10823SOL    HW233369   1.380   1.601   1.888
10824SOL     OW33370   5.561   0.442   3.083
10824SOL    HW133371   5.621   0.386   3.139
10824SOL    HW233372   5.616   0.495   3.017
10825SOL     OW33373   3.692   1.957   0.732
10825SOL    HW133374   3.709   1.863   0.703
10825SOL    HW233375   3.593   1.974   0.731
10826SOL     OW33376   6.762   3.026   1.529
10826SOL    HW133377   6.667   3.002   1.511
10826SOL    HW233378   6.766   3.110   1.583
10827SOL     OW33379   1.109   2.331   4.278
10827SOL    HW133380   1.121   2.395   4.353
10827SOL    HW233381   1.040   2.365   4.215
10828SOL     OW33382   1.347   6.285   0.009
10828SOL    HW133383   1.377   6.248   0.097
10828SOL    HW233384   1.426   6.326   6.985
10829SOL     OW33385   2.574   3.723   1.581
10829SOL    HW133386   2.527   3.794   1.528
10829SOL    HW233387   2.508   3.652   1.607
10830SOL     OW33388   4.947   1.689   3.728
10830SOL    HW133389   4.941   1.595   3.762
10830SOL    HW233390   5.042   1.715   3.716
10831SOL     OW33391   5.238   2.782   3.493
10831SOL    HW133392   5.200   2.829   3.573
10831SOL    HW233393   5.210   2.830   3.410
10832SOL     OW33394   7.013   2.628   1.790
10832SOL    HW133395   6.982   2.696   1.724
10832SOL    HW233396   0.060   2.570   1.749
10833SOL     OW33397   2.913   6.861   4.228
10833SOL    HW133398   2.891   6.954   4.259
10833SOL    HW233399   2.877   6.847   4.136
10834SOL     OW33400   7.004   1.188   5.751
10834SOL    HW133401   6.958   1.267   5.713
10834SOL    HW233402   0.079   1.206   5.758
10835SOL     OW33403   6.823   2.064   2.094
10835SOL    HW133404   6.873   2.092   2.011
10835SOL    HW233405   6.798   2.145   2.146
10836SOL     OW33406   1.290   2.580   0.202
10836SOL    HW133407   1.246   2.635   0.274
10836SOL    HW233408   1.261   2.614   0.113
10837SOL     OW33409   0.770   6.204   1.251
10837SOL    HW133410   0.804   6.280   1.307
10837SOL    HW233411   0.685   6.170   1.291
10838SOL     OW33412   6.408   6.666   1.328
10838SOL    HW133413   6.403   6.599   1.403
10838SOL    HW233414   6.504   6.688   1.310
10839SOL     OW33415   2.247   1.546   0.621
10839SOL    HW133416   2.181   1.613   0.654
10839SOL    HW233417   2.199   1.471   0.576
10840SOL     OW33418   3.894   4.936   2.597
10840SOL    HW133419   3.894   4.903   2.691
10840SOL    HW233420   3.873   5.034   2.596
10841SOL     OW33421   4.987   3.845   5.531
10841SOL    HW133422   4.900   3.868   5.487
10841SOL    HW233423   4.974   3.768   5.594
10842SOL     OW33424   6.808   2.979   0.866
10842SOL    HW133425   6.711   2.954   0.856
10842SOL    HW233426   6.824   3.013   0.958
10843SOL     OW33427   0.441   1.094   1.855
10843SOL    HW133428   0.355   1.145   1.859
10843SOL    HW233429   0.486   1.110   1.767
10844SOL     OW33430   3.564   6.684   3.568
10844SOL    HW133431   3.641   6.740   3.599
10844SOL    HW233432   3.592   6.631   3.488
10845SOL     OW33433   1.358   2.717   1.025
10845SOL    HW133434   1.291   2.769   0.972
10845SOL    HW233435   1.367   2.757   1.116
10846SOL     OW33436   3.658   2.147   1.679
10846SOL    HW133437   3.685   2.200   1.759
10846SOL    HW233438   3.598   2.072   1.708
10847SOL     OW33439   3.596   2.669   5.700
10847SOL    HW133440   3.625   2.756   5.659
10847SOL    HW233441   3.663   2.598   5.677
10848SOL     OW33442   1.581   1.311   0.717
10848SOL    HW133443   1.600   1.303   0.619
10848SOL    HW233444   1.533   1.230   0.749
10849SOL     OW33445   2.554   4.893   4.405
10849SOL    HW133446   2.642   4.896   4.358
10849SOL    HW233447   2.555   4.820   4.473
10850SOL     OW33448   5.636   0.864   1.775
10850SOL    HW133449   5.647   0.963   1.773
10850SOL    HW233450   5.720   0.821   1.741
10851SOL     OW33451   4.144   2.475   6.277
10851SOL    HW133452   4.174   2.393   6.228
10851SOL    HW233453   4.180   2.556   6.232
10852SOL     OW33454   0.524   6.716   6.170
10852SOL    HW133455   0.455   6.672   6.112
10852SOL    HW233456   0.551   6.803   6.130
10853SOL     OW33457   1.872   1.370   4.824
10853SOL    HW133458   1.969   1.365   4.798
10853SOL    HW233459   1.833   1.455   4.789
10854SOL     OW33460   0.469   6.385   0.253
10854SOL    HW133461   0.427   6.444   0.183
10854SOL    HW233462   0.568   6.384   0.241
10855SOL     OW33463   1.400   6.135   1.817
10855SOL    HW133464   1.436   6.220   1.780
10855SOL    HW233465   1.464   6.098   1.885
10856SOL     OW33466   5.946   0.324   6.303
10856SOL    HW133467   5.972   0.279   6.218
10856SOL    HW233468   5.922   0.254   6.371
10857SOL     OW33469   6.027   0.293   4.851
10857SOL    HW133470   6.085   0.366   4.815
10857SOL    HW233471   5.947   0.282   4.792
10858SOL     OW33472   2.461   2.154   7.006
10858SOL    HW133473   2.524   2.077   7.017
10858SOL    HW233474   2.484   2.226   0.047
10859SOL     OW33475   0.619   5.362   2.282
10859SOL    HW133476   0.665   5.399   2.201
10859SOL    HW233477   0.602   5.435   2.348
10860SOL     OW33478   5.864   3.287   0.936
10860SOL    HW133479   5.891   3.322   1.026
10860SOL    HW233480   5.876   3.188   0.934
10861SOL     OW33481   3.541   2.798   1.957
10861SOL    HW133482   3.521   2.773   1.862
10861SOL    HW233483   3.633   2.767   1.982
10862SOL     OW33484   3.608   3.220   5.869
10862SOL    HW133485   3.608   3.276   5.786
10862SOL    HW233486   3.549   3.262   5.937
10863SOL     OW33487   2.580   0.950   3.014
10863SOL    HW133488   2.573   0.925   3.110
10863SOL    HW233489   2.512   1.021   2.993
10864SOL     OW33490   3.160   4.511   1.662
10864SOL    HW133491   3.077   4.507   1.718
10864SOL    HW233492   3.139   4.481   1.569
10865SOL     OW33493   3.652   1.260   2.550
10865SOL    HW133494   3.677   1.199   2.625
10865SOL    HW233495   3.622   1.205   2.471
10866SOL     OW33496   6.978   3.597   2.946
10866SOL    HW133497   6.882   3.594   2.918
10866SOL    HW233498   7.004   3.508   2.984
10867SOL     OW33499   4.382   3.590   0.629
10867SOL    HW133500   4.398   3.669   0.688
10867SOL    HW233501   4.459   3.527   0.637
10868SOL     OW33502   1.582   0.512   5.377
10868SOL    HW133503   1.680   0.525   5.390
10868SOL    HW233504   1.565   0.475   5.286
10869NA      NA33505   0.121   1.574   6.040
10870NA      NA33506   4.547   4.600   5.087
10871NA      NA33507   1.355   5.160   2.928
10872NA      NA33508   5.945   3.866   3.412
10873NA      NA33509   3.715   2.314   5.387
10874NA      NA33510   2.236   5.091   0.385
10875NA      NA33511   1.275   5.393   6.871
10876NA      NA33512   3.800   4.374   0.901
10877NA      NA33513   4.215   4.953   0.399
10878NA      NA33514   3.309   0.987   6.554
10879NA      NA33515   5.605   0.114   1.613
10880NA      NA33516   2.358   6.568   5.256
10881NA      NA33517   4.156   5.295   1.585
10882NA      NA33518   3.582   3.257   6.418
   7.02317   7.02317   7.02317
